<event>
 4    1  0.4102458E+000  0.1927617E+03  0.7546771E-02  0.1155994E+00
         21   -1    0    0  501  502  0.00000000000E+00  0.00000000000E+00  0.84733434321E+02  0.84733434321E+02  0.00000000000E+00 0. -1.
         21   -1    0    0  502  503 -0.00000000000E+00 -0.00000000000E+00 -0.57758352248E+03  0.57758352248E+03  0.00000000000E+00 0. -1.
          6    1    1    2  501    0 -0.84206024689E+02 -0.11722740169E+02 -0.83930305831E+02  0.21024122685E+03  0.17300000000E+03 0. -1.
         -6    1    1    2    0  503  0.84206024689E+02  0.11722740169E+02 -0.40891978233E+03  0.45207572995E+03  0.17300000000E+03 0. -1.
<mgrwt>
<rscale>  2 0.19276171E+03</rscale>
<asrwt>0</asrwt>
<pdfrwt beam="1">  1       21 0.13035913E-01 0.19276171E+03</pdfrwt>
<pdfrwt beam="2">  1       21 0.88859001E-01 0.19276171E+03</pdfrwt>
<totfact> 0.54728441E+04</totfact>
</mgrwt>
</event>
<event>
 4    1  0.4102458E+000  0.2072423E+03  0.7546771E-02  0.1143769E+00
         21   -1    0    0  501  502  0.00000000000E+00  0.00000000000E+00  0.18050469964E+03  0.18050469964E+03  0.00000000000E+00 0. -1.
         21   -1    0    0  502  503 -0.00000000000E+00 -0.00000000000E+00 -0.34695215238E+03  0.34695215238E+03  0.00000000000E+00 0. -1.
          6    1    1    2  501    0 -0.10047345149E+03 -0.54087339499E+02  0.64605012878E+02  0.21707870102E+03  0.17300000000E+03 0. -1.
         -6    1    1    2    0  503  0.10047345149E+03  0.54087339499E+02 -0.23105246562E+03  0.31037815100E+03  0.17300000000E+03 0. -1.
<mgrwt>
<rscale>  2 0.20724226E+03</rscale>
<asrwt>0</asrwt>
<pdfrwt beam="1">  1       21 0.27769954E-01 0.20724226E+03</pdfrwt>
<pdfrwt beam="2">  1       21 0.53377253E-01 0.20724226E+03</pdfrwt>
<totfact> 0.40827470E+04</totfact>
</mgrwt>
</event>
<event>
 4    1  0.4102458E+000  0.1877290E+03  0.7546771E-02  0.1160526E+00
         21   -1    0    0  503  502  0.00000000000E+00  0.00000000000E+00  0.60000903269E+03  0.60000903269E+03  0.00000000000E+00 0. -1.
         21   -1    0    0  501  503 -0.00000000000E+00 -0.00000000000E+00 -0.14904967027E+03  0.14904967027E+03  0.00000000000E+00 0. -1.
          6    1    1    2  501    0  0.52797638565E+02 -0.50255202817E+02 -0.66059488380E+02  0.19901264295E+03  0.17300000000E+03 0. -1.
         -6    1    1    2    0  502 -0.52797638565E+02  0.50255202817E+02  0.51701885080E+03  0.55004606001E+03  0.17300000000E+03 0. -1.
<mgrwt>
<rscale>  2 0.18772900E+03</rscale>
<asrwt>0</asrwt>
<pdfrwt beam="1">  1       21 0.92309081E-01 0.18772900E+03</pdfrwt>
<pdfrwt beam="2">  1       21 0.22930719E-01 0.18772900E+03</pdfrwt>
<totfact> 0.17736809E+04</totfact>
</mgrwt>
</event>
<event>
 4    1  0.4102458E+000  0.1940451E+03  0.7546771E-02  0.1154863E+00
         21   -1    0    0  501  502  0.00000000000E+00  0.00000000000E+00  0.13963709027E+03  0.13963709027E+03  0.00000000000E+00 0.  1.
         21   -1    0    0  502  503 -0.00000000000E+00 -0.00000000000E+00 -0.30088841878E+03  0.30088841878E+03  0.00000000000E+00 0.  1.
          6    1    1    2  501    0 -0.76193794608E+02 -0.43806431087E+02 -0.96572483769E+01  0.19428525468E+03  0.17300000000E+03 0.  1.
         -6    1    1    2    0  503  0.76193794608E+02  0.43806431087E+02 -0.15159408013E+03  0.24624025437E+03  0.17300000000E+03 0.  1.
<mgrwt>
<rscale>  2 0.19404509E+03</rscale>
<asrwt>0</asrwt>
<pdfrwt beam="1">  1       21 0.21482629E-01 0.19404509E+03</pdfrwt>
<pdfrwt beam="2">  1       21 0.46290526E-01 0.19404509E+03</pdfrwt>
<totfact> 0.90208737E+04</totfact>
</mgrwt>
</event>
<event>
 4    1  0.4102458E+000  0.1879011E+03  0.7546771E-02  0.1160368E+00
         21   -1    0    0  501  502  0.00000000000E+00  0.00000000000E+00  0.24651234315E+03  0.24651234315E+03  0.00000000000E+00 0. -1.
         21   -1    0    0  502  503 -0.00000000000E+00 -0.00000000000E+00 -0.71986093969E+03  0.71986093969E+03  0.00000000000E+00 0.  1.
          6    1    1    2  501    0  0.33103621746E+00 -0.73332896759E+02  0.19578110312E+03  0.27136149998E+03  0.17300000000E+03 0. -1.
         -6    1    1    2    0  503 -0.33103621746E+00  0.73332896759E+02 -0.66912969966E+03  0.69501178285E+03  0.17300000000E+03 0.  1.
<mgrwt>
<rscale>  2 0.18790110E+03</rscale>
<asrwt>0</asrwt>
<pdfrwt beam="1">  1       21 0.37924976E-01 0.18790110E+03</pdfrwt>
<pdfrwt beam="2">  1       21 0.11074784E+00 0.18790110E+03</pdfrwt>
<totfact> 0.43248148E+03</totfact>
</mgrwt>
</event>
<event>
 4    1  0.4102458E+000  0.1812545E+03  0.7546771E-02  0.1166594E+00
         21   -1    0    0  503  502  0.00000000000E+00  0.00000000000E+00  0.20546479773E+04  0.20546479773E+04  0.00000000000E+00 0.  1.
         21   -1    0    0  501  503 -0.00000000000E+00 -0.00000000000E+00 -0.16395247992E+02  0.16395247992E+02  0.00000000000E+00 0.  1.
          6    1    1    2  501    0  0.53077604391E+02 -0.10342516835E+02  0.85626329780E+03  0.87523713067E+03  0.17300000000E+03 0.  1.
         -6    1    1    2    0  502 -0.53077604391E+02  0.10342516835E+02  0.11819894315E+04  0.11958060947E+04  0.17300000000E+03 0.  1.
<mgrwt>
<rscale>  2 0.18125452E+03</rscale>
<asrwt>0</asrwt>
<pdfrwt beam="1">  1       21 0.31609948E+00 0.18125452E+03</pdfrwt>
<pdfrwt beam="2">  1       21 0.25223475E-02 0.18125452E+03</pdfrwt>
<totfact> 0.23496709E+04</totfact>
</mgrwt>
</event>
<event>
 4    1  0.4102458E+000  0.1759322E+03  0.7546771E-02  0.1171799E+00
         21   -1    0    0  501  502  0.00000000000E+00  0.00000000000E+00  0.26790943018E+03  0.26790943018E+03  0.00000000000E+00 0.  1.
         21   -1    0    0  502  503 -0.00000000000E+00 -0.00000000000E+00 -0.11727145645E+03  0.11727145645E+03  0.00000000000E+00 0.  1.
          6    1    1    2  501    0  0.31027254493E+02  0.77743320283E+01  0.98774057498E+02  0.20176333957E+03  0.17300000000E+03 0.  1.
         -6    1    1    2    0  503 -0.31027254493E+02 -0.77743320283E+01  0.51863916233E+02  0.18341754705E+03  0.17300000000E+03 0.  1.
<mgrwt>
<rscale>  2 0.17593218E+03</rscale>
<asrwt>0</asrwt>
<pdfrwt beam="1">  1       21 0.41216835E-01 0.17593218E+03</pdfrwt>
<pdfrwt beam="2">  1       21 0.18041763E-01 0.17593218E+03</pdfrwt>
<totfact> 0.15931981E+05</totfact>
</mgrwt>
</event>
<event>
 4    1  0.4102458E+000  0.2405840E+03  0.7546771E-02  0.1119404E+00
         21   -1    0    0  503  502  0.00000000000E+00  0.00000000000E+00  0.19983170529E+04  0.19983170529E+04  0.00000000000E+00 0. -1.
         21   -1    0    0  501  503 -0.00000000000E+00 -0.00000000000E+00 -0.29389996704E+02  0.29389996704E+02  0.00000000000E+00 0.  1.
          6    1    1    2  501    0  0.14723758185E+02  0.16653791754E+03  0.86250333317E+03  0.89542876141E+03  0.17300000000E+03 0. -1.
         -6    1    1    2    0  502 -0.14723758185E+02 -0.16653791754E+03  0.11064237230E+04  0.11322782882E+04  0.17300000000E+03 0. -1.
<mgrwt>
<rscale>  2 0.24058401E+03</rscale>
<asrwt>0</asrwt>
<pdfrwt beam="1">  1       21 0.30743329E+00 0.24058401E+03</pdfrwt>
<pdfrwt beam="2">  1       21 0.45215395E-02 0.24058401E+03</pdfrwt>
<totfact> 0.94023266E+03</totfact>
</mgrwt>
</event>
<event>
 4    1  0.4102458E+000  0.2578123E+03  0.7546771E-02  0.1108465E+00
         21   -1    0    0  501  502  0.00000000000E+00  0.00000000000E+00  0.73179650850E+03  0.73179650850E+03  0.00000000000E+00 0. -1.
         21   -1    0    0  502  503 -0.00000000000E+00 -0.00000000000E+00 -0.10101765624E+03  0.10101765624E+03  0.00000000000E+00 0.  1.
          6    1    1    2  501    0 -0.93406408374E+02  0.16677361008E+03  0.18313462858E+03  0.31623644054E+03  0.17300000000E+03 0. -1.
         -6    1    1    2    0  503  0.93406408374E+02 -0.16677361008E+03  0.44764422368E+03  0.51657772420E+03  0.17300000000E+03 0. -1.
<mgrwt>
<rscale>  2 0.25781232E+03</rscale>
<asrwt>0</asrwt>
<pdfrwt beam="1">  1       21 0.11258407E+00 0.25781232E+03</pdfrwt>
<pdfrwt beam="2">  1       21 0.15541178E-01 0.25781232E+03</pdfrwt>
<totfact> 0.21896629E+04</totfact>
</mgrwt>
</event>
<event>
 4    1  0.4102458E+000  0.2512862E+03  0.7546771E-02  0.1112495E+00
         21   -1    0    0  503  502  0.00000000000E+00  0.00000000000E+00  0.10662172450E+04  0.10662172450E+04  0.00000000000E+00 0. -1.
         21   -1    0    0  501  503 -0.00000000000E+00 -0.00000000000E+00 -0.60601627637E+02  0.60601627637E+02  0.00000000000E+00 0.  1.
          6    1    1    2  501    0 -0.54925317391E+02 -0.17377852273E+03  0.41783526080E+03  0.48757673306E+03  0.17300000000E+03 0. -1.
         -6    1    1    2    0  502  0.54925317391E+02  0.17377852273E+03  0.58778035660E+03  0.63924213961E+03  0.17300000000E+03 0.  1.
<mgrwt>
<rscale>  2 0.25128622E+03</rscale>
<asrwt>0</asrwt>
<pdfrwt beam="1">  1       21 0.16403341E+00 0.25128622E+03</pdfrwt>
<pdfrwt beam="2">  1       21 0.93233281E-02 0.25128622E+03</pdfrwt>
<totfact> 0.20825735E+04</totfact>
</mgrwt>
</event>
<event>
 4    1  0.4102458E+000  0.1767824E+03  0.7546771E-02  0.1170954E+00
         21   -1    0    0  501  502  0.00000000000E+00  0.00000000000E+00  0.76995668215E+03  0.76995668215E+03  0.00000000000E+00 0.  1.
         21   -1    0    0  502  503 -0.00000000000E+00 -0.00000000000E+00 -0.43833876309E+02  0.43833876309E+02  0.00000000000E+00 0.  1.
          6    1    1    2  501    0 -0.29010435719E+02 -0.21941154590E+02  0.47376334525E+03  0.50567156035E+03  0.17300000000E+03 0.  1.
         -6    1    1    2    0  503  0.29010435719E+02  0.21941154590E+02  0.25235946059E+03  0.30811899811E+03  0.17300000000E+03 0.  1.
<mgrwt>
<rscale>  2 0.17678241E+03</rscale>
<asrwt>0</asrwt>
<pdfrwt beam="1">  1       21 0.11845486E+00 0.17678241E+03</pdfrwt>
<pdfrwt beam="2">  1       21 0.67436738E-02 0.17678241E+03</pdfrwt>
<totfact> 0.88601949E+04</totfact>
</mgrwt>
</event>
<event>
 4    1  0.4102458E+000  0.5886273E+03  0.7546771E-02  0.9929286E-01
         21   -1    0    0  503  502  0.00000000000E+00  0.00000000000E+00  0.15574176123E+04  0.15574176123E+04  0.00000000000E+00 0.  1.
         21   -1    0    0  501  503 -0.00000000000E+00 -0.00000000000E+00 -0.29427348461E+03  0.29427348461E+03  0.00000000000E+00 0. -1.
          6    1    1    2  501    0  0.19682297475E+03 -0.52708050237E+03  0.17424273773E+03  0.61387512657E+03  0.17300000000E+03 0. -1.
         -6    1    1    2    0  502 -0.19682297475E+03  0.52708050237E+03  0.10889013900E+04  0.12378159703E+04  0.17300000000E+03 0.  1.
<mgrwt>
<rscale>  2 0.58862733E+03</rscale>
<asrwt>0</asrwt>
<pdfrwt beam="1">  1       21 0.23960271E+00 0.58862733E+03</pdfrwt>
<pdfrwt beam="2">  1       21 0.45272845E-01 0.58862733E+03</pdfrwt>
<totfact> 0.27019619E+02</totfact>
</mgrwt>
</event>
<event>
 4    1  0.4102458E+000  0.1927099E+03  0.7546771E-02  0.1156040E+00
         21   -1    0    0  501  502  0.00000000000E+00  0.00000000000E+00  0.26359002189E+03  0.26359002189E+03  0.00000000000E+00 0.  1.
         21   -1    0    0  502  503 -0.00000000000E+00 -0.00000000000E+00 -0.25334194024E+03  0.25334194024E+03  0.00000000000E+00 0.  1.
          6    1    1    2  501    0 -0.70776986753E+02  0.46890502427E+02  0.17732439161E+03  0.26187982154E+03  0.17300000000E+03 0.  1.
         -6    1    1    2    0  503  0.70776986753E+02 -0.46890502427E+02 -0.16707630995E+03  0.25505214059E+03  0.17300000000E+03 0.  1.
<mgrwt>
<rscale>  2 0.19270989E+03</rscale>
<asrwt>0</asrwt>
<pdfrwt beam="1">  1       21 0.40552311E-01 0.19270989E+03</pdfrwt>
<pdfrwt beam="2">  1       21 0.38975683E-01 0.19270989E+03</pdfrwt>
<totfact> 0.37186899E+04</totfact>
</mgrwt>
</event>
<event>
 4    1  0.4102458E+000  0.2097127E+03  0.7546771E-02  0.1141794E+00
         21   -1    0    0  501  502  0.00000000000E+00  0.00000000000E+00  0.77692414666E+02  0.77692414666E+02  0.00000000000E+00 0.  1.
         21   -1    0    0  502  503 -0.00000000000E+00 -0.00000000000E+00 -0.56728996785E+03  0.56728996785E+03  0.00000000000E+00 0.  1.
          6    1    1    2  501    0  0.91782888383E+02  0.75008909052E+02 -0.22985076204E+03  0.31114435211E+03  0.17300000000E+03 0.  1.
         -6    1    1    2    0  503 -0.91782888383E+02 -0.75008909052E+02 -0.25974679114E+03  0.33383803040E+03  0.17300000000E+03 0.  1.
<mgrwt>
<rscale>  2 0.20971274E+03</rscale>
<asrwt>0</asrwt>
<pdfrwt beam="1">  1       21 0.11952679E-01 0.20971274E+03</pdfrwt>
<pdfrwt beam="2">  1       21 0.87275381E-01 0.20971274E+03</pdfrwt>
<totfact> 0.66122078E+04</totfact>
</mgrwt>
</event>
<event>
 4    1  0.4102458E+000  0.2220720E+03  0.7546771E-02  0.1132348E+00
         21   -1    0    0  501  502  0.00000000000E+00  0.00000000000E+00  0.14525609373E+04  0.14525609373E+04  0.00000000000E+00 0.  1.
         21   -1    0    0  502  503 -0.00000000000E+00 -0.00000000000E+00 -0.53788054909E+02  0.53788054909E+02  0.00000000000E+00 0. -1.
          6    1    1    2  501    0  0.13923661718E+03 -0.35498024842E+00  0.11567807876E+04  0.11779039655E+04  0.17300000000E+03 0.  1.
         -6    1    1    2    0  503 -0.13923661718E+03  0.35498024842E+00  0.24199209478E+03  0.32844502662E+03  0.17300000000E+03 0. -1.
<mgrwt>
<rscale>  2 0.22207197E+03</rscale>
<asrwt>0</asrwt>
<pdfrwt beam="1">  1       21 0.22347088E+00 0.22207197E+03</pdfrwt>
<pdfrwt beam="2">  1       21 0.82750865E-02 0.22207197E+03</pdfrwt>
<totfact> 0.10572095E+04</totfact>
</mgrwt>
</event>
<event>
 4    1  0.4102458E+000  0.2924146E+03  0.7546771E-02  0.1089095E+00
         21   -1    0    0  503  502  0.00000000000E+00  0.00000000000E+00  0.42608650413E+03  0.42608650413E+03  0.00000000000E+00 0. -1.
         21   -1    0    0  501  503 -0.00000000000E+00 -0.00000000000E+00 -0.32502006099E+03  0.32502006099E+03  0.00000000000E+00 0.  1.
          6    1    1    2  501    0 -0.14086924727E+03  0.18903218964E+03 -0.18175382527E+03  0.34429749716E+03  0.17300000000E+03 0.  1.
         -6    1    1    2    0  502  0.14086924727E+03 -0.18903218964E+03  0.28282026842E+03  0.40680906796E+03  0.17300000000E+03 0. -1.
<mgrwt>
<rscale>  2 0.29241463E+03</rscale>
<asrwt>0</asrwt>
<pdfrwt beam="1">  1       21 0.65551770E-01 0.29241463E+03</pdfrwt>
<pdfrwt beam="2">  1       21 0.50003086E-01 0.29241463E+03</pdfrwt>
<totfact> 0.76800025E+03</totfact>
</mgrwt>
</event>
<event>
 4    1  0.4102458E+000  0.2903790E+03  0.7546771E-02  0.1090151E+00
         21   -1    0    0  501  502  0.00000000000E+00  0.00000000000E+00  0.37104242445E+03  0.37104242445E+03  0.00000000000E+00 0.  1.
         21   -1    0    0  502  503 -0.00000000000E+00 -0.00000000000E+00 -0.27883395677E+03  0.27883395677E+03  0.00000000000E+00 0. -1.
          6    1    1    2  501    0 -0.23196154166E+03 -0.24182190749E+02  0.18586300668E+03  0.34476802696E+03  0.17300000000E+03 0.  1.
         -6    1    1    2    0  503  0.23196154166E+03  0.24182190749E+02 -0.93654538999E+02  0.30510835425E+03  0.17300000000E+03 0. -1.
<mgrwt>
<rscale>  2 0.29037895E+03</rscale>
<asrwt>0</asrwt>
<pdfrwt beam="1">  1       21 0.57083450E-01 0.29037895E+03</pdfrwt>
<pdfrwt beam="2">  1       21 0.42897531E-01 0.29037895E+03</pdfrwt>
<totfact> 0.14295640E+04</totfact>
</mgrwt>
</event>
<event>
 4    1  0.4102458E+000  0.1833127E+03  0.7546771E-02  0.1164635E+00
         21   -1    0    0  503  502  0.00000000000E+00  0.00000000000E+00  0.71313876373E+03  0.71313876373E+03  0.00000000000E+00 0.  1.
         21   -1    0    0  501  503 -0.00000000000E+00 -0.00000000000E+00 -0.15103429780E+03  0.15103429780E+03  0.00000000000E+00 0.  1.
          6    1    1    2  501    0  0.34596750265E+02 -0.49775452602E+02 -0.77348859708E+02  0.19896325517E+03  0.17300000000E+03 0.  1.
         -6    1    1    2    0  502 -0.34596750265E+02  0.49775452602E+02  0.63945332564E+03  0.66520980636E+03  0.17300000000E+03 0.  1.
<mgrwt>
<rscale>  2 0.18331266E+03</rscale>
<asrwt>0</asrwt>
<pdfrwt beam="1">  1       21 0.10971365E+00 0.18331266E+03</pdfrwt>
<pdfrwt beam="2">  1       21 0.23236046E-01 0.18331266E+03</pdfrwt>
<totfact> 0.11516225E+04</totfact>
</mgrwt>
</event>
<event>
 4    1  0.4102458E+000  0.2179986E+03  0.7546771E-02  0.1135384E+00
         21   -1    0    0  501  502  0.00000000000E+00  0.00000000000E+00  0.24910037233E+04  0.24910037233E+04  0.00000000000E+00 0. -1.
         21   -1    0    0  502  503 -0.00000000000E+00 -0.00000000000E+00 -0.34851592244E+02  0.34851592244E+02  0.00000000000E+00 0. -1.
          6    1    1    2  501    0 -0.57098939392E+02 -0.11972501823E+03  0.20777112094E+04  0.20891163774E+04  0.17300000000E+03 0. -1.
         -6    1    1    2    0  503  0.57098939392E+02  0.11972501823E+03  0.37844092173E+03  0.43673893816E+03  0.17300000000E+03 0. -1.
<mgrwt>
<rscale>  2 0.21799855E+03</rscale>
<asrwt>0</asrwt>
<pdfrwt beam="1">  1       21 0.38323120E+00 0.21799855E+03</pdfrwt>
<pdfrwt beam="2">  1       21 0.53617854E-02 0.21799855E+03</pdfrwt>
<totfact> 0.25526284E+03</totfact>
</mgrwt>
</event>
<event>
 4    1  0.4102458E+000  0.2201626E+03  0.7546771E-02  0.1133762E+00
         21   -1    0    0  501  502  0.00000000000E+00  0.00000000000E+00  0.76945736569E+03  0.76945736569E+03  0.00000000000E+00 0. -1.
         21   -1    0    0  502  503 -0.00000000000E+00 -0.00000000000E+00 -0.82249880439E+02  0.82249880439E+02  0.00000000000E+00 0. -1.
          6    1    1    2  501    0 -0.13615286127E+03  0.22320623155E+01  0.54965190021E+03  0.59210539192E+03  0.17300000000E+03 0. -1.
         -6    1    1    2    0  503  0.13615286127E+03 -0.22320623155E+01  0.13755558504E+03  0.25960185421E+03  0.17300000000E+03 0. -1.
<mgrwt>
<rscale>  2 0.22016263E+03</rscale>
<asrwt>0</asrwt>
<pdfrwt beam="1">  1       21 0.11837805E+00 0.22016263E+03</pdfrwt>
<pdfrwt beam="2">  1       21 0.12653828E-01 0.22016263E+03</pdfrwt>
<totfact> 0.28686227E+04</totfact>
</mgrwt>
</event>
<event>
 4    1  0.4102458E+000  0.2513459E+03  0.7546771E-02  0.1112457E+00
         21   -1    0    0  501  502  0.00000000000E+00  0.00000000000E+00  0.26473065316E+03  0.26473065316E+03  0.00000000000E+00 0. -1.
         21   -1    0    0  502  503 -0.00000000000E+00 -0.00000000000E+00 -0.46265610367E+03  0.46265610367E+03  0.00000000000E+00 0. -1.
          6    1    1    2  501    0 -0.15607480171E+02  0.18166496446E+03  0.15411152215E+03  0.29483065310E+03  0.17300000000E+03 0. -1.
         -6    1    1    2    0  503  0.15607480171E+02 -0.18166496446E+03 -0.35203697266E+03  0.43255610373E+03  0.17300000000E+03 0. -1.
<mgrwt>
<rscale>  2 0.25134588E+03</rscale>
<asrwt>0</asrwt>
<pdfrwt beam="1">  1       21 0.40727793E-01 0.25134588E+03</pdfrwt>
<pdfrwt beam="2">  1       21 0.71177862E-01 0.25134588E+03</pdfrwt>
<totfact> 0.99995448E+03</totfact>
</mgrwt>
</event>
<event>
 4    1  0.4102458E+000  0.1751527E+03  0.7546771E-02  0.1172578E+00
         21   -1    0    0  501  502  0.00000000000E+00  0.00000000000E+00  0.35110296539E+03  0.35110296539E+03  0.00000000000E+00 0.  1.
         21   -1    0    0  502  503 -0.00000000000E+00 -0.00000000000E+00 -0.15377649283E+03  0.15377649283E+03  0.00000000000E+00 0.  1.
          6    1    1    2  501    0  0.25883809912E+02  0.89160953583E+01  0.26454313600E+03  0.31727202709E+03  0.17300000000E+03 0.  1.
         -6    1    1    2    0  503 -0.25883809912E+02 -0.89160953583E+01 -0.67216663435E+02  0.18760743113E+03  0.17300000000E+03 0.  1.
<mgrwt>
<rscale>  2 0.17515270E+03</rscale>
<asrwt>0</asrwt>
<pdfrwt beam="1">  1       21 0.54015841E-01 0.17515270E+03</pdfrwt>
<pdfrwt beam="2">  1       21 0.23657922E-01 0.17515270E+03</pdfrwt>
<totfact> 0.54963767E+04</totfact>
</mgrwt>
</event>
<event>
 4    1  0.4102458E+000  0.2233080E+03  0.7546771E-02  0.1131441E+00
         21   -1    0    0  503  502  0.00000000000E+00  0.00000000000E+00  0.38413003006E+03  0.38413003006E+03  0.00000000000E+00 0. -1.
         21   -1    0    0  501  503 -0.00000000000E+00 -0.00000000000E+00 -0.40805355588E+03  0.40805355588E+03  0.00000000000E+00 0.  1.
          6    1    1    2  501    0  0.13525171373E+03 -0.40551592755E+02 -0.33903473732E+03  0.40596922402E+03  0.17300000000E+03 0.  1.
         -6    1    1    2    0  502 -0.13525171373E+03  0.40551592755E+02  0.31511121149E+03  0.38621436192E+03  0.17300000000E+03 0. -1.
<mgrwt>
<rscale>  2 0.22330799E+03</rscale>
<asrwt>0</asrwt>
<pdfrwt beam="1">  1       21 0.59096928E-01 0.22330799E+03</pdfrwt>
<pdfrwt beam="2">  1       21 0.62777470E-01 0.22330799E+03</pdfrwt>
<totfact> 0.61542033E+03</totfact>
</mgrwt>
</event>
<event>
 4    1  0.4102458E+000  0.2306551E+03  0.7546771E-02  0.1126180E+00
         21   -1    0    0  503  502  0.00000000000E+00  0.00000000000E+00  0.57374713453E+03  0.57374713453E+03  0.00000000000E+00 0.  1.
         21   -1    0    0  501  503 -0.00000000000E+00 -0.00000000000E+00 -0.94831401968E+02  0.94831401968E+02  0.00000000000E+00 0.  1.
          6    1    1    2  501    0 -0.98295937610E+02 -0.11666489025E+03  0.18965871369E+03  0.29861717239E+03  0.17300000000E+03 0.  1.
         -6    1    1    2    0  502  0.98295937610E+02  0.11666489025E+03  0.28925701887E+03  0.36996136411E+03  0.17300000000E+03 0.  1.
<mgrwt>
<rscale>  2 0.23065513E+03</rscale>
<asrwt>0</asrwt>
<pdfrwt beam="1">  1       21 0.88268788E-01 0.23065513E+03</pdfrwt>
<pdfrwt beam="2">  1       21 0.14589447E-01 0.23065513E+03</pdfrwt>
<totfact> 0.44494486E+04</totfact>
</mgrwt>
</event>
<event>
 4    1  0.4102458E+000  0.2490810E+03  0.7546771E-02  0.1113887E+00
         21   -1    0    0  503  502  0.00000000000E+00  0.00000000000E+00  0.37284085433E+03  0.37284085433E+03  0.00000000000E+00 0.  1.
         21   -1    0    0  501  503 -0.00000000000E+00 -0.00000000000E+00 -0.18603814784E+03  0.18603814784E+03  0.00000000000E+00 0.  1.
          6    1    1    2  501    0  0.59215889586E+02  0.16913256040E+03  0.26154376240E+01  0.24909473114E+03  0.17300000000E+03 0.  1.
         -6    1    1    2    0  502 -0.59215889586E+02 -0.16913256040E+03  0.18418726887E+03  0.30978427103E+03  0.17300000000E+03 0.  1.
<mgrwt>
<rscale>  2 0.24908100E+03</rscale>
<asrwt>0</asrwt>
<pdfrwt beam="1">  1       21 0.57360131E-01 0.24908100E+03</pdfrwt>
<pdfrwt beam="2">  1       21 0.28621254E-01 0.24908100E+03</pdfrwt>
<totfact> 0.32397695E+04</totfact>
</mgrwt>
</event>
<event>
 4    1  0.4102458E+000  0.1955969E+03  0.7546771E-02  0.1153508E+00
         21   -1    0    0  501  502  0.00000000000E+00  0.00000000000E+00  0.12746133205E+02  0.12746133205E+02  0.00000000000E+00 0.  1.
         21   -1    0    0  502  503 -0.00000000000E+00 -0.00000000000E+00 -0.33868626852E+04  0.33868626852E+04  0.00000000000E+00 0.  1.
          6    1    1    2  501    0 -0.42549832193E+02 -0.80738302937E+02 -0.11137257770E+04  0.11307710945E+04  0.17300000000E+03 0.  1.
         -6    1    1    2    0  503  0.42549832193E+02  0.80738302937E+02 -0.22603907750E+04  0.22688377239E+04  0.17300000000E+03 0.  1.
<mgrwt>
<rscale>  2 0.19559694E+03</rscale>
<asrwt>0</asrwt>
<pdfrwt beam="1">  1       21 0.19609424E-02 0.19559694E+03</pdfrwt>
<pdfrwt beam="2">  1       21 0.52105611E+00 0.19559694E+03</pdfrwt>
<totfact> 0.16947677E+03</totfact>
</mgrwt>
</event>
<event>
 4    1  0.4102458E+000  0.1996577E+03  0.7546771E-02  0.1150028E+00
         21   -1    0    0  501  502  0.00000000000E+00  0.00000000000E+00  0.67405632333E+03  0.67405632333E+03  0.00000000000E+00 0.  1.
         21   -1    0    0  502  503 -0.00000000000E+00 -0.00000000000E+00 -0.70434121411E+02  0.70434121411E+02  0.00000000000E+00 0.  1.
          6    1    1    2  501    0 -0.66345818112E+02 -0.74380338321E+02  0.45087680836E+03  0.49310556539E+03  0.17300000000E+03 0.  1.
         -6    1    1    2    0  503  0.66345818112E+02  0.74380338321E+02  0.15274539357E+03  0.25138487935E+03  0.17300000000E+03 0.  1.
<mgrwt>
<rscale>  2 0.19965771E+03</rscale>
<asrwt>0</asrwt>
<pdfrwt beam="1">  1       21 0.10370097E+00 0.19965771E+03</pdfrwt>
<pdfrwt beam="2">  1       21 0.10836019E-01 0.19965771E+03</pdfrwt>
<totfact> 0.52795091E+04</totfact>
</mgrwt>
</event>
<event>
 4    1  0.4102458E+000  0.2656052E+03  0.7546771E-02  0.1103822E+00
         21   -1    0    0  501  502  0.00000000000E+00  0.00000000000E+00  0.10719209173E+03  0.10719209173E+03  0.00000000000E+00 0.  1.
         21   -1    0    0  502  503 -0.00000000000E+00 -0.00000000000E+00 -0.66584935917E+03  0.66584935917E+03  0.00000000000E+00 0.  1.
          6    1    1    2  501    0 -0.57763223929E+02 -0.19308161078E+03 -0.23770533254E+03  0.35644063121E+03  0.17300000000E+03 0.  1.
         -6    1    1    2    0  503  0.57763223929E+02  0.19308161078E+03 -0.32095193490E+03  0.41660081970E+03  0.17300000000E+03 0.  1.
<mgrwt>
<rscale>  2 0.26560516E+03</rscale>
<asrwt>0</asrwt>
<pdfrwt beam="1">  1       21 0.16491091E-01 0.26560516E+03</pdfrwt>
<pdfrwt beam="2">  1       21 0.10243836E+00 0.26560516E+03</pdfrwt>
<totfact> 0.24607975E+04</totfact>
</mgrwt>
</event>
<event>
 4    1  0.4102458E+000  0.1812942E+03  0.7546771E-02  0.1166556E+00
         21   -1    0    0  501  502  0.00000000000E+00  0.00000000000E+00  0.25687589237E+02  0.25687589237E+02  0.00000000000E+00 0. -1.
         21   -1    0    0  502  503 -0.00000000000E+00 -0.00000000000E+00 -0.15589426969E+04  0.15589426969E+04  0.00000000000E+00 0. -1.
          6    1    1    2  501    0  0.46174958832E+02  0.28398363352E+02 -0.43118397869E+03  0.46774695867E+03  0.17300000000E+03 0. -1.
         -6    1    1    2    0  503 -0.46174958832E+02 -0.28398363352E+02 -0.11020711290E+04  0.11168833275E+04  0.17300000000E+03 0. -1.
<mgrwt>
<rscale>  2 0.18129422E+03</rscale>
<asrwt>0</asrwt>
<pdfrwt beam="1">  1       21 0.39519376E-02 0.18129422E+03</pdfrwt>
<pdfrwt beam="2">  1       21 0.23983729E+00 0.18129422E+03</pdfrwt>
<totfact> 0.30816946E+04</totfact>
</mgrwt>
</event>
<event>
 4    1  0.4102458E+000  0.2070363E+03  0.7546771E-02  0.1143935E+00
         21   -1    0    0  503  502  0.00000000000E+00  0.00000000000E+00  0.34442078722E+02  0.34442078722E+02  0.00000000000E+00 0.  1.
         21   -1    0    0  501  503 -0.00000000000E+00 -0.00000000000E+00 -0.12537285707E+04  0.12537285707E+04  0.00000000000E+00 0.  1.
          6    1    1    2  501    0  0.53583847747E+02  0.10031841108E+03 -0.55445703730E+03  0.59185016563E+03  0.17300000000E+03 0.  1.
         -6    1    1    2    0  502 -0.53583847747E+02 -0.10031841108E+03 -0.66482945463E+03  0.69632048375E+03  0.17300000000E+03 0.  1.
<mgrwt>
<rscale>  2 0.20703626E+03</rscale>
<asrwt>0</asrwt>
<pdfrwt beam="1">  1       21 0.52987816E-02 0.20703626E+03</pdfrwt>
<pdfrwt beam="2">  1       21 0.19288131E+00 0.20703626E+03</pdfrwt>
<totfact> 0.36046598E+04</totfact>
</mgrwt>
</event>
<event>
 4    1  0.4102458E+000  0.1754408E+03  0.7546771E-02  0.1172290E+00
         21   -1    0    0  503  502  0.00000000000E+00  0.00000000000E+00  0.24396531108E+02  0.24396531108E+02  0.00000000000E+00 0. -1.
         21   -1    0    0  501  503 -0.00000000000E+00 -0.00000000000E+00 -0.15342355841E+04  0.15342355841E+04  0.00000000000E+00 0. -1.
          6    1    1    2  501    0  0.14972177235E+02  0.25025996798E+02 -0.10834174682E+04  0.10975303536E+04  0.17300000000E+03 0. -1.
         -6    1    1    2    0  502 -0.14972177235E+02 -0.25025996798E+02 -0.42642158477E+03  0.46110176161E+03  0.17300000000E+03 0. -1.
<mgrwt>
<rscale>  2 0.17544078E+03</rscale>
<asrwt>0</asrwt>
<pdfrwt beam="1">  1       21 0.37533117E-02 0.17544078E+03</pdfrwt>
<pdfrwt beam="2">  1       21 0.23603629E+00 0.17544078E+03</pdfrwt>
<totfact> 0.35552599E+04</totfact>
</mgrwt>
</event>
<event>
 4    1  0.4102458E+000  0.2000985E+03  0.7546771E-02  0.1149656E+00
         21   -1    0    0  501  502  0.00000000000E+00  0.00000000000E+00  0.53876526812E+03  0.53876526812E+03  0.00000000000E+00 0.  1.
         21   -1    0    0  502  503 -0.00000000000E+00 -0.00000000000E+00 -0.16535008075E+03  0.16535008075E+03  0.00000000000E+00 0. -1.
          6    1    1    2  501    0  0.45259089729E+02  0.89788792481E+02  0.44793049988E+03  0.49059264689E+03  0.17300000000E+03 0.  1.
         -6    1    1    2    0  503 -0.45259089729E+02 -0.89788792481E+02 -0.74515312514E+02  0.21352270197E+03  0.17300000000E+03 0. -1.
<mgrwt>
<rscale>  2 0.20009851E+03</rscale>
<asrwt>0</asrwt>
<pdfrwt beam="1">  1       21 0.82886964E-01 0.20009851E+03</pdfrwt>
<pdfrwt beam="2">  1       21 0.25438474E-01 0.20009851E+03</pdfrwt>
<totfact> 0.18508787E+04</totfact>
</mgrwt>
</event>
<event>
 4    1  0.4102458E+000  0.1780829E+03  0.7546771E-02  0.1169671E+00
         21   -1    0    0  501  502  0.00000000000E+00  0.00000000000E+00  0.53330642676E+03  0.53330642676E+03  0.00000000000E+00 0.  1.
         21   -1    0    0  502  503 -0.00000000000E+00 -0.00000000000E+00 -0.17036526865E+03  0.17036526865E+03  0.00000000000E+00 0.  1.
          6    1    1    2  501    0 -0.32366712554E+02  0.27145936995E+02  0.46533714343E+03  0.49824909737E+03  0.17300000000E+03 0.  1.
         -6    1    1    2    0  503  0.32366712554E+02 -0.27145936995E+02 -0.10239598531E+03  0.20542259804E+03  0.17300000000E+03 0.  1.
<mgrwt>
<rscale>  2 0.17808286E+03</rscale>
<asrwt>0</asrwt>
<pdfrwt beam="1">  1       21 0.82047142E-01 0.17808286E+03</pdfrwt>
<pdfrwt beam="2">  1       21 0.26210042E-01 0.17808286E+03</pdfrwt>
<totfact> 0.18135206E+04</totfact>
</mgrwt>
</event>
<event>
 4    1  0.4102458E+000  0.2377550E+03  0.7546771E-02  0.1121297E+00
         21   -1    0    0  501  502  0.00000000000E+00  0.00000000000E+00  0.27681890731E+03  0.27681890731E+03  0.00000000000E+00 0.  1.
         21   -1    0    0  502  503 -0.00000000000E+00 -0.00000000000E+00 -0.20427020713E+03  0.20427020713E+03  0.00000000000E+00 0. -1.
          6    1    1    2  501    0 -0.99471290172E+02  0.12924353217E+03  0.40616718375E+02  0.24119939052E+03  0.17300000000E+03 0. -1.
         -6    1    1    2    0  503  0.99471290172E+02 -0.12924353217E+03  0.31931981804E+02  0.23988972391E+03  0.17300000000E+03 0.  1.
<mgrwt>
<rscale>  2 0.23775498E+03</rscale>
<asrwt>0</asrwt>
<pdfrwt beam="1">  1       21 0.42587524E-01 0.23775498E+03</pdfrwt>
<pdfrwt beam="2">  1       21 0.31426186E-01 0.23775498E+03</pdfrwt>
<totfact> 0.50570070E+04</totfact>
</mgrwt>
</event>
<event>
 4    1  0.4102458E+000  0.2425890E+03  0.7546771E-02  0.1118080E+00
         21   -1    0    0  503  502  0.00000000000E+00  0.00000000000E+00  0.74023375575E+02  0.74023375575E+02  0.00000000000E+00 0.  1.
         21   -1    0    0  501  503 -0.00000000000E+00 -0.00000000000E+00 -0.85157522606E+03  0.85157522606E+03  0.00000000000E+00 0.  1.
          6    1    1    2  501    0 -0.16372746091E+03 -0.45975378197E+02 -0.50805139160E+03  0.56299701009E+03  0.17300000000E+03 0.  1.
         -6    1    1    2    0  502  0.16372746091E+03  0.45975378197E+02 -0.26950045888E+03  0.36260159154E+03  0.17300000000E+03 0.  1.
<mgrwt>
<rscale>  2 0.24258899E+03</rscale>
<asrwt>0</asrwt>
<pdfrwt beam="1">  1       21 0.11388212E-01 0.24258899E+03</pdfrwt>
<pdfrwt beam="2">  1       21 0.13101157E+00 0.24258899E+03</pdfrwt>
<totfact> 0.26544166E+04</totfact>
</mgrwt>
</event>
<event>
 4    1  0.4102458E+000  0.1844651E+03  0.7546771E-02  0.1163550E+00
         21   -1    0    0  501  502  0.00000000000E+00  0.00000000000E+00  0.16033355775E+04  0.16033355775E+04  0.00000000000E+00 0.  1.
         21   -1    0    0  502  503 -0.00000000000E+00 -0.00000000000E+00 -0.40664030807E+02  0.40664030807E+02  0.00000000000E+00 0.  1.
          6    1    1    2  501    0  0.64885568143E+01  0.63688919181E+02  0.13497011533E+04  0.13622483558E+04  0.17300000000E+03 0.  1.
         -6    1    1    2    0  503 -0.64885568143E+01 -0.63688919181E+02  0.21297039337E+03  0.28175125243E+03  0.17300000000E+03 0.  1.
<mgrwt>
<rscale>  2 0.18446512E+03</rscale>
<asrwt>0</asrwt>
<pdfrwt beam="1">  1       21 0.24666696E+00 0.18446512E+03</pdfrwt>
<pdfrwt beam="2">  1       21 0.62560060E-02 0.18446512E+03</pdfrwt>
<totfact> 0.12867499E+04</totfact>
</mgrwt>
</event>
<event>
 4    1  0.4102458E+000  0.2470791E+03  0.7546771E-02  0.1115165E+00
         21   -1    0    0  503  502  0.00000000000E+00  0.00000000000E+00  0.10405315982E+03  0.10405315982E+03  0.00000000000E+00 0. -1.
         21   -1    0    0  501  503 -0.00000000000E+00 -0.00000000000E+00 -0.61852938641E+03  0.61852938641E+03  0.00000000000E+00 0. -1.
          6    1    1    2  501    0 -0.27387410662E+02 -0.17426708623E+03 -0.33919490738E+03  0.41964422169E+03  0.17300000000E+03 0. -1.
         -6    1    1    2    0  502  0.27387410662E+02  0.17426708623E+03 -0.17528131921E+03  0.30293832453E+03  0.17300000000E+03 0. -1.
<mgrwt>
<rscale>  2 0.24707911E+03</rscale>
<asrwt>0</asrwt>
<pdfrwt beam="1">  1       21 0.16008178E-01 0.24707911E+03</pdfrwt>
<pdfrwt beam="2">  1       21 0.95158368E-01 0.24707911E+03</pdfrwt>
<totfact> 0.31252764E+04</totfact>
</mgrwt>
</event>
<event>
 4    1  0.4102458E+000  0.2197001E+03  0.7546771E-02  0.1134107E+00
         21   -1    0    0  501  502  0.00000000000E+00  0.00000000000E+00  0.37924429072E+02  0.37924429072E+02  0.00000000000E+00 0. -1.
         21   -1    0    0  502  503 -0.00000000000E+00 -0.00000000000E+00 -0.12830726353E+04  0.12830726353E+04  0.00000000000E+00 0. -1.
          6    1    1    2  501    0 -0.10526664780E+03  0.85194312714E+02 -0.56331694522E+03  0.60464379500E+03  0.17300000000E+03 0. -1.
         -6    1    1    2    0  503  0.10526664780E+03 -0.85194312714E+02 -0.68183126105E+03  0.71635326941E+03  0.17300000000E+03 0. -1.
<mgrwt>
<rscale>  2 0.21970011E+03</rscale>
<asrwt>0</asrwt>
<pdfrwt beam="1">  1       21 0.58345280E-02 0.21970011E+03</pdfrwt>
<pdfrwt beam="2">  1       21 0.19739578E+00 0.21970011E+03</pdfrwt>
<totfact> 0.28331315E+04</totfact>
</mgrwt>
</event>
<event>
 4    1  0.4102458E+000  0.1925138E+03  0.7546771E-02  0.1156213E+00
         21   -1    0    0  501  502  0.00000000000E+00  0.00000000000E+00  0.11937397807E+03  0.11937397807E+03  0.00000000000E+00 0.  1.
         21   -1    0    0  502  503 -0.00000000000E+00 -0.00000000000E+00 -0.38329268765E+03  0.38329268765E+03  0.00000000000E+00 0.  1.
          6    1    1    2  501    0  0.83948186804E+02  0.92332541204E+01 -0.22404819105E+02  0.19381312383E+03  0.17300000000E+03 0.  1.
         -6    1    1    2    0  503 -0.83948186804E+02 -0.92332541204E+01 -0.24151389047E+03  0.30885354189E+03  0.17300000000E+03 0.  1.
<mgrwt>
<rscale>  2 0.19251377E+03</rscale>
<asrwt>0</asrwt>
<pdfrwt beam="1">  1       21 0.18365227E-01 0.19251377E+03</pdfrwt>
<pdfrwt beam="2">  1       21 0.58968107E-01 0.19251377E+03</pdfrwt>
<totfact> 0.72760273E+04</totfact>
</mgrwt>
</event>
<event>
 4    1  0.4102458E+000  0.2274180E+03  0.7546771E-02  0.1128470E+00
         21   -1    0    0  503  502  0.00000000000E+00  0.00000000000E+00  0.10710259595E+04  0.10710259595E+04  0.00000000000E+00 0.  1.
         21   -1    0    0  501  503 -0.00000000000E+00 -0.00000000000E+00 -0.55459600780E+02  0.55459600780E+02  0.00000000000E+00 0. -1.
          6    1    1    2  501    0 -0.10612152207E+03  0.10260696988E+03  0.30525777036E+03  0.38065899973E+03  0.17300000000E+03 0. -1.
         -6    1    1    2    0  502  0.10612152207E+03 -0.10260696988E+03  0.71030858839E+03  0.74582656057E+03  0.17300000000E+03 0.  1.
<mgrwt>
<rscale>  2 0.22741805E+03</rscale>
<asrwt>0</asrwt>
<pdfrwt beam="1">  1       21 0.16477321E+00 0.22741805E+03</pdfrwt>
<pdfrwt beam="2">  1       21 0.85322471E-02 0.22741805E+03</pdfrwt>
<totfact> 0.24376285E+04</totfact>
</mgrwt>
</event>
<event>
 4    1  0.4102458E+000  0.1964572E+03  0.7546771E-02  0.1152763E+00
         21   -1    0    0  503  502  0.00000000000E+00  0.00000000000E+00  0.63412719230E+03  0.63412719230E+03  0.00000000000E+00 0.  1.
         21   -1    0    0  501  503 -0.00000000000E+00 -0.00000000000E+00 -0.10849962074E+03  0.10849962074E+03  0.00000000000E+00 0.  1.
          6    1    1    2  501    0  0.61234592788E+02 -0.70119576917E+02  0.16780957061E+02  0.19717259176E+03  0.17300000000E+03 0.  1.
         -6    1    1    2    0  502 -0.61234592788E+02  0.70119576917E+02  0.50884661450E+03  0.54545422128E+03  0.17300000000E+03 0.  1.
<mgrwt>
<rscale>  2 0.19645720E+03</rscale>
<asrwt>0</asrwt>
<pdfrwt beam="1">  1       21 0.97558028E-01 0.19645720E+03</pdfrwt>
<pdfrwt beam="2">  1       21 0.16692250E-01 0.19645720E+03</pdfrwt>
<totfact> 0.28017411E+04</totfact>
</mgrwt>
</event>
<event>
 4    1  0.4102458E+000  0.1740100E+03  0.7546771E-02  0.1173729E+00
         21   -1    0    0  501  502  0.00000000000E+00  0.00000000000E+00  0.14710755362E+03  0.14710755362E+03  0.00000000000E+00 0. -1.
         21   -1    0    0  502  503 -0.00000000000E+00 -0.00000000000E+00 -0.20909643521E+03  0.20909643521E+03  0.00000000000E+00 0. -1.
          6    1    1    2  501    0  0.18463564964E+02  0.30956829079E+01 -0.87419121725E+01  0.17422946798E+03  0.17300000000E+03 0. -1.
         -6    1    1    2    0  503 -0.18463564964E+02 -0.30956829079E+01 -0.53246969420E+02  0.18197452084E+03  0.17300000000E+03 0. -1.
<mgrwt>
<rscale>  2 0.17401002E+03</rscale>
<asrwt>0</asrwt>
<pdfrwt beam="1">  1       21 0.22631931E-01 0.17401002E+03</pdfrwt>
<pdfrwt beam="2">  1       21 0.32168682E-01 0.17401002E+03</pdfrwt>
<totfact> 0.17107348E+05</totfact>
</mgrwt>
</event>
<event>
 4    1  0.4102458E+000  0.2844923E+03  0.7546771E-02  0.1093260E+00
         21   -1    0    0  501  502  0.00000000000E+00  0.00000000000E+00  0.13301957494E+03  0.13301957494E+03  0.00000000000E+00 0. -1.
         21   -1    0    0  502  503 -0.00000000000E+00 -0.00000000000E+00 -0.74815133164E+03  0.74815133164E+03  0.00000000000E+00 0. -1.
          6    1    1    2  501    0 -0.77522526076E+02  0.21212526806E+03 -0.11718014424E+03  0.30768012221E+03  0.17300000000E+03 0. -1.
         -6    1    1    2    0  503  0.77522526076E+02 -0.21212526806E+03 -0.49795161246E+03  0.57349078437E+03  0.17300000000E+03 0. -1.
<mgrwt>
<rscale>  2 0.28449230E+03</rscale>
<asrwt>0</asrwt>
<pdfrwt beam="1">  1       21 0.20464550E-01 0.28449230E+03</pdfrwt>
<pdfrwt beam="2">  1       21 0.11510021E+00 0.28449230E+03</pdfrwt>
<totfact> 0.12260755E+04</totfact>
</mgrwt>
</event>
<event>
 4    1  0.4102458E+000  0.1878233E+03  0.7546771E-02  0.1160439E+00
         21   -1    0    0  501  502  0.00000000000E+00  0.00000000000E+00  0.25023447514E+03  0.25023447514E+03  0.00000000000E+00 0.  1.
         21   -1    0    0  502  503 -0.00000000000E+00 -0.00000000000E+00 -0.17000114411E+03  0.17000114411E+03  0.00000000000E+00 0.  1.
          6    1    1    2  501    0  0.66692125501E+02 -0.30012331219E+02  0.12693440236E+03  0.22669345410E+03  0.17300000000E+03 0.  1.
         -6    1    1    2    0  503 -0.66692125501E+02  0.30012331219E+02 -0.46701071320E+02  0.19354216515E+03  0.17300000000E+03 0.  1.
<mgrwt>
<rscale>  2 0.18782327E+03</rscale>
<asrwt>0</asrwt>
<pdfrwt beam="1">  1       21 0.38497611E-01 0.18782327E+03</pdfrwt>
<pdfrwt beam="2">  1       21 0.26154022E-01 0.18782327E+03</pdfrwt>
<totfact> 0.90568376E+04</totfact>
</mgrwt>
</event>
<event>
 4    1  0.4102458E+000  0.2386855E+03  0.7546771E-02  0.1120672E+00
         21   -1    0    0  501  502  0.00000000000E+00  0.00000000000E+00  0.52275875735E+02  0.52275875735E+02  0.00000000000E+00 0. -1.
         21   -1    0    0  502  503 -0.00000000000E+00 -0.00000000000E+00 -0.11101970098E+04  0.11101970098E+04  0.00000000000E+00 0. -1.
          6    1    1    2  501    0  0.14624433564E+03  0.75195378562E+02 -0.45019544491E+03  0.50955538392E+03  0.17300000000E+03 0. -1.
         -6    1    1    2    0  503 -0.14624433564E+03 -0.75195378562E+02 -0.60772568919E+03  0.65291750166E+03  0.17300000000E+03 0. -1.
<mgrwt>
<rscale>  2 0.23868546E+03</rscale>
<asrwt>0</asrwt>
<pdfrwt beam="1">  1       21 0.80424428E-02 0.23868546E+03</pdfrwt>
<pdfrwt beam="2">  1       21 0.17079953E+00 0.23868546E+03</pdfrwt>
<totfact> 0.24322861E+04</totfact>
</mgrwt>
</event>
<event>
 4    1  0.4102458E+000  0.2653549E+03  0.7546771E-02  0.1103968E+00
         21   -1    0    0  501  502  0.00000000000E+00  0.00000000000E+00  0.15981205957E+03  0.15981205957E+03  0.00000000000E+00 0.  1.
         21   -1    0    0  502  503 -0.00000000000E+00 -0.00000000000E+00 -0.53407690140E+03  0.53407690140E+03  0.00000000000E+00 0. -1.
          6    1    1    2  501    0  0.16087120778E+03 -0.12084979987E+03 -0.41984821165E+02  0.26865581109E+03  0.17300000000E+03 0.  1.
         -6    1    1    2    0  503 -0.16087120778E+03  0.12084979987E+03 -0.33228002067E+03  0.42523314988E+03  0.17300000000E+03 0. -1.
<mgrwt>
<rscale>  2 0.26535489E+03</rscale>
<asrwt>0</asrwt>
<pdfrwt beam="1">  1       21 0.24586471E-01 0.26535489E+03</pdfrwt>
<pdfrwt beam="2">  1       21 0.82165677E-01 0.26535489E+03</pdfrwt>
<totfact> 0.19464980E+04</totfact>
</mgrwt>
</event>
<event>
 4    1  0.4102458E+000  0.1950259E+03  0.7546771E-02  0.1154005E+00
         21   -1    0    0  501  502  0.00000000000E+00  0.00000000000E+00  0.22498711561E+03  0.22498711561E+03  0.00000000000E+00 0.  1.
         21   -1    0    0  502  503 -0.00000000000E+00 -0.00000000000E+00 -0.20471305603E+03  0.20471305603E+03  0.00000000000E+00 0.  1.
          6    1    1    2  501    0  0.18627120223E+02 -0.88085966814E+02  0.99806379315E+02  0.21908085382E+03  0.17300000000E+03 0.  1.
         -6    1    1    2    0  503 -0.18627120223E+02  0.88085966814E+02 -0.79532319728E+02  0.21061931782E+03  0.17300000000E+03 0.  1.
<mgrwt>
<rscale>  2 0.19502591E+03</rscale>
<asrwt>0</asrwt>
<pdfrwt beam="1">  1       21 0.34613402E-01 0.19502591E+03</pdfrwt>
<pdfrwt beam="2">  1       21 0.31494316E-01 0.19502591E+03</pdfrwt>
<totfact> 0.77880054E+04</totfact>
</mgrwt>
</event>
<event>
 4    1  0.4102458E+000  0.1834899E+03  0.7546771E-02  0.1164468E+00
         21   -1    0    0  503  502  0.00000000000E+00  0.00000000000E+00  0.85808147762E+03  0.85808147762E+03  0.00000000000E+00 0.  1.
         21   -1    0    0  501  503 -0.00000000000E+00 -0.00000000000E+00 -0.17075357423E+03  0.17075357423E+03  0.00000000000E+00 0.  1.
          6    1    1    2  501    0  0.44934747223E+02  0.41477942128E+02 -0.10779792520E+03  0.21281199183E+03  0.17300000000E+03 0.  1.
         -6    1    1    2    0  502 -0.44934747223E+02 -0.41477942128E+02  0.79512582859E+03  0.81602306002E+03  0.17300000000E+03 0.  1.
<mgrwt>
<rscale>  2 0.18348992E+03</rscale>
<asrwt>0</asrwt>
<pdfrwt beam="1">  1       21 0.13201253E+00 0.18348992E+03</pdfrwt>
<pdfrwt beam="2">  1       21 0.26269781E-01 0.18348992E+03</pdfrwt>
<totfact> 0.57708413E+03</totfact>
</mgrwt>
</event>
<event>
 4    1  0.4102458E+000  0.2655604E+03  0.7546771E-02  0.1103848E+00
         21   -1    0    0  501  502  0.00000000000E+00  0.00000000000E+00  0.13892185353E+04  0.13892185353E+04  0.00000000000E+00 0.  1.
         21   -1    0    0  502  503 -0.00000000000E+00 -0.00000000000E+00 -0.71246168149E+02  0.71246168149E+02  0.00000000000E+00 0.  1.
          6    1    1    2  501    0  0.19588629069E+03  0.47136883793E+02  0.10505188579E+04  0.10835645783E+04  0.17300000000E+03 0.  1.
         -6    1    1    2    0  503 -0.19588629069E+03 -0.47136883793E+02  0.26745350933E+03  0.37690012516E+03  0.17300000000E+03 0.  1.
<mgrwt>
<rscale>  2 0.26556040E+03</rscale>
<asrwt>0</asrwt>
<pdfrwt beam="1">  1       21 0.21372591E+00 0.26556040E+03</pdfrwt>
<pdfrwt beam="2">  1       21 0.10960950E-01 0.26556040E+03</pdfrwt>
<totfact> 0.71620393E+03</totfact>
</mgrwt>
</event>
<event>
 4    1  0.4102458E+000  0.2098911E+03  0.7546771E-02  0.1141652E+00
         21   -1    0    0  503  502  0.00000000000E+00  0.00000000000E+00  0.13908881045E+03  0.13908881045E+03  0.00000000000E+00 0.  1.
         21   -1    0    0  501  503 -0.00000000000E+00 -0.00000000000E+00 -0.62391890356E+03  0.62391890356E+03  0.00000000000E+00 0.  1.
          6    1    1    2  501    0  0.57460149634E+02  0.10403656752E+03 -0.51010629979E+03  0.55160013892E+03  0.17300000000E+03 0.  1.
         -6    1    1    2    0  502 -0.57460149634E+02 -0.10403656752E+03  0.25276206680E+02  0.21140757508E+03  0.17300000000E+03 0.  1.
<mgrwt>
<rscale>  2 0.20989111E+03</rscale>
<asrwt>0</asrwt>
<pdfrwt beam="1">  1       21 0.21398279E-01 0.20989111E+03</pdfrwt>
<pdfrwt beam="2">  1       21 0.95987524E-01 0.20989111E+03</pdfrwt>
<totfact> 0.18192067E+04</totfact>
</mgrwt>
</event>
<event>
 4    1  0.4102458E+000  0.1977847E+03  0.7546771E-02  0.1151622E+00
         21   -1    0    0  503  502  0.00000000000E+00  0.00000000000E+00  0.27758501451E+03  0.27758501451E+03  0.00000000000E+00 0. -1.
         21   -1    0    0  501  503 -0.00000000000E+00 -0.00000000000E+00 -0.14178419542E+03  0.14178419542E+03  0.00000000000E+00 0.  1.
          6    1    1    2  501    0 -0.92286199985E+02 -0.25943253121E+02  0.51581804848E+02  0.20440028787E+03  0.17300000000E+03 0. -1.
         -6    1    1    2    0  502  0.92286199985E+02  0.25943253121E+02  0.84219014239E+02  0.21496892206E+03  0.17300000000E+03 0. -1.
<mgrwt>
<rscale>  2 0.19778472E+03</rscale>
<asrwt>0</asrwt>
<pdfrwt beam="1">  1       21 0.42705387E-01 0.19778472E+03</pdfrwt>
<pdfrwt beam="2">  1       21 0.21812953E-01 0.19778472E+03</pdfrwt>
<totfact> 0.10325091E+05</totfact>
</mgrwt>
</event>
<event>
 4    1  0.4102458E+000  0.2312276E+03  0.7546771E-02  0.1125779E+00
         21   -1    0    0  501  502  0.00000000000E+00  0.00000000000E+00  0.20167787849E+03  0.20167787849E+03  0.00000000000E+00 0. -1.
         21   -1    0    0  502  503 -0.00000000000E+00 -0.00000000000E+00 -0.29988268038E+03  0.29988268038E+03  0.00000000000E+00 0.  1.
          6    1    1    2  501    0  0.12049191833E+03  0.94967801103E+02  0.36297327444E+02  0.23405914126E+03  0.17300000000E+03 0. -1.
         -6    1    1    2    0  503 -0.12049191833E+03 -0.94967801103E+02 -0.13450212934E+03  0.26750141761E+03  0.17300000000E+03 0. -1.
<mgrwt>
<rscale>  2 0.23122756E+03</rscale>
<asrwt>0</asrwt>
<pdfrwt beam="1">  1       21 0.31027366E-01 0.23122756E+03</pdfrwt>
<pdfrwt beam="2">  1       21 0.46135797E-01 0.23122756E+03</pdfrwt>
<totfact> 0.44099851E+04</totfact>
</mgrwt>
</event>
<event>
 4    1  0.4102458E+000  0.1745300E+03  0.7546771E-02  0.1173204E+00
         21   -1    0    0  503  502  0.00000000000E+00  0.00000000000E+00  0.67676299760E+03  0.67676299760E+03  0.00000000000E+00 0. -1.
         21   -1    0    0  501  503 -0.00000000000E+00 -0.00000000000E+00 -0.45542305694E+02  0.45542305694E+02  0.00000000000E+00 0. -1.
          6    1    1    2  501    0 -0.22851649093E+02 -0.30886535311E+01  0.35467497310E+03  0.39529112587E+03  0.17300000000E+03 0. -1.
         -6    1    1    2    0  502  0.22851649093E+02  0.30886535311E+01  0.27654571880E+03  0.32701417742E+03  0.17300000000E+03 0. -1.
<mgrwt>
<rscale>  2 0.17453005E+03</rscale>
<asrwt>0</asrwt>
<pdfrwt beam="1">  1       21 0.10411738E+00 0.17453005E+03</pdfrwt>
<pdfrwt beam="2">  1       21 0.70065091E-02 0.17453005E+03</pdfrwt>
<totfact> 0.11342406E+05</totfact>
</mgrwt>
</event>
<event>
 4    1  0.4102458E+000  0.2352166E+03  0.7546771E-02  0.1123021E+00
         21   -1    0    0  503  502  0.00000000000E+00  0.00000000000E+00  0.93736823290E+03  0.93736823290E+03  0.00000000000E+00 0.  1.
         21   -1    0    0  501  503 -0.00000000000E+00 -0.00000000000E+00 -0.79480280931E+02  0.79480280931E+02  0.00000000000E+00 0.  1.
          6    1    1    2  501    0  0.10668260623E+03  0.11839200153E+03  0.17100665371E+03  0.29080942232E+03  0.17300000000E+03 0.  1.
         -6    1    1    2    0  502 -0.10668260623E+03 -0.11839200153E+03  0.68688129826E+03  0.72603909151E+03  0.17300000000E+03 0.  1.
<mgrwt>
<rscale>  2 0.23521659E+03</rscale>
<asrwt>0</asrwt>
<pdfrwt beam="1">  1       21 0.14421049E+00 0.23521659E+03</pdfrwt>
<pdfrwt beam="2">  1       21 0.12227736E-01 0.23521659E+03</pdfrwt>
<totfact> 0.18299292E+04</totfact>
</mgrwt>
</event>
<event>
 4    1  0.4102458E+000  0.1766430E+03  0.7546771E-02  0.1171092E+00
         21   -1    0    0  501  502  0.00000000000E+00  0.00000000000E+00  0.11482648682E+04  0.11482648682E+04  0.00000000000E+00 0. -1.
         21   -1    0    0  502  503 -0.00000000000E+00 -0.00000000000E+00 -0.46961066478E+02  0.46961066478E+02  0.00000000000E+00 0. -1.
          6    1    1    2  501    0  0.32160683054E+02 -0.15473455675E+02  0.93857332992E+03  0.95505111538E+03  0.17300000000E+03 0. -1.
         -6    1    1    2    0  503 -0.32160683054E+02  0.15473455675E+02  0.16273047178E+03  0.24017481927E+03  0.17300000000E+03 0. -1.
<mgrwt>
<rscale>  2 0.17664297E+03</rscale>
<asrwt>0</asrwt>
<pdfrwt beam="1">  1       21 0.17665611E+00 0.17664297E+03</pdfrwt>
<pdfrwt beam="2">  1       21 0.72247803E-02 0.17664297E+03</pdfrwt>
<totfact> 0.27775297E+04</totfact>
</mgrwt>
</event>
<event>
 4    1  0.4102458E+000  0.1978643E+03  0.7546771E-02  0.1151553E+00
         21   -1    0    0  503  502  0.00000000000E+00  0.00000000000E+00  0.48737633197E+03  0.48737633197E+03  0.00000000000E+00 0. -1.
         21   -1    0    0  501  503 -0.00000000000E+00 -0.00000000000E+00 -0.83253948639E+02  0.83253948639E+02  0.00000000000E+00 0.  1.
          6    1    1    2  501    0 -0.93877560200E+02  0.20206475622E+02  0.14857949324E+03  0.24743921229E+03  0.17300000000E+03 0.  1.
         -6    1    1    2    0  502  0.93877560200E+02 -0.20206475622E+02  0.25554289009E+03  0.32319106832E+03  0.17300000000E+03 0. -1.
<mgrwt>
<rscale>  2 0.19786434E+03</rscale>
<asrwt>0</asrwt>
<pdfrwt beam="1">  1       21 0.74980972E-01 0.19786434E+03</pdfrwt>
<pdfrwt beam="2">  1       21 0.12808300E-01 0.19786434E+03</pdfrwt>
<totfact> 0.82865313E+04</totfact>
</mgrwt>
</event>
<event>
 4    1  0.4102458E+000  0.2211708E+03  0.7546771E-02  0.1133013E+00
         21   -1    0    0  501  502  0.00000000000E+00  0.00000000000E+00  0.33646802549E+03  0.33646802549E+03  0.00000000000E+00 0.  1.
         21   -1    0    0  502  503 -0.00000000000E+00 -0.00000000000E+00 -0.15744627666E+03  0.15744627666E+03  0.00000000000E+00 0. -1.
          6    1    1    2  501    0  0.13127351829E+03  0.41890121583E+02  0.15787045628E+03  0.27173442892E+03  0.17300000000E+03 0.  1.
         -6    1    1    2    0  503 -0.13127351829E+03 -0.41890121583E+02  0.21151292550E+02  0.22217987323E+03  0.17300000000E+03 0. -1.
<mgrwt>
<rscale>  2 0.22117079E+03</rscale>
<asrwt>0</asrwt>
<pdfrwt beam="1">  1       21 0.51764311E-01 0.22117079E+03</pdfrwt>
<pdfrwt beam="2">  1       21 0.24222504E-01 0.22117079E+03</pdfrwt>
<totfact> 0.56268235E+04</totfact>
</mgrwt>
</event>
<event>
 4    1  0.4102458E+000  0.2018468E+03  0.7546771E-02  0.1148190E+00
         21   -1    0    0  503  502  0.00000000000E+00  0.00000000000E+00  0.95609239668E+03  0.95609239668E+03  0.00000000000E+00 0. -1.
         21   -1    0    0  501  503 -0.00000000000E+00 -0.00000000000E+00 -0.43224898873E+02  0.43224898873E+02  0.00000000000E+00 0. -1.
          6    1    1    2  501    0  0.33284812759E+02 -0.98515239096E+02  0.39699294217E+03  0.44535999734E+03  0.17300000000E+03 0. -1.
         -6    1    1    2    0  502 -0.33284812759E+02  0.98515239096E+02  0.51587455564E+03  0.55395729822E+03  0.17300000000E+03 0. -1.
<mgrwt>
<rscale>  2 0.20184680E+03</rscale>
<asrwt>0</asrwt>
<pdfrwt beam="1">  1       21 0.14709112E+00 0.20184680E+03</pdfrwt>
<pdfrwt beam="2">  1       21 0.66499852E-02 0.20184680E+03</pdfrwt>
<totfact> 0.51733915E+04</totfact>
</mgrwt>
</event>
<event>
 4    1  0.4102458E+000  0.2019875E+03  0.7546771E-02  0.1148073E+00
         21   -1    0    0  503  502  0.00000000000E+00  0.00000000000E+00  0.33812341345E+03  0.33812341345E+03  0.00000000000E+00 0. -1.
         21   -1    0    0  501  503 -0.00000000000E+00 -0.00000000000E+00 -0.24941328295E+03  0.24941328295E+03  0.00000000000E+00 0. -1.
          6    1    1    2  501    0 -0.50685505126E+02 -0.91109378907E+02 -0.16671154618E+03  0.26190013170E+03  0.17300000000E+03 0. -1.
         -6    1    1    2    0  502  0.50685505126E+02  0.91109378907E+02  0.25542167668E+03  0.32563656470E+03  0.17300000000E+03 0. -1.
<mgrwt>
<rscale>  2 0.20198747E+03</rscale>
<asrwt>0</asrwt>
<pdfrwt beam="1">  1       21 0.52018987E-01 0.20198747E+03</pdfrwt>
<pdfrwt beam="2">  1       21 0.38371274E-01 0.20198747E+03</pdfrwt>
<totfact> 0.22848526E+04</totfact>
</mgrwt>
</event>
<event>
 4    1  0.4102458E+000  0.1755352E+03  0.7546771E-02  0.1172195E+00
         21   -1    0    0  503  502  0.00000000000E+00  0.00000000000E+00  0.48322949527E+03  0.48322949527E+03  0.00000000000E+00 0.  1.
         21   -1    0    0  501  503 -0.00000000000E+00 -0.00000000000E+00 -0.83075845558E+02  0.83075845558E+02  0.00000000000E+00 0.  1.
          6    1    1    2  501    0 -0.29305730002E+02 -0.49767910531E+01  0.63556799706E+02  0.18668706717E+03  0.17300000000E+03 0.  1.
         -6    1    1    2    0  502  0.29305730002E+02  0.49767910531E+01  0.33659685001E+03  0.37961827366E+03  0.17300000000E+03 0.  1.
<mgrwt>
<rscale>  2 0.17553517E+03</rscale>
<asrwt>0</asrwt>
<pdfrwt beam="1">  1       21 0.74342998E-01 0.17553517E+03</pdfrwt>
<pdfrwt beam="2">  1       21 0.12780900E-01 0.17553517E+03</pdfrwt>
<totfact> 0.85583013E+04</totfact>
</mgrwt>
</event>
<event>
 4    1  0.4102458E+000  0.1850560E+03  0.7546771E-02  0.1162998E+00
         21   -1    0    0  503  502  0.00000000000E+00  0.00000000000E+00  0.21688896851E+02  0.21688896851E+02  0.00000000000E+00 0.  1.
         21   -1    0    0  501  503 -0.00000000000E+00 -0.00000000000E+00 -0.32349540984E+04  0.32349540984E+04  0.00000000000E+00 0.  1.
          6    1    1    2  501    0 -0.99284466445E+01  0.64947255804E+02 -0.27716611791E+04  0.27778321425E+04  0.17300000000E+03 0.  1.
         -6    1    1    2    0  502  0.99284466445E+01 -0.64947255804E+02 -0.44160402251E+03  0.47881085283E+03  0.17300000000E+03 0.  1.
<mgrwt>
<rscale>  2 0.18505599E+03</rscale>
<asrwt>0</asrwt>
<pdfrwt beam="1">  1       21 0.33367533E-02 0.18505599E+03</pdfrwt>
<pdfrwt beam="2">  1       21 0.49768526E+00 0.18505599E+03</pdfrwt>
<totfact> 0.10557146E+03</totfact>
</mgrwt>
</event>
<event>
 4    1  0.4102458E+000  0.1740073E+03  0.7546771E-02  0.1173732E+00
         21   -1    0    0  501  502  0.00000000000E+00  0.00000000000E+00  0.69854220992E+02  0.69854220992E+02  0.00000000000E+00 0.  1.
         21   -1    0    0  502  503 -0.00000000000E+00 -0.00000000000E+00 -0.48433829967E+03  0.48433829967E+03  0.00000000000E+00 0.  1.
          6    1    1    2  501    0 -0.15163789455E+02 -0.10936747759E+02 -0.11742670029E+03  0.20992280224E+03  0.17300000000E+03 0.  1.
         -6    1    1    2    0  503  0.15163789455E+02  0.10936747759E+02 -0.29705737839E+03  0.34426971842E+03  0.17300000000E+03 0.  1.
<mgrwt>
<rscale>  2 0.17400734E+03</rscale>
<asrwt>0</asrwt>
<pdfrwt beam="1">  1       21 0.10746803E-01 0.17400734E+03</pdfrwt>
<pdfrwt beam="2">  1       21 0.74513584E-01 0.17400734E+03</pdfrwt>
<totfact> 0.11603655E+05</totfact>
</mgrwt>
</event>
<event>
 4    1  0.4102458E+000  0.1799669E+03  0.7546771E-02  0.1167835E+00
         21   -1    0    0  501  502  0.00000000000E+00  0.00000000000E+00  0.43739096614E+02  0.43739096614E+02  0.00000000000E+00 0.  1.
         21   -1    0    0  502  503 -0.00000000000E+00 -0.00000000000E+00 -0.81099368382E+03  0.81099368382E+03  0.00000000000E+00 0.  1.
          6    1    1    2  501    0 -0.47500997848E+02 -0.14238737909E+02 -0.25761380012E+03  0.31424983129E+03  0.17300000000E+03 0.  1.
         -6    1    1    2    0  503  0.47500997848E+02  0.14238737909E+02 -0.50964078709E+03  0.54048294914E+03  0.17300000000E+03 0.  1.
<mgrwt>
<rscale>  2 0.17996690E+03</rscale>
<asrwt>0</asrwt>
<pdfrwt beam="1">  1       21 0.67290923E-02 0.17996690E+03</pdfrwt>
<pdfrwt beam="2">  1       21 0.12476825E+00 0.17996690E+03</pdfrwt>
<totfact> 0.78065812E+04</totfact>
</mgrwt>
</event>
<event>
 4    1  0.4102458E+000  0.2499720E+03  0.7546771E-02  0.1113322E+00
         21   -1    0    0  503  502  0.00000000000E+00  0.00000000000E+00  0.29784871426E+03  0.29784871426E+03  0.00000000000E+00 0. -1.
         21   -1    0    0  501  503 -0.00000000000E+00 -0.00000000000E+00 -0.31976690856E+03  0.31976690856E+03  0.00000000000E+00 0.  1.
          6    1    1    2  501    0 -0.16862181229E+03 -0.64216080288E+02 -0.19205975430E+03  0.31523478516E+03  0.17300000000E+03 0.  1.
         -6    1    1    2    0  502  0.16862181229E+03  0.64216080288E+02  0.17014156000E+03  0.30238083767E+03  0.17300000000E+03 0. -1.
<mgrwt>
<rscale>  2 0.24997204E+03</rscale>
<asrwt>0</asrwt>
<pdfrwt beam="1">  1       21 0.45822879E-01 0.24997204E+03</pdfrwt>
<pdfrwt beam="2">  1       21 0.49194909E-01 0.24997204E+03</pdfrwt>
<totfact> 0.17425401E+04</totfact>
</mgrwt>
</event>
<event>
 4    1  0.4102458E+000  0.2628924E+03  0.7546771E-02  0.1105418E+00
         21   -1    0    0  501  502  0.00000000000E+00  0.00000000000E+00  0.24058612498E+03  0.24058612498E+03  0.00000000000E+00 0. -1.
         21   -1    0    0  502  503 -0.00000000000E+00 -0.00000000000E+00 -0.47043026034E+03  0.47043026034E+03  0.00000000000E+00 0.  1.
          6    1    1    2  501    0  0.18234739290E+03 -0.77024831372E+02  0.10690853399E+03  0.28379892704E+03  0.17300000000E+03 0. -1.
         -6    1    1    2    0  503 -0.18234739290E+03  0.77024831372E+02 -0.33675266935E+03  0.42721745828E+03  0.17300000000E+03 0.  1.
<mgrwt>
<rscale>  2 0.26289237E+03</rscale>
<asrwt>0</asrwt>
<pdfrwt beam="1">  1       21 0.37013250E-01 0.26289237E+03</pdfrwt>
<pdfrwt beam="2">  1       21 0.72373886E-01 0.26289237E+03</pdfrwt>
<totfact> 0.11623186E+04</totfact>
</mgrwt>
</event>
<event>
 4    1  0.4102458E+000  0.2803785E+03  0.7546771E-02  0.1095482E+00
         21   -1    0    0  501  502  0.00000000000E+00  0.00000000000E+00  0.68973979572E+03  0.68973979572E+03  0.00000000000E+00 0. -1.
         21   -1    0    0  502  503 -0.00000000000E+00 -0.00000000000E+00 -0.12607843328E+03  0.12607843328E+03  0.00000000000E+00 0.  1.
          6    1    1    2  501    0 -0.20775968088E+03  0.74290075795E+02  0.40822371024E+03  0.49523600229E+03  0.17300000000E+03 0. -1.
         -6    1    1    2    0  503  0.20775968088E+03 -0.74290075795E+02  0.15543765221E+03  0.32058222672E+03  0.17300000000E+03 0.  1.
<mgrwt>
<rscale>  2 0.28037849E+03</rscale>
<asrwt>0</asrwt>
<pdfrwt beam="1">  1       21 0.10611381E+00 0.28037849E+03</pdfrwt>
<pdfrwt beam="2">  1       21 0.19396682E-01 0.28037849E+03</pdfrwt>
<totfact> 0.16585111E+04</totfact>
</mgrwt>
</event>
<event>
 4    1  0.4102458E+000  0.1825271E+03  0.7546771E-02  0.1165380E+00
         21   -1    0    0  501  502  0.00000000000E+00  0.00000000000E+00  0.66511703004E+02  0.66511703004E+02  0.00000000000E+00 0.  1.
         21   -1    0    0  502  503 -0.00000000000E+00 -0.00000000000E+00 -0.81580222348E+03  0.81580222348E+03  0.00000000000E+00 0.  1.
          6    1    1    2  501    0 -0.56075843228E+02  0.15576533300E+02 -0.10056090851E+03  0.20839535720E+03  0.17300000000E+03 0.  1.
         -6    1    1    2    0  503  0.56075843228E+02 -0.15576533300E+02 -0.64872961197E+03  0.67391856928E+03  0.17300000000E+03 0.  1.
<mgrwt>
<rscale>  2 0.18252706E+03</rscale>
<asrwt>0</asrwt>
<pdfrwt beam="1">  1       21 0.10232570E-01 0.18252706E+03</pdfrwt>
<pdfrwt beam="2">  1       21 0.12550804E+00 0.18252706E+03</pdfrwt>
<totfact> 0.37001017E+04</totfact>
</mgrwt>
</event>
<event>
 4    1  0.4102458E+000  0.2026953E+03  0.7546771E-02  0.1147485E+00
         21   -1    0    0  501  502  0.00000000000E+00  0.00000000000E+00  0.11004490046E+03  0.11004490046E+03  0.00000000000E+00 0.  1.
         21   -1    0    0  502  503 -0.00000000000E+00 -0.00000000000E+00 -0.41346038315E+03  0.41346038315E+03  0.00000000000E+00 0.  1.
          6    1    1    2  501    0 -0.95966413306E+02  0.44122767615E+02 -0.70181534216E+02  0.21450132599E+03  0.17300000000E+03 0.  1.
         -6    1    1    2    0  503  0.95966413306E+02 -0.44122767615E+02 -0.23323394847E+03  0.30900395762E+03  0.17300000000E+03 0.  1.
<mgrwt>
<rscale>  2 0.20269527E+03</rscale>
<asrwt>0</asrwt>
<pdfrwt beam="1">  1       21 0.16929985E-01 0.20269527E+03</pdfrwt>
<pdfrwt beam="2">  1       21 0.63609290E-01 0.20269527E+03</pdfrwt>
<totfact> 0.71483728E+04</totfact>
</mgrwt>
</event>
<event>
 4    1  0.4102458E+000  0.1866997E+03  0.7546771E-02  0.1161472E+00
         21   -1    0    0  503  502  0.00000000000E+00  0.00000000000E+00  0.65134577113E+02  0.65134577113E+02  0.00000000000E+00 0.  1.
         21   -1    0    0  501  503 -0.00000000000E+00 -0.00000000000E+00 -0.11179647818E+04  0.11179647818E+04  0.00000000000E+00 0.  1.
          6    1    1    2  501    0  0.40384934415E+02  0.57417949167E+02 -0.95352778791E+03  0.97163367898E+03  0.17300000000E+03 0.  1.
         -6    1    1    2    0  502 -0.40384934415E+02 -0.57417949167E+02 -0.99302416792E+02  0.21146567995E+03  0.17300000000E+03 0.  1.
<mgrwt>
<rscale>  2 0.18669966E+03</rscale>
<asrwt>0</asrwt>
<pdfrwt beam="1">  1       21 0.10020705E-01 0.18669966E+03</pdfrwt>
<pdfrwt beam="2">  1       21 0.17199457E+00 0.18669966E+03</pdfrwt>
<totfact> 0.16778349E+04</totfact>
</mgrwt>
</event>
<event>
 4    1  0.4102458E+000  0.2529170E+03  0.7546771E-02  0.1111475E+00
         21   -1    0    0  503  502  0.00000000000E+00  0.00000000000E+00  0.33932341203E+03  0.33932341203E+03  0.00000000000E+00 0. -1.
         21   -1    0    0  501  503 -0.00000000000E+00 -0.00000000000E+00 -0.23557649045E+03  0.23557649045E+03  0.00000000000E+00 0. -1.
          6    1    1    2  501    0 -0.62709438443E+02 -0.17350950932E+03 -0.76606768956E+02  0.26426430055E+03  0.17300000000E+03 0. -1.
         -6    1    1    2    0  502  0.62709438443E+02  0.17350950932E+03  0.18035369053E+03  0.31063560193E+03  0.17300000000E+03 0. -1.
<mgrwt>
<rscale>  2 0.25291703E+03</rscale>
<asrwt>0</asrwt>
<pdfrwt beam="1">  1       21 0.52203602E-01 0.25291703E+03</pdfrwt>
<pdfrwt beam="2">  1       21 0.36242537E-01 0.25291703E+03</pdfrwt>
<totfact> 0.24776012E+04</totfact>
</mgrwt>
</event>
<event>
 4    1  0.4102458E+000  0.2400573E+03  0.7546771E-02  0.1119755E+00
         21   -1    0    0  503  502  0.00000000000E+00  0.00000000000E+00  0.27408508506E+03  0.27408508506E+03  0.00000000000E+00 0.  1.
         21   -1    0    0  501  503 -0.00000000000E+00 -0.00000000000E+00 -0.21313600586E+03  0.21313600586E+03  0.00000000000E+00 0. -1.
          6    1    1    2  501    0 -0.47125214792E+02 -0.15961743566E+03  0.21470616265E+01  0.24006691048E+03  0.17300000000E+03 0. -1.
         -6    1    1    2    0  502  0.47125214792E+02  0.15961743566E+03  0.58802017577E+02  0.24715418043E+03  0.17300000000E+03 0.  1.
<mgrwt>
<rscale>  2 0.24005731E+03</rscale>
<asrwt>0</asrwt>
<pdfrwt beam="1">  1       21 0.42166936E-01 0.24005731E+03</pdfrwt>
<pdfrwt beam="2">  1       21 0.32790155E-01 0.24005731E+03</pdfrwt>
<totfact> 0.47410130E+04</totfact>
</mgrwt>
</event>
<event>
 4    1  0.4102458E+000  0.2799734E+03  0.7546771E-02  0.1095703E+00
         21   -1    0    0  503  502  0.00000000000E+00  0.00000000000E+00  0.12656363474E+04  0.12656363474E+04  0.00000000000E+00 0. -1.
         21   -1    0    0  501  503 -0.00000000000E+00 -0.00000000000E+00 -0.64238780058E+02  0.64238780058E+02  0.00000000000E+00 0.  1.
          6    1    1    2  501    0 -0.96068389397E+02 -0.19805792912E+03  0.47473093849E+03  0.55113931332E+03  0.17300000000E+03 0.  1.
         -6    1    1    2    0  502  0.96068389397E+02  0.19805792912E+03  0.72666662881E+03  0.77873581410E+03  0.17300000000E+03 0. -1.
<mgrwt>
<rscale>  2 0.27997335E+03</rscale>
<asrwt>0</asrwt>
<pdfrwt beam="1">  1       21 0.19471327E+00 0.27997335E+03</pdfrwt>
<pdfrwt beam="2">  1       21 0.98828902E-02 0.27997335E+03</pdfrwt>
<totfact> 0.11330119E+04</totfact>
</mgrwt>
</event>
<event>
 4    1  0.4102458E+000  0.2030095E+03  0.7546771E-02  0.1147224E+00
         21   -1    0    0  503  502  0.00000000000E+00  0.00000000000E+00  0.13033397175E+03  0.13033397175E+03  0.00000000000E+00 0.  1.
         21   -1    0    0  501  503 -0.00000000000E+00 -0.00000000000E+00 -0.36092550151E+03  0.36092550151E+03  0.00000000000E+00 0.  1.
          6    1    1    2  501    0  0.35835968347E+02  0.99998258211E+02 -0.20175324778E+03  0.28621188176E+03  0.17300000000E+03 0.  1.
         -6    1    1    2    0  502 -0.35835968347E+02 -0.99998258211E+02 -0.28838281983E+02  0.20504759150E+03  0.17300000000E+03 0.  1.
<mgrwt>
<rscale>  2 0.20300953E+03</rscale>
<asrwt>0</asrwt>
<pdfrwt beam="1">  1       21 0.20051381E-01 0.20300953E+03</pdfrwt>
<pdfrwt beam="2">  1       21 0.55526999E-01 0.20300953E+03</pdfrwt>
<totfact> 0.69897352E+04</totfact>
</mgrwt>
</event>
<event>
 4    1  0.4102458E+000  0.2092948E+03  0.7546771E-02  0.1142126E+00
         21   -1    0    0  503  502  0.00000000000E+00  0.00000000000E+00  0.16089504325E+04  0.16089504325E+04  0.00000000000E+00 0.  1.
         21   -1    0    0  501  503 -0.00000000000E+00 -0.00000000000E+00 -0.31231736375E+02  0.31231736375E+02  0.00000000000E+00 0.  1.
          6    1    1    2  501    0  0.10459426874E+03  0.54178850789E+02  0.49513626815E+03  0.53755393494E+03  0.17300000000E+03 0.  1.
         -6    1    1    2    0  502 -0.10459426874E+03 -0.54178850789E+02  0.10825824280E+04  0.11026282339E+04  0.17300000000E+03 0.  1.
<mgrwt>
<rscale>  2 0.20929479E+03</rscale>
<asrwt>0</asrwt>
<pdfrwt beam="1">  1       21 0.24753077E+00 0.20929479E+03</pdfrwt>
<pdfrwt beam="2">  1       21 0.48048838E-02 0.20929479E+03</pdfrwt>
<totfact> 0.19507162E+04</totfact>
</mgrwt>
</event>
<event>
 4    1  0.4102458E+000  0.2430439E+03  0.7546771E-02  0.1117782E+00
         21   -1    0    0  503  502  0.00000000000E+00  0.00000000000E+00  0.10364122941E+03  0.10364122941E+03  0.00000000000E+00 0.  1.
         21   -1    0    0  501  503 -0.00000000000E+00 -0.00000000000E+00 -0.77419367664E+03  0.77419367664E+03  0.00000000000E+00 0.  1.
          6    1    1    2  501    0 -0.81268303111E+02 -0.15012258595E+03 -0.56071688816E+03  0.61112499259E+03  0.17300000000E+03 0.  1.
         -6    1    1    2    0  502  0.81268303111E+02  0.15012258595E+03 -0.10983555908E+03  0.26670991346E+03  0.17300000000E+03 0.  1.
<mgrwt>
<rscale>  2 0.24304388E+03</rscale>
<asrwt>0</asrwt>
<pdfrwt beam="1">  1       21 0.15944805E-01 0.24304388E+03</pdfrwt>
<pdfrwt beam="2">  1       21 0.11910671E+00 0.24304388E+03</pdfrwt>
<totfact> 0.18317812E+04</totfact>
</mgrwt>
</event>
<event>
 4    1  0.4102458E+000  0.2083533E+03  0.7546771E-02  0.1142877E+00
         21   -1    0    0  503  502  0.00000000000E+00  0.00000000000E+00  0.25255594564E+03  0.25255594564E+03  0.00000000000E+00 0. -1.
         21   -1    0    0  501  503 -0.00000000000E+00 -0.00000000000E+00 -0.17354818627E+03  0.17354818627E+03  0.00000000000E+00 0. -1.
          6    1    1    2  501    0 -0.65012780005E+02  0.96205154723E+02  0.18659933489E+02  0.20918720438E+03  0.17300000000E+03 0. -1.
         -6    1    1    2    0  502  0.65012780005E+02 -0.96205154723E+02  0.60347825883E+02  0.21691692753E+03  0.17300000000E+03 0. -1.
<mgrwt>
<rscale>  2 0.20835329E+03</rscale>
<asrwt>0</asrwt>
<pdfrwt beam="1">  1       21 0.38854761E-01 0.20835329E+03</pdfrwt>
<pdfrwt beam="2">  1       21 0.26699721E-01 0.20835329E+03</pdfrwt>
<totfact> 0.84724853E+04</totfact>
</mgrwt>
</event>
<event>
 4    1  0.4102458E+000  0.1882249E+03  0.7546771E-02  0.1160072E+00
         21   -1    0    0  501  502  0.00000000000E+00  0.00000000000E+00  0.31101475176E+03  0.31101475176E+03  0.00000000000E+00 0. -1.
         21   -1    0    0  502  503 -0.00000000000E+00 -0.00000000000E+00 -0.11852025817E+03  0.11852025817E+03  0.00000000000E+00 0. -1.
          6    1    1    2  501    0 -0.65393674476E+02 -0.34975507260E+02  0.53903015206E+02  0.19579109739E+03  0.17300000000E+03 0. -1.
         -6    1    1    2    0  503  0.65393674476E+02  0.34975507260E+02  0.13859147838E+03  0.23374391254E+03  0.17300000000E+03 0. -1.
<mgrwt>
<rscale>  2 0.18822492E+03</rscale>
<asrwt>0</asrwt>
<pdfrwt beam="1">  1       21 0.47848423E-01 0.18822492E+03</pdfrwt>
<pdfrwt beam="2">  1       21 0.18233886E-01 0.18822492E+03</pdfrwt>
<totfact> 0.11463821E+05</totfact>
</mgrwt>
</event>
<event>
 4    1  0.4102458E+000  0.1748472E+03  0.7546771E-02  0.1172885E+00
         21   -1    0    0  503  502  0.00000000000E+00  0.00000000000E+00  0.58795737858E+02  0.58795737858E+02  0.00000000000E+00 0. -1.
         21   -1    0    0  501  503 -0.00000000000E+00 -0.00000000000E+00 -0.88176030103E+03  0.88176030103E+03  0.00000000000E+00 0. -1.
          6    1    1    2  501    0  0.19091873317E+02  0.16674542366E+02 -0.71272237088E+03  0.73385606078E+03  0.17300000000E+03 0. -1.
         -6    1    1    2    0  502 -0.19091873317E+02 -0.16674542366E+02 -0.11024219230E+03  0.20669997811E+03  0.17300000000E+03 0. -1.
<mgrwt>
<rscale>  2 0.17484719E+03</rscale>
<asrwt>0</asrwt>
<pdfrwt beam="1">  1       21 0.90454985E-02 0.17484719E+03</pdfrwt>
<pdfrwt beam="2">  1       21 0.13565543E+00 0.17484719E+03</pdfrwt>
<totfact> 0.37959878E+04</totfact>
</mgrwt>
</event>
<event>
 4    1  0.4102458E+000  0.2573417E+03  0.7546771E-02  0.1108751E+00
         21   -1    0    0  503  502  0.00000000000E+00  0.00000000000E+00  0.58608990493E+03  0.58608990493E+03  0.00000000000E+00 0.  1.
         21   -1    0    0  501  503 -0.00000000000E+00 -0.00000000000E+00 -0.66068689057E+03  0.66068689057E+03  0.00000000000E+00 0.  1.
          6    1    1    2  501    0 -0.90938892385E+02  0.16740933570E+03 -0.60488143828E+03  0.65734794607E+03  0.17300000000E+03 0.  1.
         -6    1    1    2    0  502  0.90938892385E+02 -0.16740933570E+03  0.53028445264E+03  0.58942884942E+03  0.17300000000E+03 0.  1.
<mgrwt>
<rscale>  2 0.25734173E+03</rscale>
<asrwt>0</asrwt>
<pdfrwt beam="1">  1       21 0.90167678E-01 0.25734173E+03</pdfrwt>
<pdfrwt beam="2">  1       21 0.10164414E+00 0.25734173E+03</pdfrwt>
<totfact> 0.77859286E+02</totfact>
</mgrwt>
</event>
<event>
 4    1  0.4102458E+000  0.2427339E+03  0.7546771E-02  0.1117985E+00
         21   -1    0    0  501  502  0.00000000000E+00  0.00000000000E+00  0.24645372663E+03  0.24645372663E+03  0.00000000000E+00 0.  1.
         21   -1    0    0  502  503 -0.00000000000E+00 -0.00000000000E+00 -0.26224997492E+03  0.26224997492E+03  0.00000000000E+00 0. -1.
          6    1    1    2  501    0  0.14467336418E+03  0.89779547636E+02  0.67720972819E+02  0.25200372941E+03  0.17300000000E+03 0.  1.
         -6    1    1    2    0  503 -0.14467336418E+03 -0.89779547636E+02 -0.83517221111E+02  0.25669997214E+03  0.17300000000E+03 0.  1.
<mgrwt>
<rscale>  2 0.24273391E+03</rscale>
<asrwt>0</asrwt>
<pdfrwt beam="1">  1       21 0.37915958E-01 0.24273391E+03</pdfrwt>
<pdfrwt beam="2">  1       21 0.40346150E-01 0.24273391E+03</pdfrwt>
<totfact> 0.38768883E+04</totfact>
</mgrwt>
</event>
<event>
 4    1  0.4102458E+000  0.1965378E+03  0.7546771E-02  0.1152693E+00
         21   -1    0    0  503  502  0.00000000000E+00  0.00000000000E+00  0.72054773731E+03  0.72054773731E+03  0.00000000000E+00 0.  1.
         21   -1    0    0  501  503 -0.00000000000E+00 -0.00000000000E+00 -0.53729713419E+02  0.53729713419E+02  0.00000000000E+00 0.  1.
          6    1    1    2  501    0  0.60976570962E+02 -0.70568746461E+02  0.31497965946E+03  0.37126712224E+03  0.17300000000E+03 0. -1.
         -6    1    1    2    0  502 -0.60976570962E+02  0.70568746461E+02  0.35183836444E+03  0.40301032850E+03  0.17300000000E+03 0. -1.
<mgrwt>
<rscale>  2 0.19653776E+03</rscale>
<asrwt>0</asrwt>
<pdfrwt beam="1">  1       21 0.11085349E+00 0.19653776E+03</pdfrwt>
<pdfrwt beam="2">  1       21 0.82661103E-02 0.19653776E+03</pdfrwt>
<totfact> 0.72523453E+04</totfact>
</mgrwt>
</event>
<event>
 4    1  0.4102458E+000  0.2737236E+03  0.7546771E-02  0.1099167E+00
         21   -1    0    0  501  502  0.00000000000E+00  0.00000000000E+00  0.10818325064E+03  0.10818325064E+03  0.00000000000E+00 0.  1.
         21   -1    0    0  502  503 -0.00000000000E+00 -0.00000000000E+00 -0.90238036712E+03  0.90238036712E+03  0.00000000000E+00 0. -1.
          6    1    1    2  501    0  0.97999560894E+02 -0.18812679576E+03 -0.15345717323E+03  0.31380520906E+03  0.17300000000E+03 0.  1.
         -6    1    1    2    0  503 -0.97999560894E+02  0.18812679576E+03 -0.64073994325E+03  0.69675840870E+03  0.17300000000E+03 0. -1.
<mgrwt>
<rscale>  2 0.27372359E+03</rscale>
<asrwt>0</asrwt>
<pdfrwt beam="1">  1       21 0.16643577E-01 0.27372359E+03</pdfrwt>
<pdfrwt beam="2">  1       21 0.13882775E+00 0.27372359E+03</pdfrwt>
<totfact> 0.11274055E+04</totfact>
</mgrwt>
</event>
<event>
 4    1  0.4102458E+000  0.1959850E+03  0.7546771E-02  0.1153171E+00
         21   -1    0    0  503  502  0.00000000000E+00  0.00000000000E+00  0.66904639978E+03  0.66904639978E+03  0.00000000000E+00 0. -1.
         21   -1    0    0  501  503 -0.00000000000E+00 -0.00000000000E+00 -0.58350454987E+02  0.58350454987E+02  0.00000000000E+00 0. -1.
          6    1    1    2  501    0  0.42801101143E+02 -0.81542472727E+02  0.35151529638E+03  0.40245883355E+03  0.17300000000E+03 0. -1.
         -6    1    1    2    0  502 -0.42801101143E+02  0.81542472727E+02  0.25918064842E+03  0.32493802122E+03  0.17300000000E+03 0. -1.
<mgrwt>
<rscale>  2 0.19598497E+03</rscale>
<asrwt>0</asrwt>
<pdfrwt beam="1">  1       21 0.10293021E+00 0.19598497E+03</pdfrwt>
<pdfrwt beam="2">  1       21 0.89769935E-02 0.19598497E+03</pdfrwt>
<totfact> 0.75077458E+04</totfact>
</mgrwt>
</event>
<event>
 4    1  0.4102458E+000  0.2502765E+03  0.7546771E-02  0.1113130E+00
         21   -1    0    0  503  502  0.00000000000E+00  0.00000000000E+00  0.36583710837E+03  0.36583710837E+03  0.00000000000E+00 0.  1.
         21   -1    0    0  501  503 -0.00000000000E+00 -0.00000000000E+00 -0.29842977590E+03  0.29842977590E+03  0.00000000000E+00 0.  1.
          6    1    1    2  501    0 -0.94651255177E+02 -0.15411194395E+03 -0.18314316112E+03  0.31012863273E+03  0.17300000000E+03 0.  1.
         -6    1    1    2    0  502  0.94651255177E+02  0.15411194395E+03  0.25055049358E+03  0.35413825155E+03  0.17300000000E+03 0.  1.
<mgrwt>
<rscale>  2 0.25027655E+03</rscale>
<asrwt>0</asrwt>
<pdfrwt beam="1">  1       21 0.56282632E-01 0.25027655E+03</pdfrwt>
<pdfrwt beam="2">  1       21 0.45912273E-01 0.25027655E+03</pdfrwt>
<totfact> 0.13053519E+04</totfact>
</mgrwt>
</event>
<event>
 4    1  0.4102458E+000  0.2455938E+03  0.7546771E-02  0.1116121E+00
         21   -1    0    0  501  502  0.00000000000E+00  0.00000000000E+00  0.47453948680E+02  0.47453948680E+02  0.00000000000E+00 0. -1.
         21   -1    0    0  502  503 -0.00000000000E+00 -0.00000000000E+00 -0.12869806964E+04  0.12869806964E+04  0.00000000000E+00 0. -1.
          6    1    1    2  501    0  0.15891246459E+03  0.71653027405E+02 -0.69399733240E+03  0.73617160032E+03  0.17300000000E+03 0. -1.
         -6    1    1    2    0  503 -0.15891246459E+03 -0.71653027405E+02 -0.54552941528E+03  0.59826304472E+03  0.17300000000E+03 0. -1.
<mgrwt>
<rscale>  2 0.24559383E+03</rscale>
<asrwt>0</asrwt>
<pdfrwt beam="1">  1       21 0.73006069E-02 0.24559383E+03</pdfrwt>
<pdfrwt beam="2">  1       21 0.19799705E+00 0.24559383E+03</pdfrwt>
<totfact> 0.18751100E+04</totfact>
</mgrwt>
</event>
<event>
 4    1  0.4102458E+000  0.2184076E+03  0.7546771E-02  0.1135076E+00
         21   -1    0    0  501  502  0.00000000000E+00  0.00000000000E+00  0.37634471161E+03  0.37634471161E+03  0.00000000000E+00 0. -1.
         21   -1    0    0  502  503 -0.00000000000E+00 -0.00000000000E+00 -0.12859689059E+03  0.12859689059E+03  0.00000000000E+00 0. -1.
          6    1    1    2  501    0 -0.77497735166E+02 -0.10847563571E+03  0.15412655181E+03  0.26731415314E+03  0.17300000000E+03 0. -1.
         -6    1    1    2    0  503  0.77497735166E+02  0.10847563571E+03  0.93621269209E+02  0.23762744906E+03  0.17300000000E+03 0. -1.
<mgrwt>
<rscale>  2 0.21840756E+03</rscale>
<asrwt>0</asrwt>
<pdfrwt beam="1">  1       21 0.57899186E-01 0.21840756E+03</pdfrwt>
<pdfrwt beam="2">  1       21 0.19784137E-01 0.21840756E+03</pdfrwt>
<totfact> 0.65122276E+04</totfact>
</mgrwt>
</event>
<event>
 4    1  0.4102458E+000  0.1913117E+03  0.7546771E-02  0.1157284E+00
         21   -1    0    0  501  502  0.00000000000E+00  0.00000000000E+00  0.43539299227E+03  0.43539299227E+03  0.00000000000E+00 0.  1.
         21   -1    0    0  502  503 -0.00000000000E+00 -0.00000000000E+00 -0.27879508719E+03  0.27879508719E+03  0.00000000000E+00 0.  1.
          6    1    1    2  501    0  0.11037201700E+02 -0.80928062565E+02  0.37674064485E+03  0.42253246575E+03  0.17300000000E+03 0.  1.
         -6    1    1    2    0  503 -0.11037201700E+02  0.80928062565E+02 -0.22014273977E+03  0.29165561371E+03  0.17300000000E+03 0.  1.
<mgrwt>
<rscale>  2 0.19131171E+03</rscale>
<asrwt>0</asrwt>
<pdfrwt beam="1">  1       21 0.66983538E-01 0.19131171E+03</pdfrwt>
<pdfrwt beam="2">  1       21 0.42891552E-01 0.19131171E+03</pdfrwt>
<totfact> 0.10680521E+04</totfact>
</mgrwt>
</event>
<event>
 4    1  0.4102458E+000  0.2036870E+03  0.7546771E-02  0.1146665E+00
         21   -1    0    0  501  502  0.00000000000E+00  0.00000000000E+00  0.24814948619E+03  0.24814948619E+03  0.00000000000E+00 0.  1.
         21   -1    0    0  502  503 -0.00000000000E+00 -0.00000000000E+00 -0.16756292679E+03  0.16756292679E+03  0.00000000000E+00 0. -1.
          6    1    1    2  501    0 -0.10299704216E+03  0.30838598719E+02  0.50083380462E+02  0.20975403420E+03  0.17300000000E+03 0.  1.
         -6    1    1    2    0  503  0.10299704216E+03 -0.30838598719E+02  0.30503178937E+02  0.20595837878E+03  0.17300000000E+03 0. -1.
<mgrwt>
<rscale>  2 0.20368704E+03</rscale>
<asrwt>0</asrwt>
<pdfrwt beam="1">  1       21 0.38176844E-01 0.20368704E+03</pdfrwt>
<pdfrwt beam="2">  1       21 0.25778912E-01 0.20368704E+03</pdfrwt>
<totfact> 0.94083951E+04</totfact>
</mgrwt>
</event>
<event>
 4    1  0.4102458E+000  0.1987881E+03  0.7546771E-02  0.1150766E+00
         21   -1    0    0  501  502  0.00000000000E+00  0.00000000000E+00  0.55743515670E+03  0.55743515670E+03  0.00000000000E+00 0.  1.
         21   -1    0    0  502  503 -0.00000000000E+00 -0.00000000000E+00 -0.75636609575E+02  0.75636609575E+02  0.00000000000E+00 0. -1.
          6    1    1    2  501    0  0.91716220819E+02  0.34290447711E+02  0.32019297477E+03  0.37688226418E+03  0.17300000000E+03 0. -1.
         -6    1    1    2    0  503 -0.91716220819E+02 -0.34290447711E+02  0.16160557236E+03  0.25618950210E+03  0.17300000000E+03 0. -1.
<mgrwt>
<rscale>  2 0.19878808E+03</rscale>
<asrwt>0</asrwt>
<pdfrwt beam="1">  1       21 0.85759252E-01 0.19878808E+03</pdfrwt>
<pdfrwt beam="2">  1       21 0.11636402E-01 0.19878808E+03</pdfrwt>
<totfact> 0.72588567E+04</totfact>
</mgrwt>
</event>
<event>
 4    1  0.4102458E+000  0.2436760E+03  0.7546771E-02  0.1117368E+00
         21   -1    0    0  503  502  0.00000000000E+00  0.00000000000E+00  0.37593666471E+03  0.37593666471E+03  0.00000000000E+00 0. -1.
         21   -1    0    0  501  503 -0.00000000000E+00 -0.00000000000E+00 -0.22754584201E+03  0.22754584201E+03  0.00000000000E+00 0.  1.
          6    1    1    2  501    0  0.41528430528E+02 -0.16650636194E+03 -0.92683702840E+02  0.26070720719E+03  0.17300000000E+03 0.  1.
         -6    1    1    2    0  502 -0.41528430528E+02  0.16650636194E+03  0.24107452554E+03  0.34277529953E+03  0.17300000000E+03 0. -1.
<mgrwt>
<rscale>  2 0.24367597E+03</rscale>
<asrwt>0</asrwt>
<pdfrwt beam="1">  1       21 0.57836410E-01 0.24367597E+03</pdfrwt>
<pdfrwt beam="2">  1       21 0.35007053E-01 0.24367597E+03</pdfrwt>
<totfact> 0.21444709E+04</totfact>
</mgrwt>
</event>
<event>
 4    1  0.4102458E+000  0.1833821E+03  0.7546771E-02  0.1164569E+00
         21   -1    0    0  503  502  0.00000000000E+00  0.00000000000E+00  0.25685770785E+03  0.25685770785E+03  0.00000000000E+00 0. -1.
         21   -1    0    0  501  503 -0.00000000000E+00 -0.00000000000E+00 -0.14326876234E+03  0.14326876234E+03  0.00000000000E+00 0. -1.
          6    1    1    2  501    0 -0.83623996679E+01  0.60249938103E+02 -0.19305082781E+01  0.18339223438E+03  0.17300000000E+03 0. -1.
         -6    1    1    2    0  502  0.83623996679E+01 -0.60249938103E+02  0.11551945379E+03  0.21673423581E+03  0.17300000000E+03 0. -1.
<mgrwt>
<rscale>  2 0.18338207E+03</rscale>
<asrwt>0</asrwt>
<pdfrwt beam="1">  1       21 0.39516570E-01 0.18338207E+03</pdfrwt>
<pdfrwt beam="2">  1       21 0.22041348E-01 0.18338207E+03</pdfrwt>
<totfact> 0.11912897E+05</totfact>
</mgrwt>
</event>
<event>
 4    1  0.4102458E+000  0.2001773E+03  0.7546771E-02  0.1149589E+00
         21   -1    0    0  503  502  0.00000000000E+00  0.00000000000E+00  0.33215954208E+03  0.33215954208E+03  0.00000000000E+00 0. -1.
         21   -1    0    0  501  503 -0.00000000000E+00 -0.00000000000E+00 -0.12939592116E+03  0.12939592116E+03  0.00000000000E+00 0. -1.
          6    1    1    2  501    0  0.93579521765E+02 -0.37213494422E+02  0.41341770408E+02  0.20440184207E+03  0.17300000000E+03 0. -1.
         -6    1    1    2    0  502 -0.93579521765E+02  0.37213494422E+02  0.16142185051E+03  0.25715362118E+03  0.17300000000E+03 0. -1.
<mgrwt>
<rscale>  2 0.20017735E+03</rscale>
<asrwt>0</asrwt>
<pdfrwt beam="1">  1       21 0.51101468E-01 0.20017735E+03</pdfrwt>
<pdfrwt beam="2">  1       21 0.19907065E-01 0.20017735E+03</pdfrwt>
<totfact> 0.84506220E+04</totfact>
</mgrwt>
</event>
<event>
 4    1  0.4102458E+000  0.1761320E+03  0.7546771E-02  0.1171600E+00
         21   -1    0    0  501  502  0.00000000000E+00  0.00000000000E+00  0.24863559138E+03  0.24863559138E+03  0.00000000000E+00 0.  1.
         21   -1    0    0  502  503 -0.00000000000E+00 -0.00000000000E+00 -0.12561335878E+03  0.12561335878E+03  0.00000000000E+00 0.  1.
          6    1    1    2  501    0  0.14059920470E+02 -0.29929680167E+02  0.76836350228E+02  0.19216214985E+03  0.17300000000E+03 0.  1.
         -6    1    1    2    0  503 -0.14059920470E+02  0.29929680167E+02  0.46185882365E+02  0.18208680031E+03  0.17300000000E+03 0.  1.
<mgrwt>
<rscale>  2 0.17613196E+03</rscale>
<asrwt>0</asrwt>
<pdfrwt beam="1">  1       21 0.38251629E-01 0.17613196E+03</pdfrwt>
<pdfrwt beam="2">  1       21 0.19325132E-01 0.17613196E+03</pdfrwt>
<totfact> 0.16303245E+05</totfact>
</mgrwt>
</event>
<event>
 4    1  0.4102458E+000  0.2109058E+03  0.7546771E-02  0.1140851E+00
         21   -1    0    0  503  502  0.00000000000E+00  0.00000000000E+00  0.16511863196E+04  0.16511863196E+04  0.00000000000E+00 0.  1.
         21   -1    0    0  501  503 -0.00000000000E+00 -0.00000000000E+00 -0.13532994082E+03  0.13532994082E+03  0.00000000000E+00 0. -1.
          6    1    1    2  501    0  0.99956764224E+02 -0.67534357285E+02 -0.41494743378E+02  0.21494896570E+03  0.17300000000E+03 0. -1.
         -6    1    1    2    0  502 -0.99956764224E+02  0.67534357285E+02  0.15573511221E+04  0.15715672947E+04  0.17300000000E+03 0.  1.
<mgrwt>
<rscale>  2 0.21090577E+03</rscale>
<asrwt>0</asrwt>
<pdfrwt beam="1">  1       21 0.25402865E+00 0.21090577E+03</pdfrwt>
<pdfrwt beam="2">  1       21 0.20819992E-01 0.21090577E+03</pdfrwt>
<totfact> 0.13198025E+03</totfact>
</mgrwt>
</event>
<event>
 4    1  0.4102458E+000  0.2226232E+03  0.7546771E-02  0.1131942E+00
         21   -1    0    0  503  502  0.00000000000E+00  0.00000000000E+00  0.65058582411E+02  0.65058582411E+02  0.00000000000E+00 0.  1.
         21   -1    0    0  501  503 -0.00000000000E+00 -0.00000000000E+00 -0.76204834711E+03  0.76204834711E+03  0.00000000000E+00 0.  1.
          6    1    1    2  501    0 -0.10772970015E+03  0.89590195420E+02 -0.34090621602E+03  0.40715861717E+03  0.17300000000E+03 0.  1.
         -6    1    1    2    0  502  0.10772970015E+03 -0.89590195420E+02 -0.35608354868E+03  0.41994831236E+03  0.17300000000E+03 0.  1.
<mgrwt>
<rscale>  2 0.22262321E+03</rscale>
<asrwt>0</asrwt>
<pdfrwt beam="1">  1       21 0.10009013E-01 0.22262321E+03</pdfrwt>
<pdfrwt beam="2">  1       21 0.11723821E+00 0.22262321E+03</pdfrwt>
<totfact> 0.44607019E+04</totfact>
</mgrwt>
</event>
<event>
 4    1  0.4102458E+000  0.2071026E+03  0.7546771E-02  0.1143881E+00
         21   -1    0    0  501  502  0.00000000000E+00  0.00000000000E+00  0.28703319073E+03  0.28703319073E+03  0.00000000000E+00 0. -1.
         21   -1    0    0  502  503 -0.00000000000E+00 -0.00000000000E+00 -0.20722771496E+03  0.20722771496E+03  0.00000000000E+00 0. -1.
          6    1    1    2  501    0  0.20740170891E+02  0.11194786014E+03  0.17041648589E+03  0.26820375975E+03  0.17300000000E+03 0. -1.
         -6    1    1    2    0  503 -0.20740170891E+02 -0.11194786014E+03 -0.90611010129E+02  0.22605714595E+03  0.17300000000E+03 0. -1.
<mgrwt>
<rscale>  2 0.20710258E+03</rscale>
<asrwt>0</asrwt>
<pdfrwt beam="1">  1       21 0.44158952E-01 0.20710258E+03</pdfrwt>
<pdfrwt beam="2">  1       21 0.31881187E-01 0.20710258E+03</pdfrwt>
<totfact> 0.46269735E+04</totfact>
</mgrwt>
</event>
<event>
 4    1  0.4102458E+000  0.2061627E+03  0.7546771E-02  0.1144641E+00
         21   -1    0    0  503  502  0.00000000000E+00  0.00000000000E+00  0.19003030221E+03  0.19003030221E+03  0.00000000000E+00 0.  1.
         21   -1    0    0  501  503 -0.00000000000E+00 -0.00000000000E+00 -0.31643144701E+03  0.31643144701E+03  0.00000000000E+00 0.  1.
          6    1    1    2  501    0 -0.87110561244E+02 -0.70610227232E+02 -0.20031185803E+03  0.28745068192E+03  0.17300000000E+03 0.  1.
         -6    1    1    2    0  502  0.87110561244E+02  0.70610227232E+02  0.73910713224E+02  0.21901106730E+03  0.17300000000E+03 0.  1.
<mgrwt>
<rscale>  2 0.20616269E+03</rscale>
<asrwt>0</asrwt>
<pdfrwt beam="1">  1       21 0.29235431E-01 0.20616269E+03</pdfrwt>
<pdfrwt beam="2">  1       21 0.48681761E-01 0.20616269E+03</pdfrwt>
<totfact> 0.44834194E+04</totfact>
</mgrwt>
</event>
<event>
 4    1  0.4102458E+000  0.1771207E+03  0.7546771E-02  0.1170619E+00
         21   -1    0    0  501  502  0.00000000000E+00  0.00000000000E+00  0.55119101025E+03  0.55119101025E+03  0.00000000000E+00 0.  1.
         21   -1    0    0  502  503 -0.00000000000E+00 -0.00000000000E+00 -0.60505739311E+02  0.60505739311E+02  0.00000000000E+00 0.  1.
          6    1    1    2  501    0 -0.28197112689E+02  0.25449153586E+02  0.31983692614E+03  0.36560551953E+03  0.17300000000E+03 0.  1.
         -6    1    1    2    0  503  0.28197112689E+02 -0.25449153586E+02  0.17084834480E+03  0.24609123004E+03  0.17300000000E+03 0.  1.
<mgrwt>
<rscale>  2 0.17712068E+03</rscale>
<asrwt>0</asrwt>
<pdfrwt beam="1">  1       21 0.84798614E-01 0.17712068E+03</pdfrwt>
<pdfrwt beam="2">  1       21 0.93085756E-02 0.17712068E+03</pdfrwt>
<totfact> 0.11158609E+05</totfact>
</mgrwt>
</event>
<event>
 4    1  0.4102458E+000  0.1840386E+03  0.7546771E-02  0.1163951E+00
         21   -1    0    0  501  502  0.00000000000E+00  0.00000000000E+00  0.18010524296E+03  0.18010524296E+03  0.00000000000E+00 0. -1.
         21   -1    0    0  502  503 -0.00000000000E+00 -0.00000000000E+00 -0.29858944740E+03  0.29858944740E+03  0.00000000000E+00 0. -1.
          6    1    1    2  501    0 -0.18077498915E+02  0.60119935906E+02  0.86382460193E+02  0.20330305480E+03  0.17300000000E+03 0. -1.
         -6    1    1    2    0  503  0.18077498915E+02 -0.60119935906E+02 -0.20486666463E+03  0.27539163556E+03  0.17300000000E+03 0. -1.
<mgrwt>
<rscale>  2 0.18403859E+03</rscale>
<asrwt>0</asrwt>
<pdfrwt beam="1">  1       21 0.27708499E-01 0.18403859E+03</pdfrwt>
<pdfrwt beam="2">  1       21 0.45936838E-01 0.18403859E+03</pdfrwt>
<totfact> 0.56688547E+04</totfact>
</mgrwt>
</event>
<event>
 4    1  0.4102458E+000  0.1847081E+03  0.7546771E-02  0.1163323E+00
         21   -1    0    0  503  502  0.00000000000E+00  0.00000000000E+00  0.17884702696E+04  0.17884702696E+04  0.00000000000E+00 0. -1.
         21   -1    0    0  501  503 -0.00000000000E+00 -0.00000000000E+00 -0.35671122228E+02  0.35671122228E+02  0.00000000000E+00 0. -1.
          6    1    1    2  501    0  0.60076641864E+02 -0.24059571951E+02  0.25430153936E+03  0.31430294116E+03  0.17300000000E+03 0. -1.
         -6    1    1    2    0  502 -0.60076641864E+02  0.24059571951E+02  0.14984976080E+04  0.15098384506E+04  0.17300000000E+03 0. -1.
<mgrwt>
<rscale>  2 0.18470806E+03</rscale>
<asrwt>0</asrwt>
<pdfrwt beam="1">  1       21 0.27514920E+00 0.18470806E+03</pdfrwt>
<pdfrwt beam="2">  1       21 0.54878663E-02 0.18470806E+03</pdfrwt>
<totfact> 0.10988173E+04</totfact>
</mgrwt>
</event>
<event>
 4    1  0.4102458E+000  0.3658727E+03  0.7546771E-02  0.1056282E+00
         21   -1    0    0  503  502  0.00000000000E+00  0.00000000000E+00  0.25537740669E+03  0.25537740669E+03  0.00000000000E+00 0. -1.
         21   -1    0    0  501  503 -0.00000000000E+00 -0.00000000000E+00 -0.52424605538E+03  0.52424605538E+03  0.00000000000E+00 0.  1.
          6    1    1    2  501    0  0.32222445558E+03 -0.10257375471E+02 -0.12994151842E+03  0.38826229760E+03  0.17300000000E+03 0. -1.
         -6    1    1    2    0  502 -0.32222445558E+03  0.10257375471E+02 -0.13892713028E+03  0.39136116447E+03  0.17300000000E+03 0.  1.
<mgrwt>
<rscale>  2 0.36587267E+03</rscale>
<asrwt>0</asrwt>
<pdfrwt beam="1">  1       21 0.39288832E-01 0.36587267E+03</pdfrwt>
<pdfrwt beam="2">  1       21 0.80653239E-01 0.36587267E+03</pdfrwt>
<totfact> 0.76970195E+03</totfact>
</mgrwt>
</event>
<event>
 4    1  0.4102458E+000  0.1737276E+03  0.7546771E-02  0.1174015E+00
         21   -1    0    0  501  502  0.00000000000E+00  0.00000000000E+00  0.41347105211E+03  0.41347105211E+03  0.00000000000E+00 0.  1.
         21   -1    0    0  502  503 -0.00000000000E+00 -0.00000000000E+00 -0.72994947716E+02  0.72994947716E+02  0.00000000000E+00 0.  1.
          6    1    1    2  501    0  0.36187528132E+01  0.15465636473E+02  0.17041815547E+03  0.24335905366E+03  0.17300000000E+03 0. -1.
         -6    1    1    2    0  503 -0.36187528132E+01 -0.15465636473E+02  0.17005794893E+03  0.24310694617E+03  0.17300000000E+03 0. -1.
<mgrwt>
<rscale>  2 0.17372761E+03</rscale>
<asrwt>0</asrwt>
<pdfrwt beam="1">  1       21 0.63610930E-01 0.17372761E+03</pdfrwt>
<pdfrwt beam="2">  1       21 0.11229992E-01 0.17372761E+03</pdfrwt>
<totfact> 0.15184335E+05</totfact>
</mgrwt>
</event>
<event>
 4    1  0.4102458E+000  0.1817332E+03  0.7546771E-02  0.1166136E+00
         21   -1    0    0  503  502  0.00000000000E+00  0.00000000000E+00  0.43921375087E+03  0.43921375087E+03  0.00000000000E+00 0. -1.
         21   -1    0    0  501  503 -0.00000000000E+00 -0.00000000000E+00 -0.94827648947E+02  0.94827648947E+02  0.00000000000E+00 0. -1.
          6    1    1    2  501    0  0.35748466170E+02 -0.42661573099E+02  0.50697683102E+02  0.18867224948E+03  0.17300000000E+03 0. -1.
         -6    1    1    2    0  502 -0.35748466170E+02  0.42661573099E+02  0.29368841882E+03  0.34536915033E+03  0.17300000000E+03 0. -1.
<mgrwt>
<rscale>  2 0.18173322E+03</rscale>
<asrwt>0</asrwt>
<pdfrwt beam="1">  1       21 0.67571345E-01 0.18173322E+03</pdfrwt>
<pdfrwt beam="2">  1       21 0.14588869E-01 0.18173322E+03</pdfrwt>
<totfact> 0.82995951E+04</totfact>
</mgrwt>
</event>
<event>
 4    1  0.4102458E+000  0.1994562E+03  0.7546771E-02  0.1150199E+00
         21   -1    0    0  503  502  0.00000000000E+00  0.00000000000E+00  0.37457535910E+03  0.37457535910E+03  0.00000000000E+00 0.  1.
         21   -1    0    0  501  503 -0.00000000000E+00 -0.00000000000E+00 -0.10765306999E+03  0.10765306999E+03  0.00000000000E+00 0. -1.
          6    1    1    2  501    0 -0.90038005846E+02  0.41796177292E+02  0.10552226916E+03  0.22564953406E+03  0.17300000000E+03 0.  1.
         -6    1    1    2    0  502  0.90038005846E+02 -0.41796177292E+02  0.16140001996E+03  0.25657889503E+03  0.17300000000E+03 0.  1.
<mgrwt>
<rscale>  2 0.19945617E+03</rscale>
<asrwt>0</asrwt>
<pdfrwt beam="1">  1       21 0.57626978E-01 0.19945617E+03</pdfrwt>
<pdfrwt beam="2">  1       21 0.16562011E-01 0.19945617E+03</pdfrwt>
<totfact> 0.92198012E+04</totfact>
</mgrwt>
</event>
<event>
 4    1  0.4102458E+000  0.2184365E+03  0.7546771E-02  0.1135054E+00
         21   -1    0    0  501  502  0.00000000000E+00  0.00000000000E+00  0.14312799919E+04  0.14312799919E+04  0.00000000000E+00 0.  1.
         21   -1    0    0  502  503 -0.00000000000E+00 -0.00000000000E+00 -0.44687332995E+02  0.44687332995E+02  0.00000000000E+00 0. -1.
          6    1    1    2  501    0  0.69987959094E+02 -0.11352180229E+03  0.10652250597E+04  0.10873908873E+04  0.17300000000E+03 0.  1.
         -6    1    1    2    0  503 -0.69987959094E+02  0.11352180229E+03  0.32136759915E+03  0.38857643752E+03  0.17300000000E+03 0. -1.
<mgrwt>
<rscale>  2 0.21843652E+03</rscale>
<asrwt>0</asrwt>
<pdfrwt beam="1">  1       21 0.22019689E+00 0.21843652E+03</pdfrwt>
<pdfrwt beam="2">  1       21 0.68749754E-02 0.21843652E+03</pdfrwt>
<totfact> 0.15333102E+04</totfact>
</mgrwt>
</event>
<event>
 4    1  0.4102458E+000  0.2014235E+03  0.7546771E-02  0.1148544E+00
         21   -1    0    0  501  502  0.00000000000E+00  0.00000000000E+00  0.52090094385E+03  0.52090094385E+03  0.00000000000E+00 0. -1.
         21   -1    0    0  502  503 -0.00000000000E+00 -0.00000000000E+00 -0.10248253691E+03  0.10248253691E+03  0.00000000000E+00 0.  1.
          6    1    1    2  501    0 -0.10152136176E+03  0.18326311530E+02  0.36190533204E+03  0.41418221829E+03  0.17300000000E+03 0. -1.
         -6    1    1    2    0  503  0.10152136176E+03 -0.18326311530E+02  0.56513074900E+02  0.20920126248E+03  0.17300000000E+03 0.  1.
<mgrwt>
<rscale>  2 0.20142354E+03</rscale>
<asrwt>0</asrwt>
<pdfrwt beam="1">  1       21 0.80138606E-01 0.20142354E+03</pdfrwt>
<pdfrwt beam="2">  1       21 0.15766544E-01 0.20142354E+03</pdfrwt>
<totfact> 0.48854584E+04</totfact>
</mgrwt>
</event>
<event>
 4    1  0.4102458E+000  0.1932463E+03  0.7546771E-02  0.1155566E+00
         21   -1    0    0  503  502  0.00000000000E+00  0.00000000000E+00  0.20141421906E+04  0.20141421906E+04  0.00000000000E+00 0.  1.
         21   -1    0    0  501  503 -0.00000000000E+00 -0.00000000000E+00 -0.19912821898E+02  0.19912821898E+02  0.00000000000E+00 0. -1.
          6    1    1    2  501    0 -0.85783847307E+02 -0.75018763845E+01  0.73017068082E+03  0.75531011494E+03  0.17300000000E+03 0. -1.
         -6    1    1    2    0  502  0.85783847307E+02  0.75018763845E+01  0.12640586879E+04  0.12787448976E+04  0.17300000000E+03 0. -1.
<mgrwt>
<rscale>  2 0.19324634E+03</rscale>
<asrwt>0</asrwt>
<pdfrwt beam="1">  1       21 0.30986787E+00 0.19324634E+03</pdfrwt>
<pdfrwt beam="2">  1       21 0.30635126E-02 0.19324634E+03</pdfrwt>
<totfact> 0.18291073E+04</totfact>
</mgrwt>
</event>
<event>
 4    1  0.4102458E+000  0.2001479E+03  0.7546771E-02  0.1149614E+00
         21   -1    0    0  503  502  0.00000000000E+00  0.00000000000E+00  0.43467044230E+02  0.43467044230E+02  0.00000000000E+00 0.  1.
         21   -1    0    0  501  503 -0.00000000000E+00 -0.00000000000E+00 -0.11583074605E+04  0.11583074605E+04  0.00000000000E+00 0.  1.
          6    1    1    2  501    0 -0.20334736286E+02 -0.98573201510E+02 -0.82905669242E+03  0.85287406854E+03  0.17300000000E+03 0.  1.
         -6    1    1    2    0  502  0.20334736286E+02  0.98573201510E+02 -0.28578372389E+03  0.34890043622E+03  0.17300000000E+03 0.  1.
<mgrwt>
<rscale>  2 0.20014789E+03</rscale>
<asrwt>0</asrwt>
<pdfrwt beam="1">  1       21 0.66872370E-02 0.20014789E+03</pdfrwt>
<pdfrwt beam="2">  1       21 0.17820116E+00 0.20014789E+03</pdfrwt>
<totfact> 0.30482705E+04</totfact>
</mgrwt>
</event>
<event>
 4    1  0.4102458E+000  0.2373737E+03  0.7546771E-02  0.1121555E+00
         21   -1    0    0  501  502  0.00000000000E+00  0.00000000000E+00  0.44193592974E+03  0.44193592974E+03  0.00000000000E+00 0. -1.
         21   -1    0    0  502  503 -0.00000000000E+00 -0.00000000000E+00 -0.17311365314E+03  0.17311365314E+03  0.00000000000E+00 0.  1.
          6    1    1    2  501    0  0.15981437094E+03 -0.29608332937E+02  0.29226956325E+03  0.37652062910E+03  0.17300000000E+03 0. -1.
         -6    1    1    2    0  503 -0.15981437094E+03  0.29608332937E+02 -0.23447286643E+02  0.23852895377E+03  0.17300000000E+03 0.  1.
<mgrwt>
<rscale>  2 0.23737373E+03</rscale>
<asrwt>0</asrwt>
<pdfrwt beam="1">  1       21 0.67990143E-01 0.23737373E+03</pdfrwt>
<pdfrwt beam="2">  1       21 0.26632870E-01 0.23737373E+03</pdfrwt>
<totfact> 0.25880246E+04</totfact>
</mgrwt>
</event>
<event>
 4    1  0.4102458E+000  0.2497134E+03  0.7546771E-02  0.1113486E+00
         21   -1    0    0  501  502  0.00000000000E+00  0.00000000000E+00  0.14903215155E+04  0.14903215155E+04  0.00000000000E+00 0.  1.
         21   -1    0    0  502  503 -0.00000000000E+00 -0.00000000000E+00 -0.75892918416E+02  0.75892918416E+02  0.00000000000E+00 0.  1.
          6    1    1    2  501    0  0.17744194006E+03 -0.30694561443E+02  0.12317684128E+04  0.12568254536E+04  0.17300000000E+03 0.  1.
         -6    1    1    2    0  503 -0.17744194006E+03  0.30694561443E+02  0.18266018433E+03  0.30938898030E+03  0.17300000000E+03 0.  1.
<mgrwt>
<rscale>  2 0.24971343E+03</rscale>
<asrwt>0</asrwt>
<pdfrwt beam="1">  1       21 0.22928021E+00 0.24971343E+03</pdfrwt>
<pdfrwt beam="2">  1       21 0.11675835E-01 0.24971343E+03</pdfrwt>
<totfact> 0.51776709E+03</totfact>
</mgrwt>
</event>
<event>
 4    1  0.4102458E+000  0.2028779E+03  0.7546771E-02  0.1147333E+00
         21   -1    0    0  501  502  0.00000000000E+00  0.00000000000E+00  0.12423790356E+03  0.12423790356E+03  0.00000000000E+00 0.  1.
         21   -1    0    0  502  503 -0.00000000000E+00 -0.00000000000E+00 -0.33927204265E+03  0.33927204265E+03  0.00000000000E+00 0. -1.
          6    1    1    2  501    0  0.22821896139E+01  0.10594915181E+03 -0.71981086348E+02  0.21526892008E+03  0.17300000000E+03 0.  1.
         -6    1    1    2    0  503 -0.22821896139E+01 -0.10594915181E+03 -0.14305305274E+03  0.24824102613E+03  0.17300000000E+03 0. -1.
<mgrwt>
<rscale>  2 0.20287787E+03</rscale>
<asrwt>0</asrwt>
<pdfrwt beam="1">  1       21 0.19113524E-01 0.20287787E+03</pdfrwt>
<pdfrwt beam="2">  1       21 0.52195698E-01 0.20287787E+03</pdfrwt>
<totfact> 0.87105741E+04</totfact>
</mgrwt>
</event>
<event>
 4    1  0.4102458E+000  0.3415768E+03  0.7546771E-02  0.1066126E+00
         21   -1    0    0  503  502  0.00000000000E+00  0.00000000000E+00  0.50463921922E+03  0.50463921922E+03  0.00000000000E+00 0. -1.
         21   -1    0    0  501  503 -0.00000000000E+00 -0.00000000000E+00 -0.40181997527E+03  0.40181997527E+03  0.00000000000E+00 0.  1.
          6    1    1    2  501    0 -0.12069159056E+02 -0.29427891079E+03 -0.24392339729E+03  0.41973011052E+03  0.17300000000E+03 0.  1.
         -6    1    1    2    0  502  0.12069159056E+02  0.29427891079E+03  0.34674264124E+03  0.48672908397E+03  0.17300000000E+03 0. -1.
<mgrwt>
<rscale>  2 0.34157685E+03</rscale>
<asrwt>0</asrwt>
<pdfrwt beam="1">  1       21 0.77636803E-01 0.34157685E+03</pdfrwt>
<pdfrwt beam="2">  1       21 0.61818458E-01 0.34157685E+03</pdfrwt>
<totfact> 0.32561032E+03</totfact>
</mgrwt>
</event>
<event>
 4    1  0.4102458E+000  0.2100384E+03  0.7546771E-02  0.1141536E+00
         21   -1    0    0  501  502  0.00000000000E+00  0.00000000000E+00  0.27075920125E+03  0.27075920125E+03  0.00000000000E+00 0.  1.
         21   -1    0    0  502  503 -0.00000000000E+00 -0.00000000000E+00 -0.68695856156E+03  0.68695856156E+03  0.00000000000E+00 0. -1.
          6    1    1    2  501    0 -0.99204132482E+02 -0.65921816768E+02  0.21013273591E+03  0.29710589447E+03  0.17300000000E+03 0.  1.
         -6    1    1    2    0  503  0.99204132482E+02  0.65921816768E+02 -0.62633209622E+03  0.66061186834E+03  0.17300000000E+03 0. -1.
<mgrwt>
<rscale>  2 0.21003844E+03</rscale>
<asrwt>0</asrwt>
<pdfrwt beam="1">  1       21 0.41655262E-01 0.21003844E+03</pdfrwt>
<pdfrwt beam="2">  1       21 0.10568593E+00 0.21003844E+03</pdfrwt>
<totfact> 0.39348286E+03</totfact>
</mgrwt>
</event>
<event>
 4    1  0.4102458E+000  0.2212236E+03  0.7546771E-02  0.1132974E+00
         21   -1    0    0  501  502  0.00000000000E+00  0.00000000000E+00  0.68952335095E+03  0.68952335095E+03  0.00000000000E+00 0.  1.
         21   -1    0    0  502  503 -0.00000000000E+00 -0.00000000000E+00 -0.12878851327E+03  0.12878851327E+03  0.00000000000E+00 0.  1.
          6    1    1    2  501    0 -0.18560435755E+02 -0.13662497470E+03  0.55449944329E+03  0.59700042386E+03  0.17300000000E+03 0.  1.
         -6    1    1    2    0  503  0.18560435755E+02  0.13662497470E+03  0.62353943911E+01  0.22131144035E+03  0.17300000000E+03 0.  1.
<mgrwt>
<rscale>  2 0.22122358E+03</rscale>
<asrwt>0</asrwt>
<pdfrwt beam="1">  1       21 0.10608051E+00 0.22122358E+03</pdfrwt>
<pdfrwt beam="2">  1       21 0.19813618E-01 0.22122358E+03</pdfrwt>
<totfact> 0.16447407E+04</totfact>
</mgrwt>
</event>
<event>
 4    1  0.4102458E+000  0.1764862E+03  0.7546771E-02  0.1171248E+00
         21   -1    0    0  501  502  0.00000000000E+00  0.00000000000E+00  0.37889660101E+03  0.37889660101E+03  0.00000000000E+00 0.  1.
         21   -1    0    0  502  503 -0.00000000000E+00 -0.00000000000E+00 -0.93149795036E+02  0.93149795036E+02  0.00000000000E+00 0.  1.
          6    1    1    2  501    0  0.85925589992E+01  0.33831298979E+02  0.22377505842E+03  0.28499590459E+03  0.17300000000E+03 0.  1.
         -6    1    1    2    0  503 -0.85925589992E+01 -0.33831298979E+02  0.61971747556E+02  0.18705049146E+03  0.17300000000E+03 0.  1.
<mgrwt>
<rscale>  2 0.17648623E+03</rscale>
<asrwt>0</asrwt>
<pdfrwt beam="1">  1       21 0.58291784E-01 0.17648623E+03</pdfrwt>
<pdfrwt beam="2">  1       21 0.14330738E-01 0.17648623E+03</pdfrwt>
<totfact> 0.11818057E+05</totfact>
</mgrwt>
</event>
<event>
 4    1  0.4102458E+000  0.1735681E+03  0.7546771E-02  0.1174177E+00
         21   -1    0    0  503  502  0.00000000000E+00  0.00000000000E+00  0.47169631970E+02  0.47169631970E+02  0.00000000000E+00 0. -1.
         21   -1    0    0  501  503 -0.00000000000E+00 -0.00000000000E+00 -0.66508373427E+03  0.66508373427E+03  0.00000000000E+00 0. -1.
          6    1    1    2  501    0  0.94792669816E+01  0.10346142924E+02 -0.37992610193E+03  0.41769575303E+03  0.17300000000E+03 0. -1.
         -6    1    1    2    0  502 -0.94792669816E+01 -0.10346142924E+02 -0.23798800037E+03  0.29455761320E+03  0.17300000000E+03 0. -1.
<mgrwt>
<rscale>  2 0.17356814E+03</rscale>
<asrwt>0</asrwt>
<pdfrwt beam="1">  1       21 0.72568671E-02 0.17356814E+03</pdfrwt>
<pdfrwt beam="2">  1       21 0.10232057E+00 0.17356814E+03</pdfrwt>
<totfact> 0.11133111E+05</totfact>
</mgrwt>
</event>
<event>
 4    1  0.4102458E+000  0.3612172E+03  0.7546771E-02  0.1058103E+00
         21   -1    0    0  503  502  0.00000000000E+00  0.00000000000E+00  0.68126021492E+03  0.68126021492E+03  0.00000000000E+00 0. -1.
         21   -1    0    0  501  503 -0.00000000000E+00 -0.00000000000E+00 -0.51422629629E+03  0.51422629629E+03  0.00000000000E+00 0.  1.
          6    1    1    2  501    0  0.23841111115E+02  0.31619682707E+03 -0.39000314530E+03  0.53158281140E+03  0.17300000000E+03 0.  1.
         -6    1    1    2    0  502 -0.23841111115E+02 -0.31619682707E+03  0.55703706393E+03  0.66390369981E+03  0.17300000000E+03 0. -1.
<mgrwt>
<rscale>  2 0.36121715E+03</rscale>
<asrwt>0</asrwt>
<pdfrwt beam="1">  1       21 0.10480926E+00 0.36121715E+03</pdfrwt>
<pdfrwt beam="2">  1       21 0.79111738E-01 0.36121715E+03</pdfrwt>
<totfact> 0.91475986E+02</totfact>
</mgrwt>
</event>
<event>
 4    1  0.4102458E+000  0.1837352E+03  0.7546771E-02  0.1164236E+00
         21   -1    0    0  501  502  0.00000000000E+00  0.00000000000E+00  0.42863848669E+02  0.42863848669E+02  0.00000000000E+00 0.  1.
         21   -1    0    0  502  503 -0.00000000000E+00 -0.00000000000E+00 -0.90509492622E+03  0.90509492622E+03  0.00000000000E+00 0.  1.
          6    1    1    2  501    0  0.25066977424E+02  0.56579801422E+02 -0.26032552672E+03  0.31863459816E+03  0.17300000000E+03 0.  1.
         -6    1    1    2    0  503 -0.25066977424E+02 -0.56579801422E+02 -0.60190555083E+03  0.62932417672E+03  0.17300000000E+03 0.  1.
<mgrwt>
<rscale>  2 0.18373521E+03</rscale>
<asrwt>0</asrwt>
<pdfrwt beam="1">  1       21 0.65944385E-02 0.18373521E+03</pdfrwt>
<pdfrwt beam="2">  1       21 0.13924537E+00 0.18373521E+03</pdfrwt>
<totfact> 0.61118963E+04</totfact>
</mgrwt>
</event>
<event>
 4    1  0.4102458E+000  0.2312208E+03  0.7546771E-02  0.1125783E+00
         21   -1    0    0  501  502  0.00000000000E+00  0.00000000000E+00  0.50356150881E+03  0.50356150881E+03  0.00000000000E+00 0. -1.
         21   -1    0    0  502  503 -0.00000000000E+00 -0.00000000000E+00 -0.23650317710E+03  0.23650317710E+03  0.00000000000E+00 0. -1.
          6    1    1    2  501    0 -0.14134072390E+03  0.59639347317E+02  0.40822301177E+03  0.46915784052E+03  0.17300000000E+03 0. -1.
         -6    1    1    2    0  503  0.14134072390E+03 -0.59639347317E+02 -0.14116468007E+03  0.27090684539E+03  0.17300000000E+03 0. -1.
<mgrwt>
<rscale>  2 0.23122079E+03</rscale>
<asrwt>0</asrwt>
<pdfrwt beam="1">  1       21 0.77471001E-01 0.23122079E+03</pdfrwt>
<pdfrwt beam="2">  1       21 0.36385104E-01 0.23122079E+03</pdfrwt>
<totfact> 0.10504567E+04</totfact>
</mgrwt>
</event>
<event>
 4    1  0.4102458E+000  0.1776523E+03  0.7546771E-02  0.1170095E+00
         21   -1    0    0  503  502  0.00000000000E+00  0.00000000000E+00  0.21111266616E+03  0.21111266616E+03  0.00000000000E+00 0.  1.
         21   -1    0    0  501  503 -0.00000000000E+00 -0.00000000000E+00 -0.27355174960E+03  0.27355174960E+03  0.00000000000E+00 0.  1.
          6    1    1    2  501    0 -0.66348852086E+01  0.39841059004E+02 -0.19441242960E+03  0.26335626909E+03  0.17300000000E+03 0.  1.
         -6    1    1    2    0  502  0.66348852086E+01 -0.39841059004E+02  0.13197334616E+03  0.22130814667E+03  0.17300000000E+03 0.  1.
<mgrwt>
<rscale>  2 0.17765228E+03</rscale>
<asrwt>0</asrwt>
<pdfrwt beam="1">  1       21 0.32478872E-01 0.17765228E+03</pdfrwt>
<pdfrwt beam="2">  1       21 0.42084884E-01 0.17765228E+03</pdfrwt>
<totfact> 0.49920506E+04</totfact>
</mgrwt>
</event>
<event>
 4    1  0.4102458E+000  0.2414438E+03  0.7546771E-02  0.1118835E+00
         21   -1    0    0  501  502  0.00000000000E+00  0.00000000000E+00  0.78480636234E+02  0.78480636234E+02  0.00000000000E+00 0.  1.
         21   -1    0    0  502  503 -0.00000000000E+00 -0.00000000000E+00 -0.76258370027E+03  0.76258370027E+03  0.00000000000E+00 0.  1.
          6    1    1    2  501    0  0.39053305754E+02 -0.16383200674E+03 -0.40979310850E+03  0.47563166305E+03  0.17300000000E+03 0.  1.
         -6    1    1    2    0  503 -0.39053305754E+02  0.16383200674E+03 -0.27430995554E+03  0.36543267346E+03  0.17300000000E+03 0.  1.
<mgrwt>
<rscale>  2 0.24144376E+03</rscale>
<asrwt>0</asrwt>
<pdfrwt beam="1">  1       21 0.12073944E-01 0.24144376E+03</pdfrwt>
<pdfrwt beam="2">  1       21 0.11732057E+00 0.24144376E+03</pdfrwt>
<totfact> 0.31564684E+04</totfact>
</mgrwt>
</event>
<event>
 4    1  0.4102458E+000  0.1844691E+03  0.7546771E-02  0.1163547E+00
         21   -1    0    0  501  502  0.00000000000E+00  0.00000000000E+00  0.39723687714E+02  0.39723687714E+02  0.00000000000E+00 0.  1.
         21   -1    0    0  502  503 -0.00000000000E+00 -0.00000000000E+00 -0.10001676897E+04  0.10001676897E+04  0.00000000000E+00 0.  1.
          6    1    1    2  501    0 -0.33877557051E+02  0.54333659500E+02 -0.28325572597E+03  0.33802757539E+03  0.17300000000E+03 0.  1.
         -6    1    1    2    0  503  0.33877557051E+02 -0.54333659500E+02 -0.67718827606E+03  0.70186380207E+03  0.17300000000E+03 0.  1.
<mgrwt>
<rscale>  2 0.18446906E+03</rscale>
<asrwt>0</asrwt>
<pdfrwt beam="1">  1       21 0.61113364E-02 0.18446906E+03</pdfrwt>
<pdfrwt beam="2">  1       21 0.15387196E+00 0.18446906E+03</pdfrwt>
<totfact> 0.53635664E+04</totfact>
</mgrwt>
</event>
<event>
 4    1  0.4102458E+000  0.1853999E+03  0.7546771E-02  0.1162677E+00
         21   -1    0    0  501  502  0.00000000000E+00  0.00000000000E+00  0.20981641337E+03  0.20981641337E+03  0.00000000000E+00 0.  1.
         21   -1    0    0  502  503 -0.00000000000E+00 -0.00000000000E+00 -0.35071431380E+03  0.35071431380E+03  0.00000000000E+00 0.  1.
          6    1    1    2  501    0  0.13296699021E+02  0.65324641212E+02  0.13414145705E+03  0.22883846149E+03  0.17300000000E+03 0.  1.
         -6    1    1    2    0  503 -0.13296699021E+02 -0.65324641212E+02 -0.27503935748E+03  0.33169226568E+03  0.17300000000E+03 0.  1.
<mgrwt>
<rscale>  2 0.18539987E+03</rscale>
<asrwt>0</asrwt>
<pdfrwt beam="1">  1       21 0.32279448E-01 0.18539987E+03</pdfrwt>
<pdfrwt beam="2">  1       21 0.53956048E-01 0.18539987E+03</pdfrwt>
<totfact> 0.30106813E+04</totfact>
</mgrwt>
</event>
<event>
 4    1  0.4102458E+000  0.1829303E+03  0.7546771E-02  0.1164997E+00
         21   -1    0    0  501  502  0.00000000000E+00  0.00000000000E+00  0.59257642071E+03  0.59257642071E+03  0.00000000000E+00 0. -1.
         21   -1    0    0  502  503 -0.00000000000E+00 -0.00000000000E+00 -0.60996949748E+02  0.60996949748E+02  0.00000000000E+00 0. -1.
          6    1    1    2  501    0  0.58906916182E+02  0.80282282199E+01  0.35480357482E+03  0.39918548812E+03  0.17300000000E+03 0. -1.
         -6    1    1    2    0  503 -0.58906916182E+02 -0.80282282199E+01  0.17677589615E+03  0.25438788234E+03  0.17300000000E+03 0. -1.
<mgrwt>
<rscale>  2 0.18293025E+03</rscale>
<asrwt>0</asrwt>
<pdfrwt beam="1">  1       21 0.91165599E-01 0.18293025E+03</pdfrwt>
<pdfrwt beam="2">  1       21 0.93841465E-02 0.18293025E+03</pdfrwt>
<totfact> 0.92926597E+04</totfact>
</mgrwt>
</event>
<event>
 4    1  0.4102458E+000  0.2506589E+03  0.7546771E-02  0.1112889E+00
         21   -1    0    0  501  502  0.00000000000E+00  0.00000000000E+00  0.82848613181E+03  0.82848613181E+03  0.00000000000E+00 0. -1.
         21   -1    0    0  502  503 -0.00000000000E+00 -0.00000000000E+00 -0.78461031966E+02  0.78461031966E+02  0.00000000000E+00 0.  1.
          6    1    1    2  501    0 -0.14941269068E+03 -0.10284335085E+03  0.45794206526E+03  0.52205444360E+03  0.17300000000E+03 0.  1.
         -6    1    1    2    0  503  0.14941269068E+03  0.10284335085E+03  0.29208303458E+03  0.38489272017E+03  0.17300000000E+03 0.  1.
<mgrwt>
<rscale>  2 0.25065895E+03</rscale>
<asrwt>0</asrwt>
<pdfrwt beam="1">  1       21 0.12745940E+00 0.25065895E+03</pdfrwt>
<pdfrwt beam="2">  1       21 0.12070929E-01 0.25065895E+03</pdfrwt>
<totfact> 0.25535280E+04</totfact>
</mgrwt>
</event>
<event>
 4    1  0.4102458E+000  0.2085156E+03  0.7546771E-02  0.1142747E+00
         21   -1    0    0  503  502  0.00000000000E+00  0.00000000000E+00  0.69066576809E+02  0.69066576809E+02  0.00000000000E+00 0.  1.
         21   -1    0    0  501  503 -0.00000000000E+00 -0.00000000000E+00 -0.63702217866E+03  0.63702217866E+03  0.00000000000E+00 0.  1.
          6    1    1    2  501    0 -0.11394114851E+03  0.23815043817E+02 -0.24566299835E+03  0.32222515482E+03  0.17300000000E+03 0.  1.
         -6    1    1    2    0  502  0.11394114851E+03 -0.23815043817E+02 -0.32229260350E+03  0.38386360065E+03  0.17300000000E+03 0.  1.
<mgrwt>
<rscale>  2 0.20851557E+03</rscale>
<asrwt>0</asrwt>
<pdfrwt beam="1">  1       21 0.10625628E-01 0.20851557E+03</pdfrwt>
<pdfrwt beam="2">  1       21 0.98003407E-01 0.20851557E+03</pdfrwt>
<totfact> 0.62273467E+04</totfact>
</mgrwt>
</event>
<event>
 4    1  0.4102458E+000  0.1748084E+03  0.7546771E-02  0.1172924E+00
         21   -1    0    0  503  502  0.00000000000E+00  0.00000000000E+00  0.87910163963E+03  0.87910163963E+03  0.00000000000E+00 0.  1.
         21   -1    0    0  501  503 -0.00000000000E+00 -0.00000000000E+00 -0.35423021060E+02  0.35423021060E+02  0.00000000000E+00 0.  1.
          6    1    1    2  501    0  0.24723474330E+02  0.42093827809E+01  0.35930207472E+03  0.39956970604E+03  0.17300000000E+03 0.  1.
         -6    1    1    2    0  502 -0.24723474330E+02 -0.42093827809E+01  0.48437654385E+03  0.51495495465E+03  0.17300000000E+03 0.  1.
<mgrwt>
<rscale>  2 0.17480838E+03</rscale>
<asrwt>0</asrwt>
<pdfrwt beam="1">  1       21 0.13524639E+00 0.17480838E+03</pdfrwt>
<pdfrwt beam="2">  1       21 0.54496962E-02 0.17480838E+03</pdfrwt>
<totfact> 0.91625254E+04</totfact>
</mgrwt>
</event>
<event>
 4    1  0.4102458E+000  0.1816765E+03  0.7546771E-02  0.1166190E+00
         21   -1    0    0  501  502  0.00000000000E+00  0.00000000000E+00  0.36425560495E+03  0.36425560495E+03  0.00000000000E+00 0.  1.
         21   -1    0    0  502  503 -0.00000000000E+00 -0.00000000000E+00 -0.11660954846E+03  0.11660954846E+03  0.00000000000E+00 0. -1.
          6    1    1    2  501    0 -0.54184095574E+02 -0.11892172443E+02  0.23734581014E+03  0.29889692801E+03  0.17300000000E+03 0.  1.
         -6    1    1    2    0  503  0.54184095574E+02  0.11892172443E+02  0.10300246346E+02  0.18196822540E+03  0.17300000000E+03 0. -1.
<mgrwt>
<rscale>  2 0.18167647E+03</rscale>
<asrwt>0</asrwt>
<pdfrwt beam="1">  1       21 0.56039324E-01 0.18167647E+03</pdfrwt>
<pdfrwt beam="2">  1       21 0.17939931E-01 0.18167647E+03</pdfrwt>
<totfact> 0.85063267E+04</totfact>
</mgrwt>
</event>
<event>
 4    1  0.4102458E+000  0.1950006E+03  0.7546771E-02  0.1154027E+00
         21   -1    0    0  503  502  0.00000000000E+00  0.00000000000E+00  0.85599405698E+03  0.85599405698E+03  0.00000000000E+00 0.  1.
         21   -1    0    0  501  503 -0.00000000000E+00 -0.00000000000E+00 -0.44898498295E+02  0.44898498295E+02  0.00000000000E+00 0.  1.
          6    1    1    2  501    0 -0.78117903549E+02  0.44652127290E+02  0.35915782693E+03  0.40868027108E+03  0.17300000000E+03 0.  1.
         -6    1    1    2    0  502  0.78117903549E+02 -0.44652127290E+02  0.45193773176E+03  0.49221228420E+03  0.17300000000E+03 0.  1.
<mgrwt>
<rscale>  2 0.19500056E+03</rscale>
<asrwt>0</asrwt>
<pdfrwt beam="1">  1       21 0.13169138E+00 0.19500056E+03</pdfrwt>
<pdfrwt beam="2">  1       21 0.69074619E-02 0.19500056E+03</pdfrwt>
<totfact> 0.64678619E+04</totfact>
</mgrwt>
</event>
<event>
 4    1  0.4102458E+000  0.1774146E+03  0.7546771E-02  0.1170329E+00
         21   -1    0    0  503  502  0.00000000000E+00  0.00000000000E+00  0.46756237885E+02  0.46756237885E+02  0.00000000000E+00 0. -1.
         21   -1    0    0  501  503 -0.00000000000E+00 -0.00000000000E+00 -0.10445218980E+04  0.10445218980E+04  0.00000000000E+00 0. -1.
          6    1    1    2  501    0  0.69331798023E+00  0.39325249884E+02 -0.82421443767E+03  0.84309275601E+03  0.17300000000E+03 0. -1.
         -6    1    1    2    0  502 -0.69331798023E+00 -0.39325249884E+02 -0.17355122241E+03  0.24818537985E+03  0.17300000000E+03 0. -1.
<mgrwt>
<rscale>  2 0.17741464E+03</rscale>
<asrwt>0</asrwt>
<pdfrwt beam="1">  1       21 0.71932685E-02 0.17741464E+03</pdfrwt>
<pdfrwt beam="2">  1       21 0.16069565E+00 0.17741464E+03</pdfrwt>
<totfact> 0.36242026E+04</totfact>
</mgrwt>
</event>
<event>
 4    1  0.4102458E+000  0.2379104E+03  0.7546771E-02  0.1121193E+00
         21   -1    0    0  501  502  0.00000000000E+00  0.00000000000E+00  0.66414489670E+03  0.66414489670E+03  0.00000000000E+00 0.  1.
         21   -1    0    0  502  503 -0.00000000000E+00 -0.00000000000E+00 -0.11893287323E+03  0.11893287323E+03  0.00000000000E+00 0. -1.
          6    1    1    2  501    0  0.83300812999E+02 -0.14047544477E+03  0.48105185363E+03  0.53666773884E+03  0.17300000000E+03 0.  1.
         -6    1    1    2    0  503 -0.83300812999E+02  0.14047544477E+03  0.64160169841E+02  0.24641003110E+03  0.17300000000E+03 0. -1.
<mgrwt>
<rscale>  2 0.23791044E+03</rscale>
<asrwt>0</asrwt>
<pdfrwt beam="1">  1       21 0.10217614E+00 0.23791044E+03</pdfrwt>
<pdfrwt beam="2">  1       21 0.18297366E-01 0.23791044E+03</pdfrwt>
<totfact> 0.20694748E+04</totfact>
</mgrwt>
</event>
<event>
 4    1  0.4102458E+000  0.1851349E+03  0.7546771E-02  0.1162924E+00
         21   -1    0    0  501  502  0.00000000000E+00  0.00000000000E+00  0.21935024082E+03  0.21935024082E+03  0.00000000000E+00 0.  1.
         21   -1    0    0  502  503 -0.00000000000E+00 -0.00000000000E+00 -0.21586426315E+03  0.21586426315E+03  0.00000000000E+00 0.  1.
          6    1    1    2  501    0  0.10409995436E+02 -0.65096573701E+02  0.11609238802E+03  0.21852316689E+03  0.17300000000E+03 0.  1.
         -6    1    1    2    0  503 -0.10409995436E+02  0.65096573701E+02 -0.11260641035E+03  0.21669133708E+03  0.17300000000E+03 0.  1.
<mgrwt>
<rscale>  2 0.18513490E+03</rscale>
<asrwt>0</asrwt>
<pdfrwt beam="1">  1       21 0.33746191E-01 0.18513490E+03</pdfrwt>
<pdfrwt beam="2">  1       21 0.33209887E-01 0.18513490E+03</pdfrwt>
<totfact> 0.74083583E+04</totfact>
</mgrwt>
</event>
<event>
 4    1  0.4102458E+000  0.1809821E+03  0.7546771E-02  0.1166856E+00
         21   -1    0    0  503  502  0.00000000000E+00  0.00000000000E+00  0.56880939349E+02  0.56880939349E+02  0.00000000000E+00 0. -1.
         21   -1    0    0  501  503 -0.00000000000E+00 -0.00000000000E+00 -0.88663828093E+03  0.88663828093E+03  0.00000000000E+00 0. -1.
          6    1    1    2  501    0 -0.51821461854E+02  0.11833888381E+02 -0.69418742771E+03  0.71739158736E+03  0.17300000000E+03 0. -1.
         -6    1    1    2    0  502  0.51821461854E+02 -0.11833888381E+02 -0.13556991387E+03  0.22612763292E+03  0.17300000000E+03 0. -1.
<mgrwt>
<rscale>  2 0.18098206E+03</rscale>
<asrwt>0</asrwt>
<pdfrwt beam="1">  1       21 0.87509137E-02 0.18098206E+03</pdfrwt>
<pdfrwt beam="2">  1       21 0.13640589E+00 0.18098206E+03</pdfrwt>
<totfact> 0.39519741E+04</totfact>
</mgrwt>
</event>
<event>
 4    1  0.4102458E+000  0.2136589E+03  0.7546771E-02  0.1138701E+00
         21   -1    0    0  501  502  0.00000000000E+00  0.00000000000E+00  0.98221092298E+02  0.98221092298E+02  0.00000000000E+00 0. -1.
         21   -1    0    0  502  503 -0.00000000000E+00 -0.00000000000E+00 -0.49989536384E+03  0.49989536384E+03  0.00000000000E+00 0. -1.
          6    1    1    2  501    0 -0.96113844727E+02 -0.80518788868E+02 -0.12156308364E+03  0.24582052358E+03  0.17300000000E+03 0. -1.
         -6    1    1    2    0  503  0.96113844727E+02  0.80518788868E+02 -0.28011118790E+03  0.35229593255E+03  0.17300000000E+03 0. -1.
<mgrwt>
<rscale>  2 0.21365895E+03</rscale>
<asrwt>0</asrwt>
<pdfrwt beam="1">  1       21 0.15110937E-01 0.21365895E+03</pdfrwt>
<pdfrwt beam="2">  1       21 0.76906979E-01 0.21365895E+03</pdfrwt>
<totfact> 0.57600014E+04</totfact>
</mgrwt>
</event>
<event>
 4    1  0.4102458E+000  0.1845393E+03  0.7546771E-02  0.1163481E+00
         21   -1    0    0  501  502  0.00000000000E+00  0.00000000000E+00  0.12089481649E+02  0.12089481649E+02  0.00000000000E+00 0. -1.
         21   -1    0    0  502  503 -0.00000000000E+00 -0.00000000000E+00 -0.32172595281E+04  0.32172595281E+04  0.00000000000E+00 0.  1.
          6    1    1    2  501    0  0.63675585534E+02 -0.84357835496E+01 -0.10329819443E+04  0.10493361901E+04  0.17300000000E+03 0. -1.
         -6    1    1    2    0  503 -0.63675585534E+02  0.84357835496E+01 -0.21721881022E+04  0.21800128197E+04  0.17300000000E+03 0.  1.
<mgrwt>
<rscale>  2 0.18453927E+03</rscale>
<asrwt>0</asrwt>
<pdfrwt beam="1">  1       21 0.18599169E-02 0.18453927E+03</pdfrwt>
<pdfrwt beam="2">  1       21 0.49496389E+00 0.18453927E+03</pdfrwt>
<totfact> 0.28808754E+03</totfact>
</mgrwt>
</event>
<event>
 4    1  0.4102458E+000  0.1856742E+03  0.7546771E-02  0.1162422E+00
         21   -1    0    0  503  502  0.00000000000E+00  0.00000000000E+00  0.75135878707E+02  0.75135878707E+02  0.00000000000E+00 0. -1.
         21   -1    0    0  501  503 -0.00000000000E+00 -0.00000000000E+00 -0.88381930615E+03  0.88381930615E+03  0.00000000000E+00 0. -1.
          6    1    1    2  501    0 -0.20540201964E+02  0.64218494950E+02 -0.73682774232E+03  0.75986185379E+03  0.17300000000E+03 0. -1.
         -6    1    1    2    0  502  0.20540201964E+02 -0.64218494950E+02 -0.71855685118E+02  0.19909333106E+03  0.17300000000E+03 0. -1.
<mgrwt>
<rscale>  2 0.18567422E+03</rscale>
<asrwt>0</asrwt>
<pdfrwt beam="1">  1       21 0.11559366E-01 0.18567422E+03</pdfrwt>
<pdfrwt beam="2">  1       21 0.13597220E+00 0.18567422E+03</pdfrwt>
<totfact> 0.24305734E+04</totfact>
</mgrwt>
</event>
<event>
 4    1  0.4102458E+000  0.1733181E+03  0.7546771E-02  0.1174431E+00
         21   -1    0    0  501  502  0.00000000000E+00  0.00000000000E+00  0.28077709299E+03  0.28077709299E+03  0.00000000000E+00 0.  1.
         21   -1    0    0  502  503 -0.00000000000E+00 -0.00000000000E+00 -0.18626457205E+03  0.18626457205E+03  0.00000000000E+00 0.  1.
          6    1    1    2  501    0  0.30007958130E+01 -0.10058423378E+02  0.19960498209E+03  0.26435076231E+03  0.17300000000E+03 0. -1.
         -6    1    1    2    0  503 -0.30007958130E+01  0.10058423378E+02 -0.10509246116E+03  0.20269090273E+03  0.17300000000E+03 0. -1.
<mgrwt>
<rscale>  2 0.17331814E+03</rscale>
<asrwt>0</asrwt>
<pdfrwt beam="1">  1       21 0.43196476E-01 0.17331814E+03</pdfrwt>
<pdfrwt beam="2">  1       21 0.28656088E-01 0.17331814E+03</pdfrwt>
<totfact> 0.60549475E+04</totfact>
</mgrwt>
</event>
<event>
 4    1  0.4102458E+000  0.2843277E+03  0.7546771E-02  0.1093348E+00
         21   -1    0    0  503  502  0.00000000000E+00  0.00000000000E+00  0.16677627052E+03  0.16677627052E+03  0.00000000000E+00 0.  1.
         21   -1    0    0  501  503 -0.00000000000E+00 -0.00000000000E+00 -0.53392789804E+03  0.53392789804E+03  0.00000000000E+00 0. -1.
          6    1    1    2  501    0 -0.11303997355E+03  0.19528237762E+03 -0.28992055088E+03  0.40607409231E+03  0.17300000000E+03 0. -1.
         -6    1    1    2    0  502  0.11303997355E+03 -0.19528237762E+03 -0.77231076645E+02  0.29463007624E+03  0.17300000000E+03 0.  1.
<mgrwt>
<rscale>  2 0.28432770E+03</rscale>
<asrwt>0</asrwt>
<pdfrwt beam="1">  1       21 0.25657888E-01 0.28432770E+03</pdfrwt>
<pdfrwt beam="2">  1       21 0.82142754E-01 0.28432770E+03</pdfrwt>
<totfact> 0.17788613E+04</totfact>
</mgrwt>
</event>
<event>
 4    1  0.4102458E+000  0.2541186E+03  0.7546771E-02  0.1110729E+00
         21   -1    0    0  501  502  0.00000000000E+00  0.00000000000E+00  0.87246834982E+03  0.87246834982E+03  0.00000000000E+00 0.  1.
         21   -1    0    0  502  503 -0.00000000000E+00 -0.00000000000E+00 -0.13529582448E+03  0.13529582448E+03  0.00000000000E+00 0.  1.
          6    1    1    2  501    0 -0.18510692021E+03  0.19562483688E+02  0.70770119986E+03  0.75194231890E+03  0.17300000000E+03 0.  1.
         -6    1    1    2    0  503  0.18510692021E+03 -0.19562483688E+02  0.29471325481E+02  0.25582185540E+03  0.17300000000E+03 0.  1.
<mgrwt>
<rscale>  2 0.25411860E+03</rscale>
<asrwt>0</asrwt>
<pdfrwt beam="1">  1       21 0.13422590E+00 0.25411860E+03</pdfrwt>
<pdfrwt beam="2">  1       21 0.20814743E-01 0.25411860E+03</pdfrwt>
<totfact> 0.81890328E+03</totfact>
</mgrwt>
</event>
<event>
 4    1  0.4102458E+000  0.1916821E+03  0.7546771E-02  0.1156953E+00
         21   -1    0    0  501  502  0.00000000000E+00  0.00000000000E+00  0.41386198254E+03  0.41386198254E+03  0.00000000000E+00 0.  1.
         21   -1    0    0  502  503 -0.00000000000E+00 -0.00000000000E+00 -0.10817247615E+03  0.10817247615E+03  0.00000000000E+00 0.  1.
          6    1    1    2  501    0 -0.60068661288E+02 -0.56610802171E+02  0.26336573471E+03  0.32573537912E+03  0.17300000000E+03 0.  1.
         -6    1    1    2    0  503  0.60068661288E+02  0.56610802171E+02  0.42323771682E+02  0.19629907957E+03  0.17300000000E+03 0.  1.
<mgrwt>
<rscale>  2 0.19168210E+03</rscale>
<asrwt>0</asrwt>
<pdfrwt beam="1">  1       21 0.63671074E-01 0.19168210E+03</pdfrwt>
<pdfrwt beam="2">  1       21 0.16641920E-01 0.19168210E+03</pdfrwt>
<totfact> 0.73986358E+04</totfact>
</mgrwt>
</event>
<event>
 4    1  0.4102458E+000  0.2010825E+03  0.7546771E-02  0.1148829E+00
         21   -1    0    0  503  502  0.00000000000E+00  0.00000000000E+00  0.23026695011E+03  0.23026695011E+03  0.00000000000E+00 0.  1.
         21   -1    0    0  501  503 -0.00000000000E+00 -0.00000000000E+00 -0.20177360454E+03  0.20177360454E+03  0.00000000000E+00 0.  1.
          6    1    1    2  501    0  0.49004564807E+02  0.90020651647E+02 -0.63560518668E+02  0.21088884425E+03  0.17300000000E+03 0.  1.
         -6    1    1    2    0  502 -0.49004564807E+02 -0.90020651647E+02  0.92053864230E+02  0.22115171040E+03  0.17300000000E+03 0.  1.
<mgrwt>
<rscale>  2 0.20108248E+03</rscale>
<asrwt>0</asrwt>
<pdfrwt beam="1">  1       21 0.35425685E-01 0.20108248E+03</pdfrwt>
<pdfrwt beam="2">  1       21 0.31042093E-01 0.20108248E+03</pdfrwt>
<totfact> 0.76306201E+04</totfact>
</mgrwt>
</event>
<event>
 4    1  0.4102458E+000  0.1916784E+03  0.7546771E-02  0.1156956E+00
         21   -1    0    0  503  502  0.00000000000E+00  0.00000000000E+00  0.12277676648E+04  0.12277676648E+04  0.00000000000E+00 0. -1.
         21   -1    0    0  501  503 -0.00000000000E+00 -0.00000000000E+00 -0.40669354821E+02  0.40669354821E+02  0.00000000000E+00 0. -1.
          6    1    1    2  501    0 -0.27613050689E+02 -0.77776132083E+02  0.26756158511E+03  0.32913494059E+03  0.17300000000E+03 0. -1.
         -6    1    1    2    0  502  0.27613050689E+02  0.77776132083E+02  0.91953672484E+03  0.93930207900E+03  0.17300000000E+03 0. -1.
<mgrwt>
<rscale>  2 0.19167840E+03</rscale>
<asrwt>0</asrwt>
<pdfrwt beam="1">  1       21 0.18888730E+00 0.19167840E+03</pdfrwt>
<pdfrwt beam="2">  1       21 0.62568248E-02 0.19167840E+03</pdfrwt>
<totfact> 0.29130477E+04</totfact>
</mgrwt>
</event>
<event>
 4    1  0.4102458E+000  0.2705205E+03  0.7546771E-02  0.1100982E+00
         21   -1    0    0  503  502  0.00000000000E+00  0.00000000000E+00  0.30285005114E+03  0.30285005114E+03  0.00000000000E+00 0.  1.
         21   -1    0    0  501  503 -0.00000000000E+00 -0.00000000000E+00 -0.24599350569E+03  0.24599350569E+03  0.00000000000E+00 0. -1.
          6    1    1    2  501    0  0.47393208424E+02 -0.20249999042E+03 -0.80693815764E+01  0.27064086396E+03  0.17300000000E+03 0. -1.
         -6    1    1    2    0  502 -0.47393208424E+02  0.20249999042E+03  0.64925927021E+02  0.27820269288E+03  0.17300000000E+03 0. -1.
<mgrwt>
<rscale>  2 0.27052054E+03</rscale>
<asrwt>0</asrwt>
<pdfrwt beam="1">  1       21 0.46592315E-01 0.27052054E+03</pdfrwt>
<pdfrwt beam="2">  1       21 0.37845155E-01 0.27052054E+03</pdfrwt>
<totfact> 0.28604250E+04</totfact>
</mgrwt>
</event>
<event>
 4    1  0.4102458E+000  0.2353529E+03  0.7546771E-02  0.1122928E+00
         21   -1    0    0  503  502  0.00000000000E+00  0.00000000000E+00  0.42156858894E+03  0.42156858894E+03  0.00000000000E+00 0.  1.
         21   -1    0    0  501  503 -0.00000000000E+00 -0.00000000000E+00 -0.78230000426E+03  0.78230000426E+03  0.00000000000E+00 0.  1.
          6    1    1    2  501    0  0.63226905375E+02 -0.14650717706E+03 -0.72942851637E+03  0.76645740585E+03  0.17300000000E+03 0.  1.
         -6    1    1    2    0  502 -0.63226905375E+02  0.14650717706E+03  0.36869710105E+03  0.43741118735E+03  0.17300000000E+03 0.  1.
<mgrwt>
<rscale>  2 0.23535291E+03</rscale>
<asrwt>0</asrwt>
<pdfrwt beam="1">  1       21 0.64856707E-01 0.23535291E+03</pdfrwt>
<pdfrwt beam="2">  1       21 0.12035385E+00 0.23535291E+03</pdfrwt>
<totfact> 0.11034554E+03</totfact>
</mgrwt>
</event>
<event>
 4    1  0.4102458E+000  0.1898926E+03  0.7546771E-02  0.1158558E+00
         21   -1    0    0  503  502  0.00000000000E+00  0.00000000000E+00  0.21471671982E+04  0.21471671982E+04  0.00000000000E+00 0.  1.
         21   -1    0    0  501  503 -0.00000000000E+00 -0.00000000000E+00 -0.20760916003E+02  0.20760916003E+02  0.00000000000E+00 0.  1.
          6    1    1    2  501    0 -0.24953926617E+02 -0.74212583413E+02  0.58936907087E+03  0.61920522259E+03  0.17300000000E+03 0.  1.
         -6    1    1    2    0  502  0.24953926617E+02  0.74212583413E+02  0.15370372114E+04  0.15487228917E+04  0.17300000000E+03 0.  1.
<mgrwt>
<rscale>  2 0.18989262E+03</rscale>
<asrwt>0</asrwt>
<pdfrwt beam="1">  1       21 0.33033324E+00 0.18989262E+03</pdfrwt>
<pdfrwt beam="2">  1       21 0.31939888E-02 0.18989262E+03</pdfrwt>
<totfact> 0.13042857E+04</totfact>
</mgrwt>
</event>
<event>
 4    1  0.4102458E+000  0.3110697E+03  0.7546771E-02  0.1079834E+00
         21   -1    0    0  503  502  0.00000000000E+00  0.00000000000E+00  0.26710723533E+03  0.26710723533E+03  0.00000000000E+00 0. -1.
         21   -1    0    0  501  503 -0.00000000000E+00 -0.00000000000E+00 -0.36698754510E+03  0.36698754510E+03  0.00000000000E+00 0.  1.
          6    1    1    2  501    0 -0.23617971480E+03  0.10514039320E+03 -0.85894895768E+02  0.32271085058E+03  0.17300000000E+03 0.  1.
         -6    1    1    2    0  502  0.23617971480E+03 -0.10514039320E+03 -0.13985414009E+02  0.31138392985E+03  0.17300000000E+03 0. -1.
<mgrwt>
<rscale>  2 0.31106970E+03</rscale>
<asrwt>0</asrwt>
<pdfrwt beam="1">  1       21 0.41093421E-01 0.31106970E+03</pdfrwt>
<pdfrwt beam="2">  1       21 0.56459622E-01 0.31106970E+03</pdfrwt>
<totfact> 0.15851596E+04</totfact>
</mgrwt>
</event>
<event>
 4    1  0.4102458E+000  0.2864918E+03  0.7546771E-02  0.1092195E+00
         21   -1    0    0  501  502  0.00000000000E+00  0.00000000000E+00  0.87631027370E+03  0.87631027370E+03  0.00000000000E+00 0.  1.
         21   -1    0    0  502  503 -0.00000000000E+00 -0.00000000000E+00 -0.15321110886E+03  0.15321110886E+03  0.00000000000E+00 0. -1.
          6    1    1    2  501    0  0.22805302817E+03 -0.11847800674E+02  0.68246860623E+03  0.74016278785E+03  0.17300000000E+03 0.  1.
         -6    1    1    2    0  503 -0.22805302817E+03  0.11847800674E+02  0.40630558609E+02  0.28935859471E+03  0.17300000000E+03 0. -1.
<mgrwt>
<rscale>  2 0.28649180E+03</rscale>
<asrwt>0</asrwt>
<pdfrwt beam="1">  1       21 0.13481696E+00 0.28649180E+03</pdfrwt>
<pdfrwt beam="2">  1       21 0.23570940E-01 0.28649180E+03</pdfrwt>
<totfact> 0.62752468E+03</totfact>
</mgrwt>
</event>
<event>
 4    1  0.4102458E+000  0.1791125E+03  0.7546771E-02  0.1168665E+00
         21   -1    0    0  503  502  0.00000000000E+00  0.00000000000E+00  0.15519661483E+03  0.15519661483E+03  0.00000000000E+00 0. -1.
         21   -1    0    0  501  503 -0.00000000000E+00 -0.00000000000E+00 -0.22010306324E+03  0.22010306324E+03  0.00000000000E+00 0. -1.
          6    1    1    2  501    0 -0.81781314535E+00 -0.46385718372E+02 -0.78735129187E+02  0.19565409338E+03  0.17300000000E+03 0. -1.
         -6    1    1    2    0  502  0.81781314535E+00  0.46385718372E+02  0.13828680775E+02  0.17964558469E+03  0.17300000000E+03 0. -1.
<mgrwt>
<rscale>  2 0.17911254E+03</rscale>
<asrwt>0</asrwt>
<pdfrwt beam="1">  1       21 0.23876402E-01 0.17911254E+03</pdfrwt>
<pdfrwt beam="2">  1       21 0.33862010E-01 0.17911254E+03</pdfrwt>
<totfact> 0.13953445E+05</totfact>
</mgrwt>
</event>
<event>
 4    1  0.4102458E+000  0.1802930E+03  0.7546771E-02  0.1167520E+00
         21   -1    0    0  503  502  0.00000000000E+00  0.00000000000E+00  0.79996694004E+02  0.79996694004E+02  0.00000000000E+00 0. -1.
         21   -1    0    0  501  503 -0.00000000000E+00 -0.00000000000E+00 -0.65805224387E+03  0.65805224387E+03  0.00000000000E+00 0. -1.
          6    1    1    2  501    0 -0.26618092054E+02  0.43220909111E+02 -0.51726172174E+03  0.54778212693E+03  0.17300000000E+03 0. -1.
         -6    1    1    2    0  502  0.26618092054E+02 -0.43220909111E+02 -0.60793828132E+02  0.19026681095E+03  0.17300000000E+03 0. -1.
<mgrwt>
<rscale>  2 0.18029301E+03</rscale>
<asrwt>0</asrwt>
<pdfrwt beam="1">  1       21 0.12307183E-01 0.18029301E+03</pdfrwt>
<pdfrwt beam="2">  1       21 0.10123881E+00 0.18029301E+03</pdfrwt>
<totfact> 0.44998911E+04</totfact>
</mgrwt>
</event>
<event>
 4    1  0.4102458E+000  0.1750697E+03  0.7546771E-02  0.1172662E+00
         21   -1    0    0  501  502  0.00000000000E+00  0.00000000000E+00  0.49902556688E+02  0.49902556688E+02  0.00000000000E+00 0.  1.
         21   -1    0    0  502  503 -0.00000000000E+00 -0.00000000000E+00 -0.62966718179E+03  0.62966718179E+03  0.00000000000E+00 0.  1.
          6    1    1    2  501    0  0.20303555069E+02  0.17554324978E+02 -0.23660181507E+03  0.29432942016E+03  0.17300000000E+03 0. -1.
         -6    1    1    2    0  503 -0.20303555069E+02 -0.17554324978E+02 -0.34316281003E+03  0.38524031833E+03  0.17300000000E+03 0. -1.
<mgrwt>
<rscale>  2 0.17506967E+03</rscale>
<asrwt>0</asrwt>
<pdfrwt beam="1">  1       21 0.76773157E-02 0.17506967E+03</pdfrwt>
<pdfrwt beam="2">  1       21 0.96871884E-01 0.17506967E+03</pdfrwt>
<totfact> 0.11486328E+05</totfact>
</mgrwt>
</event>
<event>
 4    1  0.4102458E+000  0.2420475E+03  0.7546771E-02  0.1118436E+00
         21   -1    0    0  501  502  0.00000000000E+00  0.00000000000E+00  0.53190105143E+03  0.53190105143E+03  0.00000000000E+00 0.  1.
         21   -1    0    0  502  503 -0.00000000000E+00 -0.00000000000E+00 -0.14605914519E+03  0.14605914519E+03  0.00000000000E+00 0. -1.
          6    1    1    2  501    0 -0.12145670087E+03 -0.11792472028E+03  0.36100802411E+03  0.43464210945E+03  0.17300000000E+03 0.  1.
         -6    1    1    2    0  503  0.12145670087E+03  0.11792472028E+03  0.24833882137E+02  0.24331808716E+03  0.17300000000E+03 0. -1.
<mgrwt>
<rscale>  2 0.24204745E+03</rscale>
<asrwt>0</asrwt>
<pdfrwt beam="1">  1       21 0.81830930E-01 0.24204745E+03</pdfrwt>
<pdfrwt beam="2">  1       21 0.22470638E-01 0.24204745E+03</pdfrwt>
<totfact> 0.23590667E+04</totfact>
</mgrwt>
</event>
<event>
 4    1  0.4102458E+000  0.3237764E+03  0.7546771E-02  0.1073924E+00
         21   -1    0    0  503  502  0.00000000000E+00  0.00000000000E+00  0.38419178186E+03  0.38419178186E+03  0.00000000000E+00 0.  1.
         21   -1    0    0  501  503 -0.00000000000E+00 -0.00000000000E+00 -0.13875344357E+04  0.13875344357E+04  0.00000000000E+00 0. -1.
          6    1    1    2  501    0  0.25697245171E+02 -0.27247348976E+03 -0.12956675868E+04  0.13355095082E+04  0.17300000000E+03 0. -1.
         -6    1    1    2    0  502 -0.25697245171E+02  0.27247348976E+03  0.29232493299E+03  0.43621670931E+03  0.17300000000E+03 0.  1.
<mgrwt>
<rscale>  2 0.32377639E+03</rscale>
<asrwt>0</asrwt>
<pdfrwt beam="1">  1       21 0.59106428E-01 0.32377639E+03</pdfrwt>
<pdfrwt beam="2">  1       21 0.21346684E+00 0.32377639E+03</pdfrwt>
<totfact> 0.25886468E+02</totfact>
</mgrwt>
</event>
<event>
 4    1  0.4102458E+000  0.2096582E+03  0.7546771E-02  0.1141837E+00
         21   -1    0    0  503  502  0.00000000000E+00  0.00000000000E+00  0.14535399875E+03  0.14535399875E+03  0.00000000000E+00 0. -1.
         21   -1    0    0  501  503 -0.00000000000E+00 -0.00000000000E+00 -0.34919700803E+03  0.34919700803E+03  0.00000000000E+00 0. -1.
          6    1    1    2  501    0 -0.10517573690E+03 -0.54457569691E+02 -0.19243358897E+03  0.28458258677E+03  0.17300000000E+03 0. -1.
         -6    1    1    2    0  502  0.10517573690E+03  0.54457569691E+02 -0.11409420312E+02  0.20996842001E+03  0.17300000000E+03 0. -1.
<mgrwt>
<rscale>  2 0.20965820E+03</rscale>
<asrwt>0</asrwt>
<pdfrwt beam="1">  1       21 0.22362154E-01 0.20965820E+03</pdfrwt>
<pdfrwt beam="2">  1       21 0.53722616E-01 0.20965820E+03</pdfrwt>
<totfact> 0.60874172E+04</totfact>
</mgrwt>
</event>
<event>
 4    1  0.4102458E+000  0.1869011E+03  0.7546771E-02  0.1161286E+00
         21   -1    0    0  501  502  0.00000000000E+00  0.00000000000E+00  0.91953055205E+02  0.91953055205E+02  0.00000000000E+00 0.  1.
         21   -1    0    0  502  503 -0.00000000000E+00 -0.00000000000E+00 -0.63140262693E+03  0.63140262693E+03  0.00000000000E+00 0.  1.
          6    1    1    2  501    0 -0.65115214250E+02 -0.27622870562E+02 -0.41454750109E+02  0.19144323026E+03  0.17300000000E+03 0.  1.
         -6    1    1    2    0  503  0.65115214250E+02  0.27622870562E+02 -0.49799482162E+03  0.53191245188E+03  0.17300000000E+03 0.  1.
<mgrwt>
<rscale>  2 0.18690108E+03</rscale>
<asrwt>0</asrwt>
<pdfrwt beam="1">  1       21 0.14146624E-01 0.18690108E+03</pdfrwt>
<pdfrwt beam="2">  1       21 0.97138865E-01 0.18690108E+03</pdfrwt>
<totfact> 0.38477866E+04</totfact>
</mgrwt>
</event>
<event>
 4    1  0.4102458E+000  0.2372348E+03  0.7546771E-02  0.1121649E+00
         21   -1    0    0  503  502  0.00000000000E+00  0.00000000000E+00  0.21237948400E+04  0.21237948400E+04  0.00000000000E+00 0.  1.
         21   -1    0    0  501  503 -0.00000000000E+00 -0.00000000000E+00 -0.53062519285E+02  0.53062519285E+02  0.00000000000E+00 0. -1.
          6    1    1    2  501    0  0.15599403023E+03  0.44913532389E+02  0.26527622620E+03  0.35588177678E+03  0.17300000000E+03 0. -1.
         -6    1    1    2    0  502 -0.15599403023E+03 -0.44913532389E+02  0.18054560945E+04  0.18209755825E+04  0.17300000000E+03 0.  1.
<mgrwt>
<rscale>  2 0.23723483E+03</rscale>
<asrwt>0</asrwt>
<pdfrwt beam="1">  1       21 0.32673760E+00 0.23723483E+03</pdfrwt>
<pdfrwt beam="2">  1       21 0.81634661E-02 0.23723483E+03</pdfrwt>
<totfact> 0.26294562E+03</totfact>
</mgrwt>
</event>
<event>
 4    1  0.4102458E+000  0.1997159E+03  0.7546771E-02  0.1149979E+00
         21   -1    0    0  501  502  0.00000000000E+00  0.00000000000E+00  0.41938924032E+03  0.41938924032E+03  0.00000000000E+00 0. -1.
         21   -1    0    0  502  503 -0.00000000000E+00 -0.00000000000E+00 -0.13746947876E+03  0.13746947876E+03  0.00000000000E+00 0.  1.
          6    1    1    2  501    0  0.98688522327E+02 -0.14764993450E+02  0.29552366337E+03  0.35668005984E+03  0.17300000000E+03 0. -1.
         -6    1    1    2    0  503 -0.98688522327E+02  0.14764993450E+02 -0.13603901813E+02  0.20017865924E+03  0.17300000000E+03 0.  1.
<mgrwt>
<rscale>  2 0.19971587E+03</rscale>
<asrwt>0</asrwt>
<pdfrwt beam="1">  1       21 0.64521421E-01 0.19971587E+03</pdfrwt>
<pdfrwt beam="2">  1       21 0.21149151E-01 0.19971587E+03</pdfrwt>
<totfact> 0.45882368E+04</totfact>
</mgrwt>
</event>
<event>
 4    1  0.4102458E+000  0.3007307E+03  0.7546771E-02  0.1084876E+00
         21   -1    0    0  501  502  0.00000000000E+00  0.00000000000E+00  0.13550812954E+03  0.13550812954E+03  0.00000000000E+00 0.  1.
         21   -1    0    0  502  503 -0.00000000000E+00 -0.00000000000E+00 -0.14772861376E+04  0.14772861376E+04  0.00000000000E+00 0.  1.
          6    1    1    2  501    0 -0.30044791557E+02 -0.24414597497E+03 -0.73816567864E+02  0.30965760492E+03  0.17300000000E+03 0.  1.
         -6    1    1    2    0  503  0.30044791557E+02  0.24414597497E+03 -0.12679614402E+04  0.13031366622E+04  0.17300000000E+03 0.  1.
<mgrwt>
<rscale>  2 0.30073069E+03</rscale>
<asrwt>0</asrwt>
<pdfrwt beam="1">  1       21 0.20847405E-01 0.30073069E+03</pdfrwt>
<pdfrwt beam="2">  1       21 0.22727478E+00 0.30073069E+03</pdfrwt>
<totfact> 0.17627509E+03</totfact>
</mgrwt>
</event>
<event>
 4    1  0.4102458E+000  0.2006256E+03  0.7546771E-02  0.1149212E+00
         21   -1    0    0  501  502  0.00000000000E+00  0.00000000000E+00  0.58479484136E+03  0.58479484136E+03  0.00000000000E+00 0. -1.
         21   -1    0    0  502  503 -0.00000000000E+00 -0.00000000000E+00 -0.11367307486E+03  0.11367307486E+03  0.00000000000E+00 0. -1.
          6    1    1    2  501    0  0.10045002555E+03 -0.15211974457E+02  0.45491314686E+03  0.49718867946E+03  0.17300000000E+03 0. -1.
         -6    1    1    2    0  503 -0.10045002555E+03  0.15211974457E+02  0.16208619634E+02  0.20127923676E+03  0.17300000000E+03 0. -1.
<mgrwt>
<rscale>  2 0.20062555E+03</rscale>
<asrwt>0</asrwt>
<pdfrwt beam="1">  1       21 0.89968435E-01 0.20062555E+03</pdfrwt>
<pdfrwt beam="2">  1       21 0.17488166E-01 0.20062555E+03</pdfrwt>
<totfact> 0.30995413E+04</totfact>
</mgrwt>
</event>
<event>
 4    1  0.4102458E+000  0.2183021E+03  0.7546771E-02  0.1135155E+00
         21   -1    0    0  501  502  0.00000000000E+00  0.00000000000E+00  0.19214461266E+03  0.19214461266E+03  0.00000000000E+00 0. -1.
         21   -1    0    0  502  503 -0.00000000000E+00 -0.00000000000E+00 -0.32402241356E+03  0.32402241356E+03  0.00000000000E+00 0.  1.
          6    1    1    2  501    0 -0.13249202790E+03 -0.13141042011E+02  0.59053807985E+02  0.22614857214E+03  0.17300000000E+03 0. -1.
         -6    1    1    2    0  503  0.13249202790E+03  0.13141042011E+02 -0.19093160889E+03  0.29001845409E+03  0.17300000000E+03 0.  1.
<mgrwt>
<rscale>  2 0.21830214E+03</rscale>
<asrwt>0</asrwt>
<pdfrwt beam="1">  1       21 0.29560710E-01 0.21830214E+03</pdfrwt>
<pdfrwt beam="2">  1       21 0.49849601E-01 0.21830214E+03</pdfrwt>
<totfact> 0.41517622E+04</totfact>
</mgrwt>
</event>
<event>
 4    1  0.4102458E+000  0.1867233E+03  0.7546771E-02  0.1161450E+00
         21   -1    0    0  503  502  0.00000000000E+00  0.00000000000E+00  0.29034789408E+02  0.29034789408E+02  0.00000000000E+00 0.  1.
         21   -1    0    0  501  503 -0.00000000000E+00 -0.00000000000E+00 -0.13190029062E+04  0.13190029062E+04  0.00000000000E+00 0.  1.
          6    1    1    2  501    0  0.47580883932E+02 -0.51697599494E+02 -0.84673929739E+03  0.86708305257E+03  0.17300000000E+03 0.  1.
         -6    1    1    2    0  502 -0.47580883932E+02  0.51697599494E+02 -0.44322881937E+03  0.48095464300E+03  0.17300000000E+03 0.  1.
<mgrwt>
<rscale>  2 0.18672328E+03</rscale>
<asrwt>0</asrwt>
<pdfrwt beam="1">  1       21 0.44668915E-02 0.18672328E+03</pdfrwt>
<pdfrwt beam="2">  1       21 0.20292349E+00 0.18672328E+03</pdfrwt>
<totfact> 0.42029307E+04</totfact>
</mgrwt>
</event>
<event>
 4    1  0.4102458E+000  0.2005027E+03  0.7546771E-02  0.1149316E+00
         21   -1    0    0  503  502  0.00000000000E+00  0.00000000000E+00  0.25734636456E+04  0.25734636456E+04  0.00000000000E+00 0.  1.
         21   -1    0    0  501  503 -0.00000000000E+00 -0.00000000000E+00 -0.32462579087E+02  0.32462579087E+02  0.00000000000E+00 0.  1.
          6    1    1    2  501    0 -0.24952873863E+02 -0.98232811802E+02  0.33201901591E+03  0.38786332406E+03  0.17300000000E+03 0.  1.
         -6    1    1    2    0  502  0.24952873863E+02  0.98232811802E+02  0.22089820506E+04  0.22180629006E+04  0.17300000000E+03 0.  1.
<mgrwt>
<rscale>  2 0.20050270E+03</rscale>
<asrwt>0</asrwt>
<pdfrwt beam="1">  1       21 0.39591732E+00 0.20050270E+03</pdfrwt>
<pdfrwt beam="2">  1       21 0.49942450E-02 0.20050270E+03</pdfrwt>
<totfact> 0.24618757E+03</totfact>
</mgrwt>
</event>
<event>
 4    1  0.4102458E+000  0.2336209E+03  0.7546771E-02  0.1124117E+00
         21   -1    0    0  503  502  0.00000000000E+00  0.00000000000E+00  0.13389376931E+04  0.13389376931E+04  0.00000000000E+00 0.  1.
         21   -1    0    0  501  503 -0.00000000000E+00 -0.00000000000E+00 -0.68012841000E+02  0.68012841000E+02  0.00000000000E+00 0.  1.
          6    1    1    2  501    0 -0.59867332321E+01  0.15688809836E+03  0.19017775324E+03  0.30124125582E+03  0.17300000000E+03 0.  1.
         -6    1    1    2    0  502  0.59867332321E+01 -0.15688809836E+03  0.10807470989E+04  0.11057092783E+04  0.17300000000E+03 0.  1.
<mgrwt>
<rscale>  2 0.23362088E+03</rscale>
<asrwt>0</asrwt>
<pdfrwt beam="1">  1       21 0.20599039E+00 0.23362088E+03</pdfrwt>
<pdfrwt beam="2">  1       21 0.10463515E-01 0.23362088E+03</pdfrwt>
<totfact> 0.89091170E+03</totfact>
</mgrwt>
</event>
<event>
 4    1  0.4102458E+000  0.2880943E+03  0.7546771E-02  0.1091348E+00
         21   -1    0    0  503  502  0.00000000000E+00  0.00000000000E+00  0.99197693617E+03  0.99197693617E+03  0.00000000000E+00 0.  1.
         21   -1    0    0  501  503 -0.00000000000E+00 -0.00000000000E+00 -0.89577572501E+02  0.89577572501E+02  0.00000000000E+00 0.  1.
          6    1    1    2  501    0 -0.18181685349E+03 -0.14146363242E+03  0.31232039300E+03  0.42490275993E+03  0.17300000000E+03 0.  1.
         -6    1    1    2    0  502  0.18181685349E+03  0.14146363242E+03  0.59007897067E+03  0.65665174875E+03  0.17300000000E+03 0.  1.
<mgrwt>
<rscale>  2 0.28809430E+03</rscale>
<asrwt>0</asrwt>
<pdfrwt beam="1">  1       21 0.15261183E+00 0.28809430E+03</pdfrwt>
<pdfrwt beam="2">  1       21 0.13781166E-01 0.28809430E+03</pdfrwt>
<totfact> 0.12321088E+04</totfact>
</mgrwt>
</event>
<event>
 4    1  0.4102458E+000  0.1819769E+03  0.7546771E-02  0.1165903E+00
         21   -1    0    0  501  502  0.00000000000E+00  0.00000000000E+00  0.88542824115E+03  0.88542824115E+03  0.00000000000E+00 0.  1.
         21   -1    0    0  502  503 -0.00000000000E+00 -0.00000000000E+00 -0.37410756227E+02  0.37410756227E+02  0.00000000000E+00 0. -1.
          6    1    1    2  501    0  0.29182793139E+02 -0.48321567026E+02  0.43158521332E+03  0.46838168795E+03  0.17300000000E+03 0. -1.
         -6    1    1    2    0  503 -0.29182793139E+02  0.48321567026E+02  0.41643227161E+03  0.45445730943E+03  0.17300000000E+03 0.  1.
<mgrwt>
<rscale>  2 0.18197695E+03</rscale>
<asrwt>0</asrwt>
<pdfrwt beam="1">  1       21 0.13621971E+00 0.18197695E+03</pdfrwt>
<pdfrwt beam="2">  1       21 0.57555016E-02 0.18197695E+03</pdfrwt>
<totfact> 0.81701651E+04</totfact>
</mgrwt>
</event>
<event>
 4    1  0.4102458E+000  0.1881912E+03  0.7546771E-02  0.1160103E+00
         21   -1    0    0  503  502  0.00000000000E+00  0.00000000000E+00  0.89328919672E+03  0.89328919672E+03  0.00000000000E+00 0.  1.
         21   -1    0    0  501  503 -0.00000000000E+00 -0.00000000000E+00 -0.85035616251E+02  0.85035616251E+02  0.00000000000E+00 0. -1.
          6    1    1    2  501    0 -0.52336589992E+02 -0.52419548592E+02  0.46748828325E+02  0.19391075441E+03  0.17300000000E+03 0. -1.
         -6    1    1    2    0  502  0.52336589992E+02  0.52419548592E+02  0.76150475214E+03  0.78441405856E+03  0.17300000000E+03 0.  1.
<mgrwt>
<rscale>  2 0.18819120E+03</rscale>
<asrwt>0</asrwt>
<pdfrwt beam="1">  1       21 0.13742910E+00 0.18819120E+03</pdfrwt>
<pdfrwt beam="2">  1       21 0.13082403E-01 0.18819120E+03</pdfrwt>
<totfact> 0.18918841E+04</totfact>
</mgrwt>
</event>
<event>
 4    1  0.4102458E+000  0.2352800E+03  0.7546771E-02  0.1122978E+00
         21   -1    0    0  503  502  0.00000000000E+00  0.00000000000E+00  0.53506922339E+03  0.53506922339E+03  0.00000000000E+00 0.  1.
         21   -1    0    0  501  503 -0.00000000000E+00 -0.00000000000E+00 -0.30186078835E+03  0.30186078835E+03  0.00000000000E+00 0.  1.
          6    1    1    2  501    0 -0.36442661882E+02 -0.15524046253E+03 -0.22265429244E+03  0.32393147848E+03  0.17300000000E+03 0.  1.
         -6    1    1    2    0  502  0.36442661882E+02  0.15524046253E+03  0.45586272749E+03  0.51299853326E+03  0.17300000000E+03 0.  1.
<mgrwt>
<rscale>  2 0.23527998E+03</rscale>
<asrwt>0</asrwt>
<pdfrwt beam="1">  1       21 0.82318342E-01 0.23527998E+03</pdfrwt>
<pdfrwt beam="2">  1       21 0.46440121E-01 0.23527998E+03</pdfrwt>
<totfact> 0.55525973E+03</totfact>
</mgrwt>
</event>
<event>
 4    1  0.4102458E+000  0.2271458E+03  0.7546771E-02  0.1128665E+00
         21   -1    0    0  503  502  0.00000000000E+00  0.00000000000E+00  0.21030778137E+03  0.21030778137E+03  0.00000000000E+00 0. -1.
         21   -1    0    0  501  503 -0.00000000000E+00 -0.00000000000E+00 -0.29355718652E+03  0.29355718652E+03  0.00000000000E+00 0.  1.
          6    1    1    2  501    0  0.14540483158E+03  0.22883539986E+02 -0.14373626507E+03  0.26880352555E+03  0.17300000000E+03 0.  1.
         -6    1    1    2    0  502 -0.14540483158E+03 -0.22883539986E+02  0.60486859925E+02  0.23506144234E+03  0.17300000000E+03 0. -1.
<mgrwt>
<rscale>  2 0.22714582E+03</rscale>
<asrwt>0</asrwt>
<pdfrwt beam="1">  1       21 0.32355043E-01 0.22714582E+03</pdfrwt>
<pdfrwt beam="2">  1       21 0.45162644E-01 0.22714582E+03</pdfrwt>
<totfact> 0.42512948E+04</totfact>
</mgrwt>
</event>
<event>
 4    1  0.4102458E+000  0.2798588E+03  0.7546771E-02  0.1095766E+00
         21   -1    0    0  501  502  0.00000000000E+00  0.00000000000E+00  0.23791285035E+03  0.23791285035E+03  0.00000000000E+00 0.  1.
         21   -1    0    0  502  503 -0.00000000000E+00 -0.00000000000E+00 -0.41462682045E+03  0.41462682045E+03  0.00000000000E+00 0.  1.
          6    1    1    2  501    0 -0.16574888361E+03 -0.14463481268E+03  0.59739663529E+02  0.28616384966E+03  0.17300000000E+03 0.  1.
         -6    1    1    2    0  503  0.16574888361E+03  0.14463481268E+03 -0.23645363364E+03  0.36637582114E+03  0.17300000000E+03 0.  1.
<mgrwt>
<rscale>  2 0.27985875E+03</rscale>
<asrwt>0</asrwt>
<pdfrwt beam="1">  1       21 0.36601977E-01 0.27985875E+03</pdfrwt>
<pdfrwt beam="2">  1       21 0.63788741E-01 0.27985875E+03</pdfrwt>
<totfact> 0.15592139E+04</totfact>
</mgrwt>
</event>
<event>
 4    1  0.4102458E+000  0.2151560E+03  0.7546771E-02  0.1137547E+00
         21   -1    0    0  501  502  0.00000000000E+00  0.00000000000E+00  0.73052457574E+03  0.73052457574E+03  0.00000000000E+00 0.  1.
         21   -1    0    0  502  503 -0.00000000000E+00 -0.00000000000E+00 -0.11960090175E+03  0.11960090175E+03  0.00000000000E+00 0.  1.
          6    1    1    2  501    0  0.91213984935E+02 -0.89683491572E+02  0.59692239785E+03  0.63451435662E+03  0.17300000000E+03 0.  1.
         -6    1    1    2    0  503 -0.91213984935E+02  0.89683491572E+02  0.14001276135E+02  0.21561112087E+03  0.17300000000E+03 0.  1.
<mgrwt>
<rscale>  2 0.21515604E+03</rscale>
<asrwt>0</asrwt>
<pdfrwt beam="1">  1       21 0.11238839E+00 0.21515604E+03</pdfrwt>
<pdfrwt beam="2">  1       21 0.18400139E-01 0.21515604E+03</pdfrwt>
<totfact> 0.16472765E+04</totfact>
</mgrwt>
</event>
<event>
 4    1  0.4102458E+000  0.2075928E+03  0.7546771E-02  0.1143487E+00
         21   -1    0    0  501  502  0.00000000000E+00  0.00000000000E+00  0.20680587584E+03  0.20680587584E+03  0.00000000000E+00 0. -1.
         21   -1    0    0  502  503 -0.00000000000E+00 -0.00000000000E+00 -0.23234041339E+03  0.23234041339E+03  0.00000000000E+00 0. -1.
          6    1    1    2  501    0  0.48051177384E+02  0.10419623981E+03  0.57740877204E+02  0.21547338801E+03  0.17300000000E+03 0. -1.
         -6    1    1    2    0  503 -0.48051177384E+02 -0.10419623981E+03 -0.83275414758E+02  0.22367290122E+03  0.17300000000E+03 0. -1.
<mgrwt>
<rscale>  2 0.20759280E+03</rscale>
<asrwt>0</asrwt>
<pdfrwt beam="1">  1       21 0.31816289E-01 0.20759280E+03</pdfrwt>
<pdfrwt beam="2">  1       21 0.35744679E-01 0.20759280E+03</pdfrwt>
<totfact> 0.71216861E+04</totfact>
</mgrwt>
</event>
<event>
 4    1  0.4102458E+000  0.2351115E+03  0.7546771E-02  0.1123093E+00
         21   -1    0    0  503  502  0.00000000000E+00  0.00000000000E+00  0.20286340297E+04  0.20286340297E+04  0.00000000000E+00 0.  1.
         21   -1    0    0  501  503 -0.00000000000E+00 -0.00000000000E+00 -0.44769330201E+02  0.44769330201E+02  0.00000000000E+00 0. -1.
          6    1    1    2  501    0  0.62339921446E+02  0.14649964608E+03  0.34338788312E+03  0.41616421083E+03  0.17300000000E+03 0.  1.
         -6    1    1    2    0  502 -0.62339921446E+02 -0.14649964608E+03  0.16404768164E+04  0.16572391490E+04  0.17300000000E+03 0. -1.
<mgrwt>
<rscale>  2 0.23511149E+03</rscale>
<asrwt>0</asrwt>
<pdfrwt beam="1">  1       21 0.31209747E+00 0.23511149E+03</pdfrwt>
<pdfrwt beam="2">  1       21 0.68875908E-02 0.23511149E+03</pdfrwt>
<totfact> 0.43153375E+03</totfact>
</mgrwt>
</event>
<event>
 4    1  0.4102458E+000  0.1896251E+03  0.7546771E-02  0.1158800E+00
         21   -1    0    0  501  502  0.00000000000E+00  0.00000000000E+00  0.60232061307E+03  0.60232061307E+03  0.00000000000E+00 0.  1.
         21   -1    0    0  502  503 -0.00000000000E+00 -0.00000000000E+00 -0.96829765019E+02  0.96829765019E+02  0.00000000000E+00 0. -1.
          6    1    1    2  501    0  0.70323206249E+02  0.32913945952E+02  0.46921935677E+03  0.50608742915E+03  0.17300000000E+03 0.  1.
         -6    1    1    2    0  503 -0.70323206249E+02 -0.32913945952E+02  0.36271491287E+02  0.19306294895E+03  0.17300000000E+03 0. -1.
<mgrwt>
<rscale>  2 0.18962511E+03</rscale>
<asrwt>0</asrwt>
<pdfrwt beam="1">  1       21 0.92664708E-01 0.18962511E+03</pdfrwt>
<pdfrwt beam="2">  1       21 0.14896887E-01 0.18962511E+03</pdfrwt>
<totfact> 0.39062387E+04</totfact>
</mgrwt>
</event>
<event>
 4    1  0.4102458E+000  0.2888298E+03  0.7546771E-02  0.1090962E+00
         21   -1    0    0  503  502  0.00000000000E+00  0.00000000000E+00  0.89706363942E+02  0.89706363942E+02  0.00000000000E+00 0. -1.
         21   -1    0    0  501  503 -0.00000000000E+00 -0.00000000000E+00 -0.11845345332E+04  0.11845345332E+04  0.00000000000E+00 0. -1.
          6    1    1    2  501    0  0.22972396295E+03  0.26842922468E+02 -0.84278090387E+03  0.89089971016E+03  0.17300000000E+03 0. -1.
         -6    1    1    2    0  502 -0.22972396295E+03 -0.26842922468E+02 -0.25204726536E+03  0.38334118696E+03  0.17300000000E+03 0. -1.
<mgrwt>
<rscale>  2 0.28882978E+03</rscale>
<asrwt>0</asrwt>
<pdfrwt beam="1">  1       21 0.13800979E-01 0.28882978E+03</pdfrwt>
<pdfrwt beam="2">  1       21 0.18223608E+00 0.28882978E+03</pdfrwt>
<totfact> 0.74966005E+03</totfact>
</mgrwt>
</event>
<event>
 4    1  0.4102458E+000  0.1872437E+03  0.7546771E-02  0.1160971E+00
         21   -1    0    0  503  502  0.00000000000E+00  0.00000000000E+00  0.19141047661E+03  0.19141047661E+03  0.00000000000E+00 0.  1.
         21   -1    0    0  501  503 -0.00000000000E+00 -0.00000000000E+00 -0.76772898598E+03  0.76772898598E+03  0.00000000000E+00 0.  1.
          6    1    1    2  501    0  0.58855615147E+02  0.40831749070E+02 -0.70662780376E+03  0.73101509438E+03  0.17300000000E+03 0.  1.
         -6    1    1    2    0  502 -0.58855615147E+02 -0.40831749070E+02  0.13030929439E+03  0.22812436821E+03  0.17300000000E+03 0.  1.
<mgrwt>
<rscale>  2 0.18724373E+03</rscale>
<asrwt>0</asrwt>
<pdfrwt beam="1">  1       21 0.29447765E-01 0.18724373E+03</pdfrwt>
<pdfrwt beam="2">  1       21 0.11811215E+00 0.18724373E+03</pdfrwt>
<totfact> 0.60940304E+03</totfact>
</mgrwt>
</event>
<event>
 4    1  0.4102458E+000  0.1992049E+03  0.7546771E-02  0.1150412E+00
         21   -1    0    0  501  502  0.00000000000E+00  0.00000000000E+00  0.32168411794E+02  0.32168411794E+02  0.00000000000E+00 0.  1.
         21   -1    0    0  502  503 -0.00000000000E+00 -0.00000000000E+00 -0.12653535257E+04  0.12653535257E+04  0.00000000000E+00 0.  1.
          6    1    1    2  501    0  0.40762339654E+02 -0.89955703851E+02 -0.51380267308E+03  0.55106785776E+03  0.17300000000E+03 0.  1.
         -6    1    1    2    0  503 -0.40762339654E+02  0.89955703851E+02 -0.71938244086E+03  0.74645407977E+03  0.17300000000E+03 0.  1.
<mgrwt>
<rscale>  2 0.19920491E+03</rscale>
<asrwt>0</asrwt>
<pdfrwt beam="1">  1       21 0.49489879E-02 0.19920491E+03</pdfrwt>
<pdfrwt beam="2">  1       21 0.19466971E+00 0.19920491E+03</pdfrwt>
<totfact> 0.39610912E+04</totfact>
</mgrwt>
</event>
<event>
 4    1  0.4102458E+000  0.1935609E+03  0.7546771E-02  0.1155288E+00
         21   -1    0    0  503  502  0.00000000000E+00  0.00000000000E+00  0.71537294395E+03  0.71537294395E+03  0.00000000000E+00 0. -1.
         21   -1    0    0  501  503 -0.00000000000E+00 -0.00000000000E+00 -0.52401144519E+02  0.52401144519E+02  0.00000000000E+00 0. -1.
          6    1    1    2  501    0 -0.86172291503E+02 -0.10543079339E+02  0.32249973901E+03  0.37612750765E+03  0.17300000000E+03 0. -1.
         -6    1    1    2    0  502  0.86172291503E+02  0.10543079339E+02  0.34047206042E+03  0.39164658082E+03  0.17300000000E+03 0. -1.
<mgrwt>
<rscale>  2 0.19356090E+03</rscale>
<asrwt>0</asrwt>
<pdfrwt beam="1">  1       21 0.11005737E+00 0.19356090E+03</pdfrwt>
<pdfrwt beam="2">  1       21 0.80617151E-02 0.19356090E+03</pdfrwt>
<totfact> 0.77206208E+04</totfact>
</mgrwt>
</event>
<event>
 4    1  0.4102458E+000  0.1826380E+03  0.7546771E-02  0.1165274E+00
         21   -1    0    0  503  502  0.00000000000E+00  0.00000000000E+00  0.35214443033E+03  0.35214443033E+03  0.00000000000E+00 0. -1.
         21   -1    0    0  501  503 -0.00000000000E+00 -0.00000000000E+00 -0.10184131068E+03  0.10184131068E+03  0.00000000000E+00 0. -1.
          6    1    1    2  501    0 -0.58494198207E+02 -0.24606309781E+01  0.65144853106E+02  0.19390842636E+03  0.17300000000E+03 0. -1.
         -6    1    1    2    0  502  0.58494198207E+02  0.24606309781E+01  0.18515826654E+03  0.26007731465E+03  0.17300000000E+03 0. -1.
<mgrwt>
<rscale>  2 0.18263796E+03</rscale>
<asrwt>0</asrwt>
<pdfrwt beam="1">  1       21 0.54176066E-01 0.18263796E+03</pdfrwt>
<pdfrwt beam="2">  1       21 0.15667894E-01 0.18263796E+03</pdfrwt>
<totfact> 0.11709556E+05</totfact>
</mgrwt>
</event>
<event>
 4    1  0.4102458E+000  0.2473729E+03  0.7546771E-02  0.1114976E+00
         21   -1    0    0  503  502  0.00000000000E+00  0.00000000000E+00  0.11070011753E+03  0.11070011753E+03  0.00000000000E+00 0. -1.
         21   -1    0    0  501  503 -0.00000000000E+00 -0.00000000000E+00 -0.75349525884E+03  0.75349525884E+03  0.00000000000E+00 0.  1.
          6    1    1    2  501    0  0.56231356836E+02 -0.16763771104E+03 -0.54440864769E+03  0.59797503571E+03  0.17300000000E+03 0.  1.
         -6    1    1    2    0  502 -0.56231356836E+02  0.16763771104E+03 -0.98386493626E+02  0.26622034066E+03  0.17300000000E+03 0. -1.
<mgrwt>
<rscale>  2 0.24737293E+03</rscale>
<asrwt>0</asrwt>
<pdfrwt beam="1">  1       21 0.17030787E-01 0.24737293E+03</pdfrwt>
<pdfrwt beam="2">  1       21 0.11592235E+00 0.24737293E+03</pdfrwt>
<totfact> 0.17304857E+04</totfact>
</mgrwt>
</event>
<event>
 4    1  0.4102458E+000  0.1826462E+03  0.7546771E-02  0.1165266E+00
         21   -1    0    0  503  502  0.00000000000E+00  0.00000000000E+00  0.14089124777E+03  0.14089124777E+03  0.00000000000E+00 0.  1.
         21   -1    0    0  501  503 -0.00000000000E+00 -0.00000000000E+00 -0.33185315997E+03  0.33185315997E+03  0.00000000000E+00 0.  1.
          6    1    1    2  501    0  0.75502829005E+01  0.58082942759E+02 -0.22200178534E+03  0.28747943875E+03  0.17300000000E+03 0.  1.
         -6    1    1    2    0  502 -0.75502829005E+01 -0.58082942759E+02  0.31039873134E+02  0.18526496899E+03  0.17300000000E+03 0.  1.
<mgrwt>
<rscale>  2 0.18264620E+03</rscale>
<asrwt>0</asrwt>
<pdfrwt beam="1">  1       21 0.21675577E-01 0.18264620E+03</pdfrwt>
<pdfrwt beam="2">  1       21 0.51054332E-01 0.18264620E+03</pdfrwt>
<totfact> 0.72719682E+04</totfact>
</mgrwt>
</event>
<event>
 4    1  0.4102458E+000  0.2382598E+03  0.7546771E-02  0.1120958E+00
         21   -1    0    0  503  502  0.00000000000E+00  0.00000000000E+00  0.16128358970E+03  0.16128358970E+03  0.00000000000E+00 0.  1.
         21   -1    0    0  501  503 -0.00000000000E+00 -0.00000000000E+00 -0.35463944805E+03  0.35463944805E+03  0.00000000000E+00 0.  1.
          6    1    1    2  501    0  0.91926561662E+02 -0.13560331947E+03 -0.11903858223E+03  0.26634176738E+03  0.17300000000E+03 0.  1.
         -6    1    1    2    0  502 -0.91926561662E+02  0.13560331947E+03 -0.74317276121E+02  0.24958127037E+03  0.17300000000E+03 0.  1.
<mgrwt>
<rscale>  2 0.23825984E+03</rscale>
<asrwt>0</asrwt>
<pdfrwt beam="1">  1       21 0.24812860E-01 0.23825984E+03</pdfrwt>
<pdfrwt beam="2">  1       21 0.54559915E-01 0.23825984E+03</pdfrwt>
<totfact> 0.47731364E+04</totfact>
</mgrwt>
</event>
<event>
 4    1  0.4102458E+000  0.2044518E+03  0.7546771E-02  0.1146036E+00
         21   -1    0    0  503  502  0.00000000000E+00  0.00000000000E+00  0.15716546584E+04  0.15716546584E+04  0.00000000000E+00 0. -1.
         21   -1    0    0  501  503 -0.00000000000E+00 -0.00000000000E+00 -0.41431611782E+02  0.41431611782E+02  0.00000000000E+00 0. -1.
          6    1    1    2  501    0  0.10869282856E+03 -0.75768813624E+01  0.28248982353E+03  0.34871340741E+03  0.17300000000E+03 0. -1.
         -6    1    1    2    0  502 -0.10869282856E+03  0.75768813624E+01  0.12477332231E+04  0.12643728628E+04  0.17300000000E+03 0. -1.
<mgrwt>
<rscale>  2 0.20445180E+03</rscale>
<asrwt>0</asrwt>
<pdfrwt beam="1">  1       21 0.24179298E+00 0.20445180E+03</pdfrwt>
<pdfrwt beam="2">  1       21 0.63740953E-02 0.20445180E+03</pdfrwt>
<totfact> 0.13076531E+04</totfact>
</mgrwt>
</event>
<event>
 4    1  0.4102458E+000  0.1897493E+03  0.7546771E-02  0.1158688E+00
         21   -1    0    0  501  502  0.00000000000E+00  0.00000000000E+00  0.55494417668E+03  0.55494417668E+03  0.00000000000E+00 0.  1.
         21   -1    0    0  502  503 -0.00000000000E+00 -0.00000000000E+00 -0.65628062553E+02  0.65628062553E+02  0.00000000000E+00 0.  1.
          6    1    1    2  501    0 -0.51740099550E+02  0.58299008931E+02  0.27778403016E+03  0.33640567735E+03  0.17300000000E+03 0.  1.
         -6    1    1    2    0  503  0.51740099550E+02 -0.58299008931E+02  0.21153208397E+03  0.28416656188E+03  0.17300000000E+03 0.  1.
<mgrwt>
<rscale>  2 0.18974934E+03</rscale>
<asrwt>0</asrwt>
<pdfrwt beam="1">  1       21 0.85376024E-01 0.18974934E+03</pdfrwt>
<pdfrwt beam="2">  1       21 0.10096625E-01 0.18974934E+03</pdfrwt>
<totfact> 0.94746068E+04</totfact>
</mgrwt>
</event>
<event>
 4    1  0.4102458E+000  0.3450937E+03  0.7546771E-02  0.1064647E+00
         21   -1    0    0  501  502  0.00000000000E+00  0.00000000000E+00  0.88579843584E+03  0.88579843584E+03  0.00000000000E+00 0. -1.
         21   -1    0    0  502  503 -0.00000000000E+00 -0.00000000000E+00 -0.17758922646E+03  0.17758922646E+03  0.00000000000E+00 0.  1.
          6    1    1    2  501    0 -0.23090190860E+03 -0.18932767395E+03  0.61617818600E+03  0.70623311762E+03  0.17300000000E+03 0. -1.
         -6    1    1    2    0  503  0.23090190860E+03  0.18932767395E+03  0.92031023367E+02  0.35715454468E+03  0.17300000000E+03 0.  1.
<mgrwt>
<rscale>  2 0.34509370E+03</rscale>
<asrwt>0</asrwt>
<pdfrwt beam="1">  1       21 0.13627668E+00 0.34509370E+03</pdfrwt>
<pdfrwt beam="2">  1       21 0.27321420E-01 0.34509370E+03</pdfrwt>
<totfact> 0.44529136E+03</totfact>
</mgrwt>
</event>
<event>
 4    1  0.4102458E+000  0.2203703E+03  0.7546771E-02  0.1133607E+00
         21   -1    0    0  501  502  0.00000000000E+00  0.00000000000E+00  0.45945411095E+02  0.45945411095E+02  0.00000000000E+00 0. -1.
         21   -1    0    0  502  503 -0.00000000000E+00 -0.00000000000E+00 -0.12543568642E+04  0.12543568642E+04  0.00000000000E+00 0.  1.
          6    1    1    2  501    0 -0.12747714393E+03 -0.48822699091E+02 -0.34630109828E+03  0.41047232409E+03  0.17300000000E+03 0. -1.
         -6    1    1    2    0  503  0.12747714393E+03  0.48822699091E+02 -0.86211035486E+03  0.88982995124E+03  0.17300000000E+03 0.  1.
<mgrwt>
<rscale>  2 0.22037032E+03</rscale>
<asrwt>0</asrwt>
<pdfrwt beam="1">  1       21 0.70685254E-02 0.22037032E+03</pdfrwt>
<pdfrwt beam="2">  1       21 0.19297796E+00 0.22037032E+03</pdfrwt>
<totfact> 0.21745437E+04</totfact>
</mgrwt>
</event>
<event>
 4    1  0.4102458E+000  0.1835749E+03  0.7546771E-02  0.1164387E+00
         21   -1    0    0  503  502  0.00000000000E+00  0.00000000000E+00  0.48201514548E+03  0.48201514548E+03  0.00000000000E+00 0.  1.
         21   -1    0    0  501  503 -0.00000000000E+00 -0.00000000000E+00 -0.11570627864E+03  0.11570627864E+03  0.00000000000E+00 0.  1.
          6    1    1    2  501    0  0.41950230581E+02 -0.44843105073E+02 -0.48574587142E+01  0.18363910483E+03  0.17300000000E+03 0.  1.
         -6    1    1    2    0  502 -0.41950230581E+02  0.44843105073E+02  0.37116632555E+03  0.41408231928E+03  0.17300000000E+03 0.  1.
<mgrwt>
<rscale>  2 0.18357485E+03</rscale>
<asrwt>0</asrwt>
<pdfrwt beam="1">  1       21 0.74156175E-01 0.18357485E+03</pdfrwt>
<pdfrwt beam="2">  1       21 0.17800966E-01 0.18357485E+03</pdfrwt>
<totfact> 0.46936196E+04</totfact>
</mgrwt>
</event>
<event>
 4    1  0.4102458E+000  0.1814470E+03  0.7546771E-02  0.1166410E+00
         21   -1    0    0  501  502  0.00000000000E+00  0.00000000000E+00  0.36328815339E+03  0.36328815339E+03  0.00000000000E+00 0.  1.
         21   -1    0    0  502  503 -0.00000000000E+00 -0.00000000000E+00 -0.25845428561E+03  0.25845428561E+03  0.00000000000E+00 0.  1.
          6    1    1    2  501    0 -0.54593263868E+02 -0.36856893060E+01  0.30292542446E+03  0.35311021162E+03  0.17300000000E+03 0.  1.
         -6    1    1    2    0  503  0.54593263868E+02  0.36856893060E+01 -0.19809155668E+03  0.26863222739E+03  0.17300000000E+03 0.  1.
<mgrwt>
<rscale>  2 0.18144699E+03</rscale>
<asrwt>0</asrwt>
<pdfrwt beam="1">  1       21 0.55890486E-01 0.18144699E+03</pdfrwt>
<pdfrwt beam="2">  1       21 0.39762198E-01 0.18144699E+03</pdfrwt>
<totfact> 0.18505233E+04</totfact>
</mgrwt>
</event>
<event>
 4    1  0.4102458E+000  0.2482842E+03  0.7546771E-02  0.1114394E+00
         21   -1    0    0  503  502  0.00000000000E+00  0.00000000000E+00  0.56269389094E+02  0.56269389094E+02  0.00000000000E+00 0. -1.
         21   -1    0    0  501  503 -0.00000000000E+00 -0.00000000000E+00 -0.11076324838E+04  0.11076324838E+04  0.00000000000E+00 0. -1.
          6    1    1    2  501    0 -0.15841985582E+03 -0.81358542499E+02 -0.58650108013E+03  0.63688977080E+03  0.17300000000E+03 0. -1.
         -6    1    1    2    0  502  0.15841985582E+03  0.81358542499E+02 -0.46486201453E+03  0.52701210205E+03  0.17300000000E+03 0. -1.
<mgrwt>
<rscale>  2 0.24828424E+03</rscale>
<asrwt>0</asrwt>
<pdfrwt beam="1">  1       21 0.86568292E-02 0.24828424E+03</pdfrwt>
<pdfrwt beam="2">  1       21 0.17040500E+00 0.24828424E+03</pdfrwt>
<totfact> 0.21398042E+04</totfact>
</mgrwt>
</event>
<event>
 4    1  0.4102458E+000  0.1835473E+03  0.7546771E-02  0.1164413E+00
         21   -1    0    0  503  502  0.00000000000E+00  0.00000000000E+00  0.71584233938E+03  0.71584233938E+03  0.00000000000E+00 0.  1.
         21   -1    0    0  501  503 -0.00000000000E+00 -0.00000000000E+00 -0.20614652377E+03  0.20614652377E+03  0.00000000000E+00 0.  1.
          6    1    1    2  501    0 -0.41054661776E+02  0.45553640502E+02 -0.15011980904E+03  0.23711932963E+03  0.17300000000E+03 0.  1.
         -6    1    1    2    0  502  0.41054661776E+02 -0.45553640502E+02  0.65981562465E+03  0.68486953352E+03  0.17300000000E+03 0.  1.
<mgrwt>
<rscale>  2 0.18354732E+03</rscale>
<asrwt>0</asrwt>
<pdfrwt beam="1">  1       21 0.11012959E+00 0.18354732E+03</pdfrwt>
<pdfrwt beam="2">  1       21 0.31714850E-01 0.18354732E+03</pdfrwt>
<totfact> 0.62693447E+03</totfact>
</mgrwt>
</event>
<event>
 4    1  0.4102458E+000  0.2442847E+03  0.7546771E-02  0.1116971E+00
         21   -1    0    0  503  502  0.00000000000E+00  0.00000000000E+00  0.62450599491E+02  0.62450599491E+02  0.00000000000E+00 0.  1.
         21   -1    0    0  501  503 -0.00000000000E+00 -0.00000000000E+00 -0.99371971319E+03  0.99371971319E+03  0.00000000000E+00 0. -1.
          6    1    1    2  501    0 -0.10154070690E+03  0.13941126410E+03 -0.56912493927E+03  0.61933691333E+03  0.17300000000E+03 0. -1.
         -6    1    1    2    0  502  0.10154070690E+03 -0.13941126410E+03 -0.36214417443E+03  0.43683339935E+03  0.17300000000E+03 0. -1.
<mgrwt>
<rscale>  2 0.24428470E+03</rscale>
<asrwt>0</asrwt>
<pdfrwt beam="1">  1       21 0.96077844E-02 0.24428470E+03</pdfrwt>
<pdfrwt beam="2">  1       21 0.15287996E+00 0.24428470E+03</pdfrwt>
<totfact> 0.23994428E+04</totfact>
</mgrwt>
</event>
<event>
 4    1  0.4102458E+000  0.2184597E+03  0.7546771E-02  0.1135037E+00
         21   -1    0    0  501  502  0.00000000000E+00  0.00000000000E+00  0.32692957552E+03  0.32692957552E+03  0.00000000000E+00 0. -1.
         21   -1    0    0  502  503 -0.00000000000E+00 -0.00000000000E+00 -0.30891468699E+03  0.30891468699E+03  0.00000000000E+00 0.  1.
          6    1    1    2  501    0  0.14605444040E+02 -0.13259841556E+03  0.23990023894E+03  0.32446383997E+03  0.17300000000E+03 0. -1.
         -6    1    1    2    0  503 -0.14605444040E+02  0.13259841556E+03 -0.22188535041E+03  0.31138042253E+03  0.17300000000E+03 0.  1.
<mgrwt>
<rscale>  2 0.21845974E+03</rscale>
<asrwt>0</asrwt>
<pdfrwt beam="1">  1       21 0.50296857E-01 0.21845974E+03</pdfrwt>
<pdfrwt beam="2">  1       21 0.47525337E-01 0.21845974E+03</pdfrwt>
<totfact> 0.15685640E+04</totfact>
</mgrwt>
</event>
<event>
 4    1  0.4102458E+000  0.1732712E+03  0.7546771E-02  0.1174479E+00
         21   -1    0    0  503  502  0.00000000000E+00  0.00000000000E+00  0.48011335864E+03  0.48011335864E+03  0.00000000000E+00 0.  1.
         21   -1    0    0  501  503 -0.00000000000E+00 -0.00000000000E+00 -0.77805086707E+02  0.77805086707E+02  0.00000000000E+00 0.  1.
          6    1    1    2  501    0 -0.28894281674E+01  0.92495448831E+01  0.77563182497E+02  0.18983927453E+03  0.17300000000E+03 0.  1.
         -6    1    1    2    0  502  0.28894281674E+01 -0.92495448831E+01  0.32474508944E+03  0.36807917082E+03  0.17300000000E+03 0.  1.
<mgrwt>
<rscale>  2 0.17327118E+03</rscale>
<asrwt>0</asrwt>
<pdfrwt beam="1">  1       21 0.73863592E-01 0.17327118E+03</pdfrwt>
<pdfrwt beam="2">  1       21 0.11970014E-01 0.17327118E+03</pdfrwt>
<totfact> 0.97715562E+04</totfact>
</mgrwt>
</event>
<event>
 4    1  0.4102458E+000  0.1796187E+03  0.7546771E-02  0.1168173E+00
         21   -1    0    0  501  502  0.00000000000E+00  0.00000000000E+00  0.11858902524E+03  0.11858902524E+03  0.00000000000E+00 0. -1.
         21   -1    0    0  502  503 -0.00000000000E+00 -0.00000000000E+00 -0.27281170742E+03  0.27281170742E+03  0.00000000000E+00 0. -1.
          6    1    1    2  501    0  0.48136303941E+02 -0.40973252489E+01 -0.66813414798E+02  0.19164269939E+03  0.17300000000E+03 0. -1.
         -6    1    1    2    0  503 -0.48136303941E+02  0.40973252489E+01 -0.87409267391E+02  0.19975803327E+03  0.17300000000E+03 0. -1.
<mgrwt>
<rscale>  2 0.17961874E+03</rscale>
<asrwt>0</asrwt>
<pdfrwt beam="1">  1       21 0.18244466E-01 0.17961874E+03</pdfrwt>
<pdfrwt beam="2">  1       21 0.41971031E-01 0.17961874E+03</pdfrwt>
<totfact> 0.15025233E+05</totfact>
</mgrwt>
</event>
<event>
 4    1  0.4102458E+000  0.1840556E+03  0.7546771E-02  0.1163935E+00
         21   -1    0    0  501  502  0.00000000000E+00  0.00000000000E+00  0.59926473114E+03  0.59926473114E+03  0.00000000000E+00 0. -1.
         21   -1    0    0  502  503 -0.00000000000E+00 -0.00000000000E+00 -0.18713971752E+03  0.18713971752E+03  0.00000000000E+00 0. -1.
          6    1    1    2  501    0  0.53486434199E+01  0.62600693387E+02  0.53455138650E+03  0.56535089954E+03  0.17300000000E+03 0. -1.
         -6    1    1    2    0  503 -0.53486434199E+01 -0.62600693387E+02 -0.12242637288E+03  0.22105354912E+03  0.17300000000E+03 0. -1.
<mgrwt>
<rscale>  2 0.18405558E+03</rscale>
<asrwt>0</asrwt>
<pdfrwt beam="1">  1       21 0.92194573E-01 0.18405558E+03</pdfrwt>
<pdfrwt beam="2">  1       21 0.28790726E-01 0.18405558E+03</pdfrwt>
<totfact> 0.11535781E+04</totfact>
</mgrwt>
</event>
<event>
 4    1  0.4102458E+000  0.1769244E+03  0.7546771E-02  0.1170813E+00
         21   -1    0    0  501  502  0.00000000000E+00  0.00000000000E+00  0.14747301094E+03  0.14747301094E+03  0.00000000000E+00 0. -1.
         21   -1    0    0  502  503 -0.00000000000E+00 -0.00000000000E+00 -0.22461995925E+03  0.22461995925E+03  0.00000000000E+00 0. -1.
          6    1    1    2  501    0  0.68354413334E+00  0.37050791034E+02  0.50733475815E+01  0.17699708247E+03  0.17300000000E+03 0. -1.
         -6    1    1    2    0  503 -0.68354413334E+00 -0.37050791034E+02 -0.82220295888E+02  0.19509588772E+03  0.17300000000E+03 0. -1.
<mgrwt>
<rscale>  2 0.17692436E+03</rscale>
<asrwt>0</asrwt>
<pdfrwt beam="1">  1       21 0.22688156E-01 0.17692436E+03</pdfrwt>
<pdfrwt beam="2">  1       21 0.34556917E-01 0.17692436E+03</pdfrwt>
<totfact> 0.14774428E+05</totfact>
</mgrwt>
</event>
<event>
 4    1  0.4102458E+000  0.1853236E+03  0.7546771E-02  0.1162748E+00
         21   -1    0    0  501  502  0.00000000000E+00  0.00000000000E+00  0.20864416051E+02  0.20864416051E+02  0.00000000000E+00 0.  1.
         21   -1    0    0  502  503 -0.00000000000E+00 -0.00000000000E+00 -0.17563070500E+04  0.17563070500E+04  0.00000000000E+00 0.  1.
          6    1    1    2  501    0  0.50144779227E+02  0.43604294226E+02 -0.64512829952E+03  0.67121930559E+03  0.17300000000E+03 0. -1.
         -6    1    1    2    0  503 -0.50144779227E+02 -0.43604294226E+02 -0.10903143344E+04  0.11059521604E+04  0.17300000000E+03 0. -1.
<mgrwt>
<rscale>  2 0.18532359E+03</rscale>
<asrwt>0</asrwt>
<pdfrwt beam="1">  1       21 0.32099099E-02 0.18532359E+03</pdfrwt>
<pdfrwt beam="2">  1       21 0.27020111E+00 0.18532359E+03</pdfrwt>
<totfact> 0.28865716E+04</totfact>
</mgrwt>
</event>
<event>
 4    1  0.4102458E+000  0.4380947E+03  0.7546771E-02  0.1031333E+00
         21   -1    0    0  503  502  0.00000000000E+00  0.00000000000E+00  0.32260322602E+03  0.32260322602E+03  0.00000000000E+00 0.  1.
         21   -1    0    0  501  503 -0.00000000000E+00 -0.00000000000E+00 -0.62074561043E+03  0.62074561043E+03  0.00000000000E+00 0.  1.
          6    1    1    2  501    0 -0.37386707662E+02  0.40074958115E+03 -0.24525669128E+03  0.50207353775E+03  0.17300000000E+03 0.  1.
         -6    1    1    2    0  502  0.37386707662E+02 -0.40074958115E+03 -0.52885693140E+02  0.44127529869E+03  0.17300000000E+03 0.  1.
<mgrwt>
<rscale>  2 0.43809473E+03</rscale>
<asrwt>0</asrwt>
<pdfrwt beam="1">  1       21 0.49631266E-01 0.43809473E+03</pdfrwt>
<pdfrwt beam="2">  1       21 0.95499324E-01 0.43809473E+03</pdfrwt>
<totfact> 0.30948857E+03</totfact>
</mgrwt>
</event>
<event>
 4    1  0.4102458E+000  0.2907741E+03  0.7546771E-02  0.1089946E+00
         21   -1    0    0  501  502  0.00000000000E+00  0.00000000000E+00  0.69283139904E+03  0.69283139904E+03  0.00000000000E+00 0.  1.
         21   -1    0    0  502  503 -0.00000000000E+00 -0.00000000000E+00 -0.12290930257E+03  0.12290930257E+03  0.00000000000E+00 0. -1.
          6    1    1    2  501    0  0.18472939628E+03  0.14316300342E+03  0.25055847834E+03  0.38383479059E+03  0.17300000000E+03 0.  1.
         -6    1    1    2    0  503 -0.18472939628E+03 -0.14316300342E+03  0.31936361812E+03  0.43190591102E+03  0.17300000000E+03 0. -1.
<mgrwt>
<rscale>  2 0.29077413E+03</rscale>
<asrwt>0</asrwt>
<pdfrwt beam="1">  1       21 0.10658944E+00 0.29077413E+03</pdfrwt>
<pdfrwt beam="2">  1       21 0.18909124E-01 0.29077413E+03</pdfrwt>
<totfact> 0.17128899E+04</totfact>
</mgrwt>
</event>
<event>
 4    1  0.4102458E+000  0.1817221E+03  0.7546771E-02  0.1166147E+00
         21   -1    0    0  503  502  0.00000000000E+00  0.00000000000E+00  0.11700396197E+03  0.11700396197E+03  0.00000000000E+00 0. -1.
         21   -1    0    0  501  503 -0.00000000000E+00 -0.00000000000E+00 -0.47944878460E+03  0.47944878460E+03  0.00000000000E+00 0. -1.
          6    1    1    2  501    0 -0.39133965104E+02  0.39527942922E+02 -0.37248966891E+03  0.41445322890E+03  0.17300000000E+03 0. -1.
         -6    1    1    2    0  502  0.39133965104E+02 -0.39527942922E+02  0.10044846276E+02  0.18199951767E+03  0.17300000000E+03 0. -1.
<mgrwt>
<rscale>  2 0.18172211E+03</rscale>
<asrwt>0</asrwt>
<pdfrwt beam="1">  1       21 0.18000609E-01 0.18172211E+03</pdfrwt>
<pdfrwt beam="2">  1       21 0.73761353E-01 0.18172211E+03</pdfrwt>
<totfact> 0.46571569E+04</totfact>
</mgrwt>
</event>
<event>
 4    1  0.4102458E+000  0.1740653E+03  0.7546771E-02  0.1173674E+00
         21   -1    0    0  501  502  0.00000000000E+00  0.00000000000E+00  0.11375269210E+04  0.11375269210E+04  0.00000000000E+00 0.  1.
         21   -1    0    0  502  503 -0.00000000000E+00 -0.00000000000E+00 -0.10586315991E+03  0.10586315991E+03  0.00000000000E+00 0.  1.
          6    1    1    2  501    0 -0.19107865743E+02 -0.21476076488E+01  0.10536594872E+04  0.10679405591E+04  0.17300000000E+03 0.  1.
         -6    1    1    2    0  503  0.19107865743E+02  0.21476076488E+01 -0.21995726091E+02  0.17544952185E+03  0.17300000000E+03 0.  1.
<mgrwt>
<rscale>  2 0.17406528E+03</rscale>
<asrwt>0</asrwt>
<pdfrwt beam="1">  1       21 0.17500413E+00 0.17406528E+03</pdfrwt>
<pdfrwt beam="2">  1       21 0.16286641E-01 0.17406528E+03</pdfrwt>
<totfact> 0.67549278E+03</totfact>
</mgrwt>
</event>
<event>
 4    1  0.4102458E+000  0.2946500E+03  0.7546771E-02  0.1087946E+00
         21   -1    0    0  503  502  0.00000000000E+00  0.00000000000E+00  0.16522029154E+03  0.16522029154E+03  0.00000000000E+00 0.  1.
         21   -1    0    0  501  503 -0.00000000000E+00 -0.00000000000E+00 -0.56141711765E+03  0.56141711765E+03  0.00000000000E+00 0. -1.
          6    1    1    2  501    0  0.20018273820E+03  0.12967849828E+03 -0.29002999222E+03  0.41344411712E+03  0.17300000000E+03 0. -1.
         -6    1    1    2    0  502 -0.20018273820E+03 -0.12967849828E+03 -0.10616683389E+03  0.31319329208E+03  0.17300000000E+03 0.  1.
<mgrwt>
<rscale>  2 0.29465003E+03</rscale>
<asrwt>0</asrwt>
<pdfrwt beam="1">  1       21 0.25418506E-01 0.29465003E+03</pdfrwt>
<pdfrwt beam="2">  1       21 0.86371866E-01 0.29465003E+03</pdfrwt>
<totfact> 0.16059452E+04</totfact>
</mgrwt>
</event>
<event>
 4    1  0.4102458E+000  0.2265001E+03  0.7546771E-02  0.1129128E+00
         21   -1    0    0  503  502  0.00000000000E+00  0.00000000000E+00  0.12751944604E+04  0.12751944604E+04  0.00000000000E+00 0. -1.
         21   -1    0    0  501  503 -0.00000000000E+00 -0.00000000000E+00 -0.49446677381E+02  0.49446677381E+02  0.00000000000E+00 0. -1.
          6    1    1    2  501    0  0.56033449459E+02 -0.13503170523E+03  0.32694104611E+03  0.39773453020E+03  0.17300000000E+03 0. -1.
         -6    1    1    2    0  502 -0.56033449459E+02  0.13503170523E+03  0.89880673689E+03  0.92690660757E+03  0.17300000000E+03 0. -1.
<mgrwt>
<rscale>  2 0.22650013E+03</rscale>
<asrwt>0</asrwt>
<pdfrwt beam="1">  1       21 0.19618374E+00 0.22650013E+03</pdfrwt>
<pdfrwt beam="2">  1       21 0.76071821E-02 0.22650013E+03</pdfrwt>
<totfact> 0.18159329E+04</totfact>
</mgrwt>
</event>
<event>
 4    1  0.4102458E+000  0.1905509E+03  0.7546771E-02  0.1157965E+00
         21   -1    0    0  501  502  0.00000000000E+00  0.00000000000E+00  0.10957474667E+03  0.10957474667E+03  0.00000000000E+00 0.  1.
         21   -1    0    0  502  503 -0.00000000000E+00 -0.00000000000E+00 -0.13362115732E+04  0.13362115732E+04  0.00000000000E+00 0.  1.
          6    1    1    2  501    0  0.76621004019E+02 -0.22579820479E+02  0.13563310467E+02  0.19103295512E+03  0.17300000000E+03 0.  1.
         -6    1    1    2    0  503 -0.76621004019E+02  0.22579820479E+02 -0.12402001370E+04  0.12547533647E+04  0.17300000000E+03 0.  1.
<mgrwt>
<rscale>  2 0.19055085E+03</rscale>
<asrwt>0</asrwt>
<pdfrwt beam="1">  1       21 0.16857652E-01 0.19055085E+03</pdfrwt>
<pdfrwt beam="2">  1       21 0.20557103E+00 0.19055085E+03</pdfrwt>
<totfact> 0.39282790E+03</totfact>
</mgrwt>
</event>
<event>
 4    1  0.4102458E+000  0.2929898E+03  0.7546771E-02  0.1088798E+00
         21   -1    0    0  501  502  0.00000000000E+00  0.00000000000E+00  0.29756775908E+03  0.29756775908E+03  0.00000000000E+00 0. -1.
         21   -1    0    0  502  503 -0.00000000000E+00 -0.00000000000E+00 -0.48390532187E+03  0.48390532187E+03  0.00000000000E+00 0. -1.
          6    1    1    2  501    0 -0.23111465942E+03  0.50000342388E+02  0.15513980246E+03  0.33152884995E+03  0.17300000000E+03 0. -1.
         -6    1    1    2    0  503  0.23111465942E+03 -0.50000342388E+02 -0.34147736525E+03  0.44994423101E+03  0.17300000000E+03 0. -1.
<mgrwt>
<rscale>  2 0.29298980E+03</rscale>
<asrwt>0</asrwt>
<pdfrwt beam="1">  1       21 0.45779655E-01 0.29298980E+03</pdfrwt>
<pdfrwt beam="2">  1       21 0.74446972E-01 0.29298980E+03</pdfrwt>
<totfact> 0.69553403E+03</totfact>
</mgrwt>
</event>
<event>
 4    1  0.4102458E+000  0.1940061E+03  0.7546771E-02  0.1154897E+00
         21   -1    0    0  503  502  0.00000000000E+00  0.00000000000E+00  0.43340698242E+02  0.43340698242E+02  0.00000000000E+00 0.  1.
         21   -1    0    0  501  503 -0.00000000000E+00 -0.00000000000E+00 -0.19604383593E+04  0.19604383593E+04  0.00000000000E+00 0.  1.
          6    1    1    2  501    0 -0.46468869983E+02 -0.74498491839E+02 -0.17062983420E+04  0.17172921746E+04  0.17300000000E+03 0.  1.
         -6    1    1    2    0  502  0.46468869983E+02  0.74498491839E+02 -0.21079931908E+03  0.28648688293E+03  0.17300000000E+03 0.  1.
<mgrwt>
<rscale>  2 0.19400614E+03</rscale>
<asrwt>0</asrwt>
<pdfrwt beam="1">  1       21 0.66677997E-02 0.19400614E+03</pdfrwt>
<pdfrwt beam="2">  1       21 0.30160590E+00 0.19400614E+03</pdfrwt>
<totfact> 0.54883702E+03</totfact>
</mgrwt>
</event>
<event>
 4    1  0.4102458E+000  0.2229504E+03  0.7546771E-02  0.1131702E+00
         21   -1    0    0  501  502  0.00000000000E+00  0.00000000000E+00  0.13640174277E+03  0.13640174277E+03  0.00000000000E+00 0. -1.
         21   -1    0    0  502  503 -0.00000000000E+00 -0.00000000000E+00 -0.81047315352E+03  0.81047315352E+03  0.00000000000E+00 0.  1.
          6    1    1    2  501    0  0.89554362934E+02  0.10843387264E+03  0.14192076913E+02  0.22340166451E+03  0.17300000000E+03 0. -1.
         -6    1    1    2    0  503 -0.89554362934E+02 -0.10843387264E+03 -0.68826348767E+03  0.72347323179E+03  0.17300000000E+03 0.  1.
<mgrwt>
<rscale>  2 0.22295042E+03</rscale>
<asrwt>0</asrwt>
<pdfrwt beam="1">  1       21 0.20984884E-01 0.22295042E+03</pdfrwt>
<pdfrwt beam="2">  1       21 0.12468818E+00 0.22295042E+03</pdfrwt>
<totfact> 0.99144098E+03</totfact>
</mgrwt>
</event>
<event>
 4    1  0.4102458E+000  0.1995322E+03  0.7546771E-02  0.1150134E+00
         21   -1    0    0  501  502  0.00000000000E+00  0.00000000000E+00  0.23897470436E+03  0.23897470436E+03  0.00000000000E+00 0. -1.
         21   -1    0    0  502  503 -0.00000000000E+00 -0.00000000000E+00 -0.18966409456E+03  0.18966409456E+03  0.00000000000E+00 0. -1.
          6    1    1    2  501    0  0.98052297547E+02  0.16427333627E+02  0.99393068504E+02  0.22291723220E+03  0.17300000000E+03 0. -1.
         -6    1    1    2    0  503 -0.98052297547E+02 -0.16427333627E+02 -0.50082458703E+02  0.20572156672E+03  0.17300000000E+03 0. -1.
<mgrwt>
<rscale>  2 0.19953223E+03</rscale>
<asrwt>0</asrwt>
<pdfrwt beam="1">  1       21 0.36765339E-01 0.19953223E+03</pdfrwt>
<pdfrwt beam="2">  1       21 0.29179091E-01 0.19953223E+03</pdfrwt>
<totfact> 0.80013048E+04</totfact>
</mgrwt>
</event>
<event>
 4    1  0.4102458E+000  0.2548286E+03  0.7546771E-02  0.1110291E+00
         21   -1    0    0  501  502  0.00000000000E+00  0.00000000000E+00  0.81950705224E+03  0.81950705224E+03  0.00000000000E+00 0. -1.
         21   -1    0    0  502  503 -0.00000000000E+00 -0.00000000000E+00 -0.11257449976E+03  0.11257449976E+03  0.00000000000E+00 0. -1.
          6    1    1    2  501    0  0.18466488217E+03  0.30124720096E+02  0.60706778883E+03  0.65838356428E+03  0.17300000000E+03 0. -1.
         -6    1    1    2    0  503 -0.18466488217E+03 -0.30124720096E+02  0.99864763648E+02  0.27369798773E+03  0.17300000000E+03 0. -1.
<mgrwt>
<rscale>  2 0.25482860E+03</rscale>
<asrwt>0</asrwt>
<pdfrwt beam="1">  1       21 0.12607800E+00 0.25482860E+03</pdfrwt>
<pdfrwt beam="2">  1       21 0.17319154E-01 0.25482860E+03</pdfrwt>
<totfact> 0.13543146E+04</totfact>
</mgrwt>
</event>
<event>
 4    1  0.4102458E+000  0.1829819E+03  0.7546771E-02  0.1164948E+00
         21   -1    0    0  503  502  0.00000000000E+00  0.00000000000E+00  0.23078472081E+03  0.23078472081E+03  0.00000000000E+00 0.  1.
         21   -1    0    0  501  503 -0.00000000000E+00 -0.00000000000E+00 -0.51512856846E+03  0.51512856846E+03  0.00000000000E+00 0.  1.
          6    1    1    2  501    0  0.52284322905E+02  0.28631087585E+02 -0.45827559041E+03  0.49345608352E+03  0.17300000000E+03 0.  1.
         -6    1    1    2    0  502 -0.52284322905E+02 -0.28631087585E+02  0.17393174275E+03  0.25245720575E+03  0.17300000000E+03 0.  1.
<mgrwt>
<rscale>  2 0.18298194E+03</rscale>
<asrwt>0</asrwt>
<pdfrwt beam="1">  1       21 0.35505342E-01 0.18298194E+03</pdfrwt>
<pdfrwt beam="2">  1       21 0.79250547E-01 0.18298194E+03</pdfrwt>
<totfact> 0.10816657E+04</totfact>
</mgrwt>
</event>
<event>
 4    1  0.4102458E+000  0.2369842E+03  0.7546771E-02  0.1121818E+00
         21   -1    0    0  501  502  0.00000000000E+00  0.00000000000E+00  0.21515125777E+03  0.21515125777E+03  0.00000000000E+00 0. -1.
         21   -1    0    0  502  503 -0.00000000000E+00 -0.00000000000E+00 -0.33299455097E+03  0.33299455097E+03  0.00000000000E+00 0. -1.
          6    1    1    2  501    0  0.56541371761E+02  0.15177472425E+03  0.68487023650E+02  0.24668191270E+03  0.17300000000E+03 0. -1.
         -6    1    1    2    0  503 -0.56541371761E+02 -0.15177472425E+03 -0.18633031685E+03  0.30146389605E+03  0.17300000000E+03 0. -1.
<mgrwt>
<rscale>  2 0.23698416E+03</rscale>
<asrwt>0</asrwt>
<pdfrwt beam="1">  1       21 0.33100193E-01 0.23698416E+03</pdfrwt>
<pdfrwt beam="2">  1       21 0.51229931E-01 0.23698416E+03</pdfrwt>
<totfact> 0.31115262E+04</totfact>
</mgrwt>
</event>
<event>
 4    1  0.4102458E+000  0.3742187E+03  0.7546771E-02  0.1053091E+00
         21   -1    0    0  501  502  0.00000000000E+00  0.00000000000E+00  0.10469029957E+04  0.10469029957E+04  0.00000000000E+00 0.  1.
         21   -1    0    0  502  503 -0.00000000000E+00 -0.00000000000E+00 -0.66642161476E+03  0.66642161476E+03  0.00000000000E+00 0. -1.
          6    1    1    2  501    0  0.22187386328E+03  0.24674401643E+03  0.95611681802E+03  0.10267419299E+04  0.17300000000E+03 0.  1.
         -6    1    1    2    0  503 -0.22187386328E+03 -0.24674401643E+03 -0.57563543709E+03  0.68658268059E+03  0.17300000000E+03 0. -1.
<mgrwt>
<rscale>  2 0.37421868E+03</rscale>
<asrwt>0</asrwt>
<pdfrwt beam="1">  1       21 0.16106200E+00 0.37421868E+03</pdfrwt>
<pdfrwt beam="2">  1       21 0.10252640E+00 0.37421868E+03</pdfrwt>
<totfact> 0.16199264E+02</totfact>
</mgrwt>
</event>
<event>
 4    1  0.4102458E+000  0.2160368E+03  0.7546771E-02  0.1136873E+00
         21   -1    0    0  501  502  0.00000000000E+00  0.00000000000E+00  0.48182325690E+02  0.48182325690E+02  0.00000000000E+00 0.  1.
         21   -1    0    0  502  503 -0.00000000000E+00 -0.00000000000E+00 -0.14006328691E+04  0.14006328691E+04  0.00000000000E+00 0.  1.
          6    1    1    2  501    0 -0.11020137040E+03 -0.67812773943E+02 -0.27392251282E+03  0.34886309260E+03  0.17300000000E+03 0.  1.
         -6    1    1    2    0  503  0.11020137040E+03  0.67812773943E+02 -0.10785280306E+04  0.10999521022E+04  0.17300000000E+03 0.  1.
<mgrwt>
<rscale>  2 0.21603684E+03</rscale>
<asrwt>0</asrwt>
<pdfrwt beam="1">  1       21 0.74126660E-02 0.21603684E+03</pdfrwt>
<pdfrwt beam="2">  1       21 0.21548197E+00 0.21603684E+03</pdfrwt>
<totfact> 0.14420402E+04</totfact>
</mgrwt>
</event>
<event>
 4    1  0.4102458E+000  0.1946660E+03  0.7546771E-02  0.1154319E+00
         21   -1    0    0  503  502  0.00000000000E+00  0.00000000000E+00  0.12565043384E+04  0.12565043384E+04  0.00000000000E+00 0.  1.
         21   -1    0    0  501  503 -0.00000000000E+00 -0.00000000000E+00 -0.33120884458E+03  0.33120884458E+03  0.00000000000E+00 0. -1.
          6    1    1    2  501    0  0.60092012607E+01  0.89049143657E+02 -0.29420314473E+03  0.35277521292E+03  0.17300000000E+03 0. -1.
         -6    1    1    2    0  502 -0.60092012607E+01 -0.89049143657E+02  0.12194986385E+04  0.12349379700E+04  0.17300000000E+03 0.  1.
<mgrwt>
<rscale>  2 0.19466602E+03</rscale>
<asrwt>0</asrwt>
<pdfrwt beam="1">  1       21 0.19330836E+00 0.19466602E+03</pdfrwt>
<pdfrwt beam="2">  1       21 0.50955208E-01 0.19466602E+03</pdfrwt>
<totfact> 0.54213732E+02</totfact>
</mgrwt>
</event>
<event>
 4    1  0.4102458E+000  0.1846644E+03  0.7546771E-02  0.1163364E+00
         21   -1    0    0  501  502  0.00000000000E+00  0.00000000000E+00  0.49883133538E+03  0.49883133538E+03  0.00000000000E+00 0.  1.
         21   -1    0    0  502  503 -0.00000000000E+00 -0.00000000000E+00 -0.73898719895E+02  0.73898719895E+02  0.00000000000E+00 0.  1.
          6    1    1    2  501    0 -0.18972277360E+02  0.61741377391E+02  0.29085268503E+03  0.34452319136E+03  0.17300000000E+03 0.  1.
         -6    1    1    2    0  503  0.18972277360E+02 -0.61741377391E+02  0.13407993045E+03  0.22820686392E+03  0.17300000000E+03 0.  1.
<mgrwt>
<rscale>  2 0.18466441E+03</rscale>
<asrwt>0</asrwt>
<pdfrwt beam="1">  1       21 0.76743280E-01 0.18466441E+03</pdfrwt>
<pdfrwt beam="2">  1       21 0.11369034E-01 0.18466441E+03</pdfrwt>
<totfact> 0.97904216E+04</totfact>
</mgrwt>
</event>
<event>
 4    1  0.4102458E+000  0.1782423E+03  0.7546771E-02  0.1169515E+00
         21   -1    0    0  501  502  0.00000000000E+00  0.00000000000E+00  0.31378476787E+03  0.31378476787E+03  0.00000000000E+00 0.  1.
         21   -1    0    0  502  503 -0.00000000000E+00 -0.00000000000E+00 -0.14083376163E+03  0.14083376163E+03  0.00000000000E+00 0.  1.
          6    1    1    2  501    0 -0.19635176180E+02  0.38154606448E+02  0.20698718847E+03  0.27315565220E+03  0.17300000000E+03 0.  1.
         -6    1    1    2    0  503  0.19635176180E+02 -0.38154606448E+02 -0.34036182224E+02  0.18146287730E+03  0.17300000000E+03 0.  1.
<mgrwt>
<rscale>  2 0.17824229E+03</rscale>
<asrwt>0</asrwt>
<pdfrwt beam="1">  1       21 0.48274580E-01 0.17824229E+03</pdfrwt>
<pdfrwt beam="2">  1       21 0.21666733E-01 0.17824229E+03</pdfrwt>
<totfact> 0.81912140E+04</totfact>
</mgrwt>
</event>
<event>
 4    1  0.4102458E+000  0.1777175E+03  0.7546771E-02  0.1170031E+00
         21   -1    0    0  503  502  0.00000000000E+00  0.00000000000E+00  0.72479963119E+02  0.72479963119E+02  0.00000000000E+00 0. -1.
         21   -1    0    0  501  503 -0.00000000000E+00 -0.00000000000E+00 -0.70334576970E+03  0.70334576970E+03  0.00000000000E+00 0. -1.
          6    1    1    2  501    0  0.41274463271E+01  0.40465642581E+02 -0.55470129741E+03  0.58247492082E+03  0.17300000000E+03 0. -1.
         -6    1    1    2    0  502 -0.41274463271E+01 -0.40465642581E+02 -0.76164509177E+02  0.19335081200E+03  0.17300000000E+03 0. -1.
<mgrwt>
<rscale>  2 0.17771748E+03</rscale>
<asrwt>0</asrwt>
<pdfrwt beam="1">  1       21 0.11150764E-01 0.17771748E+03</pdfrwt>
<pdfrwt beam="2">  1       21 0.10820704E+00 0.17771748E+03</pdfrwt>
<totfact> 0.45813827E+04</totfact>
</mgrwt>
</event>
<event>
 4    1  0.4102458E+000  0.1973744E+03  0.7546771E-02  0.1151973E+00
         21   -1    0    0  503  502  0.00000000000E+00  0.00000000000E+00  0.13002790595E+03  0.13002790595E+03  0.00000000000E+00 0.  1.
         21   -1    0    0  501  503 -0.00000000000E+00 -0.00000000000E+00 -0.39537942758E+03  0.39537942758E+03  0.00000000000E+00 0. -1.
          6    1    1    2  501    0  0.94104120583E+02 -0.13116858278E+02 -0.26197333938E+03  0.32800406709E+03  0.17300000000E+03 0. -1.
         -6    1    1    2    0  502 -0.94104120583E+02  0.13116858278E+02 -0.33781822458E+01  0.19740326643E+03  0.17300000000E+03 0.  1.
<mgrwt>
<rscale>  2 0.19737436E+03</rscale>
<asrwt>0</asrwt>
<pdfrwt beam="1">  1       21 0.20004293E-01 0.19737436E+03</pdfrwt>
<pdfrwt beam="2">  1       21 0.60827604E-01 0.19737436E+03</pdfrwt>
<totfact> 0.57925017E+04</totfact>
</mgrwt>
</event>
<event>
 4    1  0.4102458E+000  0.1965630E+03  0.7546771E-02  0.1152672E+00
         21   -1    0    0  501  502  0.00000000000E+00  0.00000000000E+00  0.55074068555E+02  0.55074068555E+02  0.00000000000E+00 0.  1.
         21   -1    0    0  502  503 -0.00000000000E+00 -0.00000000000E+00 -0.10831029640E+04  0.10831029640E+04  0.00000000000E+00 0. -1.
          6    1    1    2  501    0 -0.92058525109E+02 -0.15272479667E+02 -0.17624189902E+03  0.26400421900E+03  0.17300000000E+03 0.  1.
         -6    1    1    2    0  503  0.92058525109E+02  0.15272479667E+02 -0.85178699646E+03  0.87417281359E+03  0.17300000000E+03 0. -1.
<mgrwt>
<rscale>  2 0.19656302E+03</rscale>
<asrwt>0</asrwt>
<pdfrwt beam="1">  1       21 0.84729349E-02 0.19656302E+03</pdfrwt>
<pdfrwt beam="2">  1       21 0.16663120E+00 0.19656302E+03</pdfrwt>
<totfact> 0.24408123E+04</totfact>
</mgrwt>
</event>
<event>
 4    1  0.4102458E+000  0.2162845E+03  0.7546771E-02  0.1136684E+00
         21   -1    0    0  501  502  0.00000000000E+00  0.00000000000E+00  0.56220165893E+02  0.56220165893E+02  0.00000000000E+00 0. -1.
         21   -1    0    0  502  503 -0.00000000000E+00 -0.00000000000E+00 -0.24416137717E+04  0.24416137717E+04  0.00000000000E+00 0. -1.
          6    1    1    2  501    0  0.35560971858E+02 -0.12484150317E+03 -0.17867617267E+03  0.28054261408E+03  0.17300000000E+03 0. -1.
         -6    1    1    2    0  503 -0.35560971858E+02  0.12484150317E+03 -0.22067174332E+04  0.22172913236E+04  0.17300000000E+03 0. -1.
<mgrwt>
<rscale>  2 0.21628450E+03</rscale>
<asrwt>0</asrwt>
<pdfrwt beam="1">  1       21 0.86492577E-02 0.21628450E+03</pdfrwt>
<pdfrwt beam="2">  1       21 0.37563283E+00 0.21628450E+03</pdfrwt>
<totfact> 0.12452842E+03</totfact>
</mgrwt>
</event>
<event>
 4    1  0.4102458E+000  0.2256112E+03  0.7546771E-02  0.1129768E+00
         21   -1    0    0  503  502  0.00000000000E+00  0.00000000000E+00  0.29805499024E+03  0.29805499024E+03  0.00000000000E+00 0. -1.
         21   -1    0    0  501  503 -0.00000000000E+00 -0.00000000000E+00 -0.29618753651E+03  0.29618753651E+03  0.00000000000E+00 0.  1.
          6    1    1    2  501    0 -0.13757737293E+03  0.45209148587E+02 -0.19240572023E+03  0.29651367900E+03  0.17300000000E+03 0.  1.
         -6    1    1    2    0  502  0.13757737293E+03 -0.45209148587E+02  0.19427317396E+03  0.29772884775E+03  0.17300000000E+03 0. -1.
<mgrwt>
<rscale>  2 0.22561117E+03</rscale>
<asrwt>0</asrwt>
<pdfrwt beam="1">  1       21 0.45854614E-01 0.22561117E+03</pdfrwt>
<pdfrwt beam="2">  1       21 0.45567313E-01 0.22561117E+03</pdfrwt>
<totfact> 0.20660666E+04</totfact>
</mgrwt>
</event>
<event>
 4    1  0.4102458E+000  0.1774677E+03  0.7546771E-02  0.1170277E+00
         21   -1    0    0  501  502  0.00000000000E+00  0.00000000000E+00  0.35725065901E+03  0.35725065901E+03  0.00000000000E+00 0. -1.
         21   -1    0    0  502  503 -0.00000000000E+00 -0.00000000000E+00 -0.93811278633E+02  0.93811278633E+02  0.00000000000E+00 0. -1.
          6    1    1    2  501    0 -0.14167745802E+02 -0.36946831327E+02  0.18707989596E+03  0.25786368654E+03  0.17300000000E+03 0.  1.
         -6    1    1    2    0  503  0.14167745802E+02  0.36946831327E+02  0.76359484418E+02  0.19319825110E+03  0.17300000000E+03 0.  1.
<mgrwt>
<rscale>  2 0.17746772E+03</rscale>
<asrwt>0</asrwt>
<pdfrwt beam="1">  1       21 0.54961639E-01 0.17746772E+03</pdfrwt>
<pdfrwt beam="2">  1       21 0.14432505E-01 0.17746772E+03</pdfrwt>
<totfact> 0.13213353E+05</totfact>
</mgrwt>
</event>
<event>
 4    1  0.4102458E+000  0.1812744E+03  0.7546771E-02  0.1166575E+00
         21   -1    0    0  503  502  0.00000000000E+00  0.00000000000E+00  0.74868982807E+02  0.74868982807E+02  0.00000000000E+00 0.  1.
         21   -1    0    0  501  503 -0.00000000000E+00 -0.00000000000E+00 -0.60323075754E+03  0.60323075754E+03  0.00000000000E+00 0.  1.
          6    1    1    2  501    0  0.52215441442E+02 -0.14316632268E+02 -0.44114036554E+03  0.47693316135E+03  0.17300000000E+03 0.  1.
         -6    1    1    2    0  502 -0.52215441442E+02  0.14316632268E+02 -0.87221409193E+02  0.20116657900E+03  0.17300000000E+03 0.  1.
<mgrwt>
<rscale>  2 0.18127443E+03</rscale>
<asrwt>0</asrwt>
<pdfrwt beam="1">  1       21 0.11518305E-01 0.18127443E+03</pdfrwt>
<pdfrwt beam="2">  1       21 0.92804733E-01 0.18127443E+03</pdfrwt>
<totfact> 0.62096863E+04</totfact>
</mgrwt>
</event>
<event>
 4    1  0.4102458E+000  0.3170682E+03  0.7546771E-02  0.1077007E+00
         21   -1    0    0  503  502  0.00000000000E+00  0.00000000000E+00  0.20584156878E+03  0.20584156878E+03  0.00000000000E+00 0. -1.
         21   -1    0    0  501  503 -0.00000000000E+00 -0.00000000000E+00 -0.52575153478E+03  0.52575153478E+03  0.00000000000E+00 0. -1.
          6    1    1    2  501    0 -0.20158501271E+03 -0.17310893190E+03 -0.25745983414E+03  0.40843333097E+03  0.17300000000E+03 0. -1.
         -6    1    1    2    0  502  0.20158501271E+03  0.17310893190E+03 -0.62450131870E+02  0.32315977259E+03  0.17300000000E+03 0. -1.
<mgrwt>
<rscale>  2 0.31706816E+03</rscale>
<asrwt>0</asrwt>
<pdfrwt beam="1">  1       21 0.31667934E-01 0.31706816E+03</pdfrwt>
<pdfrwt beam="2">  1       21 0.80884851E-01 0.31706816E+03</pdfrwt>
<totfact> 0.12037400E+04</totfact>
</mgrwt>
</event>
<event>
 4    1  0.4102458E+000  0.2246405E+03  0.7546771E-02  0.1130470E+00
         21   -1    0    0  503  502  0.00000000000E+00  0.00000000000E+00  0.94970838690E+03  0.94970838690E+03  0.00000000000E+00 0. -1.
         21   -1    0    0  501  503 -0.00000000000E+00 -0.00000000000E+00 -0.58281346057E+02  0.58281346057E+02  0.00000000000E+00 0.  1.
          6    1    1    2  501    0 -0.94413605784E+02 -0.10779807155E+03  0.29595751511E+03  0.37155646130E+03  0.17300000000E+03 0.  1.
         -6    1    1    2    0  502  0.94413605784E+02  0.10779807155E+03  0.59546952573E+03  0.63643327165E+03  0.17300000000E+03 0. -1.
<mgrwt>
<rscale>  2 0.22464050E+03</rscale>
<asrwt>0</asrwt>
<pdfrwt beam="1">  1       21 0.14610897E+00 0.22464050E+03</pdfrwt>
<pdfrwt beam="2">  1       21 0.89663616E-02 0.22464050E+03</pdfrwt>
<totfact> 0.30894513E+04</totfact>
</mgrwt>
</event>
<event>
 4    1  0.4102458E+000  0.1965383E+03  0.7546771E-02  0.1152693E+00
         21   -1    0    0  501  502  0.00000000000E+00  0.00000000000E+00  0.23489327389E+04  0.23489327389E+04  0.00000000000E+00 0. -1.
         21   -1    0    0  502  503 -0.00000000000E+00 -0.00000000000E+00 -0.53838270850E+02  0.53838270850E+02  0.00000000000E+00 0. -1.
          6    1    1    2  501    0  0.23684682898E+01 -0.93234552015E+02  0.21487817379E+04  0.21577512017E+04  0.17300000000E+03 0. -1.
         -6    1    1    2    0  503 -0.23684682898E+01  0.93234552015E+02  0.14631273016E+03  0.24501980805E+03  0.17300000000E+03 0. -1.
<mgrwt>
<rscale>  2 0.19653827E+03</rscale>
<asrwt>0</asrwt>
<pdfrwt beam="1">  1       21 0.36137419E+00 0.19653827E+03</pdfrwt>
<pdfrwt beam="2">  1       21 0.82828128E-02 0.19653827E+03</pdfrwt>
<totfact> 0.16817077E+03</totfact>
</mgrwt>
</event>
<event>
 4    1  0.4102458E+000  0.1846646E+03  0.7546771E-02  0.1163363E+00
         21   -1    0    0  501  502  0.00000000000E+00  0.00000000000E+00  0.10272952390E+04  0.10272952390E+04  0.00000000000E+00 0. -1.
         21   -1    0    0  502  503 -0.00000000000E+00 -0.00000000000E+00 -0.11594253320E+03  0.11594253320E+03  0.00000000000E+00 0. -1.
          6    1    1    2  501    0 -0.22911977098E+02  0.60390916420E+02  0.93858259266E+03  0.95657634547E+03  0.17300000000E+03 0. -1.
         -6    1    1    2    0  503  0.22911977098E+02 -0.60390916420E+02 -0.27229886874E+02  0.18666142671E+03  0.17300000000E+03 0. -1.
<mgrwt>
<rscale>  2 0.18466462E+03</rscale>
<asrwt>0</asrwt>
<pdfrwt beam="1">  1       21 0.15804541E+00 0.18466462E+03</pdfrwt>
<pdfrwt beam="2">  1       21 0.17837314E-01 0.18466462E+03</pdfrwt>
<totfact> 0.74761527E+03</totfact>
</mgrwt>
</event>
<event>
 4    1  0.4102458E+000  0.4426430E+03  0.7546771E-02  0.1029939E+00
         21   -1    0    0  503  502  0.00000000000E+00  0.00000000000E+00  0.60280309147E+03  0.60280309147E+03  0.00000000000E+00 0. -1.
         21   -1    0    0  501  503 -0.00000000000E+00 -0.00000000000E+00 -0.40054236852E+03  0.40054236852E+03  0.00000000000E+00 0.  1.
          6    1    1    2  501    0 -0.73467858215E+02 -0.40075719725E+03 -0.11668441127E+03  0.45776425065E+03  0.17300000000E+03 0.  1.
         -6    1    1    2    0  502  0.73467858215E+02  0.40075719725E+03  0.31894513422E+03  0.54558120934E+03  0.17300000000E+03 0. -1.
<mgrwt>
<rscale>  2 0.44264304E+03</rscale>
<asrwt>0</asrwt>
<pdfrwt beam="1">  1       21 0.92738938E-01 0.44264304E+03</pdfrwt>
<pdfrwt beam="2">  1       21 0.61621902E-01 0.44264304E+03</pdfrwt>
<totfact> 0.20762720E+03</totfact>
</mgrwt>
</event>
<event>
 4    1  0.4102458E+000  0.1776525E+03  0.7546771E-02  0.1170094E+00
         21   -1    0    0  503  502  0.00000000000E+00  0.00000000000E+00  0.76287474641E+02  0.76287474641E+02  0.00000000000E+00 0. -1.
         21   -1    0    0  501  503 -0.00000000000E+00 -0.00000000000E+00 -0.41826061829E+03  0.41826061829E+03  0.00000000000E+00 0. -1.
          6    1    1    2  501    0  0.63619275308E+00 -0.40385917011E+02 -0.19679611722E+03  0.26512098896E+03  0.17300000000E+03 0. -1.
         -6    1    1    2    0  502 -0.63619275308E+00  0.40385917011E+02 -0.14517702642E+03  0.22942710397E+03  0.17300000000E+03 0. -1.
<mgrwt>
<rscale>  2 0.17765255E+03</rscale>
<asrwt>0</asrwt>
<pdfrwt beam="1">  1       21 0.11736535E-01 0.17765255E+03</pdfrwt>
<pdfrwt beam="2">  1       21 0.64347787E-01 0.17765255E+03</pdfrwt>
<totfact> 0.13673254E+05</totfact>
</mgrwt>
</event>
<event>
 4    1  0.4102458E+000  0.2003475E+03  0.7546771E-02  0.1149446E+00
         21   -1    0    0  503  502  0.00000000000E+00  0.00000000000E+00  0.18855056425E+03  0.18855056425E+03  0.00000000000E+00 0.  1.
         21   -1    0    0  501  503 -0.00000000000E+00 -0.00000000000E+00 -0.35145739652E+03  0.35145739652E+03  0.00000000000E+00 0.  1.
          6    1    1    2  501    0  0.80298507921E+01  0.10072549142E+03 -0.25099498868E+03  0.32115041253E+03  0.17300000000E+03 0.  1.
         -6    1    1    2    0  502 -0.80298507921E+01 -0.10072549142E+03  0.88088156411E+02  0.21885754825E+03  0.17300000000E+03 0.  1.
<mgrwt>
<rscale>  2 0.20034746E+03</rscale>
<asrwt>0</asrwt>
<pdfrwt beam="1">  1       21 0.29007780E-01 0.20034746E+03</pdfrwt>
<pdfrwt beam="2">  1       21 0.54070368E-01 0.20034746E+03</pdfrwt>
<totfact> 0.36638218E+04</totfact>
</mgrwt>
</event>
<event>
 4    1  0.4102458E+000  0.2150900E+03  0.7546771E-02  0.1137597E+00
         21   -1    0    0  503  502  0.00000000000E+00  0.00000000000E+00  0.50576139969E+03  0.50576139969E+03  0.00000000000E+00 0. -1.
         21   -1    0    0  501  503 -0.00000000000E+00 -0.00000000000E+00 -0.11170790174E+03  0.11170790174E+03  0.00000000000E+00 0.  1.
          6    1    1    2  501    0 -0.88324256183E+02 -0.92377169636E+02  0.65628473152E+02  0.22487955040E+03  0.17300000000E+03 0.  1.
         -6    1    1    2    0  502  0.88324256183E+02  0.92377169636E+02  0.32842502480E+03  0.39258975103E+03  0.17300000000E+03 0. -1.
<mgrwt>
<rscale>  2 0.21509002E+03</rscale>
<asrwt>0</asrwt>
<pdfrwt beam="1">  1       21 0.77809445E-01 0.21509002E+03</pdfrwt>
<pdfrwt beam="2">  1       21 0.17185831E-01 0.21509002E+03</pdfrwt>
<totfact> 0.44270595E+04</totfact>
</mgrwt>
</event>
<event>
 4    1  0.4102458E+000  0.2052952E+03  0.7546771E-02  0.1145347E+00
         21   -1    0    0  501  502  0.00000000000E+00  0.00000000000E+00  0.11029472404E+03  0.11029472404E+03  0.00000000000E+00 0. -1.
         21   -1    0    0  502  503 -0.00000000000E+00 -0.00000000000E+00 -0.40264136661E+03  0.40264136661E+03  0.00000000000E+00 0.  1.
          6    1    1    2  501    0 -0.68274821778E+02 -0.86923395228E+02 -0.88277441661E+02  0.22347043346E+03  0.17300000000E+03 0. -1.
         -6    1    1    2    0  503  0.68274821778E+02  0.86923395228E+02 -0.20406920091E+03  0.28946565718E+03  0.17300000000E+03 0.  1.
<mgrwt>
<rscale>  2 0.20529522E+03</rscale>
<asrwt>0</asrwt>
<pdfrwt beam="1">  1       21 0.16968419E-01 0.20529522E+03</pdfrwt>
<pdfrwt beam="2">  1       21 0.61944825E-01 0.20529522E+03</pdfrwt>
<totfact> 0.75308678E+04</totfact>
</mgrwt>
</event>
<event>
 4    1  0.4102458E+000  0.1955503E+03  0.7546771E-02  0.1153548E+00
         21   -1    0    0  503  502  0.00000000000E+00  0.00000000000E+00  0.19094121148E+03  0.19094121148E+03  0.00000000000E+00 0.  1.
         21   -1    0    0  501  503 -0.00000000000E+00 -0.00000000000E+00 -0.22828225707E+03  0.22828225707E+03  0.00000000000E+00 0.  1.
          6    1    1    2  501    0  0.77630290907E+02 -0.47796053846E+02 -0.92096265951E+02  0.21615190731E+03  0.17300000000E+03 0.  1.
         -6    1    1    2    0  502 -0.77630290907E+02  0.47796053846E+02  0.54755220368E+02  0.20307156125E+03  0.17300000000E+03 0.  1.
<mgrwt>
<rscale>  2 0.19555031E+03</rscale>
<asrwt>0</asrwt>
<pdfrwt beam="1">  1       21 0.29375571E-01 0.19555031E+03</pdfrwt>
<pdfrwt beam="2">  1       21 0.35120347E-01 0.19555031E+03</pdfrwt>
<totfact> 0.86667478E+04</totfact>
</mgrwt>
</event>
<event>
 4    1  0.4102458E+000  0.1850263E+03  0.7546771E-02  0.1163025E+00
         21   -1    0    0  503  502  0.00000000000E+00  0.00000000000E+00  0.14149880703E+03  0.14149880703E+03  0.00000000000E+00 0. -1.
         21   -1    0    0  501  503 -0.00000000000E+00 -0.00000000000E+00 -0.24641296862E+03  0.24641296862E+03  0.00000000000E+00 0. -1.
          6    1    1    2  501    0  0.40553670363E+02 -0.51586158107E+02 -0.78578326890E+02  0.20102060925E+03  0.17300000000E+03 0. -1.
         -6    1    1    2    0  502 -0.40553670363E+02  0.51586158107E+02 -0.26335834692E+02  0.18689116640E+03  0.17300000000E+03 0. -1.
<mgrwt>
<rscale>  2 0.18502630E+03</rscale>
<asrwt>0</asrwt>
<pdfrwt beam="1">  1       21 0.21769047E-01 0.18502630E+03</pdfrwt>
<pdfrwt beam="2">  1       21 0.37909687E-01 0.18502630E+03</pdfrwt>
<totfact> 0.13247558E+05</totfact>
</mgrwt>
</event>
<event>
 4    1  0.4102458E+000  0.1913121E+03  0.7546771E-02  0.1157283E+00
         21   -1    0    0  501  502  0.00000000000E+00  0.00000000000E+00  0.14967758807E+04  0.14967758807E+04  0.00000000000E+00 0.  1.
         21   -1    0    0  502  503 -0.00000000000E+00 -0.00000000000E+00 -0.45956662968E+02  0.45956662968E+02  0.00000000000E+00 0.  1.
          6    1    1    2  501    0  0.70090965009E+02  0.41935345611E+02  0.12530583977E+04  0.12675786622E+04  0.17300000000E+03 0.  1.
         -6    1    1    2    0  503 -0.70090965009E+02 -0.41935345611E+02  0.19776081996E+03  0.27515388149E+03  0.17300000000E+03 0.  1.
<mgrwt>
<rscale>  2 0.19131209E+03</rscale>
<asrwt>0</asrwt>
<pdfrwt beam="1">  1       21 0.23027318E+00 0.19131209E+03</pdfrwt>
<pdfrwt beam="2">  1       21 0.70702570E-02 0.19131209E+03</pdfrwt>
<totfact> 0.12968732E+04</totfact>
</mgrwt>
</event>
<event>
 4    1  0.4102458E+000  0.2154072E+03  0.7546771E-02  0.1137354E+00
         21   -1    0    0  503  502  0.00000000000E+00  0.00000000000E+00  0.12855974063E+03  0.12855974063E+03  0.00000000000E+00 0.  1.
         21   -1    0    0  501  503 -0.00000000000E+00 -0.00000000000E+00 -0.36651213354E+03  0.36651213354E+03  0.00000000000E+00 0.  1.
          6    1    1    2  501    0  0.30875496857E+02 -0.12457107939E+03 -0.14954238453E+03  0.26222733438E+03  0.17300000000E+03 0.  1.
         -6    1    1    2    0  502 -0.30875496857E+02  0.12457107939E+03 -0.88410008376E+02  0.23284453978E+03  0.17300000000E+03 0.  1.
<mgrwt>
<rscale>  2 0.21540717E+03</rscale>
<asrwt>0</asrwt>
<pdfrwt beam="1">  1       21 0.19778422E-01 0.21540717E+03</pdfrwt>
<pdfrwt beam="2">  1       21 0.56386482E-01 0.21540717E+03</pdfrwt>
<totfact> 0.69035388E+04</totfact>
</mgrwt>
</event>
<event>
 4    1  0.4102458E+000  0.2978091E+03  0.7546771E-02  0.1086341E+00
         21   -1    0    0  503  502  0.00000000000E+00  0.00000000000E+00  0.14323384994E+04  0.14323384994E+04  0.00000000000E+00 0. -1.
         21   -1    0    0  501  503 -0.00000000000E+00 -0.00000000000E+00 -0.63119966052E+02  0.63119966052E+02  0.00000000000E+00 0.  1.
          6    1    1    2  501    0 -0.21298765452E+02 -0.24146975947E+03  0.78770966317E+03  0.84212635370E+03  0.17300000000E+03 0. -1.
         -6    1    1    2    0  502  0.21298765452E+02  0.24146975947E+03  0.58150887017E+03  0.65333211174E+03  0.17300000000E+03 0.  1.
<mgrwt>
<rscale>  2 0.29780914E+03</rscale>
<asrwt>0</asrwt>
<pdfrwt beam="1">  1       21 0.22035974E+00 0.29780914E+03</pdfrwt>
<pdfrwt beam="2">  1       21 0.97107651E-02 0.29780914E+03</pdfrwt>
<totfact> 0.79130304E+03</totfact>
</mgrwt>
</event>
<event>
 4    1  0.4102458E+000  0.1817474E+03  0.7546771E-02  0.1166123E+00
         21   -1    0    0  501  502  0.00000000000E+00  0.00000000000E+00  0.38713267427E+03  0.38713267427E+03  0.00000000000E+00 0. -1.
         21   -1    0    0  502  503 -0.00000000000E+00 -0.00000000000E+00 -0.10882778123E+03  0.10882778123E+03  0.00000000000E+00 0. -1.
          6    1    1    2  501    0  0.29734641384E+01  0.55626069892E+02  0.25439335144E+03  0.31264689091E+03  0.17300000000E+03 0. -1.
         -6    1    1    2    0  503 -0.29734641384E+01 -0.55626069892E+02  0.23911541600E+02  0.18331356459E+03  0.17300000000E+03 0. -1.
<mgrwt>
<rscale>  2 0.18174736E+03</rscale>
<asrwt>0</asrwt>
<pdfrwt beam="1">  1       21 0.59558872E-01 0.18174736E+03</pdfrwt>
<pdfrwt beam="2">  1       21 0.16742736E-01 0.18174736E+03</pdfrwt>
<totfact> 0.84835239E+04</totfact>
</mgrwt>
</event>
<event>
 4    1  0.4102458E+000  0.1774763E+03  0.7546771E-02  0.1170268E+00
         21   -1    0    0  501  502  0.00000000000E+00  0.00000000000E+00  0.41641475850E+03  0.41641475850E+03  0.00000000000E+00 0. -1.
         21   -1    0    0  502  503 -0.00000000000E+00 -0.00000000000E+00 -0.75776366818E+02  0.75776366818E+02  0.00000000000E+00 0. -1.
          6    1    1    2  501    0 -0.94970630785E+01 -0.38452942478E+02  0.18073959088E+03  0.25330736804E+03  0.17300000000E+03 0. -1.
         -6    1    1    2    0  503  0.94970630785E+01  0.38452942478E+02  0.15989880080E+03  0.23888375727E+03  0.17300000000E+03 0. -1.
<mgrwt>
<rscale>  2 0.17747626E+03</rscale>
<asrwt>0</asrwt>
<pdfrwt beam="1">  1       21 0.64063807E-01 0.17747626E+03</pdfrwt>
<pdfrwt beam="2">  1       21 0.11657903E-01 0.17747626E+03</pdfrwt>
<totfact> 0.13972203E+05</totfact>
</mgrwt>
</event>
<event>
 4    1  0.4102458E+000  0.1818125E+03  0.7546771E-02  0.1166060E+00
         21   -1    0    0  503  502  0.00000000000E+00  0.00000000000E+00  0.72916680140E+03  0.72916680140E+03  0.00000000000E+00 0. -1.
         21   -1    0    0  501  503 -0.00000000000E+00 -0.00000000000E+00 -0.45607104471E+02  0.45607104471E+02  0.00000000000E+00 0. -1.
          6    1    1    2  501    0 -0.31548622214E+02 -0.46167837236E+02  0.31178271490E+03  0.36092138489E+03  0.17300000000E+03 0. -1.
         -6    1    1    2    0  502  0.31548622214E+02  0.46167837236E+02  0.37177698203E+03  0.41385252098E+03  0.17300000000E+03 0. -1.
<mgrwt>
<rscale>  2 0.18181250E+03</rscale>
<asrwt>0</asrwt>
<pdfrwt beam="1">  1       21 0.11217950E+00 0.18181250E+03</pdfrwt>
<pdfrwt beam="2">  1       21 0.70164782E-02 0.18181250E+03</pdfrwt>
<totfact> 0.94260967E+04</totfact>
</mgrwt>
</event>
<event>
 4    1  0.4102458E+000  0.1846731E+03  0.7546771E-02  0.1163355E+00
         21   -1    0    0  503  502  0.00000000000E+00  0.00000000000E+00  0.72135236228E+02  0.72135236228E+02  0.00000000000E+00 0.  1.
         21   -1    0    0  501  503 -0.00000000000E+00 -0.00000000000E+00 -0.47615315271E+03  0.47615315271E+03  0.00000000000E+00 0.  1.
          6    1    1    2  501    0  0.47667354647E+01  0.64439490654E+02 -0.22507955344E+03  0.29114425136E+03  0.17300000000E+03 0.  1.
         -6    1    1    2    0  502 -0.47667354647E+01 -0.64439490654E+02 -0.17893836304E+03  0.25714413758E+03  0.17300000000E+03 0.  1.
<mgrwt>
<rscale>  2 0.18467314E+03</rscale>
<asrwt>0</asrwt>
<pdfrwt beam="1">  1       21 0.11097729E-01 0.18467314E+03</pdfrwt>
<pdfrwt beam="2">  1       21 0.73254332E-01 0.18467314E+03</pdfrwt>
<totfact> 0.11337593E+05</totfact>
</mgrwt>
</event>
<event>
 4    1  0.4102458E+000  0.2742712E+03  0.7546771E-02  0.1098860E+00
         21   -1    0    0  503  502  0.00000000000E+00  0.00000000000E+00  0.12088238148E+04  0.12088238148E+04  0.00000000000E+00 0.  1.
         21   -1    0    0  501  503 -0.00000000000E+00 -0.00000000000E+00 -0.88555416995E+02  0.88555416995E+02  0.00000000000E+00 0.  1.
          6    1    1    2  501    0  0.27483356859E+02 -0.21104590368E+03  0.20644668976E+03  0.34328551394E+03  0.17300000000E+03 0.  1.
         -6    1    1    2    0  502 -0.27483356859E+02  0.21104590368E+03  0.91382170806E+03  0.95409371788E+03  0.17300000000E+03 0.  1.
<mgrwt>
<rscale>  2 0.27427123E+03</rscale>
<asrwt>0</asrwt>
<pdfrwt beam="1">  1       21 0.18597288E+00 0.27427123E+03</pdfrwt>
<pdfrwt beam="2">  1       21 0.13623911E-01 0.27427123E+03</pdfrwt>
<totfact> 0.72998604E+03</totfact>
</mgrwt>
</event>
<event>
 4    1  0.4102458E+000  0.1746903E+03  0.7546771E-02  0.1173043E+00
         21   -1    0    0  501  502  0.00000000000E+00  0.00000000000E+00  0.30472406260E+03  0.30472406260E+03  0.00000000000E+00 0.  1.
         21   -1    0    0  502  503 -0.00000000000E+00 -0.00000000000E+00 -0.10015478957E+03  0.10015478957E+03  0.00000000000E+00 0.  1.
          6    1    1    2  501    0 -0.17723740143E+02  0.16540270034E+02  0.10424531644E+03  0.20343008012E+03  0.17300000000E+03 0.  1.
         -6    1    1    2    0  503  0.17723740143E+02 -0.16540270034E+02  0.10032395659E+03  0.20144877206E+03  0.17300000000E+03 0.  1.
<mgrwt>
<rscale>  2 0.17469033E+03</rscale>
<asrwt>0</asrwt>
<pdfrwt beam="1">  1       21 0.46880625E-01 0.17469033E+03</pdfrwt>
<pdfrwt beam="2">  1       21 0.15408429E-01 0.17469033E+03</pdfrwt>
<totfact> 0.16361831E+05</totfact>
</mgrwt>
</event>
<event>
 4    1  0.4102458E+000  0.2097412E+03  0.7546771E-02  0.1141771E+00
         21   -1    0    0  501  502  0.00000000000E+00  0.00000000000E+00  0.75962324727E+02  0.75962324727E+02  0.00000000000E+00 0.  1.
         21   -1    0    0  502  503 -0.00000000000E+00 -0.00000000000E+00 -0.63580772958E+03  0.63580772958E+03  0.00000000000E+00 0. -1.
          6    1    1    2  501    0  0.11737317662E+02  0.11800250969E+03 -0.17365811712E+03  0.27230221916E+03  0.17300000000E+03 0. -1.
         -6    1    1    2    0  503 -0.11737317662E+02 -0.11800250969E+03 -0.38618728773E+03  0.43946783514E+03  0.17300000000E+03 0. -1.
<mgrwt>
<rscale>  2 0.20974117E+03</rscale>
<asrwt>0</asrwt>
<pdfrwt beam="1">  1       21 0.11686512E-01 0.20974117E+03</pdfrwt>
<pdfrwt beam="2">  1       21 0.97816569E-01 0.20974117E+03</pdfrwt>
<totfact> 0.52760756E+04</totfact>
</mgrwt>
</event>
<event>
 4    1  0.4102458E+000  0.1938381E+03  0.7546771E-02  0.1155044E+00
         21   -1    0    0  503  502  0.00000000000E+00  0.00000000000E+00  0.28709386832E+03  0.28709386832E+03  0.00000000000E+00 0.  1.
         21   -1    0    0  501  503 -0.00000000000E+00 -0.00000000000E+00 -0.13911851944E+03  0.13911851944E+03  0.00000000000E+00 0.  1.
          6    1    1    2  501    0  0.55129073780E+02 -0.67860186854E+02  0.22110371401E+02  0.19509507492E+03  0.17300000000E+03 0.  1.
         -6    1    1    2    0  502 -0.55129073780E+02  0.67860186854E+02  0.12586497748E+03  0.23111731283E+03  0.17300000000E+03 0.  1.
<mgrwt>
<rscale>  2 0.19383813E+03</rscale>
<asrwt>0</asrwt>
<pdfrwt beam="1">  1       21 0.44168287E-01 0.19383813E+03</pdfrwt>
<pdfrwt beam="2">  1       21 0.21402849E-01 0.19383813E+03</pdfrwt>
<totfact> 0.10005010E+05</totfact>
</mgrwt>
</event>
<event>
 4    1  0.4102458E+000  0.1936549E+03  0.7546771E-02  0.1155206E+00
         21   -1    0    0  503  502  0.00000000000E+00  0.00000000000E+00  0.49399028501E+02  0.49399028501E+02  0.00000000000E+00 0. -1.
         21   -1    0    0  501  503 -0.00000000000E+00 -0.00000000000E+00 -0.75919526742E+03  0.75919526742E+03  0.00000000000E+00 0.  1.
          6    1    1    2  501    0  0.86911280411E+02  0.44323580776E+01 -0.35252495255E+03  0.40221394634E+03  0.17300000000E+03 0. -1.
         -6    1    1    2    0  502 -0.86911280411E+02 -0.44323580776E+01 -0.35727128637E+03  0.40638034958E+03  0.17300000000E+03 0.  1.
<mgrwt>
<rscale>  2 0.19365489E+03</rscale>
<asrwt>0</asrwt>
<pdfrwt beam="1">  1       21 0.75998511E-02 0.19365489E+03</pdfrwt>
<pdfrwt beam="2">  1       21 0.11679926E+00 0.19365489E+03</pdfrwt>
<totfact> 0.74022773E+04</totfact>
</mgrwt>
</event>
<event>
 4    1  0.4102458E+000  0.1974758E+03  0.7546771E-02  0.1151886E+00
         21   -1    0    0  501  502  0.00000000000E+00  0.00000000000E+00  0.44852675958E+03  0.44852675958E+03  0.00000000000E+00 0. -1.
         21   -1    0    0  502  503 -0.00000000000E+00 -0.00000000000E+00 -0.10426954584E+03  0.10426954584E+03  0.00000000000E+00 0. -1.
          6    1    1    2  501    0 -0.95052325388E+02 -0.57215510154E+01  0.28479663486E+03  0.34656284269E+03  0.17300000000E+03 0. -1.
         -6    1    1    2    0  503  0.95052325388E+02  0.57215510154E+01  0.59460578883E+02  0.20623346273E+03  0.17300000000E+03 0. -1.
<mgrwt>
<rscale>  2 0.19747577E+03</rscale>
<asrwt>0</asrwt>
<pdfrwt beam="1">  1       21 0.69004116E-01 0.19747577E+03</pdfrwt>
<pdfrwt beam="2">  1       21 0.16041469E-01 0.19747577E+03</pdfrwt>
<totfact> 0.66216951E+04</totfact>
</mgrwt>
</event>
<event>
 4    1  0.4102458E+000  0.1904019E+03  0.7546771E-02  0.1158099E+00
         21   -1    0    0  501  502  0.00000000000E+00  0.00000000000E+00  0.21023464111E+03  0.21023464111E+03  0.00000000000E+00 0.  1.
         21   -1    0    0  502  503 -0.00000000000E+00 -0.00000000000E+00 -0.17784023700E+03  0.17784023700E+03  0.00000000000E+00 0.  1.
          6    1    1    2  501    0 -0.35081585869E+02 -0.71366313197E+02  0.50009573158E+02  0.19685991398E+03  0.17300000000E+03 0.  1.
         -6    1    1    2    0  503  0.35081585869E+02  0.71366313197E+02 -0.17615169044E+02  0.19121496413E+03  0.17300000000E+03 0.  1.
<mgrwt>
<rscale>  2 0.19040186E+03</rscale>
<asrwt>0</asrwt>
<pdfrwt beam="1">  1       21 0.32343791E-01 0.19040186E+03</pdfrwt>
<pdfrwt beam="2">  1       21 0.27360036E-01 0.19040186E+03</pdfrwt>
<totfact> 0.11726769E+05</totfact>
</mgrwt>
</event>
<event>
 4    1  0.4102458E+000  0.1988759E+03  0.7546771E-02  0.1150691E+00
         21   -1    0    0  501  502  0.00000000000E+00  0.00000000000E+00  0.21796909170E+03  0.21796909170E+03  0.00000000000E+00 0.  1.
         21   -1    0    0  502  503 -0.00000000000E+00 -0.00000000000E+00 -0.20107493080E+03  0.20107493080E+03  0.00000000000E+00 0.  1.
          6    1    1    2  501    0  0.30392755465E+02  0.93267962886E+02  0.73895149653E+02  0.21216061281E+03  0.17300000000E+03 0.  1.
         -6    1    1    2    0  503 -0.30392755465E+02 -0.93267962886E+02 -0.57000988759E+02  0.20688340969E+03  0.17300000000E+03 0.  1.
<mgrwt>
<rscale>  2 0.19887592E+03</rscale>
<asrwt>0</asrwt>
<pdfrwt beam="1">  1       21 0.33533706E-01 0.19887592E+03</pdfrwt>
<pdfrwt beam="2">  1       21 0.30934605E-01 0.19887592E+03</pdfrwt>
<totfact> 0.85741567E+04</totfact>
</mgrwt>
</event>
<event>
 4    1  0.4102458E+000  0.1960947E+03  0.7546771E-02  0.1153076E+00
         21   -1    0    0  503  502  0.00000000000E+00  0.00000000000E+00  0.18302243025E+04  0.18302243025E+04  0.00000000000E+00 0. -1.
         21   -1    0    0  501  503 -0.00000000000E+00 -0.00000000000E+00 -0.21027438159E+02  0.21027438159E+02  0.00000000000E+00 0.  1.
          6    1    1    2  501    0  0.79443579504E+02 -0.47040746313E+02  0.93121185013E+03  0.95163471141E+03  0.17300000000E+03 0.  1.
         -6    1    1    2    0  502 -0.79443579504E+02  0.47040746313E+02  0.87798501426E+03  0.89961702930E+03  0.17300000000E+03 0.  1.
<mgrwt>
<rscale>  2 0.19609466E+03</rscale>
<asrwt>0</asrwt>
<pdfrwt beam="1">  1       21 0.28157284E+00 0.19609466E+03</pdfrwt>
<pdfrwt beam="2">  1       21 0.32349919E-02 0.19609466E+03</pdfrwt>
<totfact> 0.24257425E+04</totfact>
</mgrwt>
</event>
<event>
 4    1  0.4102458E+000  0.1845244E+03  0.7546771E-02  0.1163495E+00
         21   -1    0    0  503  502  0.00000000000E+00  0.00000000000E+00  0.64126147556E+03  0.64126147556E+03  0.00000000000E+00 0. -1.
         21   -1    0    0  501  503 -0.00000000000E+00 -0.00000000000E+00 -0.69754737711E+02  0.69754737711E+02  0.00000000000E+00 0. -1.
          6    1    1    2  501    0  0.36571450658E+02  0.52752027368E+02  0.11202655090E+03  0.21586846806E+03  0.17300000000E+03 0. -1.
         -6    1    1    2    0  502 -0.36571450658E+02 -0.52752027368E+02  0.45948018694E+03  0.49514774521E+03  0.17300000000E+03 0. -1.
<mgrwt>
<rscale>  2 0.18452438E+03</rscale>
<asrwt>0</asrwt>
<pdfrwt beam="1">  1       21 0.98655608E-01 0.18452438E+03</pdfrwt>
<pdfrwt beam="2">  1       21 0.10731499E-01 0.18452438E+03</pdfrwt>
<totfact> 0.60933040E+04</totfact>
</mgrwt>
</event>
<event>
 4    1  0.4102458E+000  0.1901189E+03  0.7546771E-02  0.1158354E+00
         21   -1    0    0  503  502  0.00000000000E+00  0.00000000000E+00  0.16686982056E+04  0.16686982056E+04  0.00000000000E+00 0.  1.
         21   -1    0    0  501  503 -0.00000000000E+00 -0.00000000000E+00 -0.35590198471E+02  0.35590198471E+02  0.00000000000E+00 0.  1.
          6    1    1    2  501    0 -0.76115347563E+02  0.20558847436E+02  0.28344594883E+03  0.34130165287E+03  0.17300000000E+03 0.  1.
         -6    1    1    2    0  502  0.76115347563E+02 -0.20558847436E+02  0.13496620583E+04  0.13629867512E+04  0.17300000000E+03 0.  1.
<mgrwt>
<rscale>  2 0.19011894E+03</rscale>
<asrwt>0</asrwt>
<pdfrwt beam="1">  1       21 0.25672274E+00 0.19011894E+03</pdfrwt>
<pdfrwt beam="2">  1       21 0.54754164E-02 0.19011894E+03</pdfrwt>
<totfact> 0.14031269E+04</totfact>
</mgrwt>
</event>
<event>
 4    1  0.4102458E+000  0.1968936E+03  0.7546771E-02  0.1152387E+00
         21   -1    0    0  503  502  0.00000000000E+00  0.00000000000E+00  0.19016638062E+03  0.19016638062E+03  0.00000000000E+00 0. -1.
         21   -1    0    0  501  503 -0.00000000000E+00 -0.00000000000E+00 -0.20631192013E+03  0.20631192013E+03  0.00000000000E+00 0. -1.
          6    1    1    2  501    0 -0.56963815289E+02 -0.74787810133E+02 -0.29689273133E+02  0.19911942581E+03  0.17300000000E+03 0. -1.
         -6    1    1    2    0  502  0.56963815289E+02  0.74787810133E+02  0.13543733621E+02  0.19735887494E+03  0.17300000000E+03 0. -1.
<mgrwt>
<rscale>  2 0.19689361E+03</rscale>
<asrwt>0</asrwt>
<pdfrwt beam="1">  1       21 0.29256366E-01 0.19689361E+03</pdfrwt>
<pdfrwt beam="2">  1       21 0.31740295E-01 0.19689361E+03</pdfrwt>
<totfact> 0.10661533E+05</totfact>
</mgrwt>
</event>
<event>
 4    1  0.4102458E+000  0.2399297E+03  0.7546771E-02  0.1119840E+00
         21   -1    0    0  503  502  0.00000000000E+00  0.00000000000E+00  0.30214434735E+03  0.30214434735E+03  0.00000000000E+00 0.  1.
         21   -1    0    0  501  503 -0.00000000000E+00 -0.00000000000E+00 -0.19690874474E+03  0.19690874474E+03  0.00000000000E+00 0. -1.
          6    1    1    2  501    0  0.15517776073E+03 -0.59641469432E+02  0.97544091662E+02  0.25900017784E+03  0.17300000000E+03 0.  1.
         -6    1    1    2    0  502 -0.15517776073E+03  0.59641469432E+02  0.76915109539E+01  0.24005291425E+03  0.17300000000E+03 0.  1.
<mgrwt>
<rscale>  2 0.23992966E+03</rscale>
<asrwt>0</asrwt>
<pdfrwt beam="1">  1       21 0.46483745E-01 0.23992966E+03</pdfrwt>
<pdfrwt beam="2">  1       21 0.30293653E-01 0.23992966E+03</pdfrwt>
<totfact> 0.45337920E+04</totfact>
</mgrwt>
</event>
<event>
 4    1  0.4102458E+000  0.1928899E+03  0.7546771E-02  0.1155880E+00
         21   -1    0    0  503  502  0.00000000000E+00  0.00000000000E+00  0.25294037560E+02  0.25294037560E+02  0.00000000000E+00 0.  1.
         21   -1    0    0  501  503 -0.00000000000E+00 -0.00000000000E+00 -0.14711052222E+04  0.14711052222E+04  0.00000000000E+00 0.  1.
          6    1    1    2  501    0 -0.84865168997E+02  0.86848328380E+01 -0.73033360166E+03  0.75537652396E+03  0.17300000000E+03 0.  1.
         -6    1    1    2    0  502  0.84865168997E+02 -0.86848328380E+01 -0.71547758298E+03  0.74102273580E+03  0.17300000000E+03 0.  1.
<mgrwt>
<rscale>  2 0.19288993E+03</rscale>
<asrwt>0</asrwt>
<pdfrwt beam="1">  1       21 0.38913892E-02 0.19288993E+03</pdfrwt>
<pdfrwt beam="2">  1       21 0.22632395E+00 0.19288993E+03</pdfrwt>
<totfact> 0.37765716E+04</totfact>
</mgrwt>
</event>
<event>
 4    1  0.4102458E+000  0.1820122E+03  0.7546771E-02  0.1165870E+00
         21   -1    0    0  503  502  0.00000000000E+00  0.00000000000E+00  0.59329161854E+02  0.59329161854E+02  0.00000000000E+00 0. -1.
         21   -1    0    0  501  503 -0.00000000000E+00 -0.00000000000E+00 -0.56416601302E+03  0.56416601302E+03  0.00000000000E+00 0. -1.
          6    1    1    2  501    0  0.21874257014E+02  0.52162792675E+02 -0.28397925803E+03  0.33730202942E+03  0.17300000000E+03 0. -1.
         -6    1    1    2    0  502 -0.21874257014E+02 -0.52162792675E+02 -0.22085759314E+03  0.28619314546E+03  0.17300000000E+03 0. -1.
<mgrwt>
<rscale>  2 0.18201220E+03</rscale>
<asrwt>0</asrwt>
<pdfrwt beam="1">  1       21 0.91275636E-02 0.18201220E+03</pdfrwt>
<pdfrwt beam="2">  1       21 0.86794769E-01 0.18201220E+03</pdfrwt>
<totfact> 0.10930051E+05</totfact>
</mgrwt>
</event>
<event>
 4    1  0.4102458E+000  0.2823533E+03  0.7546771E-02  0.1094411E+00
         21   -1    0    0  503  502  0.00000000000E+00  0.00000000000E+00  0.40691593691E+03  0.40691593691E+03  0.00000000000E+00 0.  1.
         21   -1    0    0  501  503 -0.00000000000E+00 -0.00000000000E+00 -0.19989530632E+03  0.19989530632E+03  0.00000000000E+00 0.  1.
          6    1    1    2  501    0  0.19555724795E+03  0.10747911199E+03  0.60729369633E+02  0.28881041026E+03  0.17300000000E+03 0.  1.
         -6    1    1    2    0  502 -0.19555724795E+03 -0.10747911199E+03  0.14629126096E+03  0.31800083297E+03  0.17300000000E+03 0.  1.
<mgrwt>
<rscale>  2 0.28235332E+03</rscale>
<asrwt>0</asrwt>
<pdfrwt beam="1">  1       21 0.62602451E-01 0.28235332E+03</pdfrwt>
<pdfrwt beam="2">  1       21 0.30753124E-01 0.28235332E+03</pdfrwt>
<totfact> 0.22958868E+04</totfact>
</mgrwt>
</event>
<event>
 4    1  0.4102458E+000  0.4899330E+03  0.7546771E-02  0.1016440E+00
         21   -1    0    0  501  502  0.00000000000E+00  0.00000000000E+00  0.42597732245E+03  0.42597732245E+03  0.00000000000E+00 0. -1.
         21   -1    0    0  502  503 -0.00000000000E+00 -0.00000000000E+00 -0.61553928166E+03  0.61553928166E+03  0.00000000000E+00 0.  1.
          6    1    1    2  501    0 -0.45359345172E+03 -0.66017470996E+02  0.56649087866E+02  0.49319716653E+03  0.17300000000E+03 0. -1.
         -6    1    1    2    0  503  0.45359345172E+03  0.66017470996E+02 -0.24621104708E+03  0.54831943758E+03  0.17300000000E+03 0.  1.
<mgrwt>
<rscale>  2 0.48993298E+03</rscale>
<asrwt>0</asrwt>
<pdfrwt beam="1">  1       21 0.65534973E-01 0.48993298E+03</pdfrwt>
<pdfrwt beam="2">  1       21 0.94698351E-01 0.48993298E+03</pdfrwt>
<totfact> 0.16934928E+03</totfact>
</mgrwt>
</event>
<event>
 4    1  0.4102458E+000  0.2323939E+03  0.7546771E-02  0.1124966E+00
         21   -1    0    0  501  502  0.00000000000E+00  0.00000000000E+00  0.21422117159E+03  0.21422117159E+03  0.00000000000E+00 0.  1.
         21   -1    0    0  502  503 -0.00000000000E+00 -0.00000000000E+00 -0.28432839941E+03  0.28432839941E+03  0.00000000000E+00 0. -1.
          6    1    1    2  501    0  0.14070684444E+03  0.65418002749E+02  0.48859879659E+02  0.23747467022E+03  0.17300000000E+03 0.  1.
         -6    1    1    2    0  503 -0.14070684444E+03 -0.65418002749E+02 -0.11896710748E+03  0.26107490078E+03  0.17300000000E+03 0.  1.
<mgrwt>
<rscale>  2 0.23239391E+03</rscale>
<asrwt>0</asrwt>
<pdfrwt beam="1">  1       21 0.32957104E-01 0.23239391E+03</pdfrwt>
<pdfrwt beam="2">  1       21 0.43742830E-01 0.23239391E+03</pdfrwt>
<totfact> 0.43675962E+04</totfact>
</mgrwt>
</event>
<event>
 4    1  0.4102458E+000  0.2127818E+03  0.7546771E-02  0.1139382E+00
         21   -1    0    0  503  502  0.00000000000E+00  0.00000000000E+00  0.31382442495E+03  0.31382442495E+03  0.00000000000E+00 0. -1.
         21   -1    0    0  501  503 -0.00000000000E+00 -0.00000000000E+00 -0.28404241962E+03  0.28404241962E+03  0.00000000000E+00 0. -1.
          6    1    1    2  501    0 -0.12034542834E+03 -0.29395041655E+02 -0.19480513996E+03  0.28848766551E+03  0.17300000000E+03 0. -1.
         -6    1    1    2    0  502  0.12034542834E+03  0.29395041655E+02  0.22458714530E+03  0.30937917905E+03  0.17300000000E+03 0. -1.
<mgrwt>
<rscale>  2 0.21278179E+03</rscale>
<asrwt>0</asrwt>
<pdfrwt beam="1">  1       21 0.48280681E-01 0.21278179E+03</pdfrwt>
<pdfrwt beam="2">  1       21 0.43698834E-01 0.21278179E+03</pdfrwt>
<totfact> 0.20379870E+04</totfact>
</mgrwt>
</event>
<event>
 4    1  0.4102458E+000  0.1884415E+03  0.7546771E-02  0.1159875E+00
         21   -1    0    0  503  502  0.00000000000E+00  0.00000000000E+00  0.71159931117E+02  0.71159931117E+02  0.00000000000E+00 0.  1.
         21   -1    0    0  501  503 -0.00000000000E+00 -0.00000000000E+00 -0.53967872716E+03  0.53967872716E+03  0.00000000000E+00 0.  1.
          6    1    1    2  501    0 -0.71304393232E+02 -0.22290885668E+02 -0.31809102908E+03  0.36971895118E+03  0.17300000000E+03 0.  1.
         -6    1    1    2    0  502  0.71304393232E+02  0.22290885668E+02 -0.15042776696E+03  0.24111970710E+03  0.17300000000E+03 0.  1.
<mgrwt>
<rscale>  2 0.18844150E+03</rscale>
<asrwt>0</asrwt>
<pdfrwt beam="1">  1       21 0.10947681E-01 0.18844150E+03</pdfrwt>
<pdfrwt beam="2">  1       21 0.83027501E-01 0.18844150E+03</pdfrwt>
<totfact> 0.87530900E+04</totfact>
</mgrwt>
</event>
<event>
 4    1  0.4102458E+000  0.1791908E+03  0.7546771E-02  0.1168588E+00
         21   -1    0    0  503  502  0.00000000000E+00  0.00000000000E+00  0.12746133044E+04  0.12746133044E+04  0.00000000000E+00 0. -1.
         21   -1    0    0  501  503 -0.00000000000E+00 -0.00000000000E+00 -0.28650354121E+02  0.28650354121E+02  0.00000000000E+00 0. -1.
          6    1    1    2  501    0  0.46214060022E+02 -0.66789798314E+01  0.39656553023E+03  0.43517073417E+03  0.17300000000E+03 0. -1.
         -6    1    1    2    0  502 -0.46214060022E+02  0.66789798314E+01  0.84939742004E+03  0.86809292434E+03  0.17300000000E+03 0. -1.
<mgrwt>
<rscale>  2 0.17919081E+03</rscale>
<asrwt>0</asrwt>
<pdfrwt beam="1">  1       21 0.19609431E+00 0.17919081E+03</pdfrwt>
<pdfrwt beam="2">  1       21 0.44077478E-02 0.17919081E+03</pdfrwt>
<totfact> 0.47786012E+04</totfact>
</mgrwt>
</event>
<event>
 4    1  0.4102458E+000  0.2200278E+03  0.7546771E-02  0.1133862E+00
         21   -1    0    0  501  502  0.00000000000E+00  0.00000000000E+00  0.67219243845E+03  0.67219243845E+03  0.00000000000E+00 0. -1.
         21   -1    0    0  502  503 -0.00000000000E+00 -0.00000000000E+00 -0.13513039951E+03  0.13513039951E+03  0.00000000000E+00 0. -1.
          6    1    1    2  501    0  0.76865036434E+02 -0.11213821778E+03  0.54438959978E+03  0.58717310060E+03  0.17300000000E+03 0. -1.
         -6    1    1    2    0  503 -0.76865036434E+02  0.11213821778E+03 -0.73275608473E+01  0.22014973736E+03  0.17300000000E+03 0. -1.
<mgrwt>
<rscale>  2 0.22002776E+03</rscale>
<asrwt>0</asrwt>
<pdfrwt beam="1">  1       21 0.10341422E+00 0.22002776E+03</pdfrwt>
<pdfrwt beam="2">  1       21 0.20789292E-01 0.22002776E+03</pdfrwt>
<totfact> 0.15990975E+04</totfact>
</mgrwt>
</event>
<event>
 4    1  0.4102458E+000  0.2420174E+03  0.7546771E-02  0.1118456E+00
         21   -1    0    0  501  502  0.00000000000E+00  0.00000000000E+00  0.42049023198E+03  0.42049023198E+03  0.00000000000E+00 0.  1.
         21   -1    0    0  502  503 -0.00000000000E+00 -0.00000000000E+00 -0.25563783260E+03  0.25563783260E+03  0.00000000000E+00 0. -1.
          6    1    1    2  501    0 -0.16881566853E+03 -0.12028260157E+02  0.31048941067E+03  0.39367001806E+03  0.17300000000E+03 0.  1.
         -6    1    1    2    0  503  0.16881566853E+03  0.12028260157E+02 -0.14563701129E+03  0.28245804652E+03  0.17300000000E+03 0. -1.
<mgrwt>
<rscale>  2 0.24201737E+03</rscale>
<asrwt>0</asrwt>
<pdfrwt beam="1">  1       21 0.64690805E-01 0.24201737E+03</pdfrwt>
<pdfrwt beam="2">  1       21 0.39328897E-01 0.24201737E+03</pdfrwt>
<totfact> 0.13323699E+04</totfact>
</mgrwt>
</event>
<event>
 4    1  0.4102458E+000  0.1762855E+03  0.7546771E-02  0.1171447E+00
         21   -1    0    0  501  502  0.00000000000E+00  0.00000000000E+00  0.87515808727E+03  0.87515808727E+03  0.00000000000E+00 0. -1.
         21   -1    0    0  502  503 -0.00000000000E+00 -0.00000000000E+00 -0.38509886555E+02  0.38509886555E+02  0.00000000000E+00 0. -1.
          6    1    1    2  501    0 -0.22524378206E+02  0.25302801804E+02  0.54583526573E+03  0.57359630116E+03  0.17300000000E+03 0.  1.
         -6    1    1    2    0  503  0.22524378206E+02 -0.25302801804E+02  0.29081293499E+03  0.34007167266E+03  0.17300000000E+03 0.  1.
<mgrwt>
<rscale>  2 0.17628551E+03</rscale>
<asrwt>0</asrwt>
<pdfrwt beam="1">  1       21 0.13463969E+00 0.17628551E+03</pdfrwt>
<pdfrwt beam="2">  1       21 0.59245986E-02 0.17628551E+03</pdfrwt>
<totfact> 0.80325774E+04</totfact>
</mgrwt>
</event>
<event>
 4    1  0.4102458E+000  0.1836090E+03  0.7546771E-02  0.1164355E+00
         21   -1    0    0  501  502  0.00000000000E+00  0.00000000000E+00  0.20396990375E+02  0.20396990375E+02  0.00000000000E+00 0.  1.
         21   -1    0    0  502  503 -0.00000000000E+00 -0.00000000000E+00 -0.16732177741E+04  0.16732177741E+04  0.00000000000E+00 0. -1.
          6    1    1    2  501    0 -0.83305072204E+01 -0.60941524171E+02 -0.73288070419E+03  0.75553053763E+03  0.17300000000E+03 0.  1.
         -6    1    1    2    0  503  0.83305072204E+01  0.60941524171E+02 -0.91994007950E+03  0.93808422681E+03  0.17300000000E+03 0. -1.
<mgrwt>
<rscale>  2 0.18360901E+03</rscale>
<asrwt>0</asrwt>
<pdfrwt beam="1">  1       21 0.31379981E-02 0.18360901E+03</pdfrwt>
<pdfrwt beam="2">  1       21 0.25741816E+00 0.18360901E+03</pdfrwt>
<totfact> 0.35601495E+04</totfact>
</mgrwt>
</event>
<event>
 4    1  0.4102458E+000  0.1922896E+03  0.7546771E-02  0.1156412E+00
         21   -1    0    0  501  502  0.00000000000E+00  0.00000000000E+00  0.43486163117E+03  0.43486163117E+03  0.00000000000E+00 0. -1.
         21   -1    0    0  502  503 -0.00000000000E+00 -0.00000000000E+00 -0.98802062511E+02  0.98802062511E+02  0.00000000000E+00 0. -1.
          6    1    1    2  501    0 -0.52063165572E+02 -0.65846077849E+02  0.26765989148E+03  0.32957107986E+03  0.17300000000E+03 0. -1.
         -6    1    1    2    0  503  0.52063165572E+02  0.65846077849E+02  0.68399677187E+02  0.20409261382E+03  0.17300000000E+03 0. -1.
<mgrwt>
<rscale>  2 0.19228957E+03</rscale>
<asrwt>0</asrwt>
<pdfrwt beam="1">  1       21 0.66901788E-01 0.19228957E+03</pdfrwt>
<pdfrwt beam="2">  1       21 0.15200318E-01 0.19228957E+03</pdfrwt>
<totfact> 0.78383035E+04</totfact>
</mgrwt>
</event>
<event>
 4    1  0.4102458E+000  0.3951401E+03  0.7546771E-02  0.1045476E+00
         21   -1    0    0  503  502  0.00000000000E+00  0.00000000000E+00  0.17498433910E+04  0.17498433910E+04  0.00000000000E+00 0. -1.
         21   -1    0    0  501  503 -0.00000000000E+00 -0.00000000000E+00 -0.20045087162E+03  0.20045087162E+03  0.00000000000E+00 0.  1.
          6    1    1    2  501    0 -0.35490621163E+03 -0.15755677848E+02  0.48318535708E+02  0.39808333466E+03  0.17300000000E+03 0.  1.
         -6    1    1    2    0  502  0.35490621163E+03  0.15755677848E+02  0.15010739837E+04  0.15522109280E+04  0.17300000000E+03 0. -1.
<mgrwt>
<rscale>  2 0.39514005E+03</rscale>
<asrwt>0</asrwt>
<pdfrwt beam="1">  1       21 0.26920667E+00 0.39514005E+03</pdfrwt>
<pdfrwt beam="2">  1       21 0.30838597E-01 0.39514005E+03</pdfrwt>
<totfact> 0.43015632E+02</totfact>
</mgrwt>
</event>
<event>
 4    1  0.4102458E+000  0.2015599E+03  0.7546771E-02  0.1148430E+00
         21   -1    0    0  503  502  0.00000000000E+00  0.00000000000E+00  0.20911028897E+03  0.20911028897E+03  0.00000000000E+00 0.  1.
         21   -1    0    0  501  503 -0.00000000000E+00 -0.00000000000E+00 -0.19548821117E+03  0.19548821117E+03  0.00000000000E+00 0.  1.
          6    1    1    2  501    0  0.89320690421E+02  0.52145852982E+02  0.22701502543E+02  0.20283425238E+03  0.17300000000E+03 0.  1.
         -6    1    1    2    0  502 -0.89320690421E+02 -0.52145852982E+02 -0.90794247470E+01  0.20176424776E+03  0.17300000000E+03 0.  1.
<mgrwt>
<rscale>  2 0.20155986E+03</rscale>
<asrwt>0</asrwt>
<pdfrwt beam="1">  1       21 0.32170814E-01 0.20155986E+03</pdfrwt>
<pdfrwt beam="2">  1       21 0.30075109E-01 0.20155986E+03</pdfrwt>
<totfact> 0.98208545E+04</totfact>
</mgrwt>
</event>
<event>
 4    1  0.4102458E+000  0.2159105E+03  0.7546771E-02  0.1136969E+00
         21   -1    0    0  501  502  0.00000000000E+00  0.00000000000E+00  0.67194747025E+02  0.67194747025E+02  0.00000000000E+00 0. -1.
         21   -1    0    0  502  503 -0.00000000000E+00 -0.00000000000E+00 -0.69413738312E+03  0.69413738312E+03  0.00000000000E+00 0.  1.
          6    1    1    2  501    0 -0.75673991780E+02  0.10469855320E+03 -0.30465025153E+03  0.37340208333E+03  0.17300000000E+03 0. -1.
         -6    1    1    2    0  503  0.75673991780E+02 -0.10469855320E+03 -0.32229238456E+03  0.38793004681E+03  0.17300000000E+03 0.  1.
<mgrwt>
<rscale>  2 0.21591049E+03</rscale>
<asrwt>0</asrwt>
<pdfrwt beam="1">  1       21 0.10337653E-01 0.21591049E+03</pdfrwt>
<pdfrwt beam="2">  1       21 0.10679037E+00 0.21591049E+03</pdfrwt>
<totfact> 0.53054120E+04</totfact>
</mgrwt>
</event>
<event>
 4    1  0.4102458E+000  0.2149336E+03  0.7546771E-02  0.1137718E+00
         21   -1    0    0  501  502  0.00000000000E+00  0.00000000000E+00  0.45250580763E+02  0.45250580763E+02  0.00000000000E+00 0.  1.
         21   -1    0    0  502  503 -0.00000000000E+00 -0.00000000000E+00 -0.14673734982E+04  0.14673734982E+04  0.00000000000E+00 0. -1.
          6    1    1    2  501    0  0.94842796584E+02 -0.85277640920E+02 -0.29387779541E+03  0.36408871274E+03  0.17300000000E+03 0.  1.
         -6    1    1    2    0  503 -0.94842796584E+02  0.85277640920E+02 -0.11282451220E+04  0.11485353662E+04  0.17300000000E+03 0. -1.
<mgrwt>
<rscale>  2 0.21493355E+03</rscale>
<asrwt>0</asrwt>
<pdfrwt beam="1">  1       21 0.69616276E-02 0.21493355E+03</pdfrwt>
<pdfrwt beam="2">  1       21 0.22574978E+00 0.21493355E+03</pdfrwt>
<totfact> 0.13909684E+04</totfact>
</mgrwt>
</event>
<event>
 4    1  0.4102458E+000  0.1851796E+03  0.7546771E-02  0.1162882E+00
         21   -1    0    0  503  502  0.00000000000E+00  0.00000000000E+00  0.13800303225E+03  0.13800303225E+03  0.00000000000E+00 0.  1.
         21   -1    0    0  501  503 -0.00000000000E+00 -0.00000000000E+00 -0.26720568900E+03  0.26720568900E+03  0.00000000000E+00 0. -1.
          6    1    1    2  501    0 -0.28628949046E+02  0.59522078482E+02 -0.11823070274E+03  0.21970433228E+03  0.17300000000E+03 0.  1.
         -6    1    1    2    0  502  0.28628949046E+02 -0.59522078482E+02 -0.10971954008E+02  0.18550438896E+03  0.17300000000E+03 0.  1.
<mgrwt>
<rscale>  2 0.18517963E+03</rscale>
<asrwt>0</asrwt>
<pdfrwt beam="1">  1       21 0.21231236E-01 0.18517963E+03</pdfrwt>
<pdfrwt beam="2">  1       21 0.41108568E-01 0.18517963E+03</pdfrwt>
<totfact> 0.11793871E+05</totfact>
</mgrwt>
</event>
<event>
 4    1  0.4102458E+000  0.2706526E+03  0.7546771E-02  0.1100907E+00
         21   -1    0    0  503  502  0.00000000000E+00  0.00000000000E+00  0.39267343853E+02  0.39267343853E+02  0.00000000000E+00 0.  1.
         21   -1    0    0  501  503 -0.00000000000E+00 -0.00000000000E+00 -0.18695289606E+04  0.18695289606E+04  0.00000000000E+00 0. -1.
          6    1    1    2  501    0 -0.56897353401E+02  0.20021621787E+03 -0.95949073834E+03  0.99693295646E+03  0.17300000000E+03 0.  1.
         -6    1    1    2    0  502  0.56897353401E+02 -0.20021621787E+03 -0.87077087837E+03  0.91186334795E+03  0.17300000000E+03 0. -1.
<mgrwt>
<rscale>  2 0.27065262E+03</rscale>
<asrwt>0</asrwt>
<pdfrwt beam="1">  1       21 0.60411284E-02 0.27065262E+03</pdfrwt>
<pdfrwt beam="2">  1       21 0.28761991E+00 0.27065262E+03</pdfrwt>
<totfact> 0.72970738E+03</totfact>
</mgrwt>
</event>
<event>
 4    1  0.4102458E+000  0.2313792E+03  0.7546771E-02  0.1125673E+00
         21   -1    0    0  503  502  0.00000000000E+00  0.00000000000E+00  0.12316112639E+04  0.12316112639E+04  0.00000000000E+00 0.  1.
         21   -1    0    0  501  503 -0.00000000000E+00 -0.00000000000E+00 -0.51023009239E+02  0.51023009239E+02  0.00000000000E+00 0.  1.
          6    1    1    2  501    0 -0.14767886495E+03 -0.42406019020E+02  0.34352410913E+03  0.41418007093E+03  0.17300000000E+03 0.  1.
         -6    1    1    2    0  502  0.14767886495E+03  0.42406019020E+02  0.83706414550E+03  0.86845420218E+03  0.17300000000E+03 0.  1.
<mgrwt>
<rscale>  2 0.23137916E+03</rscale>
<asrwt>0</asrwt>
<pdfrwt beam="1">  1       21 0.18947863E+00 0.23137916E+03</pdfrwt>
<pdfrwt beam="2">  1       21 0.78496946E-02 0.23137916E+03</pdfrwt>
<totfact> 0.18973497E+04</totfact>
</mgrwt>
</event>
<event>
 4    1  0.4102458E+000  0.1854037E+03  0.7546771E-02  0.1162673E+00
         21   -1    0    0  503  502  0.00000000000E+00  0.00000000000E+00  0.94826397340E+02  0.94826397340E+02  0.00000000000E+00 0.  1.
         21   -1    0    0  501  503 -0.00000000000E+00 -0.00000000000E+00 -0.37474019376E+03  0.37474019376E+03  0.00000000000E+00 0.  1.
          6    1    1    2  501    0 -0.48918838035E+02 -0.45304249060E+02 -0.18238991759E+03  0.26007808392E+03  0.17300000000E+03 0.  1.
         -6    1    1    2    0  502  0.48918838035E+02  0.45304249060E+02 -0.97523878830E+02  0.20948850718E+03  0.17300000000E+03 0.  1.
<mgrwt>
<rscale>  2 0.18540369E+03</rscale>
<asrwt>0</asrwt>
<pdfrwt beam="1">  1       21 0.14588677E-01 0.18540369E+03</pdfrwt>
<pdfrwt beam="2">  1       21 0.57652337E-01 0.18540369E+03</pdfrwt>
<totfact> 0.11676069E+05</totfact>
</mgrwt>
</event>
<event>
 4    1  0.4102458E+000  0.2009853E+03  0.7546771E-02  0.1148910E+00
         21   -1    0    0  503  502  0.00000000000E+00  0.00000000000E+00  0.51105611095E+02  0.51105611095E+02  0.00000000000E+00 0. -1.
         21   -1    0    0  501  503 -0.00000000000E+00 -0.00000000000E+00 -0.89336098724E+03  0.89336098724E+03  0.00000000000E+00 0.  1.
          6    1    1    2  501    0 -0.99762401800E+02  0.22661408706E+02 -0.58142634610E+03  0.61518425874E+03  0.17300000000E+03 0.  1.
         -6    1    1    2    0  502  0.99762401800E+02 -0.22661408706E+02 -0.26082903005E+03  0.32928233960E+03  0.17300000000E+03 0.  1.
<mgrwt>
<rscale>  2 0.20098526E+03</rscale>
<asrwt>0</asrwt>
<pdfrwt beam="1">  1       21 0.78624019E-02 0.20098526E+03</pdfrwt>
<pdfrwt beam="2">  1       21 0.13744015E+00 0.20098526E+03</pdfrwt>
<totfact> 0.46196127E+04</totfact>
</mgrwt>
</event>
<event>
 4    1  0.4102458E+000  0.1999936E+03  0.7546771E-02  0.1149744E+00
         21   -1    0    0  501  502  0.00000000000E+00  0.00000000000E+00  0.20101059318E+03  0.20101059318E+03  0.00000000000E+00 0. -1.
         21   -1    0    0  502  503 -0.00000000000E+00 -0.00000000000E+00 -0.25882926521E+03  0.25882926521E+03  0.00000000000E+00 0. -1.
          6    1    1    2  501    0  0.82064889795E+02  0.57739053592E+02  0.81649358456E+02  0.21601866165E+03  0.17300000000E+03 0.  1.
         -6    1    1    2    0  503 -0.82064889795E+02 -0.57739053592E+02 -0.13946803049E+03  0.24382119673E+03  0.17300000000E+03 0.  1.
<mgrwt>
<rscale>  2 0.19999361E+03</rscale>
<asrwt>0</asrwt>
<pdfrwt beam="1">  1       21 0.30924707E-01 0.19999361E+03</pdfrwt>
<pdfrwt beam="2">  1       21 0.39819887E-01 0.19999361E+03</pdfrwt>
<totfact> 0.60840687E+04</totfact>
</mgrwt>
</event>
<event>
 4    1  0.4102458E+000  0.1851136E+03  0.7546771E-02  0.1162944E+00
         21   -1    0    0  501  502  0.00000000000E+00  0.00000000000E+00  0.17927489537E+03  0.17927489537E+03  0.00000000000E+00 0.  1.
         21   -1    0    0  502  503 -0.00000000000E+00 -0.00000000000E+00 -0.19476166582E+03  0.19476166582E+03  0.00000000000E+00 0.  1.
          6    1    1    2  501    0  0.25388826416E+02 -0.60773824829E+02  0.17750558800E+02  0.18596271838E+03  0.17300000000E+03 0.  1.
         -6    1    1    2    0  503 -0.25388826416E+02  0.60773824829E+02 -0.33237329247E+02  0.18807384280E+03  0.17300000000E+03 0.  1.
<mgrwt>
<rscale>  2 0.18511361E+03</rscale>
<asrwt>0</asrwt>
<pdfrwt beam="1">  1       21 0.27580753E-01 0.18511361E+03</pdfrwt>
<pdfrwt beam="2">  1       21 0.29963333E-01 0.18511361E+03</pdfrwt>
<totfact> 0.13432729E+05</totfact>
</mgrwt>
</event>
<event>
 4    1  0.4102458E+000  0.1983375E+03  0.7546771E-02  0.1151149E+00
         21   -1    0    0  501  502  0.00000000000E+00  0.00000000000E+00  0.10403636836E+03  0.10403636836E+03  0.00000000000E+00 0. -1.
         21   -1    0    0  502  503 -0.00000000000E+00 -0.00000000000E+00 -0.48100473869E+03  0.48100473869E+03  0.00000000000E+00 0.  1.
          6    1    1    2  501    0 -0.65079924356E+02 -0.71926177787E+02 -0.53193928600E+02  0.20534693970E+03  0.17300000000E+03 0.  1.
         -6    1    1    2    0  503  0.65079924356E+02  0.71926177787E+02 -0.32377444172E+03  0.37969416735E+03  0.17300000000E+03 0.  1.
<mgrwt>
<rscale>  2 0.19833752E+03</rscale>
<asrwt>0</asrwt>
<pdfrwt beam="1">  1       21 0.16005595E-01 0.19833752E+03</pdfrwt>
<pdfrwt beam="2">  1       21 0.74000728E-01 0.19833752E+03</pdfrwt>
<totfact> 0.56928702E+04</totfact>
</mgrwt>
</event>
<event>
 4    1  0.4102458E+000  0.1886443E+03  0.7546771E-02  0.1159690E+00
         21   -1    0    0  503  502  0.00000000000E+00  0.00000000000E+00  0.13952761846E+03  0.13952761846E+03  0.00000000000E+00 0. -1.
         21   -1    0    0  501  503 -0.00000000000E+00 -0.00000000000E+00 -0.66606476410E+03  0.66606476410E+03  0.00000000000E+00 0. -1.
          6    1    1    2  501    0  0.70635819106E+02  0.25850548144E+02 -0.57968226342E+03  0.60960495101E+03  0.17300000000E+03 0. -1.
         -6    1    1    2    0  502 -0.70635819106E+02 -0.25850548144E+02  0.53145117780E+02  0.19598743155E+03  0.17300000000E+03 0. -1.
<mgrwt>
<rscale>  2 0.18864429E+03</rscale>
<asrwt>0</asrwt>
<pdfrwt beam="1">  1       21 0.21465787E-01 0.18864429E+03</pdfrwt>
<pdfrwt beam="2">  1       21 0.10247151E+00 0.18864429E+03</pdfrwt>
<totfact> 0.15700187E+04</totfact>
</mgrwt>
</event>
<event>
 4    1  0.4102458E+000  0.2088999E+03  0.7546771E-02  0.1142440E+00
         21   -1    0    0  501  502  0.00000000000E+00  0.00000000000E+00  0.95239475638E+03  0.95239475638E+03  0.00000000000E+00 0. -1.
         21   -1    0    0  502  503 -0.00000000000E+00 -0.00000000000E+00 -0.50732769218E+02  0.50732769218E+02  0.00000000000E+00 0.  1.
          6    1    1    2  501    0 -0.63328777891E+02 -0.98486720211E+02  0.60690285420E+03  0.64184908086E+03  0.17300000000E+03 0. -1.
         -6    1    1    2    0  503  0.63328777891E+02  0.98486720211E+02  0.29475913296E+03  0.36127844474E+03  0.17300000000E+03 0.  1.
<mgrwt>
<rscale>  2 0.20889990E+03</rscale>
<asrwt>0</asrwt>
<pdfrwt beam="1">  1       21 0.14652226E+00 0.20889990E+03</pdfrwt>
<pdfrwt beam="2">  1       21 0.78050422E-02 0.20889990E+03</pdfrwt>
<totfact> 0.39441710E+04</totfact>
</mgrwt>
</event>
<event>
 4    1  0.4102458E+000  0.2398177E+03  0.7546771E-02  0.1119914E+00
         21   -1    0    0  501  502  0.00000000000E+00  0.00000000000E+00  0.76570566610E+03  0.76570566610E+03  0.00000000000E+00 0.  1.
         21   -1    0    0  502  503 -0.00000000000E+00 -0.00000000000E+00 -0.77200223590E+02  0.77200223590E+02  0.00000000000E+00 0. -1.
          6    1    1    2  501    0  0.67344988779E+02  0.15181628224E+03  0.41359287960E+03  0.47809162419E+03  0.17300000000E+03 0.  1.
         -6    1    1    2    0  503 -0.67344988779E+02 -0.15181628224E+03  0.27491256292E+03  0.36481426550E+03  0.17300000000E+03 0. -1.
<mgrwt>
<rscale>  2 0.23981770E+03</rscale>
<asrwt>0</asrwt>
<pdfrwt beam="1">  1       21 0.11780087E+00 0.23981770E+03</pdfrwt>
<pdfrwt beam="2">  1       21 0.11876958E-01 0.23981770E+03</pdfrwt>
<totfact> 0.32211566E+04</totfact>
</mgrwt>
</event>
<event>
 4    1  0.4102458E+000  0.3418634E+03  0.7546771E-02  0.1066005E+00
         21   -1    0    0  503  502  0.00000000000E+00  0.00000000000E+00  0.26753494006E+03  0.26753494006E+03  0.00000000000E+00 0. -1.
         21   -1    0    0  501  503 -0.00000000000E+00 -0.00000000000E+00 -0.65923335761E+03  0.65923335761E+03  0.00000000000E+00 0.  1.
          6    1    1    2  501    0 -0.24136648209E+03 -0.16936291825E+03 -0.46499045117E+03  0.57713663585E+03  0.17300000000E+03 0.  1.
         -6    1    1    2    0  502  0.24136648209E+03  0.16936291825E+03  0.73292033623E+02  0.34963166182E+03  0.17300000000E+03 0. -1.
<mgrwt>
<rscale>  2 0.34186339E+03</rscale>
<asrwt>0</asrwt>
<pdfrwt beam="1">  1       21 0.41159222E-01 0.34186339E+03</pdfrwt>
<pdfrwt beam="2">  1       21 0.10142052E+00 0.34186339E+03</pdfrwt>
<totfact> 0.41175865E+03</totfact>
</mgrwt>
</event>
<event>
 4    1  0.4102458E+000  0.1983403E+03  0.7546771E-02  0.1151147E+00
         21   -1    0    0  501  502  0.00000000000E+00  0.00000000000E+00  0.30287053004E+03  0.30287053004E+03  0.00000000000E+00 0.  1.
         21   -1    0    0  502  503 -0.00000000000E+00 -0.00000000000E+00 -0.16407141859E+03  0.16407141859E+03  0.00000000000E+00 0.  1.
          6    1    1    2  501    0  0.54972592392E+02 -0.79924217187E+02  0.17596886886E+03  0.26514884351E+03  0.17300000000E+03 0.  1.
         -6    1    1    2    0  503 -0.54972592392E+02  0.79924217187E+02 -0.37169757408E+02  0.20179310512E+03  0.17300000000E+03 0.  1.
<mgrwt>
<rscale>  2 0.19834028E+03</rscale>
<asrwt>0</asrwt>
<pdfrwt beam="1">  1       21 0.46595466E-01 0.19834028E+03</pdfrwt>
<pdfrwt beam="2">  1       21 0.25241757E-01 0.19834028E+03</pdfrwt>
<totfact> 0.65421318E+04</totfact>
</mgrwt>
</event>
<event>
 4    1  0.4102458E+000  0.3907119E+03  0.7546771E-02  0.1047044E+00
         21   -1    0    0  501  502  0.00000000000E+00  0.00000000000E+00  0.41201291199E+03  0.41201291199E+03  0.00000000000E+00 0. -1.
         21   -1    0    0  502  503 -0.00000000000E+00 -0.00000000000E+00 -0.59306000382E+03  0.59306000382E+03  0.00000000000E+00 0. -1.
          6    1    1    2  501    0  0.34687960592E+03  0.49003316802E+02  0.21731994164E+03  0.44708359743E+03  0.17300000000E+03 0. -1.
         -6    1    1    2    0  503 -0.34687960592E+03 -0.49003316802E+02 -0.39836703346E+03  0.55798931837E+03  0.17300000000E+03 0. -1.
<mgrwt>
<rscale>  2 0.39071190E+03</rscale>
<asrwt>0</asrwt>
<pdfrwt beam="1">  1       21 0.63386602E-01 0.39071190E+03</pdfrwt>
<pdfrwt beam="2">  1       21 0.91240000E-01 0.39071190E+03</pdfrwt>
<totfact> 0.20713783E+03</totfact>
</mgrwt>
</event>
<event>
 4    1  0.4102458E+000  0.4635399E+03  0.7546771E-02  0.1023760E+00
         21   -1    0    0  503  502  0.00000000000E+00  0.00000000000E+00  0.71588162291E+03  0.71588162291E+03  0.00000000000E+00 0.  1.
         21   -1    0    0  501  503 -0.00000000000E+00 -0.00000000000E+00 -0.34936855987E+03  0.34936855987E+03  0.00000000000E+00 0. -1.
          6    1    1    2  501    0  0.76191464874E+02 -0.42324355326E+03 -0.16665352749E+02  0.46383938888E+03  0.17300000000E+03 0. -1.
         -6    1    1    2    0  502 -0.76191464874E+02  0.42324355326E+03  0.38317841579E+03  0.60141079390E+03  0.17300000000E+03 0.  1.
<mgrwt>
<rscale>  2 0.46353991E+03</rscale>
<asrwt>0</asrwt>
<pdfrwt beam="1">  1       21 0.11013563E+00 0.46353991E+03</pdfrwt>
<pdfrwt beam="2">  1       21 0.53749009E-01 0.46353991E+03</pdfrwt>
<totfact> 0.18245211E+03</totfact>
</mgrwt>
</event>
<event>
 4    1  0.4102458E+000  0.2044036E+03  0.7546771E-02  0.1146076E+00
         21   -1    0    0  503  502  0.00000000000E+00  0.00000000000E+00  0.14109583720E+04  0.14109583720E+04  0.00000000000E+00 0. -1.
         21   -1    0    0  501  503 -0.00000000000E+00 -0.00000000000E+00 -0.32320929923E+02  0.32320929923E+02  0.00000000000E+00 0. -1.
          6    1    1    2  501    0 -0.75698459061E+02  0.78240416919E+02  0.48038689293E+03  0.52206550015E+03  0.17300000000E+03 0. -1.
         -6    1    1    2    0  502  0.75698459061E+02 -0.78240416919E+02  0.89825054916E+03  0.92121380179E+03  0.17300000000E+03 0. -1.
<mgrwt>
<rscale>  2 0.20440357E+03</rscale>
<asrwt>0</asrwt>
<pdfrwt beam="1">  1       21 0.21707047E+00 0.20440357E+03</pdfrwt>
<pdfrwt beam="2">  1       21 0.49724519E-02 0.20440357E+03</pdfrwt>
<totfact> 0.28222391E+04</totfact>
</mgrwt>
</event>
<event>
 4    1  0.4102458E+000  0.1795442E+03  0.7546771E-02  0.1168245E+00
         21   -1    0    0  503  502  0.00000000000E+00  0.00000000000E+00  0.43069593012E+02  0.43069593012E+02  0.00000000000E+00 0. -1.
         21   -1    0    0  501  503 -0.00000000000E+00 -0.00000000000E+00 -0.11770512394E+04  0.11770512394E+04  0.00000000000E+00 0. -1.
          6    1    1    2  501    0  0.48021189402E+02 -0.10391222083E+01 -0.93511462918E+03  0.95219508722E+03  0.17300000000E+03 0. -1.
         -6    1    1    2    0  502 -0.48021189402E+02  0.10391222083E+01 -0.19886701721E+03  0.26792574520E+03  0.17300000000E+03 0. -1.
<mgrwt>
<rscale>  2 0.17954419E+03</rscale>
<asrwt>0</asrwt>
<pdfrwt beam="1">  1       21 0.66260906E-02 0.17954419E+03</pdfrwt>
<pdfrwt beam="2">  1       21 0.18108482E+00 0.17954419E+03</pdfrwt>
<totfact> 0.30015689E+04</totfact>
</mgrwt>
</event>
<event>
 4    1  0.4102458E+000  0.1992928E+03  0.7546771E-02  0.1150337E+00
         21   -1    0    0  501  502  0.00000000000E+00  0.00000000000E+00  0.14020631698E+03  0.14020631698E+03  0.00000000000E+00 0.  1.
         21   -1    0    0  502  503 -0.00000000000E+00 -0.00000000000E+00 -0.10138510129E+04  0.10138510129E+04  0.00000000000E+00 0. -1.
          6    1    1    2  501    0 -0.78443863762E+01  0.98626075331E+02  0.53003336863E+02  0.20622073332E+03  0.17300000000E+03 0.  1.
         -6    1    1    2    0  503  0.78443863762E+01 -0.98626075331E+02 -0.92664803275E+03  0.94783659654E+03  0.17300000000E+03 0. -1.
<mgrwt>
<rscale>  2 0.19929284E+03</rscale>
<asrwt>0</asrwt>
<pdfrwt beam="1">  1       21 0.21570203E-01 0.19929284E+03</pdfrwt>
<pdfrwt beam="2">  1       21 0.15597708E+00 0.19929284E+03</pdfrwt>
<totfact> 0.53693121E+03</totfact>
</mgrwt>
</event>
<event>
 4    1  0.4102458E+000  0.1763480E+03  0.7546771E-02  0.1171385E+00
         21   -1    0    0  503  502  0.00000000000E+00  0.00000000000E+00  0.24364503772E+03  0.24364503772E+03  0.00000000000E+00 0. -1.
         21   -1    0    0  501  503 -0.00000000000E+00 -0.00000000000E+00 -0.30477163048E+03  0.30477163048E+03  0.00000000000E+00 0. -1.
          6    1    1    2  501    0 -0.32233888123E+02 -0.11427248686E+02 -0.23960969222E+03  0.29750867241E+03  0.17300000000E+03 0. -1.
         -6    1    1    2    0  502  0.32233888123E+02  0.11427248686E+02  0.17848309946E+03  0.25090799578E+03  0.17300000000E+03 0. -1.
<mgrwt>
<rscale>  2 0.17634797E+03</rscale>
<asrwt>0</asrwt>
<pdfrwt beam="1">  1       21 0.37483852E-01 0.17634797E+03</pdfrwt>
<pdfrwt beam="2">  1       21 0.46887943E-01 0.17634797E+03</pdfrwt>
<totfact> 0.30152920E+04</totfact>
</mgrwt>
</event>
<event>
 4    1  0.4102458E+000  0.2129808E+03  0.7546771E-02  0.1139227E+00
         21   -1    0    0  501  502  0.00000000000E+00  0.00000000000E+00  0.12245606394E+03  0.12245606394E+03  0.00000000000E+00 0. -1.
         21   -1    0    0  502  503 -0.00000000000E+00 -0.00000000000E+00 -0.47392173101E+03  0.47392173101E+03  0.00000000000E+00 0.  1.
          6    1    1    2  501    0 -0.28137553498E+02  0.12099622922E+03 -0.36384718463E+02  0.21606632579E+03  0.17300000000E+03 0. -1.
         -6    1    1    2    0  503  0.28137553498E+02 -0.12099622922E+03 -0.31508094861E+03  0.38031146917E+03  0.17300000000E+03 0. -1.
<mgrwt>
<rscale>  2 0.21298077E+03</rscale>
<asrwt>0</asrwt>
<pdfrwt beam="1">  1       21 0.18839395E-01 0.21298077E+03</pdfrwt>
<pdfrwt beam="2">  1       21 0.72911035E-01 0.21298077E+03</pdfrwt>
<totfact> 0.43240348E+04</totfact>
</mgrwt>
</event>
<event>
 4    1  0.4102458E+000  0.1944978E+03  0.7546771E-02  0.1154466E+00
         21   -1    0    0  501  502  0.00000000000E+00  0.00000000000E+00  0.19572145068E+02  0.19572145068E+02  0.00000000000E+00 0.  1.
         21   -1    0    0  502  503 -0.00000000000E+00 -0.00000000000E+00 -0.26709259799E+04  0.26709259799E+04  0.00000000000E+00 0. -1.
          6    1    1    2  501    0 -0.56905056440E+02 -0.68280241698E+02 -0.61849363725E+03  0.64835465308E+03  0.17300000000E+03 0.  1.
         -6    1    1    2    0  503  0.56905056440E+02  0.68280241698E+02 -0.20328601976E+04  0.20421434719E+04  0.17300000000E+03 0. -1.
<mgrwt>
<rscale>  2 0.19449776E+03</rscale>
<asrwt>0</asrwt>
<pdfrwt beam="1">  1       21 0.30111001E-02 0.19449776E+03</pdfrwt>
<pdfrwt beam="2">  1       21 0.41091157E+00 0.19449776E+03</pdfrwt>
<totfact> 0.46691098E+03</totfact>
</mgrwt>
</event>
<event>
 4    1  0.4102458E+000  0.2780310E+03  0.7546771E-02  0.1096769E+00
         21   -1    0    0  501  502  0.00000000000E+00  0.00000000000E+00  0.98868463423E+02  0.98868463423E+02  0.00000000000E+00 0. -1.
         21   -1    0    0  502  503 -0.00000000000E+00 -0.00000000000E+00 -0.92721913222E+03  0.92721913222E+03  0.00000000000E+00 0.  1.
          6    1    1    2  501    0 -0.49487119454E+02  0.21195108098E+03 -0.21104006540E+03  0.34905464461E+03  0.17300000000E+03 0. -1.
         -6    1    1    2    0  503  0.49487119454E+02 -0.21195108098E+03 -0.61731060340E+03  0.67703295103E+03  0.17300000000E+03 0. -1.
<mgrwt>
<rscale>  2 0.27803100E+03</rscale>
<asrwt>0</asrwt>
<pdfrwt beam="1">  1       21 0.15210533E-01 0.27803100E+03</pdfrwt>
<pdfrwt beam="2">  1       21 0.14264910E+00 0.27803100E+03</pdfrwt>
<totfact> 0.12368295E+04</totfact>
</mgrwt>
</event>
<event>
 4    1  0.4102458E+000  0.1789348E+03  0.7546771E-02  0.1168838E+00
         21   -1    0    0  503  502  0.00000000000E+00  0.00000000000E+00  0.13490390676E+03  0.13490390676E+03  0.00000000000E+00 0. -1.
         21   -1    0    0  501  503 -0.00000000000E+00 -0.00000000000E+00 -0.31046688632E+03  0.31046688632E+03  0.00000000000E+00 0. -1.
          6    1    1    2  501    0 -0.42566524843E+02  0.16635999256E+02 -0.19585818342E+03  0.26528869844E+03  0.17300000000E+03 0. -1.
         -6    1    1    2    0  502  0.42566524843E+02 -0.16635999256E+02  0.20295203861E+02  0.18008209464E+03  0.17300000000E+03 0. -1.
<mgrwt>
<rscale>  2 0.17893481E+03</rscale>
<asrwt>0</asrwt>
<pdfrwt beam="1">  1       21 0.20754447E-01 0.17893481E+03</pdfrwt>
<pdfrwt beam="2">  1       21 0.47764136E-01 0.17893481E+03</pdfrwt>
<totfact> 0.90740155E+04</totfact>
</mgrwt>
</event>
<event>
 4    1  0.4102458E+000  0.2227942E+03  0.7546771E-02  0.1131817E+00
         21   -1    0    0  503  502  0.00000000000E+00  0.00000000000E+00  0.24284622854E+03  0.24284622854E+03  0.00000000000E+00 0.  1.
         21   -1    0    0  501  503 -0.00000000000E+00 -0.00000000000E+00 -0.20447606013E+03  0.20447606013E+03  0.00000000000E+00 0.  1.
          6    1    1    2  501    0  0.14209027510E+02  0.13966509623E+03  0.14809546848E+02  0.22328582187E+03  0.17300000000E+03 0.  1.
         -6    1    1    2    0  502 -0.14209027510E+02 -0.13966509623E+03  0.23560621561E+02  0.22403646680E+03  0.17300000000E+03 0.  1.
<mgrwt>
<rscale>  2 0.22279416E+03</rscale>
<asrwt>0</asrwt>
<pdfrwt beam="1">  1       21 0.37360958E-01 0.22279416E+03</pdfrwt>
<pdfrwt beam="2">  1       21 0.31457856E-01 0.22279416E+03</pdfrwt>
<totfact> 0.66228361E+04</totfact>
</mgrwt>
</event>
<event>
 4    1  0.4102458E+000  0.1784462E+03  0.7546771E-02  0.1169315E+00
         21   -1    0    0  501  502  0.00000000000E+00  0.00000000000E+00  0.14690611201E+02  0.14690611201E+02  0.00000000000E+00 0. -1.
         21   -1    0    0  502  503 -0.00000000000E+00 -0.00000000000E+00 -0.21989198111E+04  0.21989198111E+04  0.00000000000E+00 0. -1.
          6    1    1    2  501    0  0.19350874950E+02 -0.39237765599E+02 -0.12242509875E+04  0.12371877541E+04  0.17300000000E+03 0.  1.
         -6    1    1    2    0  503 -0.19350874950E+02  0.39237765599E+02 -0.95997821243E+03  0.97642266819E+03  0.17300000000E+03 0.  1.
<mgrwt>
<rscale>  2 0.17844623E+03</rscale>
<asrwt>0</asrwt>
<pdfrwt beam="1">  1       21 0.22600930E-02 0.17844623E+03</pdfrwt>
<pdfrwt beam="2">  1       21 0.33829550E+00 0.17844623E+03</pdfrwt>
<totfact> 0.20989243E+04</totfact>
</mgrwt>
</event>
<event>
 4    1  0.4102458E+000  0.2221056E+03  0.7546771E-02  0.1132323E+00
         21   -1    0    0  503  502  0.00000000000E+00  0.00000000000E+00  0.28064197645E+03  0.28064197645E+03  0.00000000000E+00 0.  1.
         21   -1    0    0  501  503 -0.00000000000E+00 -0.00000000000E+00 -0.17594331348E+03  0.17594331348E+03  0.00000000000E+00 0. -1.
          6    1    1    2  501    0  0.71817623326E+02  0.11934868635E+03  0.59332408706E+02  0.22989392048E+03  0.17300000000E+03 0. -1.
         -6    1    1    2    0  502 -0.71817623326E+02 -0.11934868635E+03  0.45366254261E+02  0.22669136944E+03  0.17300000000E+03 0.  1.
<mgrwt>
<rscale>  2 0.22210556E+03</rscale>
<asrwt>0</asrwt>
<pdfrwt beam="1">  1       21 0.43175689E-01 0.22210556E+03</pdfrwt>
<pdfrwt beam="2">  1       21 0.27068202E-01 0.22210556E+03</pdfrwt>
<totfact> 0.66220230E+04</totfact>
</mgrwt>
</event>
<event>
 4    1  0.4102458E+000  0.1748130E+03  0.7546771E-02  0.1172920E+00
         21   -1    0    0  501  502  0.00000000000E+00  0.00000000000E+00  0.59486367622E+03  0.59486367622E+03  0.00000000000E+00 0.  1.
         21   -1    0    0  502  503 -0.00000000000E+00 -0.00000000000E+00 -0.59629883227E+02  0.59629883227E+02  0.00000000000E+00 0.  1.
          6    1    1    2  501    0  0.21014703289E+02 -0.13746299430E+02  0.38939440518E+03  0.42683437219E+03  0.17300000000E+03 0. -1.
         -6    1    1    2    0  503 -0.21014703289E+02  0.13746299430E+02  0.14583938781E+03  0.22765918725E+03  0.17300000000E+03 0. -1.
<mgrwt>
<rscale>  2 0.17481298E+03</rscale>
<asrwt>0</asrwt>
<pdfrwt beam="1">  1       21 0.91517485E-01 0.17481298E+03</pdfrwt>
<pdfrwt beam="2">  1       21 0.91738286E-02 0.17481298E+03</pdfrwt>
<totfact> 0.96166071E+04</totfact>
</mgrwt>
</event>
<event>
 4    1  0.4102458E+000  0.1827101E+03  0.7546771E-02  0.1165206E+00
         21   -1    0    0  501  502  0.00000000000E+00  0.00000000000E+00  0.19741320320E+04  0.19741320320E+04  0.00000000000E+00 0.  1.
         21   -1    0    0  502  503 -0.00000000000E+00 -0.00000000000E+00 -0.21280284086E+02  0.21280284086E+02  0.00000000000E+00 0.  1.
          6    1    1    2  501    0  0.13878955931E+02  0.57108371276E+02  0.14285505751E+04  0.14401873965E+04  0.17300000000E+03 0.  1.
         -6    1    1    2    0  503 -0.13878955931E+02 -0.57108371276E+02  0.52430117279E+03  0.55522491954E+03  0.17300000000E+03 0.  1.
<mgrwt>
<rscale>  2 0.18271013E+03</rscale>
<asrwt>0</asrwt>
<pdfrwt beam="1">  1       21 0.30371248E+00 0.18271013E+03</pdfrwt>
<pdfrwt beam="2">  1       21 0.32738914E-02 0.18271013E+03</pdfrwt>
<totfact> 0.17974698E+04</totfact>
</mgrwt>
</event>
<event>
 4    1  0.4102458E+000  0.2322994E+03  0.7546771E-02  0.1125032E+00
         21   -1    0    0  501  502  0.00000000000E+00  0.00000000000E+00  0.35811893745E+03  0.35811893745E+03  0.00000000000E+00 0.  1.
         21   -1    0    0  502  503 -0.00000000000E+00 -0.00000000000E+00 -0.49089257927E+03  0.49089257927E+03  0.00000000000E+00 0. -1.
          6    1    1    2  501    0  0.95854676285E+02 -0.12184366504E+03  0.28700998494E+03  0.36923939272E+03  0.17300000000E+03 0.  1.
         -6    1    1    2    0  503 -0.95854676285E+02  0.12184366504E+03 -0.41978362676E+03  0.47977212401E+03  0.17300000000E+03 0. -1.
<mgrwt>
<rscale>  2 0.23229937E+03</rscale>
<asrwt>0</asrwt>
<pdfrwt beam="1">  1       21 0.55095221E-01 0.23229937E+03</pdfrwt>
<pdfrwt beam="2">  1       21 0.75521936E-01 0.23229937E+03</pdfrwt>
<totfact> 0.47243868E+03</totfact>
</mgrwt>
</event>
<event>
 4    1  0.4102458E+000  0.1804131E+03  0.7546771E-02  0.1167404E+00
         21   -1    0    0  501  502  0.00000000000E+00  0.00000000000E+00  0.75825167086E+03  0.75825167086E+03  0.00000000000E+00 0.  1.
         21   -1    0    0  502  503 -0.00000000000E+00 -0.00000000000E+00 -0.48012145259E+02  0.48012145259E+02  0.00000000000E+00 0.  1.
          6    1    1    2  501    0  0.31571019200E+02 -0.40288231467E+02  0.48632676416E+03  0.51871243708E+03  0.17300000000E+03 0.  1.
         -6    1    1    2    0  503 -0.31571019200E+02  0.40288231467E+02  0.22391276144E+03  0.28755137903E+03  0.17300000000E+03 0.  1.
<mgrwt>
<rscale>  2 0.18041306E+03</rscale>
<asrwt>0</asrwt>
<pdfrwt beam="1">  1       21 0.11665410E+00 0.18041306E+03</pdfrwt>
<pdfrwt beam="2">  1       21 0.73864844E-02 0.18041306E+03</pdfrwt>
<totfact> 0.78479552E+04</totfact>
</mgrwt>
</event>
<event>
 4    1  0.4102458E+000  0.1899871E+03  0.7546771E-02  0.1158473E+00
         21   -1    0    0  501  502  0.00000000000E+00  0.00000000000E+00  0.10769768625E+03  0.10769768625E+03  0.00000000000E+00 0.  1.
         21   -1    0    0  502  503 -0.00000000000E+00 -0.00000000000E+00 -0.33806890766E+03  0.33806890766E+03  0.00000000000E+00 0.  1.
          6    1    1    2  501    0  0.69163794396E+02  0.37181447719E+02 -0.13588889819E+03  0.23358271161E+03  0.17300000000E+03 0.  1.
         -6    1    1    2    0  503 -0.69163794396E+02 -0.37181447719E+02 -0.94482323218E+02  0.21218388231E+03  0.17300000000E+03 0.  1.
<mgrwt>
<rscale>  2 0.18998708E+03</rscale>
<asrwt>0</asrwt>
<pdfrwt beam="1">  1       21 0.16568875E-01 0.18998708E+03</pdfrwt>
<pdfrwt beam="2">  1       21 0.52010600E-01 0.18998708E+03</pdfrwt>
<totfact> 0.11487104E+05</totfact>
</mgrwt>
</event>
<event>
 4    1  0.4102458E+000  0.1898421E+03  0.7546771E-02  0.1158604E+00
         21   -1    0    0  501  502  0.00000000000E+00  0.00000000000E+00  0.86711788291E+03  0.86711788291E+03  0.00000000000E+00 0. -1.
         21   -1    0    0  502  503 -0.00000000000E+00 -0.00000000000E+00 -0.64856889756E+02  0.64856889756E+02  0.00000000000E+00 0. -1.
          6    1    1    2  501    0  0.77343133898E+02 -0.11361182838E+02  0.68039577025E+03  0.70638406055E+03  0.17300000000E+03 0. -1.
         -6    1    1    2    0  503 -0.77343133898E+02  0.11361182838E+02  0.12186522291E+03  0.22559071211E+03  0.17300000000E+03 0. -1.
<mgrwt>
<rscale>  2 0.18984214E+03</rscale>
<asrwt>0</asrwt>
<pdfrwt beam="1">  1       21 0.13340274E+00 0.18984214E+03</pdfrwt>
<pdfrwt beam="2">  1       21 0.99779836E-02 0.18984214E+03</pdfrwt>
<totfact> 0.33038288E+04</totfact>
</mgrwt>
</event>
<event>
 4    1  0.4102458E+000  0.1759853E+03  0.7546771E-02  0.1171746E+00
         21   -1    0    0  503  502  0.00000000000E+00  0.00000000000E+00  0.29084076253E+03  0.29084076253E+03  0.00000000000E+00 0.  1.
         21   -1    0    0  501  503 -0.00000000000E+00 -0.00000000000E+00 -0.10660668058E+03  0.10660668058E+03  0.00000000000E+00 0.  1.
          6    1    1    2  501    0  0.31923772392E+02 -0.47634540986E+01  0.85464147170E+02  0.19563981750E+03  0.17300000000E+03 0.  1.
         -6    1    1    2    0  502 -0.31923772392E+02  0.47634540986E+01  0.98769934777E+02  0.20180762561E+03  0.17300000000E+03 0.  1.
<mgrwt>
<rscale>  2 0.17598528E+03</rscale>
<asrwt>0</asrwt>
<pdfrwt beam="1">  1       21 0.44744732E-01 0.17598528E+03</pdfrwt>
<pdfrwt beam="2">  1       21 0.16401028E-01 0.17598528E+03</pdfrwt>
<totfact> 0.16060176E+05</totfact>
</mgrwt>
</event>
<event>
 4    1  0.4102458E+000  0.1863849E+03  0.7546771E-02  0.1161763E+00
         21   -1    0    0  503  502  0.00000000000E+00  0.00000000000E+00  0.10086052397E+03  0.10086052397E+03  0.00000000000E+00 0.  1.
         21   -1    0    0  501  503 -0.00000000000E+00 -0.00000000000E+00 -0.34483384378E+03  0.34483384378E+03  0.00000000000E+00 0. -1.
          6    1    1    2  501    0 -0.38211435208E+02 -0.57881188604E+02 -0.11435628309E+03  0.21867031179E+03  0.17300000000E+03 0.  1.
         -6    1    1    2    0  502  0.38211435208E+02  0.57881188604E+02 -0.12961703673E+03  0.22702405596E+03  0.17300000000E+03 0.  1.
<mgrwt>
<rscale>  2 0.18638494E+03</rscale>
<asrwt>0</asrwt>
<pdfrwt beam="1">  1       21 0.15517004E-01 0.18638494E+03</pdfrwt>
<pdfrwt beam="2">  1       21 0.53051361E-01 0.18638494E+03</pdfrwt>
<totfact> 0.12439728E+05</totfact>
</mgrwt>
</event>
<event>
 4    1  0.4102458E+000  0.1769952E+03  0.7546771E-02  0.1170743E+00
         21   -1    0    0  501  502  0.00000000000E+00  0.00000000000E+00  0.41366259098E+02  0.41366259098E+02  0.00000000000E+00 0. -1.
         21   -1    0    0  502  503 -0.00000000000E+00 -0.00000000000E+00 -0.90765858070E+03  0.90765858070E+03  0.00000000000E+00 0. -1.
          6    1    1    2  501    0  0.35777693051E+02  0.10874425770E+02 -0.24002560948E+03  0.29822741266E+03  0.17300000000E+03 0. -1.
         -6    1    1    2    0  503 -0.35777693051E+02 -0.10874425770E+02 -0.62626671213E+03  0.65079742714E+03  0.17300000000E+03 0. -1.
<mgrwt>
<rscale>  2 0.17699519E+03</rscale>
<asrwt>0</asrwt>
<pdfrwt beam="1">  1       21 0.63640404E-02 0.17699519E+03</pdfrwt>
<pdfrwt beam="2">  1       21 0.13963977E+00 0.17699519E+03</pdfrwt>
<totfact> 0.64725231E+04</totfact>
</mgrwt>
</event>
<event>
 4    1  0.4102458E+000  0.1880781E+03  0.7546771E-02  0.1160206E+00
         21   -1    0    0  503  502  0.00000000000E+00  0.00000000000E+00  0.14389064348E+03  0.14389064348E+03  0.00000000000E+00 0. -1.
         21   -1    0    0  501  503 -0.00000000000E+00 -0.00000000000E+00 -0.39103558799E+03  0.39103558799E+03  0.00000000000E+00 0. -1.
          6    1    1    2  501    0  0.63506128496E+02 -0.37567730453E+02 -0.28655456070E+03  0.34276359052E+03  0.17300000000E+03 0. -1.
         -6    1    1    2    0  502 -0.63506128496E+02  0.37567730453E+02  0.39409616194E+02  0.19216264095E+03  0.17300000000E+03 0. -1.
<mgrwt>
<rscale>  2 0.18807808E+03</rscale>
<asrwt>0</asrwt>
<pdfrwt beam="1">  1       21 0.22137022E-01 0.18807808E+03</pdfrwt>
<pdfrwt beam="2">  1       21 0.60159321E-01 0.18807808E+03</pdfrwt>
<totfact> 0.49262359E+04</totfact>
</mgrwt>
</event>
<event>
 4    1  0.4102458E+000  0.1811227E+03  0.7546771E-02  0.1166721E+00
         21   -1    0    0  503  502  0.00000000000E+00  0.00000000000E+00  0.42020271631E+03  0.42020271631E+03  0.00000000000E+00 0.  1.
         21   -1    0    0  501  503 -0.00000000000E+00 -0.00000000000E+00 -0.17466199882E+03  0.17466199882E+03  0.00000000000E+00 0.  1.
          6    1    1    2  501    0 -0.53461971253E+02 -0.42719615403E+01 -0.98416069318E+02  0.20613382722E+03  0.17300000000E+03 0.  1.
         -6    1    1    2    0  502  0.53461971253E+02  0.42719615403E+01  0.34395678680E+03  0.38873088791E+03  0.17300000000E+03 0.  1.
<mgrwt>
<rscale>  2 0.18112270E+03</rscale>
<asrwt>0</asrwt>
<pdfrwt beam="1">  1       21 0.64646572E-01 0.18112270E+03</pdfrwt>
<pdfrwt beam="2">  1       21 0.26871077E-01 0.18112270E+03</pdfrwt>
<totfact> 0.29274813E+04</totfact>
</mgrwt>
</event>
<event>
 4    1  0.4102458E+000  0.1958738E+03  0.7546771E-02  0.1153268E+00
         21   -1    0    0  503  502  0.00000000000E+00  0.00000000000E+00  0.71503316297E+02  0.71503316297E+02  0.00000000000E+00 0. -1.
         21   -1    0    0  501  503 -0.00000000000E+00 -0.00000000000E+00 -0.59492244317E+03  0.59492244317E+03  0.00000000000E+00 0. -1.
          6    1    1    2  501    0  0.70105983263E+02 -0.59352217716E+02 -0.36606645024E+03  0.41517608388E+03  0.17300000000E+03 0. -1.
         -6    1    1    2    0  502 -0.70105983263E+02  0.59352217716E+02 -0.15735267663E+03  0.25124967558E+03  0.17300000000E+03 0. -1.
<mgrwt>
<rscale>  2 0.19587377E+03</rscale>
<asrwt>0</asrwt>
<pdfrwt beam="1">  1       21 0.11000511E-01 0.19587377E+03</pdfrwt>
<pdfrwt beam="2">  1       21 0.91526525E-01 0.19587377E+03</pdfrwt>
<totfact> 0.69138030E+04</totfact>
</mgrwt>
</event>
<event>
 4    1  0.4102458E+000  0.1794833E+03  0.7546771E-02  0.1168304E+00
         21   -1    0    0  503  502  0.00000000000E+00  0.00000000000E+00  0.39569304950E+02  0.39569304950E+02  0.00000000000E+00 0. -1.
         21   -1    0    0  501  503 -0.00000000000E+00 -0.00000000000E+00 -0.10593681197E+04  0.10593681197E+04  0.00000000000E+00 0. -1.
          6    1    1    2  501    0 -0.47276733001E+02 -0.70831596502E+01 -0.77427427463E+03  0.79480495280E+03  0.17300000000E+03 0. -1.
         -6    1    1    2    0  502  0.47276733001E+02  0.70831596502E+01 -0.24552454010E+03  0.30413247184E+03  0.17300000000E+03 0. -1.
<mgrwt>
<rscale>  2 0.17948332E+03</rscale>
<asrwt>0</asrwt>
<pdfrwt beam="1">  1       21 0.60875859E-02 0.17948332E+03</pdfrwt>
<pdfrwt beam="2">  1       21 0.16297970E+00 0.17948332E+03</pdfrwt>
<totfact> 0.46417099E+04</totfact>
</mgrwt>
</event>
<event>
 4    1  0.4102458E+000  0.1745156E+03  0.7546771E-02  0.1173219E+00
         21   -1    0    0  501  502  0.00000000000E+00  0.00000000000E+00  0.13826118744E+04  0.13826118744E+04  0.00000000000E+00 0.  1.
         21   -1    0    0  502  503 -0.00000000000E+00 -0.00000000000E+00 -0.27765148119E+02  0.27765148119E+02  0.00000000000E+00 0.  1.
          6    1    1    2  501    0  0.20460024555E+02  0.10395860809E+02  0.99798874193E+03  0.10131323781E+04  0.17300000000E+03 0.  1.
         -6    1    1    2    0  503 -0.20460024555E+02 -0.10395860809E+02  0.35685798433E+03  0.39724464441E+03  0.17300000000E+03 0.  1.
<mgrwt>
<rscale>  2 0.17451558E+03</rscale>
<asrwt>0</asrwt>
<pdfrwt beam="1">  1       21 0.21270947E+00 0.17451558E+03</pdfrwt>
<pdfrwt beam="2">  1       21 0.42715623E-02 0.17451558E+03</pdfrwt>
<totfact> 0.39683436E+04</totfact>
</mgrwt>
</event>
<event>
 4    1  0.4102458E+000  0.2525217E+03  0.7546771E-02  0.1111721E+00
         21   -1    0    0  503  502  0.00000000000E+00  0.00000000000E+00  0.31878129107E+03  0.31878129107E+03  0.00000000000E+00 0. -1.
         21   -1    0    0  501  503 -0.00000000000E+00 -0.00000000000E+00 -0.43415416850E+03  0.43415416850E+03  0.00000000000E+00 0.  1.
          6    1    1    2  501    0 -0.18341159239E+03  0.14084934383E+02 -0.33414171823E+03  0.41882918410E+03  0.17300000000E+03 0.  1.
         -6    1    1    2    0  502  0.18341159239E+03 -0.14084934383E+02  0.21876884079E+03  0.33410627546E+03  0.17300000000E+03 0. -1.
<mgrwt>
<rscale>  2 0.25252168E+03</rscale>
<asrwt>0</asrwt>
<pdfrwt beam="1">  1       21 0.49043276E-01 0.25252168E+03</pdfrwt>
<pdfrwt beam="2">  1       21 0.66792948E-01 0.25252168E+03</pdfrwt>
<totfact> 0.78376547E+03</totfact>
</mgrwt>
</event>
<event>
 4    1  0.4102458E+000  0.2634339E+03  0.7546771E-02  0.1105097E+00
         21   -1    0    0  501  502  0.00000000000E+00  0.00000000000E+00  0.64333094344E+03  0.64333094344E+03  0.00000000000E+00 0. -1.
         21   -1    0    0  502  503 -0.00000000000E+00 -0.00000000000E+00 -0.28002049092E+03  0.28002049092E+03  0.00000000000E+00 0.  1.
          6    1    1    2  501    0 -0.91094943768E+02 -0.17655068156E+03  0.54364280198E+03  0.60410671912E+03  0.17300000000E+03 0. -1.
         -6    1    1    2    0  503  0.91094943768E+02  0.17655068156E+03 -0.18033234946E+03  0.31924471523E+03  0.17300000000E+03 0.  1.
<mgrwt>
<rscale>  2 0.26343392E+03</rscale>
<asrwt>0</asrwt>
<pdfrwt beam="1">  1       21 0.98973991E-01 0.26343392E+03</pdfrwt>
<pdfrwt beam="2">  1       21 0.43080076E-01 0.26343392E+03</pdfrwt>
<totfact> 0.41442731E+03</totfact>
</mgrwt>
</event>
<event>
 4    1  0.4102458E+000  0.2480125E+03  0.7546771E-02  0.1114567E+00
         21   -1    0    0  503  502  0.00000000000E+00  0.00000000000E+00  0.97739126853E+02  0.97739126853E+02  0.00000000000E+00 0. -1.
         21   -1    0    0  501  503 -0.00000000000E+00 -0.00000000000E+00 -0.68348015622E+03  0.68348015622E+03  0.00000000000E+00 0. -1.
          6    1    1    2  501    0  0.19383255780E+02  0.17665080406E+03 -0.40281607775E+03  0.47304440560E+03  0.17300000000E+03 0. -1.
         -6    1    1    2    0  502 -0.19383255780E+02 -0.17665080406E+03 -0.18292495162E+03  0.30817487747E+03  0.17300000000E+03 0. -1.
<mgrwt>
<rscale>  2 0.24801253E+03</rscale>
<asrwt>0</asrwt>
<pdfrwt beam="1">  1       21 0.15036789E-01 0.24801253E+03</pdfrwt>
<pdfrwt beam="2">  1       21 0.10515079E+00 0.24801253E+03</pdfrwt>
<totfact> 0.27603772E+04</totfact>
</mgrwt>
</event>
<event>
 4    1  0.4102458E+000  0.1730645E+03  0.7546771E-02  0.1174689E+00
         21   -1    0    0  501  502  0.00000000000E+00  0.00000000000E+00  0.30475085470E+03  0.30475085470E+03  0.00000000000E+00 0. -1.
         21   -1    0    0  502  503 -0.00000000000E+00 -0.00000000000E+00 -0.10064789521E+03  0.10064789521E+03  0.00000000000E+00 0. -1.
          6    1    1    2  501    0 -0.46360318010E+01 -0.91540724096E+00  0.13313325771E+03  0.21834787626E+03  0.17300000000E+03 0. -1.
         -6    1    1    2    0  503  0.46360318010E+01  0.91540724096E+00  0.70969701780E+02  0.18705087365E+03  0.17300000000E+03 0. -1.
<mgrwt>
<rscale>  2 0.17306453E+03</rscale>
<asrwt>0</asrwt>
<pdfrwt beam="1">  1       21 0.46884747E-01 0.17306453E+03</pdfrwt>
<pdfrwt beam="2">  1       21 0.15484292E-01 0.17306453E+03</pdfrwt>
<totfact> 0.16221936E+05</totfact>
</mgrwt>
</event>
<event>
 4    1  0.4102458E+000  0.4815218E+03  0.7546771E-02  0.1018718E+00
         21   -1    0    0  503  502  0.00000000000E+00  0.00000000000E+00  0.22209719617E+03  0.22209719617E+03  0.00000000000E+00 0. -1.
         21   -1    0    0  501  503 -0.00000000000E+00 -0.00000000000E+00 -0.10981321730E+04  0.10981321730E+04  0.00000000000E+00 0.  1.
          6    1    1    2  501    0 -0.32978503675E+03  0.30524762273E+03 -0.58461669174E+03  0.75739022829E+03  0.17300000000E+03 0.  1.
         -6    1    1    2    0  502  0.32978503675E+03 -0.30524762273E+03 -0.29141828514E+03  0.56283914093E+03  0.17300000000E+03 0. -1.
<mgrwt>
<rscale>  2 0.48152184E+03</rscale>
<asrwt>0</asrwt>
<pdfrwt beam="1">  1       21 0.34168800E-01 0.48152184E+03</pdfrwt>
<pdfrwt beam="2">  1       21 0.16894341E+00 0.48152184E+03</pdfrwt>
<totfact> 0.14999484E+03</totfact>
</mgrwt>
</event>
<event>
 4    1  0.4102458E+000  0.1973926E+03  0.7546771E-02  0.1151958E+00
         21   -1    0    0  501  502  0.00000000000E+00  0.00000000000E+00  0.12335053832E+02  0.12335053832E+02  0.00000000000E+00 0. -1.
         21   -1    0    0  502  503 -0.00000000000E+00 -0.00000000000E+00 -0.32976109991E+04  0.32976109991E+04  0.00000000000E+00 0. -1.
          6    1    1    2  501    0 -0.89059509174E+02 -0.33214834125E+02 -0.13030738892E+04  0.13179398249E+04  0.17300000000E+03 0. -1.
         -6    1    1    2    0  503  0.89059509174E+02  0.33214834125E+02 -0.19822020561E+04  0.19920062281E+04  0.17300000000E+03 0. -1.
<mgrwt>
<rscale>  2 0.19739256E+03</rscale>
<asrwt>0</asrwt>
<pdfrwt beam="1">  1       21 0.18977007E-02 0.19739256E+03</pdfrwt>
<pdfrwt beam="2">  1       21 0.50732473E+00 0.19739256E+03</pdfrwt>
<totfact> 0.22365027E+03</totfact>
</mgrwt>
</event>
<event>
 4    1  0.4102458E+000  0.1922620E+03  0.7546771E-02  0.1156437E+00
         21   -1    0    0  503  502  0.00000000000E+00  0.00000000000E+00  0.11270808224E+04  0.11270808224E+04  0.00000000000E+00 0. -1.
         21   -1    0    0  501  503 -0.00000000000E+00 -0.00000000000E+00 -0.33984483324E+02  0.33984483324E+02  0.00000000000E+00 0. -1.
          6    1    1    2  501    0  0.75295762192E+02  0.36962568914E+02  0.43802303799E+03  0.47836060155E+03  0.17300000000E+03 0. -1.
         -6    1    1    2    0  502 -0.75295762192E+02 -0.36962568914E+02  0.65507330107E+03  0.68270470416E+03  0.17300000000E+03 0. -1.
<mgrwt>
<rscale>  2 0.19226202E+03</rscale>
<asrwt>0</asrwt>
<pdfrwt beam="1">  1       21 0.17339702E+00 0.19226202E+03</pdfrwt>
<pdfrwt beam="2">  1       21 0.52283829E-02 0.19226202E+03</pdfrwt>
<totfact> 0.50391225E+04</totfact>
</mgrwt>
</event>
<event>
 4    1  0.4102458E+000  0.1734637E+03  0.7546771E-02  0.1174283E+00
         21   -1    0    0  503  502  0.00000000000E+00  0.00000000000E+00  0.18301293476E+03  0.18301293476E+03  0.00000000000E+00 0.  1.
         21   -1    0    0  501  503 -0.00000000000E+00 -0.00000000000E+00 -0.28499018502E+03  0.28499018502E+03  0.00000000000E+00 0.  1.
          6    1    1    2  501    0  0.11277122924E+02 -0.57868129251E+01 -0.20319639171E+03  0.26716742748E+03  0.17300000000E+03 0.  1.
         -6    1    1    2    0  502 -0.11277122924E+02  0.57868129251E+01  0.10121914144E+03  0.20083569229E+03  0.17300000000E+03 0.  1.
<mgrwt>
<rscale>  2 0.17346372E+03</rscale>
<asrwt>0</asrwt>
<pdfrwt beam="1">  1       21 0.28155836E-01 0.17346372E+03</pdfrwt>
<pdfrwt beam="2">  1       21 0.43844644E-01 0.17346372E+03</pdfrwt>
<totfact> 0.60767451E+04</totfact>
</mgrwt>
</event>
<event>
 4    1  0.4102458E+000  0.2085542E+03  0.7546771E-02  0.1142716E+00
         21   -1    0    0  501  502  0.00000000000E+00  0.00000000000E+00  0.11075064962E+03  0.11075064962E+03  0.00000000000E+00 0.  1.
         21   -1    0    0  502  503 -0.00000000000E+00 -0.00000000000E+00 -0.64706428010E+03  0.64706428010E+03  0.00000000000E+00 0.  1.
          6    1    1    2  501    0  0.31017560064E+01 -0.11643120310E+03 -0.30601978630E+02  0.21078739773E+03  0.17300000000E+03 0.  1.
         -6    1    1    2    0  503 -0.31017560064E+01  0.11643120310E+03 -0.50571165184E+03  0.54702753199E+03  0.17300000000E+03 0.  1.
<mgrwt>
<rscale>  2 0.20855418E+03</rscale>
<asrwt>0</asrwt>
<pdfrwt beam="1">  1       21 0.17038562E-01 0.20855418E+03</pdfrwt>
<pdfrwt beam="2">  1       21 0.99548350E-01 0.20855418E+03</pdfrwt>
<totfact> 0.25540466E+04</totfact>
</mgrwt>
</event>
<event>
 4    1  0.4102458E+000  0.1870593E+03  0.7546771E-02  0.1161141E+00
         21   -1    0    0  501  502  0.00000000000E+00  0.00000000000E+00  0.25607837499E+03  0.25607837499E+03  0.00000000000E+00 0.  1.
         21   -1    0    0  502  503 -0.00000000000E+00 -0.00000000000E+00 -0.15311215040E+03  0.15311215040E+03  0.00000000000E+00 0.  1.
          6    1    1    2  501    0  0.42990251809E+02  0.56692427457E+02  0.11858469192E+03  0.22148029763E+03  0.17300000000E+03 0.  1.
         -6    1    1    2    0  503 -0.42990251809E+02 -0.56692427457E+02 -0.15618467329E+02  0.18771022775E+03  0.17300000000E+03 0.  1.
<mgrwt>
<rscale>  2 0.18705933E+03</rscale>
<asrwt>0</asrwt>
<pdfrwt beam="1">  1       21 0.39396673E-01 0.18705933E+03</pdfrwt>
<pdfrwt beam="2">  1       21 0.23555715E-01 0.18705933E+03</pdfrwt>
<totfact> 0.10557883E+05</totfact>
</mgrwt>
</event>
<event>
 4    1  0.4102458E+000  0.3041659E+03  0.7546771E-02  0.1083176E+00
         21   -1    0    0  503  502  0.00000000000E+00  0.00000000000E+00  0.76583073582E+03  0.76583073582E+03  0.00000000000E+00 0.  1.
         21   -1    0    0  501  503 -0.00000000000E+00 -0.00000000000E+00 -0.14857954326E+03  0.14857954326E+03  0.00000000000E+00 0. -1.
          6    1    1    2  501    0 -0.24990464151E+03 -0.11642774707E+02  0.11095235188E+03  0.32377045640E+03  0.17300000000E+03 0. -1.
         -6    1    1    2    0  502  0.24990464151E+03  0.11642774707E+02  0.50629884069E+03  0.59063982268E+03  0.17300000000E+03 0. -1.
<mgrwt>
<rscale>  2 0.30416588E+03</rscale>
<asrwt>0</asrwt>
<pdfrwt beam="1">  1       21 0.11782011E+00 0.30416588E+03</pdfrwt>
<pdfrwt beam="2">  1       21 0.22858392E-01 0.30416588E+03</pdfrwt>
<totfact> 0.92908058E+03</totfact>
</mgrwt>
</event>
<event>
 4    1  0.4102458E+000  0.1840175E+03  0.7546771E-02  0.1163971E+00
         21   -1    0    0  503  502  0.00000000000E+00  0.00000000000E+00  0.76343577194E+02  0.76343577194E+02  0.00000000000E+00 0.  1.
         21   -1    0    0  501  503 -0.00000000000E+00 -0.00000000000E+00 -0.50014325933E+03  0.50014325933E+03  0.00000000000E+00 0.  1.
          6    1    1    2  501    0  0.53161026241E+01 -0.62491511515E+02 -0.30885739740E+03  0.35952098949E+03  0.17300000000E+03 0.  1.
         -6    1    1    2    0  502 -0.53161026241E+01  0.62491511515E+02 -0.11494228475E+03  0.21696584704E+03  0.17300000000E+03 0.  1.
<mgrwt>
<rscale>  2 0.18401753E+03</rscale>
<asrwt>0</asrwt>
<pdfrwt beam="1">  1       21 0.11745166E-01 0.18401753E+03</pdfrwt>
<pdfrwt beam="2">  1       21 0.76945113E-01 0.18401753E+03</pdfrwt>
<totfact> 0.91867808E+04</totfact>
</mgrwt>
</event>
<event>
 4    1  0.4102458E+000  0.2869667E+03  0.7546771E-02  0.1091944E+00
         21   -1    0    0  503  502  0.00000000000E+00  0.00000000000E+00  0.12413714361E+03  0.12413714361E+03  0.00000000000E+00 0.  1.
         21   -1    0    0  501  503 -0.00000000000E+00 -0.00000000000E+00 -0.73420713701E+03  0.73420713701E+03  0.00000000000E+00 0. -1.
          6    1    1    2  501    0  0.22384111968E+02 -0.22785924510E+03 -0.43833413954E+03  0.52391478499E+03  0.17300000000E+03 0. -1.
         -6    1    1    2    0  502 -0.22384111968E+02  0.22785924510E+03 -0.17173585385E+03  0.33442949562E+03  0.17300000000E+03 0.  1.
<mgrwt>
<rscale>  2 0.28696670E+03</rscale>
<asrwt>0</asrwt>
<pdfrwt beam="1">  1       21 0.19098022E-01 0.28696670E+03</pdfrwt>
<pdfrwt beam="2">  1       21 0.11295495E+00 0.28696670E+03</pdfrwt>
<totfact> 0.14610672E+04</totfact>
</mgrwt>
</event>
<event>
 4    1  0.4102458E+000  0.1733685E+03  0.7546771E-02  0.1174380E+00
         21   -1    0    0  503  502  0.00000000000E+00  0.00000000000E+00  0.10044983995E+04  0.10044983995E+04  0.00000000000E+00 0. -1.
         21   -1    0    0  501  503 -0.00000000000E+00 -0.00000000000E+00 -0.63115046231E+02  0.63115046231E+02  0.00000000000E+00 0. -1.
          6    1    1    2  501    0  0.19372592464E+01  0.11130348141E+02  0.83575870314E+02  0.19246185004E+03  0.17300000000E+03 0. -1.
         -6    1    1    2    0  502 -0.19372592464E+01 -0.11130348141E+02  0.85780748299E+03  0.87515159572E+03  0.17300000000E+03 0. -1.
<mgrwt>
<rscale>  2 0.17336850E+03</rscale>
<asrwt>0</asrwt>
<pdfrwt beam="1">  1       21 0.15453820E+00 0.17336850E+03</pdfrwt>
<pdfrwt beam="2">  1       21 0.97100079E-02 0.17336850E+03</pdfrwt>
<totfact> 0.23919869E+04</totfact>
</mgrwt>
</event>
<event>
 4    1  0.4102458E+000  0.1754335E+03  0.7546771E-02  0.1172297E+00
         21   -1    0    0  501  502  0.00000000000E+00  0.00000000000E+00  0.24527146753E+02  0.24527146753E+02  0.00000000000E+00 0. -1.
         21   -1    0    0  502  503 -0.00000000000E+00 -0.00000000000E+00 -0.14639113962E+04  0.14639113962E+04  0.00000000000E+00 0. -1.
          6    1    1    2  501    0  0.46126796946E+01  0.28750978033E+02 -0.43842268216E+03  0.47221959276E+03  0.17300000000E+03 0. -1.
         -6    1    1    2    0  503 -0.46126796946E+01 -0.28750978033E+02 -0.10009615673E+04  0.10162189502E+04  0.17300000000E+03 0. -1.
<mgrwt>
<rscale>  2 0.17543345E+03</rscale>
<asrwt>0</asrwt>
<pdfrwt beam="1">  1       21 0.37734081E-02 0.17543345E+03</pdfrwt>
<pdfrwt beam="2">  1       21 0.22521709E+00 0.17543345E+03</pdfrwt>
<totfact> 0.40914260E+04</totfact>
</mgrwt>
</event>
<event>
 4    1  0.4102458E+000  0.1734497E+03  0.7546771E-02  0.1174297E+00
         21   -1    0    0  503  502  0.00000000000E+00  0.00000000000E+00  0.13125634208E+04  0.13125634208E+04  0.00000000000E+00 0. -1.
         21   -1    0    0  501  503 -0.00000000000E+00 -0.00000000000E+00 -0.23105402158E+02  0.23105402158E+02  0.00000000000E+00 0. -1.
          6    1    1    2  501    0 -0.10501203205E+02  0.67464508433E+01  0.58500871738E+03  0.61018029244E+03  0.17300000000E+03 0.  1.
         -6    1    1    2    0  502  0.10501203205E+02 -0.67464508433E+01  0.70444930123E+03  0.72548853049E+03  0.17300000000E+03 0.  1.
<mgrwt>
<rscale>  2 0.17344968E+03</rscale>
<asrwt>0</asrwt>
<pdfrwt beam="1">  1       21 0.20193278E+00 0.17344968E+03</pdfrwt>
<pdfrwt beam="2">  1       21 0.35546783E-02 0.17344968E+03</pdfrwt>
<totfact> 0.63066908E+04</totfact>
</mgrwt>
</event>
<event>
 4    1  0.4102458E+000  0.1851006E+03  0.7546771E-02  0.1162956E+00
         21   -1    0    0  503  502  0.00000000000E+00  0.00000000000E+00  0.10345435116E+04  0.10345435116E+04  0.00000000000E+00 0.  1.
         21   -1    0    0  501  503 -0.00000000000E+00 -0.00000000000E+00 -0.33344889974E+02  0.33344889974E+02  0.00000000000E+00 0. -1.
          6    1    1    2  501    0  0.10412510729E+01  0.65818931951E+02  0.45657423758E+03  0.49266849953E+03  0.17300000000E+03 0. -1.
         -6    1    1    2    0  502 -0.10412510729E+01 -0.65818931951E+02  0.54462438401E+03  0.57521990201E+03  0.17300000000E+03 0.  1.
<mgrwt>
<rscale>  2 0.18510056E+03</rscale>
<asrwt>0</asrwt>
<pdfrwt beam="1">  1       21 0.15916052E+00 0.18510056E+03</pdfrwt>
<pdfrwt beam="2">  1       21 0.51299839E-02 0.18510056E+03</pdfrwt>
<totfact> 0.66012746E+04</totfact>
</mgrwt>
</event>
<event>
 4    1  0.4102458E+000  0.2832668E+03  0.7546771E-02  0.1093918E+00
         21   -1    0    0  501  502  0.00000000000E+00  0.00000000000E+00  0.43433916661E+03  0.43433916661E+03  0.00000000000E+00 0.  1.
         21   -1    0    0  502  503 -0.00000000000E+00 -0.00000000000E+00 -0.18643226263E+03  0.18643226263E+03  0.00000000000E+00 0.  1.
          6    1    1    2  501    0 -0.22429623641E+03  0.15119730435E+01  0.15351963525E+03  0.32219305724E+03  0.17300000000E+03 0.  1.
         -6    1    1    2    0  503  0.22429623641E+03 -0.15119730435E+01  0.94387268723E+02  0.29857837200E+03  0.17300000000E+03 0.  1.
<mgrwt>
<rscale>  2 0.28326681E+03</rscale>
<asrwt>0</asrwt>
<pdfrwt beam="1">  1       21 0.66821410E-01 0.28326681E+03</pdfrwt>
<pdfrwt beam="2">  1       21 0.28681887E-01 0.28326681E+03</pdfrwt>
<totfact> 0.22807485E+04</totfact>
</mgrwt>
</event>
<event>
 4    1  0.4102458E+000  0.2274064E+03  0.7546771E-02  0.1128479E+00
         21   -1    0    0  503  502  0.00000000000E+00  0.00000000000E+00  0.38270964155E+03  0.38270964155E+03  0.00000000000E+00 0.  1.
         21   -1    0    0  501  503 -0.00000000000E+00 -0.00000000000E+00 -0.13593804469E+03  0.13593804469E+03  0.00000000000E+00 0. -1.
          6    1    1    2  501    0  0.45952406874E+02  0.14026059966E+03  0.14344047902E+03  0.26886582255E+03  0.17300000000E+03 0. -1.
         -6    1    1    2    0  502 -0.45952406874E+02 -0.14026059966E+03  0.10333111785E+03  0.24978186369E+03  0.17300000000E+03 0. -1.
<mgrwt>
<rscale>  2 0.22740638E+03</rscale>
<asrwt>0</asrwt>
<pdfrwt beam="1">  1       21 0.58878406E-01 0.22740638E+03</pdfrwt>
<pdfrwt beam="2">  1       21 0.20913545E-01 0.22740638E+03</pdfrwt>
<totfact> 0.56386784E+04</totfact>
</mgrwt>
</event>
<event>
 4    1  0.4102458E+000  0.1844736E+03  0.7546771E-02  0.1163542E+00
         21   -1    0    0  503  502  0.00000000000E+00  0.00000000000E+00  0.34251336858E+03  0.34251336858E+03  0.00000000000E+00 0. -1.
         21   -1    0    0  501  503 -0.00000000000E+00 -0.00000000000E+00 -0.10054832097E+03  0.10054832097E+03  0.00000000000E+00 0.  1.
          6    1    1    2  501    0 -0.54176347914E+02  0.34152850860E+02  0.96851047053E+02  0.20835215192E+03  0.17300000000E+03 0.  1.
         -6    1    1    2    0  502  0.54176347914E+02 -0.34152850860E+02  0.14511400056E+03  0.23470953763E+03  0.17300000000E+03 0. -1.
<mgrwt>
<rscale>  2 0.18447356E+03</rscale>
<asrwt>0</asrwt>
<pdfrwt beam="1">  1       21 0.52694364E-01 0.18447356E+03</pdfrwt>
<pdfrwt beam="2">  1       21 0.15468973E-01 0.18447356E+03</pdfrwt>
<totfact> 0.12697371E+05</totfact>
</mgrwt>
</event>
<event>
 4    1  0.4102458E+000  0.1752924E+03  0.7546771E-02  0.1172438E+00
         21   -1    0    0  503  502  0.00000000000E+00  0.00000000000E+00  0.12394192523E+03  0.12394192523E+03  0.00000000000E+00 0. -1.
         21   -1    0    0  501  503 -0.00000000000E+00 -0.00000000000E+00 -0.28783685299E+03  0.28783685299E+03  0.00000000000E+00 0. -1.
          6    1    1    2  501    0 -0.21785730411E+02  0.17994207791E+02 -0.15862195024E+03  0.23640713327E+03  0.17300000000E+03 0. -1.
         -6    1    1    2    0  502  0.21785730411E+02 -0.17994207791E+02 -0.52729775221E+01  0.17537164496E+03  0.17300000000E+03 0. -1.
<mgrwt>
<rscale>  2 0.17529235E+03</rscale>
<asrwt>0</asrwt>
<pdfrwt beam="1">  1       21 0.19067989E-01 0.17529235E+03</pdfrwt>
<pdfrwt beam="2">  1       21 0.44282592E-01 0.17529235E+03</pdfrwt>
<totfact> 0.12432027E+05</totfact>
</mgrwt>
</event>
<event>
 4    1  0.4102458E+000  0.2283168E+03  0.7546771E-02  0.1127830E+00
         21   -1    0    0  503  502  0.00000000000E+00  0.00000000000E+00  0.83808394574E+03  0.83808394574E+03  0.00000000000E+00 0. -1.
         21   -1    0    0  501  503 -0.00000000000E+00 -0.00000000000E+00 -0.72675298049E+02  0.72675298049E+02  0.00000000000E+00 0.  1.
          6    1    1    2  501    0  0.10964092434E+03 -0.10088823453E+03  0.20981441710E+03  0.31008169533E+03  0.17300000000E+03 0.  1.
         -6    1    1    2    0  502 -0.10964092434E+03  0.10088823453E+03  0.55559423059E+03  0.60067754846E+03  0.17300000000E+03 0. -1.
<mgrwt>
<rscale>  2 0.22831682E+03</rscale>
<asrwt>0</asrwt>
<pdfrwt beam="1">  1       21 0.12893599E+00 0.22831682E+03</pdfrwt>
<pdfrwt beam="2">  1       21 0.11180816E-01 0.22831682E+03</pdfrwt>
<totfact> 0.28780506E+04</totfact>
</mgrwt>
</event>
<event>
 4    1  0.4102458E+000  0.2164819E+03  0.7546771E-02  0.1136533E+00
         21   -1    0    0  503  502  0.00000000000E+00  0.00000000000E+00  0.85599156981E+03  0.85599156981E+03  0.00000000000E+00 0. -1.
         21   -1    0    0  501  503 -0.00000000000E+00 -0.00000000000E+00 -0.12556415208E+03  0.12556415208E+03  0.00000000000E+00 0. -1.
          6    1    1    2  501    0 -0.82925410842E+02  0.10029355814E+03 -0.33530469632E+01  0.21650788552E+03  0.17300000000E+03 0. -1.
         -6    1    1    2    0  502  0.82925410842E+02 -0.10029355814E+03  0.73378046469E+03  0.76504783637E+03  0.17300000000E+03 0. -1.
<mgrwt>
<rscale>  2 0.21648192E+03</rscale>
<asrwt>0</asrwt>
<pdfrwt beam="1">  1       21 0.13169101E+00 0.21648192E+03</pdfrwt>
<pdfrwt beam="2">  1       21 0.19317562E-01 0.21648192E+03</pdfrwt>
<totfact> 0.10129526E+04</totfact>
</mgrwt>
</event>
<event>
 4    1  0.4102458E+000  0.2702178E+03  0.7546771E-02  0.1101155E+00
         21   -1    0    0  501  502  0.00000000000E+00  0.00000000000E+00  0.10088939043E+04  0.10088939043E+04  0.00000000000E+00 0.  1.
         21   -1    0    0  502  503 -0.00000000000E+00 -0.00000000000E+00 -0.75294435968E+02  0.75294435968E+02  0.00000000000E+00 0. -1.
          6    1    1    2  501    0 -0.46835441854E+02  0.20222531693E+03  0.36003672053E+03  0.45016005770E+03  0.17300000000E+03 0.  1.
         -6    1    1    2    0  503  0.46835441854E+02 -0.20222531693E+03  0.57356274778E+03  0.63402828254E+03  0.17300000000E+03 0. -1.
<mgrwt>
<rscale>  2 0.27021776E+03</rscale>
<asrwt>0</asrwt>
<pdfrwt beam="1">  1       21 0.15521444E+00 0.27021776E+03</pdfrwt>
<pdfrwt beam="2">  1       21 0.11583760E-01 0.27021776E+03</pdfrwt>
<totfact> 0.16275183E+04</totfact>
</mgrwt>
</event>
<event>
 4    1  0.4102458E+000  0.1879781E+03  0.7546771E-02  0.1160298E+00
         21   -1    0    0  503  502  0.00000000000E+00  0.00000000000E+00  0.30467383275E+03  0.30467383275E+03  0.00000000000E+00 0.  1.
         21   -1    0    0  501  503 -0.00000000000E+00 -0.00000000000E+00 -0.11965742177E+03  0.11965742177E+03  0.00000000000E+00 0. -1.
          6    1    1    2  501    0 -0.68337657973E+02  0.27143003524E+02  0.55308996744E+02  0.19594607232E+03  0.17300000000E+03 0. -1.
         -6    1    1    2    0  502  0.68337657973E+02 -0.27143003524E+02  0.12970741424E+03  0.22838518220E+03  0.17300000000E+03 0. -1.
<mgrwt>
<rscale>  2 0.18797813E+03</rscale>
<asrwt>0</asrwt>
<pdfrwt beam="1">  1       21 0.46872897E-01 0.18797813E+03</pdfrwt>
<pdfrwt beam="2">  1       21 0.18408834E-01 0.18797813E+03</pdfrwt>
<totfact> 0.11754013E+05</totfact>
</mgrwt>
</event>
<event>
 4    1  0.4102458E+000  0.2349559E+03  0.7546771E-02  0.1123199E+00
         21   -1    0    0  501  502  0.00000000000E+00  0.00000000000E+00  0.15173867877E+03  0.15173867877E+03  0.00000000000E+00 0. -1.
         21   -1    0    0  502  503 -0.00000000000E+00 -0.00000000000E+00 -0.99917903077E+03  0.99917903077E+03  0.00000000000E+00 0. -1.
          6    1    1    2  501    0  0.15413232685E+03  0.38967893489E+02  0.35166177136E+02  0.23757300124E+03  0.17300000000E+03 0. -1.
         -6    1    1    2    0  503 -0.15413232685E+03 -0.38967893489E+02 -0.88260652913E+03  0.91334470830E+03  0.17300000000E+03 0. -1.
<mgrwt>
<rscale>  2 0.23495589E+03</rscale>
<asrwt>0</asrwt>
<pdfrwt beam="1">  1       21 0.23344413E-01 0.23495589E+03</pdfrwt>
<pdfrwt beam="2">  1       21 0.15371985E+00 0.23495589E+03</pdfrwt>
<totfact> 0.46742460E+03</totfact>
</mgrwt>
</event>
<event>
 4    1  0.4102458E+000  0.1932791E+03  0.7546771E-02  0.1155537E+00
         21   -1    0    0  501  502  0.00000000000E+00  0.00000000000E+00  0.10884135731E+03  0.10884135731E+03  0.00000000000E+00 0. -1.
         21   -1    0    0  502  503 -0.00000000000E+00 -0.00000000000E+00 -0.36848168332E+03  0.36848168332E+03  0.00000000000E+00 0.  1.
          6    1    1    2  501    0  0.84505281146E+02 -0.16930700854E+02 -0.67333832992E+02  0.20467202114E+03  0.17300000000E+03 0. -1.
         -6    1    1    2    0  503 -0.84505281146E+02  0.16930700854E+02 -0.19230649301E+03  0.27265101949E+03  0.17300000000E+03 0.  1.
<mgrwt>
<rscale>  2 0.19327905E+03</rscale>
<asrwt>0</asrwt>
<pdfrwt beam="1">  1       21 0.16744824E-01 0.19327905E+03</pdfrwt>
<pdfrwt beam="2">  1       21 0.56689489E-01 0.19327905E+03</pdfrwt>
<totfact> 0.93817780E+04</totfact>
</mgrwt>
</event>
<event>
 4    1  0.4102458E+000  0.2129592E+03  0.7546771E-02  0.1139244E+00
         21   -1    0    0  503  502  0.00000000000E+00  0.00000000000E+00  0.31482130619E+03  0.31482130619E+03  0.00000000000E+00 0.  1.
         21   -1    0    0  501  503 -0.00000000000E+00 -0.00000000000E+00 -0.31847471925E+03  0.31847471925E+03  0.00000000000E+00 0.  1.
          6    1    1    2  501    0 -0.12286076072E+03  0.18106779391E+02 -0.23616157935E+03  0.31799986407E+03  0.17300000000E+03 0.  1.
         -6    1    1    2    0  502  0.12286076072E+03 -0.18106779391E+02  0.23250816628E+03  0.31529616137E+03  0.17300000000E+03 0.  1.
<mgrwt>
<rscale>  2 0.21295920E+03</rscale>
<asrwt>0</asrwt>
<pdfrwt beam="1">  1       21 0.48434048E-01 0.21295920E+03</pdfrwt>
<pdfrwt beam="2">  1       21 0.48996110E-01 0.21295920E+03</pdfrwt>
<totfact> 0.15980132E+04</totfact>
</mgrwt>
</event>
<event>
 4    1  0.4102458E+000  0.2789355E+03  0.7546771E-02  0.1096272E+00
         21   -1    0    0  501  502  0.00000000000E+00  0.00000000000E+00  0.77778760771E+02  0.77778760771E+02  0.00000000000E+00 0.  1.
         21   -1    0    0  502  503 -0.00000000000E+00 -0.00000000000E+00 -0.13308406813E+04  0.13308406813E+04  0.00000000000E+00 0. -1.
          6    1    1    2  501    0 -0.20689988281E+03 -0.71193206346E+02 -0.27554618678E+03  0.39208511217E+03  0.17300000000E+03 0.  1.
         -6    1    1    2    0  503  0.20689988281E+03  0.71193206346E+02 -0.97751573377E+03  0.10165343299E+04  0.17300000000E+03 0. -1.
<mgrwt>
<rscale>  2 0.27893554E+03</rscale>
<asrwt>0</asrwt>
<pdfrwt beam="1">  1       21 0.11965964E-01 0.27893554E+03</pdfrwt>
<pdfrwt beam="2">  1       21 0.20474470E+00 0.27893554E+03</pdfrwt>
<totfact> 0.69195785E+03</totfact>
</mgrwt>
</event>
<event>
 4    1  0.4102458E+000  0.2638403E+03  0.7546771E-02  0.1104858E+00
         21   -1    0    0  503  502  0.00000000000E+00  0.00000000000E+00  0.13122782177E+03  0.13122782177E+03  0.00000000000E+00 0.  1.
         21   -1    0    0  501  503 -0.00000000000E+00 -0.00000000000E+00 -0.74696775772E+03  0.74696775772E+03  0.00000000000E+00 0.  1.
          6    1    1    2  501    0  0.15294826688E+03  0.12763050343E+03 -0.54426721337E+03  0.60484586242E+03  0.17300000000E+03 0.  1.
         -6    1    1    2    0  502 -0.15294826688E+03 -0.12763050343E+03 -0.71472722577E+02  0.27334971706E+03  0.17300000000E+03 0.  1.
<mgrwt>
<rscale>  2 0.26384033E+03</rscale>
<asrwt>0</asrwt>
<pdfrwt beam="1">  1       21 0.20188896E-01 0.26384033E+03</pdfrwt>
<pdfrwt beam="2">  1       21 0.11491812E+00 0.26384033E+03</pdfrwt>
<totfact> 0.12759228E+04</totfact>
</mgrwt>
</event>
<event>
 4    1  0.4102458E+000  0.1831672E+03  0.7546771E-02  0.1164772E+00
         21   -1    0    0  503  502  0.00000000000E+00  0.00000000000E+00  0.54289007240E+03  0.54289007240E+03  0.00000000000E+00 0.  1.
         21   -1    0    0  501  503 -0.00000000000E+00 -0.00000000000E+00 -0.79987497407E+02  0.79987497407E+02  0.00000000000E+00 0.  1.
          6    1    1    2  501    0  0.60139370989E+02 -0.21204352583E+01  0.82941126384E+02  0.20107081000E+03  0.17300000000E+03 0.  1.
         -6    1    1    2    0  502 -0.60139370989E+02  0.21204352583E+01  0.37996144861E+03  0.42180675981E+03  0.17300000000E+03 0.  1.
<mgrwt>
<rscale>  2 0.18316725E+03</rscale>
<asrwt>0</asrwt>
<pdfrwt beam="1">  1       21 0.83521547E-01 0.18316725E+03</pdfrwt>
<pdfrwt beam="2">  1       21 0.12305769E-01 0.18316725E+03</pdfrwt>
<totfact> 0.70258917E+04</totfact>
</mgrwt>
</event>
<event>
 4    1  0.4102458E+000  0.3048866E+03  0.7546771E-02  0.1082823E+00
         21   -1    0    0  503  502  0.00000000000E+00  0.00000000000E+00  0.14007615222E+03  0.14007615222E+03  0.00000000000E+00 0. -1.
         21   -1    0    0  501  503 -0.00000000000E+00 -0.00000000000E+00 -0.12027636457E+04  0.12027636457E+04  0.00000000000E+00 0. -1.
          6    1    1    2  501    0 -0.15580157369E+03 -0.19685712239E+03 -0.98087569281E+03  0.10271674555E+04  0.17300000000E+03 0. -1.
         -6    1    1    2    0  502  0.15580157369E+03  0.19685712239E+03 -0.81811800643E+02  0.31567234235E+03  0.17300000000E+03 0. -1.
<mgrwt>
<rscale>  2 0.30488663E+03</rscale>
<asrwt>0</asrwt>
<pdfrwt beam="1">  1       21 0.21550178E-01 0.30488663E+03</pdfrwt>
<pdfrwt beam="2">  1       21 0.18504055E+00 0.30488663E+03</pdfrwt>
<totfact> 0.30993846E+03</totfact>
</mgrwt>
</event>
<event>
 4    1  0.4102458E+000  0.1836630E+03  0.7546771E-02  0.1164304E+00
         21   -1    0    0  501  502  0.00000000000E+00  0.00000000000E+00  0.51667487296E+03  0.51667487296E+03  0.00000000000E+00 0.  1.
         21   -1    0    0  502  503 -0.00000000000E+00 -0.00000000000E+00 -0.88233340274E+02  0.88233340274E+02  0.00000000000E+00 0.  1.
          6    1    1    2  501    0 -0.55815050864E+02 -0.26225513067E+02  0.36846212680E+03  0.41169944902E+03  0.17300000000E+03 0.  1.
         -6    1    1    2    0  503  0.55815050864E+02  0.26225513067E+02  0.59979405887E+02  0.19320876421E+03  0.17300000000E+03 0.  1.
<mgrwt>
<rscale>  2 0.18366300E+03</rscale>
<asrwt>0</asrwt>
<pdfrwt beam="1">  1       21 0.79488440E-01 0.18366300E+03</pdfrwt>
<pdfrwt beam="2">  1       21 0.13574360E-01 0.18366300E+03</pdfrwt>
<totfact> 0.65873396E+04</totfact>
</mgrwt>
</event>
<event>
 4    1  0.4102458E+000  0.3192298E+03  0.7546771E-02  0.1076004E+00
         21   -1    0    0  503  502  0.00000000000E+00  0.00000000000E+00  0.71729082041E+03  0.71729082041E+03  0.00000000000E+00 0.  1.
         21   -1    0    0  501  503 -0.00000000000E+00 -0.00000000000E+00 -0.22201786108E+03  0.22201786108E+03  0.00000000000E+00 0. -1.
          6    1    1    2  501    0 -0.83147496168E+02  0.25507875367E+03 -0.34188569561E+02  0.32105534567E+03  0.17300000000E+03 0. -1.
         -6    1    1    2    0  502  0.83147496168E+02 -0.25507875367E+03  0.52946152889E+03  0.61825333583E+03  0.17300000000E+03 0.  1.
<mgrwt>
<rscale>  2 0.31922982E+03</rscale>
<asrwt>0</asrwt>
<pdfrwt beam="1">  1       21 0.11035243E+00 0.31922982E+03</pdfrwt>
<pdfrwt beam="2">  1       21 0.34156594E-01 0.31922982E+03</pdfrwt>
<totfact> 0.49438827E+03</totfact>
</mgrwt>
</event>
<event>
 4    1  0.4102458E+000  0.2328977E+03  0.7546771E-02  0.1124617E+00
         21   -1    0    0  501  502  0.00000000000E+00  0.00000000000E+00  0.19587195123E+03  0.19587195123E+03  0.00000000000E+00 0.  1.
         21   -1    0    0  502  503 -0.00000000000E+00 -0.00000000000E+00 -0.43036883791E+03  0.43036883791E+03  0.00000000000E+00 0.  1.
          6    1    1    2  501    0  0.95247342977E+02 -0.12345162905E+03  0.69720353809E+02  0.24310962300E+03  0.17300000000E+03 0.  1.
         -6    1    1    2    0  503 -0.95247342977E+02  0.12345162905E+03 -0.30421724049E+03  0.38313116614E+03  0.17300000000E+03 0.  1.
<mgrwt>
<rscale>  2 0.23289775E+03</rscale>
<asrwt>0</asrwt>
<pdfrwt beam="1">  1       21 0.30134146E-01 0.23289775E+03</pdfrwt>
<pdfrwt beam="2">  1       21 0.66210590E-01 0.23289775E+03</pdfrwt>
<totfact> 0.21622617E+04</totfact>
</mgrwt>
</event>
<event>
 4    1  0.4102458E+000  0.2905286E+03  0.7546771E-02  0.1090073E+00
         21   -1    0    0  503  502  0.00000000000E+00  0.00000000000E+00  0.14438384091E+03  0.14438384091E+03  0.00000000000E+00 0.  1.
         21   -1    0    0  501  503 -0.00000000000E+00 -0.00000000000E+00 -0.68576069577E+03  0.68576069577E+03  0.00000000000E+00 0.  1.
          6    1    1    2  501    0 -0.16389339326E+03  0.16618314848E+03 -0.43010812916E+03  0.51903746104E+03  0.17300000000E+03 0.  1.
         -6    1    1    2    0  502  0.16389339326E+03 -0.16618314848E+03 -0.11126872571E+03  0.31110707564E+03  0.17300000000E+03 0.  1.
<mgrwt>
<rscale>  2 0.29052863E+03</rscale>
<asrwt>0</asrwt>
<pdfrwt beam="1">  1       21 0.22212898E-01 0.29052863E+03</pdfrwt>
<pdfrwt beam="2">  1       21 0.10550165E+00 0.29052863E+03</pdfrwt>
<totfact> 0.12954904E+04</totfact>
</mgrwt>
</event>
<event>
 4    1  0.4102458E+000  0.2366709E+03  0.7546771E-02  0.1122031E+00
         21   -1    0    0  503  502  0.00000000000E+00  0.00000000000E+00  0.35190473295E+03  0.35190473295E+03  0.00000000000E+00 0.  1.
         21   -1    0    0  501  503 -0.00000000000E+00 -0.00000000000E+00 -0.16035099001E+03  0.16035099001E+03  0.00000000000E+00 0.  1.
          6    1    1    2  501    0  0.14226039425E+03  0.76459864897E+02  0.73808059207E+02  0.24791280789E+03  0.17300000000E+03 0.  1.
         -6    1    1    2    0  502 -0.14226039425E+03 -0.76459864897E+02  0.11774568374E+03  0.26434291508E+03  0.17300000000E+03 0.  1.
<mgrwt>
<rscale>  2 0.23667093E+03</rscale>
<asrwt>0</asrwt>
<pdfrwt beam="1">  1       21 0.54139190E-01 0.23667093E+03</pdfrwt>
<pdfrwt beam="2">  1       21 0.24669383E-01 0.23667093E+03</pdfrwt>
<totfact> 0.49097111E+04</totfact>
</mgrwt>
</event>
<event>
 4    1  0.4102458E+000  0.1840810E+03  0.7546771E-02  0.1163911E+00
         21   -1    0    0  501  502  0.00000000000E+00  0.00000000000E+00  0.31866706383E+03  0.31866706383E+03  0.00000000000E+00 0. -1.
         21   -1    0    0  502  503 -0.00000000000E+00 -0.00000000000E+00 -0.11662950597E+03  0.11662950597E+03  0.00000000000E+00 0. -1.
          6    1    1    2  501    0 -0.25358046629E+02 -0.57565554471E+02  0.16567791021E+03  0.24765902673E+03  0.17300000000E+03 0. -1.
         -6    1    1    2    0  503  0.25358046629E+02  0.57565554471E+02  0.36359647648E+02  0.18763754307E+03  0.17300000000E+03 0. -1.
<mgrwt>
<rscale>  2 0.18408102E+03</rscale>
<asrwt>0</asrwt>
<pdfrwt beam="1">  1       21 0.49025702E-01 0.18408102E+03</pdfrwt>
<pdfrwt beam="2">  1       21 0.17943001E-01 0.18408102E+03</pdfrwt>
<totfact> 0.11245788E+05</totfact>
</mgrwt>
</event>
<event>
 4    1  0.4102458E+000  0.4065121E+03  0.7546771E-02  0.1041548E+00
         21   -1    0    0  501  502  0.00000000000E+00  0.00000000000E+00  0.15546299566E+04  0.15546299566E+04  0.00000000000E+00 0.  1.
         21   -1    0    0  502  503 -0.00000000000E+00 -0.00000000000E+00 -0.21266893380E+03  0.21266893380E+03  0.00000000000E+00 0. -1.
          6    1    1    2  501    0  0.10052681712E+02 -0.36772548378E+03  0.12959258764E+04  0.13581884866E+04  0.17300000000E+03 0.  1.
         -6    1    1    2    0  503 -0.10052681712E+02  0.36772548378E+03  0.46035146366E+02  0.40911040384E+03  0.17300000000E+03 0. -1.
<mgrwt>
<rscale>  2 0.40651210E+03</rscale>
<asrwt>0</asrwt>
<pdfrwt beam="1">  1       21 0.23917383E+00 0.40651210E+03</pdfrwt>
<pdfrwt beam="2">  1       21 0.32718298E-01 0.40651210E+03</pdfrwt>
<totfact> 0.57838838E+02</totfact>
</mgrwt>
</event>
<event>
 4    1  0.4102458E+000  0.1949044E+03  0.7546771E-02  0.1154111E+00
         21   -1    0    0  503  502  0.00000000000E+00  0.00000000000E+00  0.16488403999E+03  0.16488403999E+03  0.00000000000E+00 0. -1.
         21   -1    0    0  501  503 -0.00000000000E+00 -0.00000000000E+00 -0.30131204399E+03  0.30131204399E+03  0.00000000000E+00 0. -1.
          6    1    1    2  501    0 -0.52917504680E+02  0.72515140205E+02 -0.18130281078E+03  0.26619244365E+03  0.17300000000E+03 0. -1.
         -6    1    1    2    0  502  0.52917504680E+02 -0.72515140205E+02  0.44874806777E+02  0.20000364033E+03  0.17300000000E+03 0. -1.
<mgrwt>
<rscale>  2 0.19490436E+03</rscale>
<asrwt>0</asrwt>
<pdfrwt beam="1">  1       21 0.25366775E-01 0.19490436E+03</pdfrwt>
<pdfrwt beam="2">  1       21 0.46355699E-01 0.19490436E+03</pdfrwt>
<totfact> 0.65605098E+04</totfact>
</mgrwt>
</event>
<event>
 4    1  0.4102458E+000  0.2268731E+03  0.7546771E-02  0.1128860E+00
         21   -1    0    0  501  502  0.00000000000E+00  0.00000000000E+00  0.10959607891E+03  0.10959607891E+03  0.00000000000E+00 0.  1.
         21   -1    0    0  502  503 -0.00000000000E+00 -0.00000000000E+00 -0.56421290626E+03  0.56421290626E+03  0.00000000000E+00 0. -1.
          6    1    1    2  501    0  0.70470201363E+02  0.12874913898E+03 -0.89379836414E+02  0.24384451034E+03  0.17300000000E+03 0.  1.
         -6    1    1    2    0  503 -0.70470201363E+02 -0.12874913898E+03 -0.36523699094E+03  0.42996447483E+03  0.17300000000E+03 0.  1.
<mgrwt>
<rscale>  2 0.22687307E+03</rscale>
<asrwt>0</asrwt>
<pdfrwt beam="1">  1       21 0.16860935E-01 0.22687307E+03</pdfrwt>
<pdfrwt beam="2">  1       21 0.86801986E-01 0.22687307E+03</pdfrwt>
<totfact> 0.35530304E+04</totfact>
</mgrwt>
</event>
<event>
 4    1  0.4102458E+000  0.2527702E+03  0.7546771E-02  0.1111567E+00
         21   -1    0    0  503  502  0.00000000000E+00  0.00000000000E+00  0.12890748770E+03  0.12890748770E+03  0.00000000000E+00 0. -1.
         21   -1    0    0  501  503 -0.00000000000E+00 -0.00000000000E+00 -0.68516171898E+03  0.68516171898E+03  0.00000000000E+00 0. -1.
          6    1    1    2  501    0 -0.18309224861E+03 -0.21000161339E+02 -0.49219659838E+03  0.55330847610E+03  0.17300000000E+03 0. -1.
         -6    1    1    2    0  502  0.18309224861E+03  0.21000161339E+02 -0.64057632904E+02  0.26076073057E+03  0.17300000000E+03 0. -1.
<mgrwt>
<rscale>  2 0.25277021E+03</rscale>
<asrwt>0</asrwt>
<pdfrwt beam="1">  1       21 0.19831921E-01 0.25277021E+03</pdfrwt>
<pdfrwt beam="2">  1       21 0.10540950E+00 0.25277021E+03</pdfrwt>
<totfact> 0.16386427E+04</totfact>
</mgrwt>
</event>
<event>
 4    1  0.4102458E+000  0.2080259E+03  0.7546771E-02  0.1143139E+00
         21   -1    0    0  503  502  0.00000000000E+00  0.00000000000E+00  0.55782939980E+03  0.55782939980E+03  0.00000000000E+00 0.  1.
         21   -1    0    0  501  503 -0.00000000000E+00 -0.00000000000E+00 -0.25513921546E+03  0.25513921546E+03  0.00000000000E+00 0.  1.
          6    1    1    2  501    0  0.29757317492E+02  0.11162557769E+03 -0.18775692608E+03  0.28022746266E+03  0.17300000000E+03 0.  1.
         -6    1    1    2    0  502 -0.29757317492E+02 -0.11162557769E+03  0.49044711042E+03  0.53274115259E+03  0.17300000000E+03 0.  1.
<mgrwt>
<rscale>  2 0.20802588E+03</rscale>
<asrwt>0</asrwt>
<pdfrwt beam="1">  1       21 0.85819908E-01 0.20802588E+03</pdfrwt>
<pdfrwt beam="2">  1       21 0.39252187E-01 0.20802588E+03</pdfrwt>
<totfact> 0.72530188E+03</totfact>
</mgrwt>
</event>
<event>
 4    1  0.4102458E+000  0.1834096E+03  0.7546771E-02  0.1164543E+00
         21   -1    0    0  503  502  0.00000000000E+00  0.00000000000E+00  0.35844107711E+03  0.35844107711E+03  0.00000000000E+00 0. -1.
         21   -1    0    0  501  503 -0.00000000000E+00 -0.00000000000E+00 -0.30760763504E+03  0.30760763504E+03  0.00000000000E+00 0.  1.
          6    1    1    2  501    0 -0.60692483357E+02 -0.51471476963E+01 -0.25219642609E+03  0.31183666879E+03  0.17300000000E+03 0.  1.
         -6    1    1    2    0  502  0.60692483357E+02  0.51471476963E+01  0.30302986816E+03  0.35421204337E+03  0.17300000000E+03 0. -1.
<mgrwt>
<rscale>  2 0.18340957E+03</rscale>
<asrwt>0</asrwt>
<pdfrwt beam="1">  1       21 0.55144781E-01 0.18340957E+03</pdfrwt>
<pdfrwt beam="2">  1       21 0.47324252E-01 0.18340957E+03</pdfrwt>
<totfact> 0.13329318E+04</totfact>
</mgrwt>
</event>
<event>
 4    1  0.4102458E+000  0.1841254E+03  0.7546771E-02  0.1163869E+00
         21   -1    0    0  501  502  0.00000000000E+00  0.00000000000E+00  0.25846785163E+03  0.25846785163E+03  0.00000000000E+00 0.  1.
         21   -1    0    0  502  503 -0.00000000000E+00 -0.00000000000E+00 -0.15431824593E+03  0.15431824593E+03  0.00000000000E+00 0.  1.
          6    1    1    2  501    0 -0.18057030986E+02 -0.60391239192E+02  0.13201851309E+03  0.22656355827E+03  0.17300000000E+03 0.  1.
         -6    1    1    2    0  503  0.18057030986E+02  0.60391239192E+02 -0.27868907387E+02  0.18622253929E+03  0.17300000000E+03 0.  1.
<mgrwt>
<rscale>  2 0.18412539E+03</rscale>
<asrwt>0</asrwt>
<pdfrwt beam="1">  1       21 0.39764285E-01 0.18412539E+03</pdfrwt>
<pdfrwt beam="2">  1       21 0.23741269E-01 0.18412539E+03</pdfrwt>
<totfact> 0.10220000E+05</totfact>
</mgrwt>
</event>
<event>
 4    1  0.4102458E+000  0.2078288E+03  0.7546771E-02  0.1143297E+00
         21   -1    0    0  501  502  0.00000000000E+00  0.00000000000E+00  0.91431348887E+03  0.91431348887E+03  0.00000000000E+00 0.  1.
         21   -1    0    0  502  503 -0.00000000000E+00 -0.00000000000E+00 -0.50840163524E+02  0.50840163524E+02  0.00000000000E+00 0.  1.
          6    1    1    2  501    0 -0.11331320324E+03  0.20589462280E+02  0.56014167125E+03  0.59745418222E+03  0.17300000000E+03 0.  1.
         -6    1    1    2    0  503  0.11331320324E+03 -0.20589462280E+02  0.30333165410E+03  0.36769947017E+03  0.17300000000E+03 0.  1.
<mgrwt>
<rscale>  2 0.20782879E+03</rscale>
<asrwt>0</asrwt>
<pdfrwt beam="1">  1       21 0.14066360E+00 0.20782879E+03</pdfrwt>
<pdfrwt beam="2">  1       21 0.78215643E-02 0.20782879E+03</pdfrwt>
<totfact> 0.43738085E+04</totfact>
</mgrwt>
</event>
<event>
 4    1  0.4102458E+000  0.2396632E+03  0.7546771E-02  0.1120017E+00
         21   -1    0    0  501  502  0.00000000000E+00  0.00000000000E+00  0.45196050260E+03  0.45196050260E+03  0.00000000000E+00 0. -1.
         21   -1    0    0  502  503 -0.00000000000E+00 -0.00000000000E+00 -0.13489852333E+03  0.13489852333E+03  0.00000000000E+00 0. -1.
          6    1    1    2  501    0 -0.15161657868E+03 -0.67244879537E+02  0.22913972686E+03  0.33157725371E+03  0.17300000000E+03 0. -1.
         -6    1    1    2    0  503  0.15161657868E+03  0.67244879537E+02  0.87922252409E+02  0.25528177221E+03  0.17300000000E+03 0. -1.
<mgrwt>
<rscale>  2 0.23966322E+03</rscale>
<asrwt>0</asrwt>
<pdfrwt beam="1">  1       21 0.69532384E-01 0.23966322E+03</pdfrwt>
<pdfrwt beam="2">  1       21 0.20753619E-01 0.23966322E+03</pdfrwt>
<totfact> 0.39589188E+04</totfact>
</mgrwt>
</event>
<event>
 4    1  0.4102458E+000  0.2846552E+03  0.7546771E-02  0.1093173E+00
         21   -1    0    0  501  502  0.00000000000E+00  0.00000000000E+00  0.68302632429E+03  0.68302632429E+03  0.00000000000E+00 0.  1.
         21   -1    0    0  502  503 -0.00000000000E+00 -0.00000000000E+00 -0.13823266793E+03  0.13823266793E+03  0.00000000000E+00 0.  1.
          6    1    1    2  501    0  0.12275682292E+02  0.22571866283E+03  0.42702300530E+03  0.51320293664E+03  0.17300000000E+03 0.  1.
         -6    1    1    2    0  503 -0.12275682292E+02 -0.22571866283E+03  0.11777065107E+03  0.30805605558E+03  0.17300000000E+03 0.  1.
<mgrwt>
<rscale>  2 0.28465524E+03</rscale>
<asrwt>0</asrwt>
<pdfrwt beam="1">  1       21 0.10508097E+00 0.28465524E+03</pdfrwt>
<pdfrwt beam="2">  1       21 0.21266565E-01 0.28465524E+03</pdfrwt>
<totfact> 0.14248053E+04</totfact>
</mgrwt>
</event>
<event>
 4    1  0.4102458E+000  0.1757943E+03  0.7546771E-02  0.1171937E+00
         21   -1    0    0  501  502  0.00000000000E+00  0.00000000000E+00  0.26191262002E+03  0.26191262002E+03  0.00000000000E+00 0. -1.
         21   -1    0    0  502  503 -0.00000000000E+00 -0.00000000000E+00 -0.23491578115E+03  0.23491578115E+03  0.00000000000E+00 0. -1.
          6    1    1    2  501    0  0.56995604166E+00  0.31213950209E+02  0.18875383720E+03  0.25793729199E+03  0.17300000000E+03 0. -1.
         -6    1    1    2    0  503 -0.56995604166E+00 -0.31213950209E+02 -0.16175699833E+03  0.23889110918E+03  0.17300000000E+03 0. -1.
<mgrwt>
<rscale>  2 0.17579430E+03</rscale>
<asrwt>0</asrwt>
<pdfrwt beam="1">  1       21 0.40294249E-01 0.17579430E+03</pdfrwt>
<pdfrwt beam="2">  1       21 0.36140889E-01 0.17579430E+03</pdfrwt>
<totfact> 0.44181981E+04</totfact>
</mgrwt>
</event>
<event>
 4    1  0.4102458E+000  0.1740641E+03  0.7546771E-02  0.1173675E+00
         21   -1    0    0  501  502  0.00000000000E+00  0.00000000000E+00  0.17774508885E+04  0.17774508885E+04  0.00000000000E+00 0.  1.
         21   -1    0    0  502  503 -0.00000000000E+00 -0.00000000000E+00 -0.19904415849E+02  0.19904415849E+02  0.00000000000E+00 0.  1.
          6    1    1    2  501    0  0.16064239909E+02  0.10548050265E+02  0.12193354724E+04  0.12316969252E+04  0.17300000000E+03 0.  1.
         -6    1    1    2    0  503 -0.16064239909E+02 -0.10548050265E+02  0.53821100024E+03  0.56565837919E+03  0.17300000000E+03 0.  1.
<mgrwt>
<rscale>  2 0.17406413E+03</rscale>
<asrwt>0</asrwt>
<pdfrwt beam="1">  1       21 0.27345386E+00 0.17406413E+03</pdfrwt>
<pdfrwt beam="2">  1       21 0.30622192E-02 0.17406413E+03</pdfrwt>
<totfact> 0.30203422E+04</totfact>
</mgrwt>
</event>
<event>
 4    1  0.4102458E+000  0.1739798E+03  0.7546771E-02  0.1173760E+00
         21   -1    0    0  503  502  0.00000000000E+00  0.00000000000E+00  0.14653542551E+03  0.14653542551E+03  0.00000000000E+00 0. -1.
         21   -1    0    0  501  503 -0.00000000000E+00 -0.00000000000E+00 -0.20748818812E+03  0.20748818812E+03  0.00000000000E+00 0.  1.
          6    1    1    2  501    0  0.12342051520E+02 -0.13698146704E+02 -0.42289123915E+02  0.17904562396E+03  0.17300000000E+03 0.  1.
         -6    1    1    2    0  502 -0.12342051520E+02  0.13698146704E+02 -0.18663638703E+02  0.17497798967E+03  0.17300000000E+03 0. -1.
<mgrwt>
<rscale>  2 0.17397978E+03</rscale>
<asrwt>0</asrwt>
<pdfrwt beam="1">  1       21 0.22543912E-01 0.17397978E+03</pdfrwt>
<pdfrwt beam="2">  1       21 0.31921260E-01 0.17397978E+03</pdfrwt>
<totfact> 0.17496272E+05</totfact>
</mgrwt>
</event>
<event>
 4    1  0.4102458E+000  0.1950921E+03  0.7546771E-02  0.1153947E+00
         21   -1    0    0  501  502  0.00000000000E+00  0.00000000000E+00  0.89863913414E+03  0.89863913414E+03  0.00000000000E+00 0.  1.
         21   -1    0    0  502  503 -0.00000000000E+00 -0.00000000000E+00 -0.43239370068E+02  0.43239370068E+02  0.00000000000E+00 0.  1.
          6    1    1    2  501    0  0.53759235621E+02  0.72400888027E+02  0.49508942484E+03  0.53214141221E+03  0.17300000000E+03 0.  1.
         -6    1    1    2    0  503 -0.53759235621E+02 -0.72400888027E+02  0.36031033923E+03  0.40973709200E+03  0.17300000000E+03 0.  1.
<mgrwt>
<rscale>  2 0.19509214E+03</rscale>
<asrwt>0</asrwt>
<pdfrwt beam="1">  1       21 0.13825216E+00 0.19509214E+03</pdfrwt>
<pdfrwt beam="2">  1       21 0.66522114E-02 0.19509214E+03</pdfrwt>
<totfact> 0.60969996E+04</totfact>
</mgrwt>
</event>
<event>
 4    1  0.4102458E+000  0.1796551E+03  0.7546771E-02  0.1168137E+00
         21   -1    0    0  503  502  0.00000000000E+00  0.00000000000E+00  0.37928102476E+02  0.37928102476E+02  0.00000000000E+00 0. -1.
         21   -1    0    0  501  503 -0.00000000000E+00 -0.00000000000E+00 -0.99574885844E+03  0.99574885844E+03  0.00000000000E+00 0.  1.
          6    1    1    2  501    0  0.48435031506E+02  0.99286534142E+00 -0.67598114051E+03  0.69944723917E+03  0.17300000000E+03 0.  1.
         -6    1    1    2    0  502 -0.48435031506E+02 -0.99286534142E+00 -0.28183961545E+03  0.33422972174E+03  0.17300000000E+03 0. -1.
<mgrwt>
<rscale>  2 0.17965505E+03</rscale>
<asrwt>0</asrwt>
<pdfrwt beam="1">  1       21 0.58350930E-02 0.17965505E+03</pdfrwt>
<pdfrwt beam="2">  1       21 0.15319212E+00 0.17965505E+03</pdfrwt>
<totfact> 0.58889448E+04</totfact>
</mgrwt>
</event>
<event>
 4    1  0.4102458E+000  0.2117457E+03  0.7546771E-02  0.1140191E+00
         21   -1    0    0  501  502  0.00000000000E+00  0.00000000000E+00  0.24889797959E+03  0.24889797959E+03  0.00000000000E+00 0.  1.
         21   -1    0    0  502  503 -0.00000000000E+00 -0.00000000000E+00 -0.21885006547E+03  0.21885006547E+03  0.00000000000E+00 0.  1.
          6    1    1    2  501    0 -0.45101911986E+02 -0.11345957312E+03  0.11338557536E+03  0.24019272657E+03  0.17300000000E+03 0.  1.
         -6    1    1    2    0  503  0.45101911986E+02  0.11345957312E+03 -0.83337661236E+02  0.22755531850E+03  0.17300000000E+03 0.  1.
<mgrwt>
<rscale>  2 0.21174574E+03</rscale>
<asrwt>0</asrwt>
<pdfrwt beam="1">  1       21 0.38291997E-01 0.21174574E+03</pdfrwt>
<pdfrwt beam="2">  1       21 0.33669241E-01 0.21174574E+03</pdfrwt>
<totfact> 0.55386759E+04</totfact>
</mgrwt>
</event>
<event>
 4    1  0.4102458E+000  0.2195654E+03  0.7546771E-02  0.1134208E+00
         21   -1    0    0  503  502  0.00000000000E+00  0.00000000000E+00  0.84819788176E+03  0.84819788176E+03  0.00000000000E+00 0.  1.
         21   -1    0    0  501  503 -0.00000000000E+00 -0.00000000000E+00 -0.10495670949E+03  0.10495670949E+03  0.00000000000E+00 0.  1.
          6    1    1    2  501    0 -0.23669239568E+02 -0.13311541259E+03  0.48927133778E+02  0.22495068435E+03  0.17300000000E+03 0.  1.
         -6    1    1    2    0  502  0.23669239568E+02  0.13311541259E+03  0.69431403850E+03  0.72820390690E+03  0.17300000000E+03 0.  1.
<mgrwt>
<rscale>  2 0.21956536E+03</rscale>
<asrwt>0</asrwt>
<pdfrwt beam="1">  1       21 0.13049198E+00 0.21956536E+03</pdfrwt>
<pdfrwt beam="2">  1       21 0.16147187E-01 0.21956536E+03</pdfrwt>
<totfact> 0.14419416E+04</totfact>
</mgrwt>
</event>
<event>
 4    1  0.4102458E+000  0.2449485E+03  0.7546771E-02  0.1116539E+00
         21   -1    0    0  503  502  0.00000000000E+00  0.00000000000E+00  0.22348001062E+03  0.22348001062E+03  0.00000000000E+00 0.  1.
         21   -1    0    0  501  503 -0.00000000000E+00 -0.00000000000E+00 -0.27375764441E+03  0.27375764441E+03  0.00000000000E+00 0.  1.
          6    1    1    2  501    0 -0.41409845605E+02  0.16839238188E+03 -0.59660932026E+02  0.25210949288E+03  0.17300000000E+03 0.  1.
         -6    1    1    2    0  502  0.41409845605E+02 -0.16839238188E+03  0.93832982363E+01  0.24512816214E+03  0.17300000000E+03 0.  1.
<mgrwt>
<rscale>  2 0.24494850E+03</rscale>
<asrwt>0</asrwt>
<pdfrwt beam="1">  1       21 0.34381540E-01 0.24494850E+03</pdfrwt>
<pdfrwt beam="2">  1       21 0.42116561E-01 0.24494850E+03</pdfrwt>
<totfact> 0.43169834E+04</totfact>
</mgrwt>
</event>
<event>
 4    1  0.4102458E+000  0.1844146E+03  0.7546771E-02  0.1163598E+00
         21   -1    0    0  503  502  0.00000000000E+00  0.00000000000E+00  0.10559679143E+04  0.10559679143E+04  0.00000000000E+00 0. -1.
         21   -1    0    0  501  503 -0.00000000000E+00 -0.00000000000E+00 -0.32722804754E+02  0.32722804754E+02  0.00000000000E+00 0.  1.
          6    1    1    2  501    0 -0.37714929807E+02 -0.51549310874E+02  0.44322901020E+03  0.48006322799E+03  0.17300000000E+03 0.  1.
         -6    1    1    2    0  502  0.37714929807E+02  0.51549310874E+02  0.58001609932E+03  0.60862749105E+03  0.17300000000E+03 0.  1.
<mgrwt>
<rscale>  2 0.18441461E+03</rscale>
<asrwt>0</asrwt>
<pdfrwt beam="1">  1       21 0.16245658E+00 0.18441461E+03</pdfrwt>
<pdfrwt beam="2">  1       21 0.50342785E-02 0.18441461E+03</pdfrwt>
<totfact> 0.64513247E+04</totfact>
</mgrwt>
</event>
<event>
 4    1  0.4102458E+000  0.1976957E+03  0.7546771E-02  0.1151698E+00
         21   -1    0    0  503  502  0.00000000000E+00  0.00000000000E+00  0.38819606166E+03  0.38819606166E+03  0.00000000000E+00 0.  1.
         21   -1    0    0  501  503 -0.00000000000E+00 -0.00000000000E+00 -0.22273466506E+03  0.22273466506E+03  0.00000000000E+00 0. -1.
          6    1    1    2  501    0 -0.91453441877E+02  0.28122384874E+02 -0.14339252174E+03  0.24422329097E+03  0.17300000000E+03 0. -1.
         -6    1    1    2    0  502  0.91453441877E+02 -0.28122384874E+02  0.30885391834E+03  0.36670743576E+03  0.17300000000E+03 0.  1.
<mgrwt>
<rscale>  2 0.19769573E+03</rscale>
<asrwt>0</asrwt>
<pdfrwt beam="1">  1       21 0.59722471E-01 0.19769573E+03</pdfrwt>
<pdfrwt beam="2">  1       21 0.34266872E-01 0.19769573E+03</pdfrwt>
<totfact> 0.21413575E+04</totfact>
</mgrwt>
</event>
<event>
 4    1  0.4102458E+000  0.1743389E+03  0.7546771E-02  0.1173397E+00
         21   -1    0    0  501  502  0.00000000000E+00  0.00000000000E+00  0.36870824300E+02  0.36870824300E+02  0.00000000000E+00 0. -1.
         21   -1    0    0  502  503 -0.00000000000E+00 -0.00000000000E+00 -0.10179273583E+04  0.10179273583E+04  0.00000000000E+00 0. -1.
          6    1    1    2  501    0 -0.20075976562E+02  0.78744379350E+01 -0.26053198801E+03  0.31348200647E+03  0.17300000000E+03 0. -1.
         -6    1    1    2    0  503  0.20075976562E+02 -0.78744379350E+01 -0.72052454597E+03  0.74131617610E+03  0.17300000000E+03 0. -1.
<mgrwt>
<rscale>  2 0.17433890E+03</rscale>
<asrwt>0</asrwt>
<pdfrwt beam="1">  1       21 0.56724342E-02 0.17433890E+03</pdfrwt>
<pdfrwt beam="2">  1       21 0.15660422E+00 0.17433890E+03</pdfrwt>
<totfact> 0.58465666E+04</totfact>
</mgrwt>
</event>
<event>
 4    1  0.4102458E+000  0.2149718E+03  0.7546771E-02  0.1137688E+00
         21   -1    0    0  503  502  0.00000000000E+00  0.00000000000E+00  0.30030769744E+03  0.30030769744E+03  0.00000000000E+00 0.  1.
         21   -1    0    0  501  503 -0.00000000000E+00 -0.00000000000E+00 -0.30941525275E+03  0.30941525275E+03  0.00000000000E+00 0.  1.
          6    1    1    2  501    0 -0.11802618349E+03 -0.48514672109E+02 -0.22069575018E+03  0.30809003156E+03  0.17300000000E+03 0.  1.
         -6    1    1    2    0  502  0.11802618349E+03  0.48514672109E+02  0.21158819487E+03  0.30163291864E+03  0.17300000000E+03 0.  1.
<mgrwt>
<rscale>  2 0.21497175E+03</rscale>
<asrwt>0</asrwt>
<pdfrwt beam="1">  1       21 0.46201184E-01 0.21497175E+03</pdfrwt>
<pdfrwt beam="2">  1       21 0.47602347E-01 0.21497175E+03</pdfrwt>
<totfact> 0.18691581E+04</totfact>
</mgrwt>
</event>
<event>
 4    1  0.4102458E+000  0.1770017E+03  0.7546771E-02  0.1170737E+00
         21   -1    0    0  503  502  0.00000000000E+00  0.00000000000E+00  0.16832655812E+03  0.16832655812E+03  0.00000000000E+00 0. -1.
         21   -1    0    0  501  503 -0.00000000000E+00 -0.00000000000E+00 -0.31542970471E+03  0.31542970471E+03  0.00000000000E+00 0. -1.
          6    1    1    2  501    0  0.10729106562E+02 -0.35853822149E+02 -0.22841689286E+03  0.28897039162E+03  0.17300000000E+03 0. -1.
         -6    1    1    2    0  502 -0.10729106562E+02  0.35853822149E+02  0.81313746265E+02  0.19478587121E+03  0.17300000000E+03 0. -1.
<mgrwt>
<rscale>  2 0.17700172E+03</rscale>
<asrwt>0</asrwt>
<pdfrwt beam="1">  1       21 0.25896394E-01 0.17700172E+03</pdfrwt>
<pdfrwt beam="2">  1       21 0.48527647E-01 0.17700172E+03</pdfrwt>
<totfact> 0.57826268E+04</totfact>
</mgrwt>
</event>
<event>
 4    1  0.4102458E+000  0.2402583E+03  0.7546771E-02  0.1119621E+00
         21   -1    0    0  503  502  0.00000000000E+00  0.00000000000E+00  0.12338416187E+03  0.12338416187E+03  0.00000000000E+00 0. -1.
         21   -1    0    0  501  503 -0.00000000000E+00 -0.00000000000E+00 -0.60532874398E+03  0.60532874398E+03  0.00000000000E+00 0.  1.
          6    1    1    2  501    0  0.72764714203E+02  0.15000109034E+03 -0.41461821300E+03  0.47919963824E+03  0.17300000000E+03 0.  1.
         -6    1    1    2    0  502 -0.72764714203E+02 -0.15000109034E+03 -0.67326369108E+02  0.24951326761E+03  0.17300000000E+03 0. -1.
<mgrwt>
<rscale>  2 0.24025826E+03</rscale>
<asrwt>0</asrwt>
<pdfrwt beam="1">  1       21 0.18982179E-01 0.24025826E+03</pdfrwt>
<pdfrwt beam="2">  1       21 0.93127499E-01 0.24025826E+03</pdfrwt>
<totfact> 0.24050704E+04</totfact>
</mgrwt>
</event>
<event>
 4    1  0.4102458E+000  0.2559099E+03  0.7546771E-02  0.1109626E+00
         21   -1    0    0  501  502  0.00000000000E+00  0.00000000000E+00  0.50926376124E+03  0.50926376124E+03  0.00000000000E+00 0. -1.
         21   -1    0    0  502  503 -0.00000000000E+00 -0.00000000000E+00 -0.21674046343E+03  0.21674046343E+03  0.00000000000E+00 0.  1.
          6    1    1    2  501    0 -0.18853372934E+03  0.39912755270E+01  0.37775242920E+03  0.45627491181E+03  0.17300000000E+03 0. -1.
         -6    1    1    2    0  503  0.18853372934E+03 -0.39912755270E+01 -0.85229131385E+02  0.26972931286E+03  0.17300000000E+03 0.  1.
<mgrwt>
<rscale>  2 0.25590994E+03</rscale>
<asrwt>0</asrwt>
<pdfrwt beam="1">  1       21 0.78348271E-01 0.25590994E+03</pdfrwt>
<pdfrwt beam="2">  1       21 0.33344687E-01 0.25590994E+03</pdfrwt>
<totfact> 0.12021896E+04</totfact>
</mgrwt>
</event>
<event>
 4    1  0.4102458E+000  0.1756382E+03  0.7546771E-02  0.1172092E+00
         21   -1    0    0  503  502  0.00000000000E+00  0.00000000000E+00  0.33939654384E+02  0.33939654384E+02  0.00000000000E+00 0.  1.
         21   -1    0    0  501  503 -0.00000000000E+00 -0.00000000000E+00 -0.20851905978E+04  0.20851905978E+04  0.00000000000E+00 0.  1.
          6    1    1    2  501    0 -0.71718299499E+01  0.29467750206E+02 -0.18214301329E+04  0.18298788245E+04  0.17300000000E+03 0.  1.
         -6    1    1    2    0  502  0.71718299499E+01 -0.29467750206E+02 -0.22982081049E+03  0.28925142762E+03  0.17300000000E+03 0.  1.
<mgrwt>
<rscale>  2 0.17563822E+03</rscale>
<asrwt>0</asrwt>
<pdfrwt beam="1">  1       21 0.52214831E-02 0.17563822E+03</pdfrwt>
<pdfrwt beam="2">  1       21 0.32079869E+00 0.17563822E+03</pdfrwt>
<totfact> 0.66084403E+03</totfact>
</mgrwt>
</event>
<event>
 4    1  0.4102458E+000  0.1854818E+03  0.7546771E-02  0.1162601E+00
         21   -1    0    0  503  502  0.00000000000E+00  0.00000000000E+00  0.94244059096E+02  0.94244059096E+02  0.00000000000E+00 0.  1.
         21   -1    0    0  501  503 -0.00000000000E+00 -0.00000000000E+00 -0.44177151385E+03  0.44177151385E+03  0.00000000000E+00 0. -1.
          6    1    1    2  501    0  0.11574351776E+02 -0.65882654689E+02 -0.28545423580E+03  0.34042269394E+03  0.17300000000E+03 0. -1.
         -6    1    1    2    0  502 -0.11574351776E+02  0.65882654689E+02 -0.62073218946E+02  0.19559287901E+03  0.17300000000E+03 0.  1.
<mgrwt>
<rscale>  2 0.18548178E+03</rscale>
<asrwt>0</asrwt>
<pdfrwt beam="1">  1       21 0.14499086E-01 0.18548178E+03</pdfrwt>
<pdfrwt beam="2">  1       21 0.67964849E-01 0.18548178E+03</pdfrwt>
<totfact> 0.82742740E+04</totfact>
</mgrwt>
</event>
<event>
 4    1  0.4102458E+000  0.2303804E+03  0.7546771E-02  0.1126372E+00
         21   -1    0    0  501  502  0.00000000000E+00  0.00000000000E+00  0.63873284967E+02  0.63873284967E+02  0.00000000000E+00 0.  1.
         21   -1    0    0  502  503 -0.00000000000E+00 -0.00000000000E+00 -0.90716993770E+03  0.90716993770E+03  0.00000000000E+00 0.  1.
          6    1    1    2  501    0 -0.13916465651E+03 -0.61476343603E+02 -0.28090923037E+03  0.36329758897E+03  0.17300000000E+03 0.  1.
         -6    1    1    2    0  503  0.13916465651E+03  0.61476343603E+02 -0.56238742237E+03  0.60774563370E+03  0.17300000000E+03 0.  1.
<mgrwt>
<rscale>  2 0.23038043E+03</rscale>
<asrwt>0</asrwt>
<pdfrwt beam="1">  1       21 0.98266593E-02 0.23038043E+03</pdfrwt>
<pdfrwt beam="2">  1       21 0.13956460E+00 0.23038043E+03</pdfrwt>
<totfact> 0.29530396E+04</totfact>
</mgrwt>
</event>
<event>
 4    1  0.4102458E+000  0.2017204E+03  0.7546771E-02  0.1148296E+00
         21   -1    0    0  503  502  0.00000000000E+00  0.00000000000E+00  0.15679621331E+03  0.15679621331E+03  0.00000000000E+00 0. -1.
         21   -1    0    0  501  503 -0.00000000000E+00 -0.00000000000E+00 -0.12311642707E+04  0.12311642707E+04  0.00000000000E+00 0. -1.
          6    1    1    2  501    0 -0.70772907168E+02 -0.75850734681E+02 -0.11536990007E+04  0.11712013160E+04  0.17300000000E+03 0. -1.
         -6    1    1    2    0  502  0.70772907168E+02  0.75850734681E+02  0.79330943345E+02  0.21675916800E+03  0.17300000000E+03 0. -1.
<mgrwt>
<rscale>  2 0.20172045E+03</rscale>
<asrwt>0</asrwt>
<pdfrwt beam="1">  1       21 0.24122494E-01 0.20172045E+03</pdfrwt>
<pdfrwt beam="2">  1       21 0.18940989E+00 0.20172045E+03</pdfrwt>
<totfact> 0.25290357E+03</totfact>
</mgrwt>
</event>
<event>
 4    1  0.4102458E+000  0.2557956E+03  0.7546771E-02  0.1109696E+00
         21   -1    0    0  501  502  0.00000000000E+00  0.00000000000E+00  0.28951397556E+03  0.28951397556E+03  0.00000000000E+00 0.  1.
         21   -1    0    0  502  503 -0.00000000000E+00 -0.00000000000E+00 -0.26017436403E+03  0.26017436403E+03  0.00000000000E+00 0. -1.
          6    1    1    2  501    0  0.17671607146E+03  0.65374360806E+02  0.11427402930E+03  0.28016054458E+03  0.17300000000E+03 0.  1.
         -6    1    1    2    0  503 -0.17671607146E+03 -0.65374360806E+02 -0.84934417780E+02  0.26952779502E+03  0.17300000000E+03 0. -1.
<mgrwt>
<rscale>  2 0.25579558E+03</rscale>
<asrwt>0</asrwt>
<pdfrwt beam="1">  1       21 0.44540612E-01 0.25579558E+03</pdfrwt>
<pdfrwt beam="2">  1       21 0.40026825E-01 0.25579558E+03</pdfrwt>
<totfact> 0.28206012E+04</totfact>
</mgrwt>
</event>
<event>
 4    1  0.4102458E+000  0.2091986E+03  0.7546771E-02  0.1142202E+00
         21   -1    0    0  501  502  0.00000000000E+00  0.00000000000E+00  0.10656222657E+04  0.10656222657E+04  0.00000000000E+00 0.  1.
         21   -1    0    0  502  503 -0.00000000000E+00 -0.00000000000E+00 -0.62683789629E+02  0.62683789629E+02  0.00000000000E+00 0. -1.
          6    1    1    2  501    0 -0.11976312842E+02 -0.11701116581E+03  0.83274889543E+03  0.85862376384E+03  0.17300000000E+03 0.  1.
         -6    1    1    2    0  503  0.11976312842E+02  0.11701116581E+03  0.17018958069E+03  0.26968229153E+03  0.17300000000E+03 0. -1.
<mgrwt>
<rscale>  2 0.20919858E+03</rscale>
<asrwt>0</asrwt>
<pdfrwt beam="1">  1       21 0.16394187E+00 0.20919858E+03</pdfrwt>
<pdfrwt beam="2">  1       21 0.96436607E-02 0.20919858E+03</pdfrwt>
<totfact> 0.20155319E+04</totfact>
</mgrwt>
</event>
<event>
 4    1  0.4102458E+000  0.1967638E+03  0.7546771E-02  0.1152498E+00
         21   -1    0    0  503  502  0.00000000000E+00  0.00000000000E+00  0.81477583234E+02  0.81477583234E+02  0.00000000000E+00 0.  1.
         21   -1    0    0  501  503 -0.00000000000E+00 -0.00000000000E+00 -0.55549113525E+03  0.55549113525E+03  0.00000000000E+00 0.  1.
          6    1    1    2  501    0 -0.49301754769E+02  0.79726508285E+02 -0.35810988880E+03  0.40860576550E+03  0.17300000000E+03 0.  1.
         -6    1    1    2    0  502  0.49301754769E+02 -0.79726508285E+02 -0.11590366321E+03  0.22836295298E+03  0.17300000000E+03 0.  1.
<mgrwt>
<rscale>  2 0.19676376E+03</rscale>
<asrwt>0</asrwt>
<pdfrwt beam="1">  1       21 0.12535012E-01 0.19676376E+03</pdfrwt>
<pdfrwt beam="2">  1       21 0.85460179E-01 0.19676376E+03</pdfrwt>
<totfact> 0.64106895E+04</totfact>
</mgrwt>
</event>
<event>
 4    1  0.4102458E+000  0.1911800E+03  0.7546771E-02  0.1157401E+00
         21   -1    0    0  501  502  0.00000000000E+00  0.00000000000E+00  0.52375871668E+03  0.52375871668E+03  0.00000000000E+00 0. -1.
         21   -1    0    0  502  503 -0.00000000000E+00 -0.00000000000E+00 -0.17702263139E+03  0.17702263139E+03  0.00000000000E+00 0.  1.
          6    1    1    2  501    0  0.53327309071E+02 -0.61457253907E+02  0.44608646679E+03  0.48532765407E+03  0.17300000000E+03 0. -1.
         -6    1    1    2    0  503 -0.53327309071E+02  0.61457253907E+02 -0.99350381501E+02  0.21545369399E+03  0.17300000000E+03 0.  1.
<mgrwt>
<rscale>  2 0.19118001E+03</rscale>
<asrwt>0</asrwt>
<pdfrwt beam="1">  1       21 0.80578264E-01 0.19118001E+03</pdfrwt>
<pdfrwt beam="2">  1       21 0.27234251E-01 0.19118001E+03</pdfrwt>
<totfact> 0.17409183E+04</totfact>
</mgrwt>
</event>
<event>
 4    1  0.4102458E+000  0.2477939E+03  0.7546771E-02  0.1114707E+00
         21   -1    0    0  501  502  0.00000000000E+00  0.00000000000E+00  0.13213191986E+03  0.13213191986E+03  0.00000000000E+00 0. -1.
         21   -1    0    0  502  503 -0.00000000000E+00 -0.00000000000E+00 -0.59491809012E+03  0.59491809012E+03  0.00000000000E+00 0. -1.
          6    1    1    2  501    0 -0.56406471238E+02  0.16819973331E+03 -0.61318417207E+02  0.25526807198E+03  0.17300000000E+03 0. -1.
         -6    1    1    2    0  503  0.56406471238E+02 -0.16819973331E+03 -0.40146775305E+03  0.47178193800E+03  0.17300000000E+03 0. -1.
<mgrwt>
<rscale>  2 0.24779395E+03</rscale>
<asrwt>0</asrwt>
<pdfrwt beam="1">  1       21 0.20327988E-01 0.24779395E+03</pdfrwt>
<pdfrwt beam="2">  1       21 0.91525859E-01 0.24779395E+03</pdfrwt>
<totfact> 0.21947718E+04</totfact>
</mgrwt>
</event>
<event>
 4    1  0.4102458E+000  0.4007883E+03  0.7546771E-02  0.1043507E+00
         21   -1    0    0  501  502  0.00000000000E+00  0.00000000000E+00  0.60920741972E+03  0.60920741972E+03  0.00000000000E+00 0.  1.
         21   -1    0    0  502  503 -0.00000000000E+00 -0.00000000000E+00 -0.88974587712E+03  0.88974587712E+03  0.00000000000E+00 0. -1.
          6    1    1    2  501    0  0.37721852106E+02 -0.35955437237E+03  0.48842244476E+03  0.63181308103E+03  0.17300000000E+03 0.  1.
         -6    1    1    2    0  503 -0.37721852106E+02  0.35955437237E+03 -0.76896090217E+03  0.86714021581E+03  0.17300000000E+03 0. -1.
<mgrwt>
<rscale>  2 0.40078833E+03</rscale>
<asrwt>0</asrwt>
<pdfrwt beam="1">  1       21 0.93724219E-01 0.40078833E+03</pdfrwt>
<pdfrwt beam="2">  1       21 0.13688398E+00 0.40078833E+03</pdfrwt>
<totfact> 0.30688315E+02</totfact>
</mgrwt>
</event>
<event>
 4    1  0.4102458E+000  0.2186166E+03  0.7546771E-02  0.1134919E+00
         21   -1    0    0  503  502  0.00000000000E+00  0.00000000000E+00  0.17362563622E+03  0.17362563622E+03  0.00000000000E+00 0.  1.
         21   -1    0    0  501  503 -0.00000000000E+00 -0.00000000000E+00 -0.27704058419E+03  0.27704058419E+03  0.00000000000E+00 0. -1.
          6    1    1    2  501    0  0.93178436339E+02 -0.95822779844E+02 -0.69742111953E+02  0.22947154141E+03  0.17300000000E+03 0.  1.
         -6    1    1    2    0  502 -0.93178436339E+02  0.95822779844E+02 -0.33672836014E+02  0.22119467901E+03  0.17300000000E+03 0. -1.
<mgrwt>
<rscale>  2 0.21861662E+03</rscale>
<asrwt>0</asrwt>
<pdfrwt beam="1">  1       21 0.26711637E-01 0.21861662E+03</pdfrwt>
<pdfrwt beam="2">  1       21 0.42621628E-01 0.21861662E+03</pdfrwt>
<totfact> 0.69857459E+04</totfact>
</mgrwt>
</event>
<event>
 4    1  0.4102458E+000  0.1947432E+03  0.7546771E-02  0.1154252E+00
         21   -1    0    0  501  502  0.00000000000E+00  0.00000000000E+00  0.80978642475E+03  0.80978642475E+03  0.00000000000E+00 0. -1.
         21   -1    0    0  502  503 -0.00000000000E+00 -0.00000000000E+00 -0.47733140691E+02  0.47733140691E+02  0.00000000000E+00 0.  1.
          6    1    1    2  501    0  0.87369095517E+02  0.19040539577E+02  0.43989847816E+03  0.48107751152E+03  0.17300000000E+03 0. -1.
         -6    1    1    2    0  503 -0.87369095517E+02 -0.19040539577E+02  0.32215480590E+03  0.37644205392E+03  0.17300000000E+03 0.  1.
<mgrwt>
<rscale>  2 0.19474317E+03</rscale>
<asrwt>0</asrwt>
<pdfrwt beam="1">  1       21 0.12458252E+00 0.19474317E+03</pdfrwt>
<pdfrwt beam="2">  1       21 0.73435607E-02 0.19474317E+03</pdfrwt>
<totfact> 0.66909326E+04</totfact>
</mgrwt>
</event>
<event>
 4    1  0.4102458E+000  0.4683406E+03  0.7546771E-02  0.1022390E+00
         21   -1    0    0  501  502  0.00000000000E+00  0.00000000000E+00  0.24217266235E+03  0.24217266235E+03  0.00000000000E+00 0. -1.
         21   -1    0    0  502  503 -0.00000000000E+00 -0.00000000000E+00 -0.10187530270E+04  0.10187530270E+04  0.00000000000E+00 0.  1.
          6    1    1    2  501    0 -0.93803378418E+02  0.42498809421E+03 -0.17829504714E+03  0.50113079915E+03  0.17300000000E+03 0. -1.
         -6    1    1    2    0  503  0.93803378418E+02 -0.42498809421E+03 -0.59828531746E+03  0.75979489016E+03  0.17300000000E+03 0.  1.
<mgrwt>
<rscale>  2 0.46834064E+03</rscale>
<asrwt>0</asrwt>
<pdfrwt beam="1">  1       21 0.37257333E-01 0.46834064E+03</pdfrwt>
<pdfrwt beam="2">  1       21 0.15673123E+00 0.46834064E+03</pdfrwt>
<totfact> 0.15614912E+03</totfact>
</mgrwt>
</event>
<event>
 4    1  0.4102458E+000  0.1976724E+03  0.7546771E-02  0.1151718E+00
         21   -1    0    0  503  502  0.00000000000E+00  0.00000000000E+00  0.35342409774E+03  0.35342409774E+03  0.00000000000E+00 0.  1.
         21   -1    0    0  501  503 -0.00000000000E+00 -0.00000000000E+00 -0.11228533219E+03  0.11228533219E+03  0.00000000000E+00 0.  1.
          6    1    1    2  501    0  0.92132795647E+02  0.25630685386E+02  0.91700800064E+02  0.21790690856E+03  0.17300000000E+03 0.  1.
         -6    1    1    2    0  502 -0.92132795647E+02 -0.25630685386E+02  0.14943796549E+03  0.24780252137E+03  0.17300000000E+03 0.  1.
<mgrwt>
<rscale>  2 0.19767242E+03</rscale>
<asrwt>0</asrwt>
<pdfrwt beam="1">  1       21 0.54372938E-01 0.19767242E+03</pdfrwt>
<pdfrwt beam="2">  1       21 0.17274667E-01 0.19767242E+03</pdfrwt>
<totfact> 0.96599793E+04</totfact>
</mgrwt>
</event>
<event>
 4    1  0.4102458E+000  0.2297444E+03  0.7546771E-02  0.1126820E+00
         21   -1    0    0  501  502  0.00000000000E+00  0.00000000000E+00  0.78460679383E+02  0.78460679383E+02  0.00000000000E+00 0. -1.
         21   -1    0    0  502  503 -0.00000000000E+00 -0.00000000000E+00 -0.70932435459E+03  0.70932435459E+03  0.00000000000E+00 0.  1.
          6    1    1    2  501    0  0.10667605780E+03  0.10711546518E+03 -0.22595951585E+03  0.32224246615E+03  0.17300000000E+03 0. -1.
         -6    1    1    2    0  503 -0.10667605780E+03 -0.10711546518E+03 -0.40490415935E+03  0.46554256781E+03  0.17300000000E+03 0.  1.
<mgrwt>
<rscale>  2 0.22974443E+03</rscale>
<asrwt>0</asrwt>
<pdfrwt beam="1">  1       21 0.12070874E-01 0.22974443E+03</pdfrwt>
<pdfrwt beam="2">  1       21 0.10912682E+00 0.22974443E+03</pdfrwt>
<totfact> 0.37913726E+04</totfact>
</mgrwt>
</event>
<event>
 4    1  0.4102458E+000  0.1893998E+03  0.7546771E-02  0.1159004E+00
         21   -1    0    0  503  502  0.00000000000E+00  0.00000000000E+00  0.14282097224E+03  0.14282097224E+03  0.00000000000E+00 0.  1.
         21   -1    0    0  501  503 -0.00000000000E+00 -0.00000000000E+00 -0.25953924895E+03  0.25953924895E+03  0.00000000000E+00 0.  1.
          6    1    1    2  501    0 -0.42916834376E+02 -0.64042457951E+02 -0.94486504612E+02  0.21166008279E+03  0.17300000000E+03 0. -1.
         -6    1    1    2    0  502  0.42916834376E+02  0.64042457951E+02 -0.22231772099E+02  0.19070013839E+03  0.17300000000E+03 0. -1.
<mgrwt>
<rscale>  2 0.18939982E+03</rscale>
<asrwt>0</asrwt>
<pdfrwt beam="1">  1       21 0.21972457E-01 0.18939982E+03</pdfrwt>
<pdfrwt beam="2">  1       21 0.39929115E-01 0.18939982E+03</pdfrwt>
<totfact> 0.11710351E+05</totfact>
</mgrwt>
</event>
<event>
 4    1  0.4102458E+000  0.2463015E+03  0.7546771E-02  0.1115665E+00
         21   -1    0    0  503  502  0.00000000000E+00  0.00000000000E+00  0.47509889942E+03  0.47509889942E+03  0.00000000000E+00 0.  1.
         21   -1    0    0  501  503 -0.00000000000E+00 -0.00000000000E+00 -0.12819315299E+03  0.12819315299E+03  0.00000000000E+00 0. -1.
          6    1    1    2  501    0 -0.17497306180E+03 -0.10948602153E+02  0.15451800864E+03  0.29075807683E+03  0.17300000000E+03 0.  1.
         -6    1    1    2    0  502  0.17497306180E+03  0.10948602153E+02  0.19238773778E+03  0.31253397559E+03  0.17300000000E+03 0. -1.
<mgrwt>
<rscale>  2 0.24630153E+03</rscale>
<asrwt>0</asrwt>
<pdfrwt beam="1">  1       21 0.73092138E-01 0.24630153E+03</pdfrwt>
<pdfrwt beam="2">  1       21 0.19722024E-01 0.24630153E+03</pdfrwt>
<totfact> 0.38877605E+04</totfact>
</mgrwt>
</event>
<event>
 4    1  0.4102458E+000  0.1882942E+03  0.7546771E-02  0.1160009E+00
         21   -1    0    0  501  502  0.00000000000E+00  0.00000000000E+00  0.11742710620E+03  0.11742710620E+03  0.00000000000E+00 0. -1.
         21   -1    0    0  502  503 -0.00000000000E+00 -0.00000000000E+00 -0.30193295130E+03  0.30193295130E+03  0.00000000000E+00 0. -1.
          6    1    1    2  501    0  0.68012189577E+02 -0.30000523942E+02 -0.91528355762E+02  0.20936124110E+03  0.17300000000E+03 0. -1.
         -6    1    1    2    0  503 -0.68012189577E+02  0.30000523942E+02 -0.92977489338E+02  0.20999881640E+03  0.17300000000E+03 0. -1.
<mgrwt>
<rscale>  2 0.18829416E+03</rscale>
<asrwt>0</asrwt>
<pdfrwt beam="1">  1       21 0.18065709E-01 0.18829416E+03</pdfrwt>
<pdfrwt beam="2">  1       21 0.46451223E-01 0.18829416E+03</pdfrwt>
<totfact> 0.12398001E+05</totfact>
</mgrwt>
</event>
<event>
 4    1  0.4102458E+000  0.1801130E+03  0.7546771E-02  0.1167694E+00
         21   -1    0    0  503  502  0.00000000000E+00  0.00000000000E+00  0.60113100678E+02  0.60113100678E+02  0.00000000000E+00 0. -1.
         21   -1    0    0  501  503 -0.00000000000E+00 -0.00000000000E+00 -0.75366073940E+03  0.75366073940E+03  0.00000000000E+00 0. -1.
          6    1    1    2  501    0  0.33131174265E+02  0.37603592268E+02 -0.56359028275E+03  0.59167111783E+03  0.17300000000E+03 0. -1.
         -6    1    1    2    0  502 -0.33131174265E+02 -0.37603592268E+02 -0.12995735597E+03  0.22210272225E+03  0.17300000000E+03 0. -1.
<mgrwt>
<rscale>  2 0.18011303E+03</rscale>
<asrwt>0</asrwt>
<pdfrwt beam="1">  1       21 0.92481691E-02 0.18011303E+03</pdfrwt>
<pdfrwt beam="2">  1       21 0.11594781E+00 0.18011303E+03</pdfrwt>
<totfact> 0.53854381E+04</totfact>
</mgrwt>
</event>
<event>
 4    1  0.4102458E+000  0.2093407E+03  0.7546771E-02  0.1142089E+00
         21   -1    0    0  501  502  0.00000000000E+00  0.00000000000E+00  0.83582755869E+02  0.83582755869E+02  0.00000000000E+00 0.  1.
         21   -1    0    0  502  503 -0.00000000000E+00 -0.00000000000E+00 -0.54572855462E+03  0.54572855462E+03  0.00000000000E+00 0. -1.
          6    1    1    2  501    0 -0.19691669525E+02 -0.11621869832E+03 -0.16874117074E+03  0.26888125705E+03  0.17300000000E+03 0.  1.
         -6    1    1    2    0  503  0.19691669525E+02  0.11621869832E+03 -0.29340462801E+03  0.36043005344E+03  0.17300000000E+03 0. -1.
<mgrwt>
<rscale>  2 0.20934075E+03</rscale>
<asrwt>0</asrwt>
<pdfrwt beam="1">  1       21 0.12858885E-01 0.20934075E+03</pdfrwt>
<pdfrwt beam="2">  1       21 0.83958243E-01 0.20934075E+03</pdfrwt>
<totfact> 0.63392361E+04</totfact>
</mgrwt>
</event>
<event>
 4    1  0.4102458E+000  0.4004369E+03  0.7546771E-02  0.1043628E+00
         21   -1    0    0  501  502  0.00000000000E+00  0.00000000000E+00  0.23649706528E+03  0.23649706528E+03  0.00000000000E+00 0.  1.
         21   -1    0    0  502  503 -0.00000000000E+00 -0.00000000000E+00 -0.77103617410E+03  0.77103617410E+03  0.00000000000E+00 0. -1.
          6    1    1    2  501    0 -0.33120083302E+03  0.14396789197E+03 -0.92296492436E+02  0.41093599042E+03  0.17300000000E+03 0.  1.
         -6    1    1    2    0  503  0.33120083302E+03 -0.14396789197E+03 -0.44224261639E+03  0.59659724896E+03  0.17300000000E+03 0. -1.
<mgrwt>
<rscale>  2 0.40043694E+03</rscale>
<asrwt>0</asrwt>
<pdfrwt beam="1">  1       21 0.36384165E-01 0.40043694E+03</pdfrwt>
<pdfrwt beam="2">  1       21 0.11862095E+00 0.40043694E+03</pdfrwt>
<totfact> 0.35091068E+03</totfact>
</mgrwt>
</event>
<event>
 4    1  0.4102458E+000  0.1972810E+03  0.7546771E-02  0.1152054E+00
         21   -1    0    0  503  502  0.00000000000E+00  0.00000000000E+00  0.14332257551E+03  0.14332257551E+03  0.00000000000E+00 0. -1.
         21   -1    0    0  501  503 -0.00000000000E+00 -0.00000000000E+00 -0.35030286487E+03  0.35030286487E+03  0.00000000000E+00 0.  1.
          6    1    1    2  501    0 -0.85154057308E+02  0.41708327916E+02 -0.22051233996E+03  0.29588087158E+03  0.17300000000E+03 0.  1.
         -6    1    1    2    0  502  0.85154057308E+02 -0.41708327916E+02  0.13532050604E+02  0.19774456879E+03  0.17300000000E+03 0. -1.
<mgrwt>
<rscale>  2 0.19728101E+03</rscale>
<asrwt>0</asrwt>
<pdfrwt beam="1">  1       21 0.22049627E-01 0.19728101E+03</pdfrwt>
<pdfrwt beam="2">  1       21 0.53892748E-01 0.19728101E+03</pdfrwt>
<totfact> 0.62453525E+04</totfact>
</mgrwt>
</event>
<event>
 4    1  0.4102458E+000  0.3865347E+03  0.7546771E-02  0.1048545E+00
         21   -1    0    0  501  502  0.00000000000E+00  0.00000000000E+00  0.31439686569E+03  0.31439686569E+03  0.00000000000E+00 0.  1.
         21   -1    0    0  502  503 -0.00000000000E+00 -0.00000000000E+00 -0.47568195475E+03  0.47568195475E+03  0.00000000000E+00 0.  1.
          6    1    1    2  501    0 -0.30950913835E+03  0.15389650580E+03 -0.68389760801E+02  0.39253815178E+03  0.17300000000E+03 0.  1.
         -6    1    1    2    0  503  0.30950913835E+03 -0.15389650580E+03 -0.92895328256E+02  0.39754066865E+03  0.17300000000E+03 0.  1.
<mgrwt>
<rscale>  2 0.38653466E+03</rscale>
<asrwt>0</asrwt>
<pdfrwt beam="1">  1       21 0.48368749E-01 0.38653466E+03</pdfrwt>
<pdfrwt beam="2">  1       21 0.73181839E-01 0.38653466E+03</pdfrwt>
<totfact> 0.61897473E+03</totfact>
</mgrwt>
</event>
<event>
 4    1  0.4102458E+000  0.1956877E+03  0.7546771E-02  0.1153429E+00
         21   -1    0    0  501  502  0.00000000000E+00  0.00000000000E+00  0.23253682645E+02  0.23253682645E+02  0.00000000000E+00 0. -1.
         21   -1    0    0  502  503 -0.00000000000E+00 -0.00000000000E+00 -0.17755704280E+04  0.17755704280E+04  0.00000000000E+00 0. -1.
          6    1    1    2  501    0  0.72598977047E+02 -0.55624328131E+02 -0.63392545928E+03  0.66344190798E+03  0.17300000000E+03 0. -1.
         -6    1    1    2    0  503 -0.72598977047E+02  0.55624328131E+02 -0.11183912861E+04  0.11353822027E+04  0.17300000000E+03 0. -1.
<mgrwt>
<rscale>  2 0.19568770E+03</rscale>
<asrwt>0</asrwt>
<pdfrwt beam="1">  1       21 0.35774882E-02 0.19568770E+03</pdfrwt>
<pdfrwt beam="2">  1       21 0.27316479E+00 0.19568770E+03</pdfrwt>
<totfact> 0.22952058E+04</totfact>
</mgrwt>
</event>
<event>
 4    1  0.4102458E+000  0.2680781E+03  0.7546771E-02  0.1102385E+00
         21   -1    0    0  501  502  0.00000000000E+00  0.00000000000E+00  0.67670577153E+03  0.67670577153E+03  0.00000000000E+00 0. -1.
         21   -1    0    0  502  503 -0.00000000000E+00 -0.00000000000E+00 -0.10840114108E+03  0.10840114108E+03  0.00000000000E+00 0.  1.
          6    1    1    2  501    0 -0.16547459608E+03  0.12064420781E+03  0.34009554348E+03  0.43304831777E+03  0.17300000000E+03 0. -1.
         -6    1    1    2    0  503  0.16547459608E+03 -0.12064420781E+03  0.22820908697E+03  0.35205859485E+03  0.17300000000E+03 0.  1.
<mgrwt>
<rscale>  2 0.26807810E+03</rscale>
<asrwt>0</asrwt>
<pdfrwt beam="1">  1       21 0.10410858E+00 0.26807810E+03</pdfrwt>
<pdfrwt beam="2">  1       21 0.16677099E-01 0.26807810E+03</pdfrwt>
<totfact> 0.23152561E+04</totfact>
</mgrwt>
</event>
<event>
 4    1  0.4102458E+000  0.2597433E+03  0.7546771E-02  0.1107298E+00
         21   -1    0    0  501  502  0.00000000000E+00  0.00000000000E+00  0.12581610262E+04  0.12581610262E+04  0.00000000000E+00 0.  1.
         21   -1    0    0  502  503 -0.00000000000E+00 -0.00000000000E+00 -0.70922557262E+02  0.70922557262E+02  0.00000000000E+00 0.  1.
          6    1    1    2  501    0  0.55759815214E+02  0.18554902969E+03  0.92182431337E+03  0.95771951224E+03  0.17300000000E+03 0.  1.
         -6    1    1    2    0  503 -0.55759815214E+02 -0.18554902969E+03  0.26541415555E+03  0.37136407120E+03  0.17300000000E+03 0.  1.
<mgrwt>
<rscale>  2 0.25974333E+03</rscale>
<asrwt>0</asrwt>
<pdfrwt beam="1">  1       21 0.19356322E+00 0.25974333E+03</pdfrwt>
<pdfrwt beam="2">  1       21 0.10911164E-01 0.25974333E+03</pdfrwt>
<totfact> 0.97833395E+03</totfact>
</mgrwt>
</event>
<event>
 4    1  0.4102458E+000  0.2890823E+03  0.7546771E-02  0.1090829E+00
         21   -1    0    0  501  502  0.00000000000E+00  0.00000000000E+00  0.17613397591E+04  0.17613397591E+04  0.00000000000E+00 0.  1.
         21   -1    0    0  502  503 -0.00000000000E+00 -0.00000000000E+00 -0.48670282865E+02  0.48670282865E+02  0.00000000000E+00 0.  1.
          6    1    1    2  501    0  0.18791612752E+03 -0.13537774016E+03  0.99986786778E+03  0.10408190796E+04  0.17300000000E+03 0.  1.
         -6    1    1    2    0  503 -0.18791612752E+03  0.13537774016E+03  0.71280160848E+03  0.76919096235E+03  0.17300000000E+03 0.  1.
<mgrwt>
<rscale>  2 0.28908235E+03</rscale>
<asrwt>0</asrwt>
<pdfrwt beam="1">  1       21 0.27097530E+00 0.28908235E+03</pdfrwt>
<pdfrwt beam="2">  1       21 0.74877372E-02 0.28908235E+03</pdfrwt>
<totfact> 0.62127867E+03</totfact>
</mgrwt>
</event>
<event>
 4    1  0.4102458E+000  0.1975700E+03  0.7546771E-02  0.1151806E+00
         21   -1    0    0  501  502  0.00000000000E+00  0.00000000000E+00  0.21092682672E+03  0.21092682672E+03  0.00000000000E+00 0.  1.
         21   -1    0    0  502  503 -0.00000000000E+00 -0.00000000000E+00 -0.39232103725E+03  0.39232103725E+03  0.00000000000E+00 0. -1.
          6    1    1    2  501    0 -0.85665361159E+02 -0.42028021912E+02  0.12853536360E+03  0.23570160887E+03  0.17300000000E+03 0.  1.
         -6    1    1    2    0  503  0.85665361159E+02  0.42028021912E+02 -0.30992957412E+03  0.36754625511E+03  0.17300000000E+03 0. -1.
<mgrwt>
<rscale>  2 0.19757001E+03</rscale>
<asrwt>0</asrwt>
<pdfrwt beam="1">  1       21 0.32450281E-01 0.19757001E+03</pdfrwt>
<pdfrwt beam="2">  1       21 0.60357082E-01 0.19757001E+03</pdfrwt>
<totfact> 0.23311266E+04</totfact>
</mgrwt>
</event>
<event>
 4    1  0.4102458E+000  0.1801133E+03  0.7546771E-02  0.1167693E+00
         21   -1    0    0  501  502  0.00000000000E+00  0.00000000000E+00  0.12108318492E+04  0.12108318492E+04  0.00000000000E+00 0. -1.
         21   -1    0    0  502  503 -0.00000000000E+00 -0.00000000000E+00 -0.77084884337E+03  0.77084884337E+03  0.00000000000E+00 0. -1.
          6    1    1    2  501    0  0.41947698333E+02  0.27425781574E+02  0.11934604113E+04  0.12069749526E+04  0.17300000000E+03 0. -1.
         -6    1    1    2    0  503 -0.41947698333E+02 -0.27425781574E+02 -0.75347740549E+03  0.77470573993E+03  0.17300000000E+03 0. -1.
<mgrwt>
<rscale>  2 0.18011325E+03</rscale>
<asrwt>0</asrwt>
<pdfrwt beam="1">  1       21 0.18628182E+00 0.18011325E+03</pdfrwt>
<pdfrwt beam="2">  1       21 0.11859213E+00 0.18011325E+03</pdfrwt>
<totfact> 0.91467454E+01</totfact>
</mgrwt>
</event>
<event>
 4    1  0.4102458E+000  0.2120763E+03  0.7546771E-02  0.1139932E+00
         21   -1    0    0  503  502  0.00000000000E+00  0.00000000000E+00  0.80397960759E+02  0.80397960759E+02  0.00000000000E+00 0.  1.
         21   -1    0    0  501  503 -0.00000000000E+00 -0.00000000000E+00 -0.98919556839E+03  0.98919556839E+03  0.00000000000E+00 0.  1.
          6    1    1    2  501    0  0.39969745676E+02 -0.11597322373E+03 -0.80690573403E+03  0.83431003398E+03  0.17300000000E+03 0.  1.
         -6    1    1    2    0  502 -0.39969745676E+02  0.11597322373E+03 -0.10189187360E+03  0.23528349517E+03  0.17300000000E+03 0.  1.
<mgrwt>
<rscale>  2 0.21207633E+03</rscale>
<asrwt>0</asrwt>
<pdfrwt beam="1">  1       21 0.12368917E-01 0.21207633E+03</pdfrwt>
<pdfrwt beam="2">  1       21 0.15218393E+00 0.21207633E+03</pdfrwt>
<totfact> 0.15778913E+04</totfact>
</mgrwt>
</event>
<event>
 4    1  0.4102458E+000  0.1932126E+03  0.7546771E-02  0.1155595E+00
         21   -1    0    0  501  502  0.00000000000E+00  0.00000000000E+00  0.24211478116E+04  0.24211478116E+04  0.00000000000E+00 0.  1.
         21   -1    0    0  502  503 -0.00000000000E+00 -0.00000000000E+00 -0.15509595250E+02  0.15509595250E+02  0.00000000000E+00 0.  1.
          6    1    1    2  501    0  0.87475703552E+01  0.85589690815E+02  0.12960529439E+04  0.13103756517E+04  0.17300000000E+03 0.  1.
         -6    1    1    2    0  503 -0.87475703552E+01 -0.85589690815E+02  0.11095852725E+04  0.11262817552E+04  0.17300000000E+03 0.  1.
<mgrwt>
<rscale>  2 0.19321262E+03</rscale>
<asrwt>0</asrwt>
<pdfrwt beam="1">  1       21 0.37248398E+00 0.19321262E+03</pdfrwt>
<pdfrwt beam="2">  1       21 0.23860935E-02 0.19321262E+03</pdfrwt>
<totfact> 0.11837667E+04</totfact>
</mgrwt>
</event>
<event>
 4    1  0.4102458E+000  0.2257764E+03  0.7546771E-02  0.1129648E+00
         21   -1    0    0  501  502  0.00000000000E+00  0.00000000000E+00  0.16388060336E+03  0.16388060336E+03  0.00000000000E+00 0. -1.
         21   -1    0    0  502  503 -0.00000000000E+00 -0.00000000000E+00 -0.35646915971E+03  0.35646915971E+03  0.00000000000E+00 0.  1.
          6    1    1    2  501    0 -0.11918518465E+03  0.82709571424E+02 -0.34241013382E+01  0.22580236030E+03  0.17300000000E+03 0. -1.
         -6    1    1    2    0  503  0.11918518465E+03 -0.82709571424E+02 -0.18916445501E+03  0.29454740278E+03  0.17300000000E+03 0. -1.
<mgrwt>
<rscale>  2 0.22577640E+03</rscale>
<asrwt>0</asrwt>
<pdfrwt beam="1">  1       21 0.25212401E-01 0.22577640E+03</pdfrwt>
<pdfrwt beam="2">  1       21 0.54841409E-01 0.22577640E+03</pdfrwt>
<totfact> 0.46036291E+04</totfact>
</mgrwt>
</event>
<event>
 4    1  0.4102458E+000  0.2065661E+03  0.7546771E-02  0.1144314E+00
         21   -1    0    0  503  502  0.00000000000E+00  0.00000000000E+00  0.31164618585E+02  0.31164618585E+02  0.00000000000E+00 0. -1.
         21   -1    0    0  501  503 -0.00000000000E+00 -0.00000000000E+00 -0.13768749537E+04  0.13768749537E+04  0.00000000000E+00 0. -1.
          6    1    1    2  501    0 -0.97958174846E+02  0.56078179470E+02 -0.72553060598E+03  0.75436345779E+03  0.17300000000E+03 0. -1.
         -6    1    1    2    0  502  0.97958174846E+02 -0.56078179470E+02 -0.62017972911E+03  0.65367611447E+03  0.17300000000E+03 0. -1.
<mgrwt>
<rscale>  2 0.20656613E+03</rscale>
<asrwt>0</asrwt>
<pdfrwt beam="1">  1       21 0.47945565E-02 0.20656613E+03</pdfrwt>
<pdfrwt beam="2">  1       21 0.21182692E+00 0.20656613E+03</pdfrwt>
<totfact> 0.32315886E+04</totfact>
</mgrwt>
</event>
<event>
 4    1  0.4102458E+000  0.1884978E+03  0.7546771E-02  0.1159823E+00
         21   -1    0    0  503  502  0.00000000000E+00  0.00000000000E+00  0.74647382568E+02  0.74647382568E+02  0.00000000000E+00 0. -1.
         21   -1    0    0  501  503 -0.00000000000E+00 -0.00000000000E+00 -0.48285079310E+03  0.48285079310E+03  0.00000000000E+00 0. -1.
          6    1    1    2  501    0 -0.17544862807E+01 -0.74828746698E+02 -0.23732854870E+03  0.30307797608E+03  0.17300000000E+03 0.  1.
         -6    1    1    2    0  502  0.17544862807E+01  0.74828746698E+02 -0.17087486183E+03  0.25442019959E+03  0.17300000000E+03 0.  1.
<mgrwt>
<rscale>  2 0.18849780E+03</rscale>
<asrwt>0</asrwt>
<pdfrwt beam="1">  1       21 0.11484212E-01 0.18849780E+03</pdfrwt>
<pdfrwt beam="2">  1       21 0.74284740E-01 0.18849780E+03</pdfrwt>
<totfact> 0.10326316E+05</totfact>
</mgrwt>
</event>
<event>
 4    1  0.4102458E+000  0.1928926E+03  0.7546771E-02  0.1155878E+00
         21   -1    0    0  503  502  0.00000000000E+00  0.00000000000E+00  0.17767014381E+04  0.17767014381E+04  0.00000000000E+00 0. -1.
         21   -1    0    0  501  503 -0.00000000000E+00 -0.00000000000E+00 -0.25142385787E+02  0.25142385787E+02  0.00000000000E+00 0. -1.
          6    1    1    2  501    0 -0.82271655362E+02  0.22581986667E+02  0.50753889936E+03  0.54295792265E+03  0.17300000000E+03 0.  1.
         -6    1    1    2    0  502  0.82271655362E+02 -0.22581986667E+02  0.12440201530E+04  0.12588859012E+04  0.17300000000E+03 0.  1.
<mgrwt>
<rscale>  2 0.19289264E+03</rscale>
<asrwt>0</asrwt>
<pdfrwt beam="1">  1       21 0.27333858E+00 0.19289264E+03</pdfrwt>
<pdfrwt beam="2">  1       21 0.38680607E-02 0.19289264E+03</pdfrwt>
<totfact> 0.20149038E+04</totfact>
</mgrwt>
</event>
<event>
 4    1  0.4102458E+000  0.2410399E+03  0.7546771E-02  0.1119102E+00
         21   -1    0    0  501  502  0.00000000000E+00  0.00000000000E+00  0.62733145927E+02  0.62733145927E+02  0.00000000000E+00 0. -1.
         21   -1    0    0  502  503 -0.00000000000E+00 -0.00000000000E+00 -0.11120329630E+04  0.11120329630E+04  0.00000000000E+00 0.  1.
          6    1    1    2  501    0 -0.13422417938E+03  0.10077244494E+03 -0.28449913034E+03  0.37288063928E+03  0.17300000000E+03 0.  1.
         -6    1    1    2    0  503  0.13422417938E+03 -0.10077244494E+03 -0.76480068671E+03  0.80188546962E+03  0.17300000000E+03 0.  1.
<mgrwt>
<rscale>  2 0.24103986E+03</rscale>
<asrwt>0</asrwt>
<pdfrwt beam="1">  1       21 0.96512537E-02 0.24103986E+03</pdfrwt>
<pdfrwt beam="2">  1       21 0.17108199E+00 0.24103986E+03</pdfrwt>
<totfact> 0.17539318E+04</totfact>
</mgrwt>
</event>
<event>
 4    1  0.4102458E+000  0.2160930E+03  0.7546771E-02  0.1136830E+00
         21   -1    0    0  503  502  0.00000000000E+00  0.00000000000E+00  0.33944793369E+03  0.33944793369E+03  0.00000000000E+00 0. -1.
         21   -1    0    0  501  503 -0.00000000000E+00 -0.00000000000E+00 -0.21182007787E+03  0.21182007787E+03  0.00000000000E+00 0. -1.
          6    1    1    2  501    0 -0.10835851375E+03  0.70891443380E+02 -0.99383095879E+02  0.23785113830E+03  0.17300000000E+03 0. -1.
         -6    1    1    2    0  502  0.10835851375E+03 -0.70891443380E+02  0.22701095171E+03  0.31341687325E+03  0.17300000000E+03 0. -1.
<mgrwt>
<rscale>  2 0.21609295E+03</rscale>
<asrwt>0</asrwt>
<pdfrwt beam="1">  1       21 0.52222759E-01 0.21609295E+03</pdfrwt>
<pdfrwt beam="2">  1       21 0.32587704E-01 0.21609295E+03</pdfrwt>
<totfact> 0.31135055E+04</totfact>
</mgrwt>
</event>
<event>
 4    1  0.4102458E+000  0.1871070E+03  0.7546771E-02  0.1161097E+00
         21   -1    0    0  501  502  0.00000000000E+00  0.00000000000E+00  0.63231927708E+03  0.63231927708E+03  0.00000000000E+00 0. -1.
         21   -1    0    0  502  503 -0.00000000000E+00 -0.00000000000E+00 -0.56660252858E+02  0.56660252858E+02  0.00000000000E+00 0. -1.
          6    1    1    2  501    0 -0.62649664559E+02 -0.33986135057E+02  0.33989305277E+03  0.38799010963E+03  0.17300000000E+03 0. -1.
         -6    1    1    2    0  503  0.62649664559E+02  0.33986135057E+02  0.23576597145E+03  0.30098942031E+03  0.17300000000E+03 0. -1.
<mgrwt>
<rscale>  2 0.18710702E+03</rscale>
<asrwt>0</asrwt>
<pdfrwt beam="1">  1       21 0.97279884E-01 0.18710702E+03</pdfrwt>
<pdfrwt beam="2">  1       21 0.87169624E-02 0.18710702E+03</pdfrwt>
<totfact> 0.90727746E+04</totfact>
</mgrwt>
</event>
<event>
 4    1  0.4102458E+000  0.1781374E+03  0.7546771E-02  0.1169618E+00
         21   -1    0    0  501  502  0.00000000000E+00  0.00000000000E+00  0.65980457789E+03  0.65980457789E+03  0.00000000000E+00 0.  1.
         21   -1    0    0  502  503 -0.00000000000E+00 -0.00000000000E+00 -0.51759992726E+02  0.51759992726E+02  0.00000000000E+00 0.  1.
          6    1    1    2  501    0  0.38328537375E+02  0.18298993531E+02  0.39870204397E+03  0.43668781734E+03  0.17300000000E+03 0. -1.
         -6    1    1    2    0  503 -0.38328537375E+02 -0.18298993531E+02  0.20934254120E+03  0.27487675328E+03  0.17300000000E+03 0. -1.
<mgrwt>
<rscale>  2 0.17813739E+03</rscale>
<asrwt>0</asrwt>
<pdfrwt beam="1">  1       21 0.10150839E+00 0.17813739E+03</pdfrwt>
<pdfrwt beam="2">  1       21 0.79630762E-02 0.17813739E+03</pdfrwt>
<totfact> 0.96419893E+04</totfact>
</mgrwt>
</event>
<event>
 4    1  0.4102458E+000  0.1909630E+03  0.7546771E-02  0.1157596E+00
         21   -1    0    0  503  502  0.00000000000E+00  0.00000000000E+00  0.10580140073E+03  0.10580140073E+03  0.00000000000E+00 0. -1.
         21   -1    0    0  501  503 -0.00000000000E+00 -0.00000000000E+00 -0.39011980431E+03  0.39011980431E+03  0.00000000000E+00 0.  1.
          6    1    1    2  501    0 -0.69467862960E+02  0.41377284295E+02 -0.22679154743E+03  0.29648148277E+03  0.17300000000E+03 0. -1.
         -6    1    1    2    0  502  0.69467862960E+02 -0.41377284295E+02 -0.57526856149E+02  0.19943972227E+03  0.17300000000E+03 0. -1.
<mgrwt>
<rscale>  2 0.19096299E+03</rscale>
<asrwt>0</asrwt>
<pdfrwt beam="1">  1       21 0.16277138E-01 0.19096299E+03</pdfrwt>
<pdfrwt beam="2">  1       21 0.60018432E-01 0.19096299E+03</pdfrwt>
<totfact> 0.87557037E+04</totfact>
</mgrwt>
</event>
<event>
 4    1  0.4102458E+000  0.1827513E+03  0.7546771E-02  0.1165167E+00
         21   -1    0    0  501  502  0.00000000000E+00  0.00000000000E+00  0.48349261449E+03  0.48349261449E+03  0.00000000000E+00 0.  1.
         21   -1    0    0  502  503 -0.00000000000E+00 -0.00000000000E+00 -0.21302551907E+03  0.21302551907E+03  0.00000000000E+00 0. -1.
          6    1    1    2  501    0 -0.49495546562E+02 -0.31925272712E+02  0.42151341050E+03  0.45942527945E+03  0.17300000000E+03 0.  1.
         -6    1    1    2    0  503  0.49495546562E+02  0.31925272712E+02 -0.15104631509E+03  0.23709285411E+03  0.17300000000E+03 0. -1.
<mgrwt>
<rscale>  2 0.18275128E+03</rscale>
<asrwt>0</asrwt>
<pdfrwt beam="1">  1       21 0.74383479E-01 0.18275128E+03</pdfrwt>
<pdfrwt beam="2">  1       21 0.32773157E-01 0.18275128E+03</pdfrwt>
<totfact> 0.14605547E+04</totfact>
</mgrwt>
</event>
<event>
 4    1  0.4102458E+000  0.2578765E+03  0.7546771E-02  0.1108426E+00
         21   -1    0    0  501  502  0.00000000000E+00  0.00000000000E+00  0.23893709198E+03  0.23893709198E+03  0.00000000000E+00 0. -1.
         21   -1    0    0  502  503 -0.00000000000E+00 -0.00000000000E+00 -0.42674700753E+03  0.42674700753E+03  0.00000000000E+00 0.  1.
          6    1    1    2  501    0 -0.12808663255E+03 -0.14200380791E+03  0.10239207068E+03  0.27746063331E+03  0.17300000000E+03 0. -1.
         -6    1    1    2    0  503  0.12808663255E+03  0.14200380791E+03 -0.29020198623E+03  0.38822346620E+03  0.17300000000E+03 0.  1.
<mgrwt>
<rscale>  2 0.25787646E+03</rscale>
<asrwt>0</asrwt>
<pdfrwt beam="1">  1       21 0.36759553E-01 0.25787646E+03</pdfrwt>
<pdfrwt beam="2">  1       21 0.65653385E-01 0.25787646E+03</pdfrwt>
<totfact> 0.14663296E+04</totfact>
</mgrwt>
</event>
<event>
 4    1  0.4102458E+000  0.1812345E+03  0.7546771E-02  0.1166614E+00
         21   -1    0    0  501  502  0.00000000000E+00  0.00000000000E+00  0.53863198108E+03  0.53863198108E+03  0.00000000000E+00 0.  1.
         21   -1    0    0  502  503 -0.00000000000E+00 -0.00000000000E+00 -0.66209949139E+02  0.66209949139E+02  0.00000000000E+00 0.  1.
          6    1    1    2  501    0 -0.50138607372E+02  0.20076620558E+02  0.32120451488E+03  0.36880657671E+03  0.17300000000E+03 0.  1.
         -6    1    1    2    0  503  0.50138607372E+02 -0.20076620558E+02  0.15121751706E+03  0.23603535351E+03  0.17300000000E+03 0.  1.
<mgrwt>
<rscale>  2 0.18123452E+03</rscale>
<asrwt>0</asrwt>
<pdfrwt beam="1">  1       21 0.82866456E-01 0.18123452E+03</pdfrwt>
<pdfrwt beam="2">  1       21 0.10186146E-01 0.18123452E+03</pdfrwt>
<totfact> 0.10018531E+05</totfact>
</mgrwt>
</event>
<event>
 4    1  0.4102458E+000  0.2654098E+03  0.7546771E-02  0.1103936E+00
         21   -1    0    0  501  502  0.00000000000E+00  0.00000000000E+00  0.53230595966E+02  0.53230595966E+02  0.00000000000E+00 0. -1.
         21   -1    0    0  502  503 -0.00000000000E+00 -0.00000000000E+00 -0.13327078130E+04  0.13327078130E+04  0.00000000000E+00 0.  1.
          6    1    1    2  501    0 -0.60400407466E+02 -0.19200297492E+03 -0.58165020171E+03  0.63934287260E+03  0.17300000000E+03 0. -1.
         -6    1    1    2    0  503  0.60400407466E+02  0.19200297492E+03 -0.69782701533E+03  0.74659553637E+03  0.17300000000E+03 0.  1.
<mgrwt>
<rscale>  2 0.26540978E+03</rscale>
<asrwt>0</asrwt>
<pdfrwt beam="1">  1       21 0.81893219E-02 0.26540978E+03</pdfrwt>
<pdfrwt beam="2">  1       21 0.20503198E+00 0.26540978E+03</pdfrwt>
<totfact> 0.13644355E+04</totfact>
</mgrwt>
</event>
<event>
 4    1  0.4102458E+000  0.1872099E+03  0.7546771E-02  0.1161002E+00
         21   -1    0    0  501  502  0.00000000000E+00  0.00000000000E+00  0.23696015011E+03  0.23696015011E+03  0.00000000000E+00 0. -1.
         21   -1    0    0  502  503 -0.00000000000E+00 -0.00000000000E+00 -0.29028646608E+03  0.29028646608E+03  0.00000000000E+00 0. -1.
          6    1    1    2  501    0  0.69921614430E+02 -0.15150187094E+02  0.15796474584E+03  0.24494983417E+03  0.17300000000E+03 0. -1.
         -6    1    1    2    0  503 -0.69921614430E+02  0.15150187094E+02 -0.21129106181E+03  0.28229678201E+03  0.17300000000E+03 0. -1.
<mgrwt>
<rscale>  2 0.18720994E+03</rscale>
<asrwt>0</asrwt>
<pdfrwt beam="1">  1       21 0.36455408E-01 0.18720994E+03</pdfrwt>
<pdfrwt beam="2">  1       21 0.44659456E-01 0.18720994E+03</pdfrwt>
<totfact> 0.35024923E+04</totfact>
</mgrwt>
</event>
<event>
 4    1  0.4102458E+000  0.1942905E+03  0.7546771E-02  0.1154648E+00
         21   -1    0    0  503  502  0.00000000000E+00  0.00000000000E+00  0.25841466511E+03  0.25841466511E+03  0.00000000000E+00 0.  1.
         21   -1    0    0  501  503 -0.00000000000E+00 -0.00000000000E+00 -0.14724022949E+03  0.14724022949E+03  0.00000000000E+00 0.  1.
          6    1    1    2  501    0  0.68110444392E+02  0.56398294729E+02  0.73604325098E+02  0.20776524482E+03  0.17300000000E+03 0.  1.
         -6    1    1    2    0  502 -0.68110444392E+02 -0.56398294729E+02  0.37570110529E+02  0.19788964978E+03  0.17300000000E+03 0.  1.
<mgrwt>
<rscale>  2 0.19429050E+03</rscale>
<asrwt>0</asrwt>
<pdfrwt beam="1">  1       21 0.39756102E-01 0.19429050E+03</pdfrwt>
<pdfrwt beam="2">  1       21 0.22652343E-01 0.19429050E+03</pdfrwt>
<totfact> 0.11133682E+05</totfact>
</mgrwt>
</event>
<event>
 4    1  0.4102458E+000  0.1798553E+03  0.7546771E-02  0.1167943E+00
         21   -1    0    0  501  502  0.00000000000E+00  0.00000000000E+00  0.74559779378E+03  0.74559779378E+03  0.00000000000E+00 0.  1.
         21   -1    0    0  502  503 -0.00000000000E+00 -0.00000000000E+00 -0.45273349729E+02  0.45273349729E+02  0.00000000000E+00 0.  1.
          6    1    1    2  501    0  0.45361193543E+02 -0.19007209174E+02  0.43091774851E+03  0.46694541208E+03  0.17300000000E+03 0.  1.
         -6    1    1    2    0  503 -0.45361193543E+02  0.19007209174E+02  0.26940669554E+03  0.32392573143E+03  0.17300000000E+03 0.  1.
<mgrwt>
<rscale>  2 0.17985525E+03</rscale>
<asrwt>0</asrwt>
<pdfrwt beam="1">  1       21 0.11470734E+00 0.17985525E+03</pdfrwt>
<pdfrwt beam="2">  1       21 0.69651313E-02 0.17985525E+03</pdfrwt>
<totfact> 0.90514237E+04</totfact>
</mgrwt>
</event>
<event>
 4    1  0.4102458E+000  0.2292926E+03  0.7546771E-02  0.1127139E+00
         21   -1    0    0  503  502  0.00000000000E+00  0.00000000000E+00  0.39666142162E+03  0.39666142162E+03  0.00000000000E+00 0.  1.
         21   -1    0    0  501  503 -0.00000000000E+00 -0.00000000000E+00 -0.14947927592E+03  0.14947927592E+03  0.00000000000E+00 0.  1.
          6    1    1    2  501    0 -0.10952446641E+03 -0.10320114010E+03  0.31677334540E+02  0.23147038166E+03  0.17300000000E+03 0.  1.
         -6    1    1    2    0  502  0.10952446641E+03  0.10320114010E+03  0.21550481116E+03  0.31467031588E+03  0.17300000000E+03 0.  1.
<mgrwt>
<rscale>  2 0.22929257E+03</rscale>
<asrwt>0</asrwt>
<pdfrwt beam="1">  1       21 0.61024834E-01 0.22929257E+03</pdfrwt>
<pdfrwt beam="2">  1       21 0.22996812E-01 0.22929257E+03</pdfrwt>
<totfact> 0.43577509E+04</totfact>
</mgrwt>
</event>
<event>
 4    1  0.4102458E+000  0.2165123E+03  0.7546771E-02  0.1136510E+00
         21   -1    0    0  503  502  0.00000000000E+00  0.00000000000E+00  0.19141244218E+03  0.19141244218E+03  0.00000000000E+00 0.  1.
         21   -1    0    0  501  503 -0.00000000000E+00 -0.00000000000E+00 -0.37644736117E+03  0.37644736117E+03  0.00000000000E+00 0.  1.
          6    1    1    2  501    0 -0.57326051610E+02 -0.11688578363E+03 -0.26035705360E+03  0.33861978378E+03  0.17300000000E+03 0.  1.
         -6    1    1    2    0  502  0.57326051610E+02  0.11688578363E+03  0.75322134610E+02  0.22924001957E+03  0.17300000000E+03 0.  1.
<mgrwt>
<rscale>  2 0.21651227E+03</rscale>
<asrwt>0</asrwt>
<pdfrwt beam="1">  1       21 0.29448068E-01 0.21651227E+03</pdfrwt>
<pdfrwt beam="2">  1       21 0.57914979E-01 0.21651227E+03</pdfrwt>
<totfact> 0.30487370E+04</totfact>
</mgrwt>
</event>
<event>
 4    1  0.4102458E+000  0.2075063E+03  0.7546771E-02  0.1143556E+00
         21   -1    0    0  503  502  0.00000000000E+00  0.00000000000E+00  0.38168538255E+03  0.38168538255E+03  0.00000000000E+00 0. -1.
         21   -1    0    0  501  503 -0.00000000000E+00 -0.00000000000E+00 -0.15552132554E+03  0.15552132554E+03  0.00000000000E+00 0. -1.
          6    1    1    2  501    0  0.11417694039E+03  0.96698265694E+01 -0.27676692052E+02  0.20934392407E+03  0.17300000000E+03 0. -1.
         -6    1    1    2    0  502 -0.11417694039E+03 -0.96698265694E+01  0.25384074906E+03  0.32786278402E+03  0.17300000000E+03 0. -1.
<mgrwt>
<rscale>  2 0.20750634E+03</rscale>
<asrwt>0</asrwt>
<pdfrwt beam="1">  1       21 0.58720828E-01 0.20750634E+03</pdfrwt>
<pdfrwt beam="2">  1       21 0.23926358E-01 0.20750634E+03</pdfrwt>
<totfact> 0.44356072E+04</totfact>
</mgrwt>
</event>
<event>
 4    1  0.4102458E+000  0.2058459E+03  0.7546771E-02  0.1144898E+00
         21   -1    0    0  503  502  0.00000000000E+00  0.00000000000E+00  0.49718108884E+02  0.49718108884E+02  0.00000000000E+00 0.  1.
         21   -1    0    0  501  503 -0.00000000000E+00 -0.00000000000E+00 -0.89534263227E+03  0.89534263227E+03  0.00000000000E+00 0. -1.
          6    1    1    2  501    0  0.10553149678E+03 -0.36147575455E+02 -0.52647141214E+03  0.56528284233E+03  0.17300000000E+03 0. -1.
         -6    1    1    2    0  502 -0.10553149678E+03  0.36147575455E+02 -0.31915311124E+03  0.37977789883E+03  0.17300000000E+03 0.  1.
<mgrwt>
<rscale>  2 0.20584592E+03</rscale>
<asrwt>0</asrwt>
<pdfrwt beam="1">  1       21 0.76489396E-02 0.20584592E+03</pdfrwt>
<pdfrwt beam="2">  1       21 0.13774503E+00 0.20584592E+03</pdfrwt>
<totfact> 0.48056994E+04</totfact>
</mgrwt>
</event>
<event>
 4    1  0.4102458E+000  0.2378823E+03  0.7546771E-02  0.1121212E+00
         21   -1    0    0  501  502  0.00000000000E+00  0.00000000000E+00  0.10993324470E+03  0.10993324470E+03  0.00000000000E+00 0. -1.
         21   -1    0    0  502  503 -0.00000000000E+00 -0.00000000000E+00 -0.11161214225E+04  0.11161214225E+04  0.00000000000E+00 0. -1.
          6    1    1    2  501    0  0.12226630195E+03 -0.10821242501E+03 -0.53111161621E+02  0.24373914952E+03  0.17300000000E+03 0. -1.
         -6    1    1    2    0  503 -0.12226630195E+03  0.10821242501E+03 -0.95307701619E+03  0.98231551770E+03  0.17300000000E+03 0. -1.
<mgrwt>
<rscale>  2 0.23788228E+03</rscale>
<asrwt>0</asrwt>
<pdfrwt beam="1">  1       21 0.16912808E-01 0.23788228E+03</pdfrwt>
<pdfrwt beam="2">  1       21 0.17171098E+00 0.23788228E+03</pdfrwt>
<totfact> 0.63096778E+03</totfact>
</mgrwt>
</event>
<event>
 4    1  0.4102458E+000  0.1767162E+03  0.7546771E-02  0.1171019E+00
         21   -1    0    0  501  502  0.00000000000E+00  0.00000000000E+00  0.94856324617E+03  0.94856324617E+03  0.00000000000E+00 0. -1.
         21   -1    0    0  502  503 -0.00000000000E+00 -0.00000000000E+00 -0.35883645243E+02  0.35883645243E+02  0.00000000000E+00 0. -1.
          6    1    1    2  501    0 -0.35254795927E+02  0.75315414195E+01  0.59774929216E+03  0.62332402571E+03  0.17300000000E+03 0. -1.
         -6    1    1    2    0  503  0.35254795927E+02 -0.75315414195E+01  0.31493030876E+03  0.36112286570E+03  0.17300000000E+03 0. -1.
<mgrwt>
<rscale>  2 0.17671623E+03</rscale>
<asrwt>0</asrwt>
<pdfrwt beam="1">  1       21 0.14593279E+00 0.17671623E+03</pdfrwt>
<pdfrwt beam="2">  1       21 0.55205615E-02 0.17671623E+03</pdfrwt>
<totfact> 0.73620350E+04</totfact>
</mgrwt>
</event>
<event>
 4    1  0.4102458E+000  0.2276283E+03  0.7546771E-02  0.1128320E+00
         21   -1    0    0  503  502  0.00000000000E+00  0.00000000000E+00  0.97518031043E+03  0.97518031043E+03  0.00000000000E+00 0.  1.
         21   -1    0    0  501  503 -0.00000000000E+00 -0.00000000000E+00 -0.55199076940E+03  0.55199076940E+03  0.00000000000E+00 0.  1.
          6    1    1    2  501    0 -0.14793672483E+03 -0.59965661917E+00 -0.51431056584E+03  0.56243221127E+03  0.17300000000E+03 0.  1.
         -6    1    1    2    0  502  0.14793672483E+03  0.59965661917E+00  0.93750010686E+03  0.96473886856E+03  0.17300000000E+03 0.  1.
<mgrwt>
<rscale>  2 0.22762828E+03</rscale>
<asrwt>0</asrwt>
<pdfrwt beam="1">  1       21 0.15002774E+00 0.22762828E+03</pdfrwt>
<pdfrwt beam="2">  1       21 0.84921657E-01 0.22762828E+03</pdfrwt>
<totfact> 0.34498518E+02</totfact>
</mgrwt>
</event>
<event>
 4    1  0.4102458E+000  0.2075914E+03  0.7546771E-02  0.1143488E+00
         21   -1    0    0  501  502  0.00000000000E+00  0.00000000000E+00  0.64252173402E+03  0.64252173402E+03  0.00000000000E+00 0. -1.
         21   -1    0    0  502  503 -0.00000000000E+00 -0.00000000000E+00 -0.90020636722E+02  0.90020636722E+02  0.00000000000E+00 0. -1.
          6    1    1    2  501    0  0.10824324370E+03 -0.38060267584E+02  0.46118822042E+03  0.50575563114E+03  0.17300000000E+03 0. -1.
         -6    1    1    2    0  503 -0.10824324370E+03  0.38060267584E+02  0.91312876876E+02  0.22678673960E+03  0.17300000000E+03 0. -1.
<mgrwt>
<rscale>  2 0.20759139E+03</rscale>
<asrwt>0</asrwt>
<pdfrwt beam="1">  1       21 0.98849494E-01 0.20759139E+03</pdfrwt>
<pdfrwt beam="2">  1       21 0.13849329E-01 0.20759139E+03</pdfrwt>
<totfact> 0.37950437E+04</totfact>
</mgrwt>
</event>
<event>
 4    1  0.4102458E+000  0.2909537E+03  0.7546771E-02  0.1089852E+00
         21   -1    0    0  501  502  0.00000000000E+00  0.00000000000E+00  0.42990022060E+03  0.42990022060E+03  0.00000000000E+00 0.  1.
         21   -1    0    0  502  503 -0.00000000000E+00 -0.00000000000E+00 -0.27253710698E+03  0.27253710698E+03  0.00000000000E+00 0. -1.
          6    1    1    2  501    0  0.51441950912E+02  0.22820776135E+03  0.26368825439E+03  0.39266468157E+03  0.17300000000E+03 0.  1.
         -6    1    1    2    0  503 -0.51441950912E+02 -0.22820776135E+03 -0.10632514077E+03  0.30977264601E+03  0.17300000000E+03 0. -1.
<mgrwt>
<rscale>  2 0.29095370E+03</rscale>
<asrwt>0</asrwt>
<pdfrwt beam="1">  1       21 0.66138495E-01 0.29095370E+03</pdfrwt>
<pdfrwt beam="2">  1       21 0.41928786E-01 0.29095370E+03</pdfrwt>
<totfact> 0.10869274E+04</totfact>
</mgrwt>
</event>
<event>
 4    1  0.4102458E+000  0.2373233E+03  0.7546771E-02  0.1121589E+00
         21   -1    0    0  501  502  0.00000000000E+00  0.00000000000E+00  0.36540520666E+03  0.36540520666E+03  0.00000000000E+00 0. -1.
         21   -1    0    0  502  503 -0.00000000000E+00 -0.00000000000E+00 -0.16068305127E+03  0.16068305127E+03  0.00000000000E+00 0.  1.
          6    1    1    2  501    0 -0.12667492861E+03  0.10171935628E+03  0.15545467083E+03  0.28370498703E+03  0.17300000000E+03 0. -1.
         -6    1    1    2    0  503  0.12667492861E+03 -0.10171935628E+03  0.49267484558E+02  0.24238327091E+03  0.17300000000E+03 0.  1.
<mgrwt>
<rscale>  2 0.23732333E+03</rscale>
<asrwt>0</asrwt>
<pdfrwt beam="1">  1       21 0.56216185E-01 0.23732333E+03</pdfrwt>
<pdfrwt beam="2">  1       21 0.24720470E-01 0.23732333E+03</pdfrwt>
<totfact> 0.45126128E+04</totfact>
</mgrwt>
</event>
<event>
 4    1  0.4102458E+000  0.2257491E+03  0.7546771E-02  0.1129668E+00
         21   -1    0    0  501  502  0.00000000000E+00  0.00000000000E+00  0.82093987059E+03  0.82093987059E+03  0.00000000000E+00 0. -1.
         21   -1    0    0  502  503 -0.00000000000E+00 -0.00000000000E+00 -0.17231636410E+03  0.17231636410E+03  0.00000000000E+00 0.  1.
          6    1    1    2  501    0  0.63835545821E+02 -0.13022550509E+03  0.72153400955E+03  0.75602512261E+03  0.17300000000E+03 0.  1.
         -6    1    1    2    0  503 -0.63835545821E+02  0.13022550509E+03 -0.72910503055E+02  0.23723111209E+03  0.17300000000E+03 0.  1.
<mgrwt>
<rscale>  2 0.22574911E+03</rscale>
<asrwt>0</asrwt>
<pdfrwt beam="1">  1       21 0.12629844E+00 0.22574911E+03</pdfrwt>
<pdfrwt beam="2">  1       21 0.26510210E-01 0.22574911E+03</pdfrwt>
<totfact> 0.61381416E+03</totfact>
</mgrwt>
</event>
<event>
 4    1  0.4102458E+000  0.1892359E+03  0.7546771E-02  0.1159152E+00
         21   -1    0    0  501  502  0.00000000000E+00  0.00000000000E+00  0.26554622982E+03  0.26554622982E+03  0.00000000000E+00 0.  1.
         21   -1    0    0  502  503 -0.00000000000E+00 -0.00000000000E+00 -0.20012976990E+03  0.20012976990E+03  0.00000000000E+00 0.  1.
          6    1    1    2  501    0  0.83394308979E+01  0.76234296122E+02  0.16568352801E+03  0.25151788300E+03  0.17300000000E+03 0.  1.
         -6    1    1    2    0  503 -0.83394308979E+01 -0.76234296122E+02 -0.10026706810E+03  0.21415811672E+03  0.17300000000E+03 0.  1.
<mgrwt>
<rscale>  2 0.18923587E+03</rscale>
<asrwt>0</asrwt>
<pdfrwt beam="1">  1       21 0.40853266E-01 0.18923587E+03</pdfrwt>
<pdfrwt beam="2">  1       21 0.30789195E-01 0.18923587E+03</pdfrwt>
<totfact> 0.58554702E+04</totfact>
</mgrwt>
</event>
<event>
 4    1  0.4102458E+000  0.2092995E+03  0.7546771E-02  0.1142122E+00
         21   -1    0    0  503  502  0.00000000000E+00  0.00000000000E+00  0.36936894498E+03  0.36936894498E+03  0.00000000000E+00 0. -1.
         21   -1    0    0  501  503 -0.00000000000E+00 -0.00000000000E+00 -0.11967775557E+03  0.11967775557E+03  0.00000000000E+00 0. -1.
          6    1    1    2  501    0  0.94696241913E+02 -0.70070568380E+02  0.10161496875E+03  0.23266255534E+03  0.17300000000E+03 0. -1.
         -6    1    1    2    0  502 -0.94696241913E+02  0.70070568380E+02  0.14807622066E+03  0.25638414520E+03  0.17300000000E+03 0. -1.
<mgrwt>
<rscale>  2 0.20929946E+03</rscale>
<asrwt>0</asrwt>
<pdfrwt beam="1">  1       21 0.56825991E-01 0.20929946E+03</pdfrwt>
<pdfrwt beam="2">  1       21 0.18411963E-01 0.20929946E+03</pdfrwt>
<totfact> 0.77796474E+04</totfact>
</mgrwt>
</event>
<event>
 4    1  0.4102458E+000  0.1830715E+03  0.7546771E-02  0.1164863E+00
         21   -1    0    0  503  502  0.00000000000E+00  0.00000000000E+00  0.88086803094E+02  0.88086803094E+02  0.00000000000E+00 0.  1.
         21   -1    0    0  501  503 -0.00000000000E+00 -0.00000000000E+00 -0.38592554911E+03  0.38592554911E+03  0.00000000000E+00 0.  1.
          6    1    1    2  501    0 -0.59852469305E+02  0.19633910951E+01 -0.17707539012E+03  0.25469759868E+03  0.17300000000E+03 0.  1.
         -6    1    1    2    0  502  0.59852469305E+02 -0.19633910951E+01 -0.12076335589E+03  0.21931475352E+03  0.17300000000E+03 0.  1.
<mgrwt>
<rscale>  2 0.18307150E+03</rscale>
<asrwt>0</asrwt>
<pdfrwt beam="1">  1       21 0.13551816E-01 0.18307150E+03</pdfrwt>
<pdfrwt beam="2">  1       21 0.59373161E-01 0.18307150E+03</pdfrwt>
<totfact> 0.12540566E+05</totfact>
</mgrwt>
</event>
<event>
 4    1  0.4102458E+000  0.1821246E+03  0.7546771E-02  0.1165763E+00
         21   -1    0    0  501  502  0.00000000000E+00  0.00000000000E+00  0.24591264677E+03  0.24591264677E+03  0.00000000000E+00 0. -1.
         21   -1    0    0  502  503 -0.00000000000E+00 -0.00000000000E+00 -0.13493840233E+03  0.13493840233E+03  0.00000000000E+00 0. -1.
          6    1    1    2  501    0  0.19192767227E+01  0.56891919358E+02  0.59354335733E+02  0.19155237216E+03  0.17300000000E+03 0. -1.
         -6    1    1    2    0  503 -0.19192767227E+01 -0.56891919358E+02  0.51619908707E+02  0.18929867693E+03  0.17300000000E+03 0. -1.
<mgrwt>
<rscale>  2 0.18212461E+03</rscale>
<asrwt>0</asrwt>
<pdfrwt beam="1">  1       21 0.37832715E-01 0.18212461E+03</pdfrwt>
<pdfrwt beam="2">  1       21 0.20759754E-01 0.18212461E+03</pdfrwt>
<totfact> 0.14554844E+05</totfact>
</mgrwt>
</event>
<event>
 4    1  0.4102458E+000  0.1772123E+03  0.7546771E-02  0.1170529E+00
         21   -1    0    0  503  502  0.00000000000E+00  0.00000000000E+00  0.28401028438E+03  0.28401028438E+03  0.00000000000E+00 0.  1.
         21   -1    0    0  501  503 -0.00000000000E+00 -0.00000000000E+00 -0.11265674349E+03  0.11265674349E+03  0.00000000000E+00 0.  1.
          6    1    1    2  501    0  0.35543382208E+02 -0.14555807515E+02  0.11264279415E+03  0.20998238647E+03  0.17300000000E+03 0.  1.
         -6    1    1    2    0  502 -0.35543382208E+02  0.14555807515E+02  0.58710746735E+02  0.18668464140E+03  0.17300000000E+03 0.  1.
<mgrwt>
<rscale>  2 0.17721231E+03</rscale>
<asrwt>0</asrwt>
<pdfrwt beam="1">  1       21 0.43693890E-01 0.17721231E+03</pdfrwt>
<pdfrwt beam="2">  1       21 0.17331807E-01 0.17721231E+03</pdfrwt>
<totfact> 0.15229671E+05</totfact>
</mgrwt>
</event>
<event>
 4    1  0.4102458E+000  0.1732781E+03  0.7546771E-02  0.1174472E+00
         21   -1    0    0  503  502  0.00000000000E+00  0.00000000000E+00  0.25517120395E+04  0.25517120395E+04  0.00000000000E+00 0. -1.
         21   -1    0    0  501  503 -0.00000000000E+00 -0.00000000000E+00 -0.14804425686E+02  0.14804425686E+02  0.00000000000E+00 0. -1.
          6    1    1    2  501    0  0.81712277606E+01 -0.54331637892E+01  0.68716638727E+03  0.70867688831E+03  0.17300000000E+03 0. -1.
         -6    1    1    2    0  502 -0.81712277606E+01  0.54331637892E+01  0.18497412266E+04  0.18578395769E+04  0.17300000000E+03 0. -1.
<mgrwt>
<rscale>  2 0.17327807E+03</rscale>
<asrwt>0</asrwt>
<pdfrwt beam="1">  1       21 0.39257073E+00 0.17327807E+03</pdfrwt>
<pdfrwt beam="2">  1       21 0.22776060E-02 0.17327807E+03</pdfrwt>
<totfact> 0.98986521E+03</totfact>
</mgrwt>
</event>
<event>
 4    1  0.4102458E+000  0.2016763E+03  0.7546771E-02  0.1148332E+00
         21   -1    0    0  503  502  0.00000000000E+00  0.00000000000E+00  0.75203582571E+03  0.75203582571E+03  0.00000000000E+00 0.  1.
         21   -1    0    0  501  503 -0.00000000000E+00 -0.00000000000E+00 -0.60493341348E+02  0.60493341348E+02  0.00000000000E+00 0. -1.
          6    1    1    2  501    0 -0.10261163920E+03  0.14668681468E+02  0.47800802565E+03  0.51881113259E+03  0.17300000000E+03 0.  1.
         -6    1    1    2    0  502  0.10261163920E+03 -0.14668681468E+02  0.21353445872E+03  0.29371803447E+03  0.17300000000E+03 0. -1.
<mgrwt>
<rscale>  2 0.20167627E+03</rscale>
<asrwt>0</asrwt>
<pdfrwt beam="1">  1       21 0.11569781E+00 0.20167627E+03</pdfrwt>
<pdfrwt beam="2">  1       21 0.93066684E-02 0.20167627E+03</pdfrwt>
<totfact> 0.52953940E+04</totfact>
</mgrwt>
</event>
<event>
 4    1  0.4102458E+000  0.1924666E+03  0.7546771E-02  0.1156255E+00
         21   -1    0    0  501  502  0.00000000000E+00  0.00000000000E+00  0.34013243809E+02  0.34013243809E+02  0.00000000000E+00 0.  1.
         21   -1    0    0  502  503 -0.00000000000E+00 -0.00000000000E+00 -0.11302571830E+04  0.11302571830E+04  0.00000000000E+00 0.  1.
          6    1    1    2  501    0 -0.80275263403E+02  0.25889324255E+02 -0.43701849005E+03  0.47752333521E+03  0.17300000000E+03 0.  1.
         -6    1    1    2    0  503  0.80275263403E+02 -0.25889324255E+02 -0.65922544915E+03  0.68674709161E+03  0.17300000000E+03 0.  1.
<mgrwt>
<rscale>  2 0.19246656E+03</rscale>
<asrwt>0</asrwt>
<pdfrwt beam="1">  1       21 0.52328075E-02 0.19246656E+03</pdfrwt>
<pdfrwt beam="2">  1       21 0.17388570E+00 0.19246656E+03</pdfrwt>
<totfact> 0.49920664E+04</totfact>
</mgrwt>
</event>
<event>
 4    1  0.4102458E+000  0.1731827E+03  0.7546771E-02  0.1174569E+00
         21   -1    0    0  501  502  0.00000000000E+00  0.00000000000E+00  0.30637805335E+03  0.30637805335E+03  0.00000000000E+00 0. -1.
         21   -1    0    0  502  503 -0.00000000000E+00 -0.00000000000E+00 -0.13395555354E+03  0.13395555354E+03  0.00000000000E+00 0. -1.
          6    1    1    2  501    0 -0.78279398146E+01 -0.14024672135E+01  0.20044650856E+03  0.26489818110E+03  0.17300000000E+03 0. -1.
         -6    1    1    2    0  503  0.78279398146E+01  0.14024672135E+01 -0.28024008750E+02  0.17543542579E+03  0.17300000000E+03 0. -1.
<mgrwt>
<rscale>  2 0.17318269E+03</rscale>
<asrwt>0</asrwt>
<pdfrwt beam="1">  1       21 0.47135085E-01 0.17318269E+03</pdfrwt>
<pdfrwt beam="2">  1       21 0.20608547E-01 0.17318269E+03</pdfrwt>
<totfact> 0.94716107E+04</totfact>
</mgrwt>
</event>
<event>
 4    1  0.4102458E+000  0.1783421E+03  0.7546771E-02  0.1169417E+00
         21   -1    0    0  503  502  0.00000000000E+00  0.00000000000E+00  0.66897402680E+02  0.66897402680E+02  0.00000000000E+00 0. -1.
         21   -1    0    0  501  503 -0.00000000000E+00 -0.00000000000E+00 -0.12710854189E+04  0.12710854189E+04  0.00000000000E+00 0. -1.
          6    1    1    2  501    0 -0.35085305880E+02 -0.25414810070E+02 -0.11313821705E+04  0.11453521324E+04  0.17300000000E+03 0. -1.
         -6    1    1    2    0  502  0.35085305880E+02  0.25414810070E+02 -0.72805845643E+02  0.19263068919E+03  0.17300000000E+03 0. -1.
<mgrwt>
<rscale>  2 0.17834206E+03</rscale>
<asrwt>0</asrwt>
<pdfrwt beam="1">  1       21 0.10291910E-01 0.17834206E+03</pdfrwt>
<pdfrwt beam="2">  1       21 0.19555156E+00 0.17834206E+03</pdfrwt>
<totfact> 0.11196593E+04</totfact>
</mgrwt>
</event>
<event>
 4    1  0.4102458E+000  0.1798305E+03  0.7546771E-02  0.1167967E+00
         21   -1    0    0  503  502  0.00000000000E+00  0.00000000000E+00  0.32375701595E+03  0.32375701595E+03  0.00000000000E+00 0. -1.
         21   -1    0    0  501  503 -0.00000000000E+00 -0.00000000000E+00 -0.10950402652E+03  0.10950402652E+03  0.00000000000E+00 0. -1.
          6    1    1    2  501    0 -0.18708698891E+02 -0.45387139619E+02  0.42926850328E+02  0.18488299634E+03  0.17300000000E+03 0.  1.
         -6    1    1    2    0  502  0.18708698891E+02  0.45387139619E+02  0.17132613911E+03  0.24837804613E+03  0.17300000000E+03 0.  1.
<mgrwt>
<rscale>  2 0.17983050E+03</rscale>
<asrwt>0</asrwt>
<pdfrwt beam="1">  1       21 0.49808771E-01 0.17983050E+03</pdfrwt>
<pdfrwt beam="2">  1       21 0.16846773E-01 0.17983050E+03</pdfrwt>
<totfact> 0.12239075E+05</totfact>
</mgrwt>
</event>
<event>
 4    1  0.4102458E+000  0.2754723E+03  0.7546771E-02  0.1098188E+00
         21   -1    0    0  501  502  0.00000000000E+00  0.00000000000E+00  0.26189894216E+04  0.26189894216E+04  0.00000000000E+00 0.  1.
         21   -1    0    0  502  503 -0.00000000000E+00 -0.00000000000E+00 -0.41359464738E+02  0.41359464738E+02  0.00000000000E+00 0.  1.
          6    1    1    2  501    0 -0.78638246524E+02 -0.19942917239E+03  0.20166977464E+04  0.20354249603E+04  0.17300000000E+03 0.  1.
         -6    1    1    2    0  503  0.78638246524E+02  0.19942917239E+03  0.56093221045E+03  0.62492392604E+03  0.17300000000E+03 0.  1.
<mgrwt>
<rscale>  2 0.27547226E+03</rscale>
<asrwt>0</asrwt>
<pdfrwt beam="1">  1       21 0.40292132E+00 0.27547226E+03</pdfrwt>
<pdfrwt beam="2">  1       21 0.63629966E-02 0.27547226E+03</pdfrwt>
<totfact> 0.13426458E+03</totfact>
</mgrwt>
</event>
<event>
 4    1  0.4102458E+000  0.1808887E+03  0.7546771E-02  0.1166946E+00
         21   -1    0    0  501  502  0.00000000000E+00  0.00000000000E+00  0.58894434878E+03  0.58894434878E+03  0.00000000000E+00 0.  1.
         21   -1    0    0  502  503 -0.00000000000E+00 -0.00000000000E+00 -0.12004626117E+03  0.12004626117E+03  0.00000000000E+00 0.  1.
          6    1    1    2  501    0  0.12257976460E+02 -0.51395319438E+02  0.49427082078E+03  0.52633105658E+03  0.17300000000E+03 0.  1.
         -6    1    1    2    0  503 -0.12257976460E+02  0.51395319438E+02 -0.25372733174E+02  0.18265955337E+03  0.17300000000E+03 0.  1.
<mgrwt>
<rscale>  2 0.18088874E+03</rscale>
<asrwt>0</asrwt>
<pdfrwt beam="1">  1       21 0.90606821E-01 0.18088874E+03</pdfrwt>
<pdfrwt beam="2">  1       21 0.18468656E-01 0.18088874E+03</pdfrwt>
<totfact> 0.27876438E+04</totfact>
</mgrwt>
</event>
<event>
 4    1  0.4102458E+000  0.1854588E+03  0.7546771E-02  0.1162622E+00
         21   -1    0    0  501  502  0.00000000000E+00  0.00000000000E+00  0.14388187863E+04  0.14388187863E+04  0.00000000000E+00 0. -1.
         21   -1    0    0  502  503 -0.00000000000E+00 -0.00000000000E+00 -0.25172050649E+02  0.25172050649E+02  0.00000000000E+00 0.  1.
          6    1    1    2  501    0 -0.40096232228E+02  0.53462590623E+02  0.87105123182E+03  0.89057577156E+03  0.17300000000E+03 0. -1.
         -6    1    1    2    0  503  0.40096232228E+02 -0.53462590623E+02  0.54259550380E+03  0.57341506536E+03  0.17300000000E+03 0.  1.
<mgrwt>
<rscale>  2 0.18545877E+03</rscale>
<asrwt>0</asrwt>
<pdfrwt beam="1">  1       21 0.22135667E+00 0.18545877E+03</pdfrwt>
<pdfrwt beam="2">  1       21 0.38726243E-02 0.18545877E+03</pdfrwt>
<totfact> 0.41040342E+04</totfact>
</mgrwt>
</event>
<event>
 4    1  0.4102458E+000  0.1955545E+03  0.7546771E-02  0.1153545E+00
         21   -1    0    0  501  502  0.00000000000E+00  0.00000000000E+00  0.92109081546E+02  0.92109081546E+02  0.00000000000E+00 0. -1.
         21   -1    0    0  502  503 -0.00000000000E+00 -0.00000000000E+00 -0.10589968507E+04  0.10589968507E+04  0.00000000000E+00 0. -1.
          6    1    1    2  501    0 -0.13574756307E+02  0.90157090974E+02 -0.34677691289E+02  0.19860543128E+03  0.17300000000E+03 0. -1.
         -6    1    1    2    0  503  0.13574756307E+02 -0.90157090974E+02 -0.93221007784E+03  0.95250050094E+03  0.17300000000E+03 0. -1.
<mgrwt>
<rscale>  2 0.19555453E+03</rscale>
<asrwt>0</asrwt>
<pdfrwt beam="1">  1       21 0.14170628E-01 0.19555453E+03</pdfrwt>
<pdfrwt beam="2">  1       21 0.16292260E+00 0.19555453E+03</pdfrwt>
<totfact> 0.10402048E+04</totfact>
</mgrwt>
</event>
<event>
 4    1  0.4102458E+000  0.1860805E+03  0.7546771E-02  0.1162045E+00
         21   -1    0    0  501  502  0.00000000000E+00  0.00000000000E+00  0.22990982349E+03  0.22990982349E+03  0.00000000000E+00 0. -1.
         21   -1    0    0  502  503 -0.00000000000E+00 -0.00000000000E+00 -0.42137244845E+03  0.42137244845E+03  0.00000000000E+00 0.  1.
          6    1    1    2  501    0  0.49529424836E+02 -0.47368698552E+02  0.16530628522E+03  0.24890183901E+03  0.17300000000E+03 0. -1.
         -6    1    1    2    0  503 -0.49529424836E+02  0.47368698552E+02 -0.35676891019E+03  0.40238043293E+03  0.17300000000E+03 0.  1.
<mgrwt>
<rscale>  2 0.18608051E+03</rscale>
<asrwt>0</asrwt>
<pdfrwt beam="1">  1       21 0.35370743E-01 0.18608051E+03</pdfrwt>
<pdfrwt beam="2">  1       21 0.64826529E-01 0.18608051E+03</pdfrwt>
<totfact> 0.16962600E+04</totfact>
</mgrwt>
</event>
<event>
 4    1  0.4102458E+000  0.2519831E+03  0.7546771E-02  0.1112058E+00
         21   -1    0    0  501  502  0.00000000000E+00  0.00000000000E+00  0.64199079503E+03  0.64199079503E+03  0.00000000000E+00 0.  1.
         21   -1    0    0  502  503 -0.00000000000E+00 -0.00000000000E+00 -0.13296345840E+03  0.13296345840E+03  0.00000000000E+00 0. -1.
          6    1    1    2  501    0 -0.12902749972E+03  0.13007078180E+03  0.45062303069E+03  0.51629121603E+03  0.17300000000E+03 0.  1.
         -6    1    1    2    0  503  0.12902749972E+03 -0.13007078180E+03  0.58404305946E+02  0.25866303740E+03  0.17300000000E+03 0. -1.
<mgrwt>
<rscale>  2 0.25198314E+03</rscale>
<asrwt>0</asrwt>
<pdfrwt beam="1">  1       21 0.98767813E-01 0.25198314E+03</pdfrwt>
<pdfrwt beam="2">  1       21 0.20455917E-01 0.25198314E+03</pdfrwt>
<totfact> 0.18085560E+04</totfact>
</mgrwt>
</event>
<event>
 4    1  0.4102458E+000  0.1752276E+03  0.7546771E-02  0.1172503E+00
         21   -1    0    0  501  502  0.00000000000E+00  0.00000000000E+00  0.76931023769E+02  0.76931023769E+02  0.00000000000E+00 0. -1.
         21   -1    0    0  502  503 -0.00000000000E+00 -0.00000000000E+00 -0.52201097823E+03  0.52201097823E+03  0.00000000000E+00 0. -1.
          6    1    1    2  501    0  0.89157909513E+01  0.26386097377E+02 -0.77236907347E+02  0.19149479711E+03  0.17300000000E+03 0. -1.
         -6    1    1    2    0  503 -0.89157909513E+01 -0.26386097377E+02 -0.36784304712E+03  0.40744720489E+03  0.17300000000E+03 0. -1.
<mgrwt>
<rscale>  2 0.17522762E+03</rscale>
<asrwt>0</asrwt>
<pdfrwt beam="1">  1       21 0.11835542E-01 0.17522762E+03</pdfrwt>
<pdfrwt beam="2">  1       21 0.80309380E-01 0.17522762E+03</pdfrwt>
<totfact> 0.82612690E+04</totfact>
</mgrwt>
</event>
<event>
 4    1  0.4102458E+000  0.1998926E+03  0.7546771E-02  0.1149830E+00
         21   -1    0    0  501  502  0.00000000000E+00  0.00000000000E+00  0.13588879482E+03  0.13588879482E+03  0.00000000000E+00 0.  1.
         21   -1    0    0  502  503 -0.00000000000E+00 -0.00000000000E+00 -0.43614916531E+03  0.43614916531E+03  0.00000000000E+00 0.  1.
          6    1    1    2  501    0 -0.98360601803E+02 -0.18794677632E+02  0.13131744940E+02  0.20032346497E+03  0.17300000000E+03 0.  1.
         -6    1    1    2    0  503  0.98360601803E+02  0.18794677632E+02 -0.31339211543E+03  0.37171449515E+03  0.17300000000E+03 0.  1.
<mgrwt>
<rscale>  2 0.19989259E+03</rscale>
<asrwt>0</asrwt>
<pdfrwt beam="1">  1       21 0.20905968E-01 0.19989259E+03</pdfrwt>
<pdfrwt beam="2">  1       21 0.67099872E-01 0.19989259E+03</pdfrwt>
<totfact> 0.43041721E+04</totfact>
</mgrwt>
</event>
<event>
 4    1  0.4102458E+000  0.1731343E+03  0.7546771E-02  0.1174618E+00
         21   -1    0    0  503  502  0.00000000000E+00  0.00000000000E+00  0.65026811655E+03  0.65026811655E+03  0.00000000000E+00 0.  1.
         21   -1    0    0  501  503 -0.00000000000E+00 -0.00000000000E+00 -0.81325345070E+02  0.81325345070E+02  0.00000000000E+00 0.  1.
          6    1    1    2  501    0  0.50116734292E+01  0.46227380756E+01  0.43718084235E+02  0.17856863517E+03  0.17300000000E+03 0.  1.
         -6    1    1    2    0  502 -0.50116734292E+01 -0.46227380756E+01  0.52522468725E+03  0.55302482645E+03  0.17300000000E+03 0.  1.
<mgrwt>
<rscale>  2 0.17313430E+03</rscale>
<asrwt>0</asrwt>
<pdfrwt beam="1">  1       21 0.10004125E+00 0.17313430E+03</pdfrwt>
<pdfrwt beam="2">  1       21 0.12511592E-01 0.17313430E+03</pdfrwt>
<totfact> 0.45116123E+04</totfact>
</mgrwt>
</event>
<event>
 4    1  0.4102458E+000  0.2247150E+03  0.7546771E-02  0.1130416E+00
         21   -1    0    0  503  502  0.00000000000E+00  0.00000000000E+00  0.13139508058E+03  0.13139508058E+03  0.00000000000E+00 0.  1.
         21   -1    0    0  501  503 -0.00000000000E+00 -0.00000000000E+00 -0.54752661470E+03  0.54752661470E+03  0.00000000000E+00 0. -1.
          6    1    1    2  501    0  0.13892296912E+03  0.35612281012E+02 -0.39340415621E+03  0.45306032273E+03  0.17300000000E+03 0.  1.
         -6    1    1    2    0  502 -0.13892296912E+03 -0.35612281012E+02 -0.22727377917E+02  0.22586137256E+03  0.17300000000E+03 0.  1.
<mgrwt>
<rscale>  2 0.22471499E+03</rscale>
<asrwt>0</asrwt>
<pdfrwt beam="1">  1       21 0.20214627E-01 0.22471499E+03</pdfrwt>
<pdfrwt beam="2">  1       21 0.84234865E-01 0.22471499E+03</pdfrwt>
<totfact> 0.27194019E+04</totfact>
</mgrwt>
</event>
<event>
 4    1  0.4102458E+000  0.1894093E+03  0.7546771E-02  0.1158995E+00
         21   -1    0    0  503  502  0.00000000000E+00  0.00000000000E+00  0.27400459176E+03  0.27400459176E+03  0.00000000000E+00 0.  1.
         21   -1    0    0  501  503 -0.00000000000E+00 -0.00000000000E+00 -0.16473633082E+03  0.16473633082E+03  0.00000000000E+00 0. -1.
          6    1    1    2  501    0 -0.23007628516E+01  0.77081598351E+02 -0.44739701709E+02  0.19462144595E+03  0.17300000000E+03 0. -1.
         -6    1    1    2    0  502  0.23007628516E+01 -0.77081598351E+02  0.15400796265E+03  0.24411947664E+03  0.17300000000E+03 0.  1.
<mgrwt>
<rscale>  2 0.18940926E+03</rscale>
<asrwt>0</asrwt>
<pdfrwt beam="1">  1       21 0.42154553E-01 0.18940926E+03</pdfrwt>
<pdfrwt beam="2">  1       21 0.25344051E-01 0.18940926E+03</pdfrwt>
<totfact> 0.80021293E+04</totfact>
</mgrwt>
</event>
<event>
 4    1  0.4102458E+000  0.1829303E+03  0.7546771E-02  0.1164997E+00
         21   -1    0    0  501  502  0.00000000000E+00  0.00000000000E+00  0.22249959262E+03  0.22249959262E+03  0.00000000000E+00 0. -1.
         21   -1    0    0  502  503 -0.00000000000E+00 -0.00000000000E+00 -0.19840796595E+03  0.19840796595E+03  0.00000000000E+00 0.  1.
          6    1    1    2  501    0 -0.24701052624E+02 -0.54077287892E+02  0.11557024348E+03  0.21637924171E+03  0.17300000000E+03 0. -1.
         -6    1    1    2    0  503  0.24701052624E+02  0.54077287892E+02 -0.91478616805E+02  0.20452831686E+03  0.17300000000E+03 0.  1.
<mgrwt>
<rscale>  2 0.18293030E+03</rscale>
<asrwt>0</asrwt>
<pdfrwt beam="1">  1       21 0.34230707E-01 0.18293030E+03</pdfrwt>
<pdfrwt beam="2">  1       21 0.30524302E-01 0.18293030E+03</pdfrwt>
<totfact> 0.85048504E+04</totfact>
</mgrwt>
</event>
<event>
 4    1  0.4102458E+000  0.2803696E+03  0.7546771E-02  0.1095487E+00
         21   -1    0    0  501  502  0.00000000000E+00  0.00000000000E+00  0.23445763372E+03  0.23445763372E+03  0.00000000000E+00 0. -1.
         21   -1    0    0  502  503 -0.00000000000E+00 -0.00000000000E+00 -0.53015288392E+03  0.53015288392E+03  0.00000000000E+00 0.  1.
          6    1    1    2  501    0 -0.21726596690E+03  0.38387989895E+02  0.83942030882E+02  0.29266602585E+03  0.17300000000E+03 0. -1.
         -6    1    1    2    0  503  0.21726596690E+03 -0.38387989895E+02 -0.37963728108E+03  0.47194449179E+03  0.17300000000E+03 0. -1.
<mgrwt>
<rscale>  2 0.28036965E+03</rscale>
<asrwt>0</asrwt>
<pdfrwt beam="1">  1       21 0.36070406E-01 0.28036965E+03</pdfrwt>
<pdfrwt beam="2">  1       21 0.81561981E-01 0.28036965E+03</pdfrwt>
<totfact> 0.92585913E+03</totfact>
</mgrwt>
</event>
<event>
 4    1  0.4102458E+000  0.2423021E+03  0.7546771E-02  0.1118269E+00
         21   -1    0    0  503  502  0.00000000000E+00  0.00000000000E+00  0.98294213039E+03  0.98294213039E+03  0.00000000000E+00 0. -1.
         21   -1    0    0  501  503 -0.00000000000E+00 -0.00000000000E+00 -0.74491577869E+02  0.74491577869E+02  0.00000000000E+00 0.  1.
          6    1    1    2  501    0  0.15107249703E+03 -0.77190675400E+02  0.21885672416E+03  0.32650967128E+03  0.17300000000E+03 0. -1.
         -6    1    1    2    0  502 -0.15107249703E+03  0.77190675400E+02  0.68959382836E+03  0.73092403699E+03  0.17300000000E+03 0. -1.
<mgrwt>
<rscale>  2 0.24230208E+03</rscale>
<asrwt>0</asrwt>
<pdfrwt beam="1">  1       21 0.15122186E+00 0.24230208E+03</pdfrwt>
<pdfrwt beam="2">  1       21 0.11460243E-01 0.24230208E+03</pdfrwt>
<totfact> 0.18062216E+04</totfact>
</mgrwt>
</event>
<event>
 4    1  0.4102458E+000  0.1887749E+03  0.7546771E-02  0.1159571E+00
         21   -1    0    0  503  502  0.00000000000E+00  0.00000000000E+00  0.89940700196E+03  0.89940700196E+03  0.00000000000E+00 0. -1.
         21   -1    0    0  501  503 -0.00000000000E+00 -0.00000000000E+00 -0.43881110886E+02  0.43881110886E+02  0.00000000000E+00 0. -1.
          6    1    1    2  501    0  0.50082350318E+02  0.56557115419E+02  0.28081782757E+03  0.33837050906E+03  0.17300000000E+03 0.  1.
         -6    1    1    2    0  502 -0.50082350318E+02 -0.56557115419E+02  0.57470806350E+03  0.60491760379E+03  0.17300000000E+03 0.  1.
<mgrwt>
<rscale>  2 0.18877486E+03</rscale>
<asrwt>0</asrwt>
<pdfrwt beam="1">  1       21 0.13837029E+00 0.18877486E+03</pdfrwt>
<pdfrwt beam="2">  1       21 0.67509408E-02 0.18877486E+03</pdfrwt>
<totfact> 0.59506259E+04</totfact>
</mgrwt>
</event>
<event>
 4    1  0.4102458E+000  0.1934151E+03  0.7546771E-02  0.1155417E+00
         21   -1    0    0  501  502  0.00000000000E+00  0.00000000000E+00  0.48552773099E+02  0.48552773099E+02  0.00000000000E+00 0.  1.
         21   -1    0    0  502  503 -0.00000000000E+00 -0.00000000000E+00 -0.81734314039E+03  0.81734314039E+03  0.00000000000E+00 0. -1.
          6    1    1    2  501    0 -0.86405840659E+02  0.37967882996E+01 -0.28073624141E+03  0.34091380457E+03  0.17300000000E+03 0.  1.
         -6    1    1    2    0  503  0.86405840659E+02 -0.37967882996E+01 -0.48805412588E+03  0.52498210893E+03  0.17300000000E+03 0.  1.
<mgrwt>
<rscale>  2 0.19341506E+03</rscale>
<asrwt>0</asrwt>
<pdfrwt beam="1">  1       21 0.74696575E-02 0.19341506E+03</pdfrwt>
<pdfrwt beam="2">  1       21 0.12574510E+00 0.19341506E+03</pdfrwt>
<totfact> 0.63514427E+04</totfact>
</mgrwt>
</event>
<event>
 4    1  0.4102458E+000  0.1966954E+03  0.7546771E-02  0.1152557E+00
         21   -1    0    0  501  502  0.00000000000E+00  0.00000000000E+00  0.15387173974E+03  0.15387173974E+03  0.00000000000E+00 0. -1.
         21   -1    0    0  502  503 -0.00000000000E+00 -0.00000000000E+00 -0.32062832335E+03  0.32062832335E+03  0.00000000000E+00 0.  1.
          6    1    1    2  501    0  0.89463141283E+02 -0.27503369948E+02  0.26834075713E+02  0.19851739628E+03  0.17300000000E+03 0. -1.
         -6    1    1    2    0  503 -0.89463141283E+02  0.27503369948E+02 -0.19359065932E+03  0.27598266682E+03  0.17300000000E+03 0.  1.
<mgrwt>
<rscale>  2 0.19669542E+03</rscale>
<asrwt>0</asrwt>
<pdfrwt beam="1">  1       21 0.23672576E-01 0.19669542E+03</pdfrwt>
<pdfrwt beam="2">  1       21 0.49327434E-01 0.19669542E+03</pdfrwt>
<totfact> 0.65745311E+04</totfact>
</mgrwt>
</event>
<event>
 4    1  0.4102458E+000  0.2224663E+03  0.7546771E-02  0.1132058E+00
         21   -1    0    0  501  502  0.00000000000E+00  0.00000000000E+00  0.17180311410E+03  0.17180311410E+03  0.00000000000E+00 0.  1.
         21   -1    0    0  502  503 -0.00000000000E+00 -0.00000000000E+00 -0.65189881261E+03  0.65189881261E+03  0.00000000000E+00 0. -1.
          6    1    1    2  501    0 -0.42734470336E+02  0.13317660349E+03  0.67631830626E+02  0.23251947700E+03  0.17300000000E+03 0.  1.
         -6    1    1    2    0  503  0.42734470336E+02 -0.13317660349E+03 -0.54772752914E+03  0.59118244971E+03  0.17300000000E+03 0. -1.
<mgrwt>
<rscale>  2 0.22246627E+03</rscale>
<asrwt>0</asrwt>
<pdfrwt beam="1">  1       21 0.26431249E-01 0.22246627E+03</pdfrwt>
<pdfrwt beam="2">  1       21 0.10029212E+00 0.22246627E+03</pdfrwt>
<totfact> 0.10881171E+04</totfact>
</mgrwt>
</event>
<event>
 4    1  0.4102458E+000  0.2613327E+03  0.7546771E-02  0.1106345E+00
         21   -1    0    0  501  502  0.00000000000E+00  0.00000000000E+00  0.50081975275E+03  0.50081975275E+03  0.00000000000E+00 0. -1.
         21   -1    0    0  502  503 -0.00000000000E+00 -0.00000000000E+00 -0.26802621432E+03  0.26802621432E+03  0.00000000000E+00 0. -1.
          6    1    1    2  501    0  0.19009133897E+03 -0.47234387517E+02  0.38582799568E+03  0.46600219609E+03  0.17300000000E+03 0. -1.
         -6    1    1    2    0  503 -0.19009133897E+03  0.47234387517E+02 -0.15303445725E+03  0.30284377098E+03  0.17300000000E+03 0. -1.
<mgrwt>
<rscale>  2 0.26133275E+03</rscale>
<asrwt>0</asrwt>
<pdfrwt beam="1">  1       21 0.77049192E-01 0.26133275E+03</pdfrwt>
<pdfrwt beam="2">  1       21 0.41234802E-01 0.26133275E+03</pdfrwt>
<totfact> 0.81167839E+03</totfact>
</mgrwt>
</event>
<event>
 4    1  0.4102458E+000  0.2746719E+03  0.7546771E-02  0.1098635E+00
         21   -1    0    0  501  502  0.00000000000E+00  0.00000000000E+00  0.15379090461E+03  0.15379090461E+03  0.00000000000E+00 0. -1.
         21   -1    0    0  502  503 -0.00000000000E+00 -0.00000000000E+00 -0.74349997251E+03  0.74349997251E+03  0.00000000000E+00 0.  1.
          6    1    1    2  501    0 -0.19705584287E+03  0.81759617358E+02 -0.33177219452E+02  0.27666833597E+03  0.17300000000E+03 0. -1.
         -6    1    1    2    0  503  0.19705584287E+03 -0.81759617358E+02 -0.55653184845E+03  0.62062254115E+03  0.17300000000E+03 0.  1.
<mgrwt>
<rscale>  2 0.27467188E+03</rscale>
<asrwt>0</asrwt>
<pdfrwt beam="1">  1       21 0.23660139E-01 0.27467188E+03</pdfrwt>
<pdfrwt beam="2">  1       21 0.11438461E+00 0.27467188E+03</pdfrwt>
<totfact> 0.94954691E+03</totfact>
</mgrwt>
</event>
<event>
 4    1  0.4102458E+000  0.1736693E+03  0.7546771E-02  0.1174075E+00
         21   -1    0    0  501  502  0.00000000000E+00  0.00000000000E+00  0.86152469279E+03  0.86152469279E+03  0.00000000000E+00 0. -1.
         21   -1    0    0  502  503 -0.00000000000E+00 -0.00000000000E+00 -0.40424513143E+02  0.40424513143E+02  0.00000000000E+00 0. -1.
          6    1    1    2  501    0 -0.27647392831E+01 -0.14979226993E+02  0.57561471305E+03  0.60124314458E+03  0.17300000000E+03 0. -1.
         -6    1    1    2    0  503  0.27647392831E+01  0.14979226993E+02  0.24548546660E+03  0.30070606136E+03  0.17300000000E+03 0. -1.
<mgrwt>
<rscale>  2 0.17366929E+03</rscale>
<asrwt>0</asrwt>
<pdfrwt beam="1">  1       21 0.13254225E+00 0.17366929E+03</pdfrwt>
<pdfrwt beam="2">  1       21 0.62191565E-02 0.17366929E+03</pdfrwt>
<totfact> 0.77029513E+04</totfact>
</mgrwt>
</event>
<event>
 4    1  0.4102458E+000  0.2027012E+03  0.7546771E-02  0.1147480E+00
         21   -1    0    0  501  502  0.00000000000E+00  0.00000000000E+00  0.15102030538E+03  0.15102030538E+03  0.00000000000E+00 0.  1.
         21   -1    0    0  502  503 -0.00000000000E+00 -0.00000000000E+00 -0.32607562107E+03  0.32607562107E+03  0.00000000000E+00 0.  1.
          6    1    1    2  501    0  0.79980526084E+02 -0.69006552896E+02  0.95555607869E+01  0.20292633549E+03  0.17300000000E+03 0.  1.
         -6    1    1    2    0  503 -0.79980526084E+02  0.69006552896E+02 -0.18461087648E+03  0.27416959096E+03  0.17300000000E+03 0.  1.
<mgrwt>
<rscale>  2 0.20270123E+03</rscale>
<asrwt>0</asrwt>
<pdfrwt beam="1">  1       21 0.23233893E-01 0.20270123E+03</pdfrwt>
<pdfrwt beam="2">  1       21 0.50165480E-01 0.20270123E+03</pdfrwt>
<totfact> 0.65588421E+04</totfact>
</mgrwt>
</event>
<event>
 4    1  0.4102458E+000  0.2183827E+03  0.7546771E-02  0.1135095E+00
         21   -1    0    0  501  502  0.00000000000E+00  0.00000000000E+00  0.47052261261E+03  0.47052261261E+03  0.00000000000E+00 0. -1.
         21   -1    0    0  502  503 -0.00000000000E+00 -0.00000000000E+00 -0.20494883416E+03  0.20494883416E+03  0.00000000000E+00 0.  1.
          6    1    1    2  501    0  0.54655469493E+01  0.13316196812E+03  0.37290009613E+03  0.43214056007E+03  0.17300000000E+03 0. -1.
         -6    1    1    2    0  503 -0.54655469493E+01 -0.13316196812E+03 -0.10732631768E+03  0.24333088670E+03  0.17300000000E+03 0.  1.
<mgrwt>
<rscale>  2 0.21838265E+03</rscale>
<asrwt>0</asrwt>
<pdfrwt beam="1">  1       21 0.72388094E-01 0.21838265E+03</pdfrwt>
<pdfrwt beam="2">  1       21 0.31530590E-01 0.21838265E+03</pdfrwt>
<totfact> 0.16373773E+04</totfact>
</mgrwt>
</event>
<event>
 4    1  0.4102458E+000  0.1901595E+03  0.7546771E-02  0.1158318E+00
         21   -1    0    0  501  502  0.00000000000E+00  0.00000000000E+00  0.50520515282E+03  0.50520515282E+03  0.00000000000E+00 0.  1.
         21   -1    0    0  502  503 -0.00000000000E+00 -0.00000000000E+00 -0.11129266411E+03  0.11129266411E+03  0.00000000000E+00 0.  1.
          6    1    1    2  501    0  0.44949572215E+02  0.64893606470E+02  0.38109864144E+03  0.42590705407E+03  0.17300000000E+03 0.  1.
         -6    1    1    2    0  503 -0.44949572215E+02 -0.64893606470E+02  0.12813847264E+02  0.19059076285E+03  0.17300000000E+03 0.  1.
<mgrwt>
<rscale>  2 0.19015952E+03</rscale>
<asrwt>0</asrwt>
<pdfrwt beam="1">  1       21 0.77723868E-01 0.19015952E+03</pdfrwt>
<pdfrwt beam="2">  1       21 0.17121949E-01 0.19015952E+03</pdfrwt>
<totfact> 0.45249422E+04</totfact>
</mgrwt>
</event>
<event>
 4    1  0.4102458E+000  0.1800373E+03  0.7546771E-02  0.1167767E+00
         21   -1    0    0  501  502  0.00000000000E+00  0.00000000000E+00  0.45448268913E+02  0.45448268913E+02  0.00000000000E+00 0. -1.
         21   -1    0    0  502  503 -0.00000000000E+00 -0.00000000000E+00 -0.71564352029E+03  0.71564352029E+03  0.00000000000E+00 0. -1.
          6    1    1    2  501    0 -0.18384987376E+02 -0.46329475380E+02 -0.31283336605E+03  0.36094063634E+03  0.17300000000E+03 0. -1.
         -6    1    1    2    0  503  0.18384987376E+02  0.46329475380E+02 -0.35736188533E+03  0.40015115286E+03  0.17300000000E+03 0. -1.
<mgrwt>
<rscale>  2 0.18003730E+03</rscale>
<asrwt>0</asrwt>
<pdfrwt beam="1">  1       21 0.69920414E-02 0.18003730E+03</pdfrwt>
<pdfrwt beam="2">  1       21 0.11009900E+00 0.18003730E+03</pdfrwt>
<totfact> 0.99299679E+04</totfact>
</mgrwt>
</event>
<event>
 4    1  0.4102458E+000  0.2328629E+03  0.7546771E-02  0.1124641E+00
         21   -1    0    0  501  502  0.00000000000E+00  0.00000000000E+00  0.48129877994E+03  0.48129877994E+03  0.00000000000E+00 0. -1.
         21   -1    0    0  502  503 -0.00000000000E+00 -0.00000000000E+00 -0.11545425647E+03  0.11545425647E+03  0.00000000000E+00 0.  1.
          6    1    1    2  501    0 -0.64426135795E+02 -0.14193456101E+03  0.22930596541E+03  0.32681244217E+03  0.17300000000E+03 0. -1.
         -6    1    1    2    0  503  0.64426135795E+02  0.14193456101E+03  0.13653855805E+03  0.26994059424E+03  0.17300000000E+03 0.  1.
<mgrwt>
<rscale>  2 0.23286294E+03</rscale>
<asrwt>0</asrwt>
<pdfrwt beam="1">  1       21 0.74045965E-01 0.23286294E+03</pdfrwt>
<pdfrwt beam="2">  1       21 0.17762194E-01 0.23286294E+03</pdfrwt>
<totfact> 0.46176399E+04</totfact>
</mgrwt>
</event>
<event>
 4    1  0.4102458E+000  0.1870744E+03  0.7546771E-02  0.1161127E+00
         21   -1    0    0  501  502  0.00000000000E+00  0.00000000000E+00  0.20396591264E+04  0.20396591264E+04  0.00000000000E+00 0.  1.
         21   -1    0    0  502  503 -0.00000000000E+00 -0.00000000000E+00 -0.75014500198E+03  0.75014500198E+03  0.00000000000E+00 0.  1.
          6    1    1    2  501    0  0.65748809277E+02 -0.27293077002E+02  0.20236139512E+04  0.20322426631E+04  0.17300000000E+03 0.  1.
         -6    1    1    2    0  503 -0.65748809277E+02  0.27293077002E+02 -0.73409982682E+03  0.75756146531E+03  0.17300000000E+03 0.  1.
<mgrwt>
<rscale>  2 0.18707436E+03</rscale>
<asrwt>0</asrwt>
<pdfrwt beam="1">  1       21 0.31379371E+00 0.18707436E+03</pdfrwt>
<pdfrwt beam="2">  1       21 0.11540692E+00 0.18707436E+03</pdfrwt>
<totfact> 0.16706705E+01</totfact>
</mgrwt>
</event>
<event>
 4    1  0.4102458E+000  0.1895501E+03  0.7546771E-02  0.1158868E+00
         21   -1    0    0  501  502  0.00000000000E+00  0.00000000000E+00  0.96532050125E+03  0.96532050125E+03  0.00000000000E+00 0. -1.
         21   -1    0    0  502  503 -0.00000000000E+00 -0.00000000000E+00 -0.39925342712E+02  0.39925342712E+02  0.00000000000E+00 0. -1.
          6    1    1    2  501    0  0.76900238742E+02  0.93054304295E+01  0.59353391894E+03  0.62306640953E+03  0.17300000000E+03 0. -1.
         -6    1    1    2    0  503 -0.76900238742E+02 -0.93054304295E+01  0.33186123959E+03  0.38217943443E+03  0.17300000000E+03 0. -1.
<mgrwt>
<rscale>  2 0.18955009E+03</rscale>
<asrwt>0</asrwt>
<pdfrwt beam="1">  1       21 0.14851083E+00 0.18955009E+03</pdfrwt>
<pdfrwt beam="2">  1       21 0.61423612E-02 0.18955009E+03</pdfrwt>
<totfact> 0.58218789E+04</totfact>
</mgrwt>
</event>
<event>
 4    1  0.4102458E+000  0.3206101E+03  0.7546771E-02  0.1075369E+00
         21   -1    0    0  503  502  0.00000000000E+00  0.00000000000E+00  0.12919488814E+04  0.12919488814E+04  0.00000000000E+00 0. -1.
         21   -1    0    0  501  503 -0.00000000000E+00 -0.00000000000E+00 -0.16431255199E+03  0.16431255199E+03  0.00000000000E+00 0.  1.
          6    1    1    2  501    0  0.26653225485E+03 -0.42689591749E+02  0.40888054798E+02  0.32320686432E+03  0.17300000000E+03 0.  1.
         -6    1    1    2    0  502 -0.26653225485E+03  0.42689591749E+02  0.10867482747E+04  0.11330545691E+04  0.17300000000E+03 0. -1.
<mgrwt>
<rscale>  2 0.32061011E+03</rscale>
<asrwt>0</asrwt>
<pdfrwt beam="1">  1       21 0.19876136E+00 0.32061011E+03</pdfrwt>
<pdfrwt beam="2">  1       21 0.25278855E-01 0.32061011E+03</pdfrwt>
<totfact> 0.18287468E+03</totfact>
</mgrwt>
</event>
<event>
 4    1  0.4102458E+000  0.1820805E+03  0.7546771E-02  0.1165805E+00
         21   -1    0    0  501  502  0.00000000000E+00  0.00000000000E+00  0.40415234480E+03  0.40415234480E+03  0.00000000000E+00 0.  1.
         21   -1    0    0  502  503 -0.00000000000E+00 -0.00000000000E+00 -0.96033591416E+02  0.96033591416E+02  0.00000000000E+00 0. -1.
          6    1    1    2  501    0 -0.49101904401E+02 -0.28518623212E+02  0.24955490967E+03  0.30891902147E+03  0.17300000000E+03 0.  1.
         -6    1    1    2    0  503  0.49101904401E+02  0.28518623212E+02  0.58563843714E+02  0.19126691475E+03  0.17300000000E+03 0. -1.
<mgrwt>
<rscale>  2 0.18208050E+03</rscale>
<asrwt>0</asrwt>
<pdfrwt beam="1">  1       21 0.62177283E-01 0.18208050E+03</pdfrwt>
<pdfrwt beam="2">  1       21 0.14774399E-01 0.18208050E+03</pdfrwt>
<totfact> 0.97165580E+04</totfact>
</mgrwt>
</event>
<event>
 4    1  0.4102458E+000  0.1843642E+03  0.7546771E-02  0.1163645E+00
         21   -1    0    0  501  502  0.00000000000E+00  0.00000000000E+00  0.53824124083E+03  0.53824124083E+03  0.00000000000E+00 0.  1.
         21   -1    0    0  502  503 -0.00000000000E+00 -0.00000000000E+00 -0.89253615836E+02  0.89253615836E+02  0.00000000000E+00 0.  1.
          6    1    1    2  501    0  0.85109059327E+01  0.63156268460E+02  0.39416741100E+03  0.43515295892E+03  0.17300000000E+03 0.  1.
         -6    1    1    2    0  503 -0.85109059327E+01 -0.63156268460E+02  0.54820213998E+02  0.19234189775E+03  0.17300000000E+03 0.  1.
<mgrwt>
<rscale>  2 0.18436418E+03</rscale>
<asrwt>0</asrwt>
<pdfrwt beam="1">  1       21 0.82806343E-01 0.18436418E+03</pdfrwt>
<pdfrwt beam="2">  1       21 0.13731326E-01 0.18436418E+03</pdfrwt>
<totfact> 0.58797618E+04</totfact>
</mgrwt>
</event>
<event>
 4    1  0.4102458E+000  0.2309769E+03  0.7546771E-02  0.1125954E+00
         21   -1    0    0  503  502  0.00000000000E+00  0.00000000000E+00  0.78916675794E+03  0.78916675794E+03  0.00000000000E+00 0. -1.
         21   -1    0    0  501  503 -0.00000000000E+00 -0.00000000000E+00 -0.13260075790E+03  0.13260075790E+03  0.00000000000E+00 0.  1.
          6    1    1    2  501    0 -0.49464168987E+02 -0.14482616828E+03  0.56072030623E+01  0.23104493883E+03  0.17300000000E+03 0.  1.
         -6    1    1    2    0  502  0.49464168987E+02  0.14482616828E+03  0.65095879697E+03  0.69072257701E+03  0.17300000000E+03 0. -1.
<mgrwt>
<rscale>  2 0.23097689E+03</rscale>
<asrwt>0</asrwt>
<pdfrwt beam="1">  1       21 0.12141027E+00 0.23097689E+03</pdfrwt>
<pdfrwt beam="2">  1       21 0.20400117E-01 0.23097689E+03</pdfrwt>
<totfact> 0.11120991E+04</totfact>
</mgrwt>
</event>
<event>
 4    1  0.4102458E+000  0.1746844E+03  0.7546771E-02  0.1173049E+00
         21   -1    0    0  501  502  0.00000000000E+00  0.00000000000E+00  0.29578962847E+03  0.29578962847E+03  0.00000000000E+00 0.  1.
         21   -1    0    0  502  503 -0.00000000000E+00 -0.00000000000E+00 -0.16786326740E+03  0.16786326740E+03  0.00000000000E+00 0.  1.
          6    1    1    2  501    0 -0.22151485854E+02  0.97435939754E+01  0.20788852221E+03  0.27153685499E+03  0.17300000000E+03 0.  1.
         -6    1    1    2    0  503  0.22151485854E+02 -0.97435939754E+01 -0.79962161141E+02  0.19211604088E+03  0.17300000000E+03 0.  1.
<mgrwt>
<rscale>  2 0.17468436E+03</rscale>
<asrwt>0</asrwt>
<pdfrwt beam="1">  1       21 0.45506097E-01 0.17468436E+03</pdfrwt>
<pdfrwt beam="2">  1       21 0.25825118E-01 0.17468436E+03</pdfrwt>
<totfact> 0.66440562E+04</totfact>
</mgrwt>
</event>
<event>
 4    1  0.4102458E+000  0.1990398E+03  0.7546771E-02  0.1150552E+00
         21   -1    0    0  501  502  0.00000000000E+00  0.00000000000E+00  0.82246679641E+03  0.82246679641E+03  0.00000000000E+00 0.  1.
         21   -1    0    0  502  503 -0.00000000000E+00 -0.00000000000E+00 -0.76701130034E+02  0.76701130034E+02  0.00000000000E+00 0.  1.
          6    1    1    2  501    0 -0.48696783523E+01  0.98306351156E+02  0.64709209718E+03  0.67701184234E+03  0.17300000000E+03 0.  1.
         -6    1    1    2    0  503  0.48696783523E+01 -0.98306351156E+02  0.98673569202E+02  0.22215608410E+03  0.17300000000E+03 0.  1.
<mgrwt>
<rscale>  2 0.19903983E+03</rscale>
<asrwt>0</asrwt>
<pdfrwt beam="1">  1       21 0.12653335E+00 0.19903983E+03</pdfrwt>
<pdfrwt beam="2">  1       21 0.11800174E-01 0.19903983E+03</pdfrwt>
<totfact> 0.27869634E+04</totfact>
</mgrwt>
</event>
<event>
 4    1  0.4102458E+000  0.2189985E+03  0.7546771E-02  0.1134632E+00
         21   -1    0    0  501  502  0.00000000000E+00  0.00000000000E+00  0.14092759671E+04  0.14092759671E+04  0.00000000000E+00 0.  1.
         21   -1    0    0  502  503 -0.00000000000E+00 -0.00000000000E+00 -0.65793257154E+02  0.65793257154E+02  0.00000000000E+00 0. -1.
          6    1    1    2  501    0  0.14559514459E+02  0.13348913775E+03  0.11841793040E+04  0.12042595041E+04  0.17300000000E+03 0.  1.
         -6    1    1    2    0  503 -0.14559514459E+02 -0.13348913775E+03  0.15930340600E+03  0.27080972013E+03  0.17300000000E+03 0. -1.
<mgrwt>
<rscale>  2 0.21899847E+03</rscale>
<asrwt>0</asrwt>
<pdfrwt beam="1">  1       21 0.21681166E+00 0.21899847E+03</pdfrwt>
<pdfrwt beam="2">  1       21 0.10122041E-01 0.21899847E+03</pdfrwt>
<totfact> 0.81708395E+03</totfact>
</mgrwt>
</event>
<event>
 4    1  0.4102458E+000  0.1782162E+03  0.7546771E-02  0.1169541E+00
         21   -1    0    0  503  502  0.00000000000E+00  0.00000000000E+00  0.47594725324E+02  0.47594725324E+02  0.00000000000E+00 0.  1.
         21   -1    0    0  501  503 -0.00000000000E+00 -0.00000000000E+00 -0.87461421043E+03  0.87461421043E+03  0.00000000000E+00 0.  1.
          6    1    1    2  501    0 -0.39819564829E+02  0.15697230101E+02 -0.63799235113E+03  0.66241621423E+03  0.17300000000E+03 0.  1.
         -6    1    1    2    0  502  0.39819564829E+02 -0.15697230101E+02 -0.18902713397E+03  0.25979272152E+03  0.17300000000E+03 0.  1.
<mgrwt>
<rscale>  2 0.17821616E+03</rscale>
<asrwt>0</asrwt>
<pdfrwt beam="1">  1       21 0.73222651E-02 0.17821616E+03</pdfrwt>
<pdfrwt beam="2">  1       21 0.13455604E+00 0.17821616E+03</pdfrwt>
<totfact> 0.55858287E+04</totfact>
</mgrwt>
</event>
<event>
 4    1  0.4102458E+000  0.1884117E+03  0.7546771E-02  0.1159902E+00
         21   -1    0    0  501  502  0.00000000000E+00  0.00000000000E+00  0.16238595849E+03  0.16238595849E+03  0.00000000000E+00 0.  1.
         21   -1    0    0  502  503 -0.00000000000E+00 -0.00000000000E+00 -0.66337974481E+03  0.66337974481E+03  0.00000000000E+00 0.  1.
          6    1    1    2  501    0  0.28784450019E+02  0.68858001605E+02  0.87578871047E+02  0.20777157554E+03  0.17300000000E+03 0.  1.
         -6    1    1    2    0  503 -0.28784450019E+02 -0.68858001605E+02 -0.58857265737E+03  0.61799412776E+03  0.17300000000E+03 0.  1.
<mgrwt>
<rscale>  2 0.18841170E+03</rscale>
<asrwt>0</asrwt>
<pdfrwt beam="1">  1       21 0.24982455E-01 0.18841170E+03</pdfrwt>
<pdfrwt beam="2">  1       21 0.10205842E+00 0.18841170E+03</pdfrwt>
<totfact> 0.11896034E+04</totfact>
</mgrwt>
</event>
<event>
 4    1  0.4102458E+000  0.2174166E+03  0.7546771E-02  0.1135824E+00
         21   -1    0    0  503  502  0.00000000000E+00  0.00000000000E+00  0.41689928592E+03  0.41689928592E+03  0.00000000000E+00 0.  1.
         21   -1    0    0  501  503 -0.00000000000E+00 -0.00000000000E+00 -0.14198169537E+03  0.14198169537E+03  0.00000000000E+00 0.  1.
          6    1    1    2  501    0  0.87905324636E+02 -0.98049077125E+02  0.12048278627E+02  0.21775015188E+03  0.17300000000E+03 0.  1.
         -6    1    1    2    0  502 -0.87905324636E+02  0.98049077125E+02  0.26286931193E+03  0.34113082942E+03  0.17300000000E+03 0.  1.
<mgrwt>
<rscale>  2 0.21741658E+03</rscale>
<asrwt>0</asrwt>
<pdfrwt beam="1">  1       21 0.64138351E-01 0.21741658E+03</pdfrwt>
<pdfrwt beam="2">  1       21 0.21843338E-01 0.21741658E+03</pdfrwt>
<totfact> 0.43359155E+04</totfact>
</mgrwt>
</event>
<event>
 4    1  0.4102458E+000  0.1766826E+03  0.7546771E-02  0.1171053E+00
         21   -1    0    0  501  502  0.00000000000E+00  0.00000000000E+00  0.20895517340E+03  0.20895517340E+03  0.00000000000E+00 0.  1.
         21   -1    0    0  502  503 -0.00000000000E+00 -0.00000000000E+00 -0.15414181498E+03  0.15414181498E+03  0.00000000000E+00 0.  1.
          6    1    1    2  501    0  0.21961051269E+01 -0.35817984583E+02  0.59267506177E+02  0.18635822543E+03  0.17300000000E+03 0.  1.
         -6    1    1    2    0  503 -0.21961051269E+01  0.35817984583E+02 -0.44541477612E+01  0.17673876295E+03  0.17300000000E+03 0.  1.
<mgrwt>
<rscale>  2 0.17668263E+03</rscale>
<asrwt>0</asrwt>
<pdfrwt beam="1">  1       21 0.32146950E-01 0.17668263E+03</pdfrwt>
<pdfrwt beam="2">  1       21 0.23714125E-01 0.17668263E+03</pdfrwt>
<totfact> 0.15669065E+05</totfact>
</mgrwt>
</event>
<event>
 4    1  0.4102458E+000  0.1834764E+03  0.7546771E-02  0.1164480E+00
         21   -1    0    0  503  502  0.00000000000E+00  0.00000000000E+00  0.26568178894E+03  0.26568178894E+03  0.00000000000E+00 0. -1.
         21   -1    0    0  501  503 -0.00000000000E+00 -0.00000000000E+00 -0.12822314917E+03  0.12822314917E+03  0.00000000000E+00 0. -1.
          6    1    1    2  501    0 -0.85503839335E+01 -0.60510296430E+02  0.47309134367E+02  0.18947759560E+03  0.17300000000E+03 0. -1.
         -6    1    1    2    0  502  0.85503839335E+01  0.60510296430E+02  0.90149505404E+02  0.20442734251E+03  0.17300000000E+03 0. -1.
<mgrwt>
<rscale>  2 0.18347644E+03</rscale>
<asrwt>0</asrwt>
<pdfrwt beam="1">  1       21 0.40874121E-01 0.18347644E+03</pdfrwt>
<pdfrwt beam="2">  1       21 0.19726638E-01 0.18347644E+03</pdfrwt>
<totfact> 0.13697169E+05</totfact>
</mgrwt>
</event>
<event>
 4    1  0.4102458E+000  0.1807837E+03  0.7546771E-02  0.1167047E+00
         21   -1    0    0  503  502  0.00000000000E+00  0.00000000000E+00  0.76806010542E+03  0.76806010542E+03  0.00000000000E+00 0. -1.
         21   -1    0    0  501  503 -0.00000000000E+00 -0.00000000000E+00 -0.61645705047E+02  0.61645705047E+02  0.00000000000E+00 0. -1.
          6    1    1    2  501    0 -0.21628393563E+02  0.47811859531E+02  0.12232850228E+03  0.21828198228E+03  0.17300000000E+03 0. -1.
         -6    1    1    2    0  502  0.21628393563E+02 -0.47811859531E+02  0.58408589809E+03  0.61142382818E+03  0.17300000000E+03 0. -1.
<mgrwt>
<rscale>  2 0.18078374E+03</rscale>
<asrwt>0</asrwt>
<pdfrwt beam="1">  1       21 0.11816309E+00 0.18078374E+03</pdfrwt>
<pdfrwt beam="2">  1       21 0.94839552E-02 0.18078374E+03</pdfrwt>
<totfact> 0.49181879E+04</totfact>
</mgrwt>
</event>
<event>
 4    1  0.4102458E+000  0.1770435E+03  0.7546771E-02  0.1170695E+00
         21   -1    0    0  501  502  0.00000000000E+00  0.00000000000E+00  0.21437359561E+03  0.21437359561E+03  0.00000000000E+00 0.  1.
         21   -1    0    0  502  503 -0.00000000000E+00 -0.00000000000E+00 -0.48010678915E+03  0.48010678915E+03  0.00000000000E+00 0.  1.
          6    1    1    2  501    0  0.30944581670E+01 -0.37494193977E+02  0.15671081193E+03  0.23643745225E+03  0.17300000000E+03 0.  1.
         -6    1    1    2    0  503 -0.30944581670E+01  0.37494193977E+02 -0.42244400547E+03  0.45804293250E+03  0.17300000000E+03 0.  1.
<mgrwt>
<rscale>  2 0.17704347E+03</rscale>
<asrwt>0</asrwt>
<pdfrwt beam="1">  1       21 0.32980553E-01 0.17704347E+03</pdfrwt>
<pdfrwt beam="2">  1       21 0.73862583E-01 0.17704347E+03</pdfrwt>
<totfact> 0.14708048E+04</totfact>
</mgrwt>
</event>
<event>
 4    1  0.4102458E+000  0.4263356E+03  0.7546771E-02  0.1035024E+00
         21   -1    0    0  503  502  0.00000000000E+00  0.00000000000E+00  0.69315404659E+03  0.69315404659E+03  0.00000000000E+00 0. -1.
         21   -1    0    0  501  503 -0.00000000000E+00 -0.00000000000E+00 -0.32524269198E+03  0.32524269198E+03  0.00000000000E+00 0.  1.
          6    1    1    2  501    0  0.78447911532E+02 -0.38167915363E+03 -0.40182488230E+02  0.42822503838E+03  0.17300000000E+03 0.  1.
         -6    1    1    2    0  502 -0.78447911532E+02  0.38167915363E+03  0.40809384284E+03  0.59017170019E+03  0.17300000000E+03 0. -1.
<mgrwt>
<rscale>  2 0.42633561E+03</rscale>
<asrwt>0</asrwt>
<pdfrwt beam="1">  1       21 0.10663908E+00 0.42633561E+03</pdfrwt>
<pdfrwt beam="2">  1       21 0.50037337E-01 0.42633561E+03</pdfrwt>
<totfact> 0.23359178E+03</totfact>
</mgrwt>
</event>
<event>
 4    1  0.4102458E+000  0.2015230E+03  0.7546771E-02  0.1148460E+00
         21   -1    0    0  501  502  0.00000000000E+00  0.00000000000E+00  0.18050425437E+03  0.18050425437E+03  0.00000000000E+00 0. -1.
         21   -1    0    0  502  503 -0.00000000000E+00 -0.00000000000E+00 -0.39091958559E+03  0.39091958559E+03  0.00000000000E+00 0.  1.
          6    1    1    2  501    0 -0.68184766805E+02 -0.77674711938E+02  0.80935670653E+02  0.21716838187E+03  0.17300000000E+03 0. -1.
         -6    1    1    2    0  503  0.68184766805E+02  0.77674711938E+02 -0.29135100187E+03  0.35425545809E+03  0.17300000000E+03 0.  1.
<mgrwt>
<rscale>  2 0.20152301E+03</rscale>
<asrwt>0</asrwt>
<pdfrwt beam="1">  1       21 0.27769886E-01 0.20152301E+03</pdfrwt>
<pdfrwt beam="2">  1       21 0.60141474E-01 0.20152301E+03</pdfrwt>
<totfact> 0.31761335E+04</totfact>
</mgrwt>
</event>
<event>
 4    1  0.4102458E+000  0.2044233E+03  0.7546771E-02  0.1146060E+00
         21   -1    0    0  501  502  0.00000000000E+00  0.00000000000E+00  0.13896761638E+03  0.13896761638E+03  0.00000000000E+00 0.  1.
         21   -1    0    0  502  503 -0.00000000000E+00 -0.00000000000E+00 -0.88264515706E+03  0.88264515706E+03  0.00000000000E+00 0. -1.
          6    1    1    2  501    0 -0.72732501879E+02 -0.81054839090E+02  0.42924866975E+02  0.20888142085E+03  0.17300000000E+03 0.  1.
         -6    1    1    2    0  503  0.72732501879E+02  0.81054839090E+02 -0.78660240765E+03  0.81273135260E+03  0.17300000000E+03 0. -1.
<mgrwt>
<rscale>  2 0.20442334E+03</rscale>
<asrwt>0</asrwt>
<pdfrwt beam="1">  1       21 0.21379633E-01 0.20442334E+03</pdfrwt>
<pdfrwt beam="2">  1       21 0.13579156E+00 0.20442334E+03</pdfrwt>
<totfact> 0.78135141E+03</totfact>
</mgrwt>
</event>
<event>
 4    1  0.4102458E+000  0.1739665E+03  0.7546771E-02  0.1173773E+00
         21   -1    0    0  501  502  0.00000000000E+00  0.00000000000E+00  0.14350735770E+03  0.14350735770E+03  0.00000000000E+00 0. -1.
         21   -1    0    0  502  503 -0.00000000000E+00 -0.00000000000E+00 -0.31206551014E+03  0.31206551014E+03  0.00000000000E+00 0. -1.
          6    1    1    2  501    0 -0.10512338362E+02 -0.14994667314E+02  0.45421359422E+02  0.17979835705E+03  0.17300000000E+03 0. -1.
         -6    1    1    2    0  503  0.10512338362E+02  0.14994667314E+02 -0.21397951186E+03  0.27577451079E+03  0.17300000000E+03 0. -1.
<mgrwt>
<rscale>  2 0.17396652E+03</rscale>
<asrwt>0</asrwt>
<pdfrwt beam="1">  1       21 0.22078055E-01 0.17396652E+03</pdfrwt>
<pdfrwt beam="2">  1       21 0.48010078E-01 0.17396652E+03</pdfrwt>
<totfact> 0.80115985E+04</totfact>
</mgrwt>
</event>
<event>
 4    1  0.4102458E+000  0.2752050E+03  0.7546771E-02  0.1098337E+00
         21   -1    0    0  501  502  0.00000000000E+00  0.00000000000E+00  0.21250790484E+03  0.21250790484E+03  0.00000000000E+00 0. -1.
         21   -1    0    0  502  503 -0.00000000000E+00 -0.00000000000E+00 -0.38908582476E+03  0.38908582476E+03  0.00000000000E+00 0. -1.
          6    1    1    2  501    0  0.21398562214E+03  0.43517615331E+01 -0.11060509865E+01  0.27520720859E+03  0.17300000000E+03 0. -1.
         -6    1    1    2    0  503 -0.21398562214E+03 -0.43517615331E+01 -0.17547186893E+03  0.32638652101E+03  0.17300000000E+03 0. -1.
<mgrwt>
<rscale>  2 0.27520499E+03</rscale>
<asrwt>0</asrwt>
<pdfrwt beam="1">  1       21 0.32693524E-01 0.27520499E+03</pdfrwt>
<pdfrwt beam="2">  1       21 0.59859358E-01 0.27520499E+03</pdfrwt>
<totfact> 0.22490230E+04</totfact>
</mgrwt>
</event>
<event>
 4    1  0.4102458E+000  0.2726979E+03  0.7546771E-02  0.1099745E+00
         21   -1    0    0  501  502  0.00000000000E+00  0.00000000000E+00  0.66601964689E+03  0.66601964689E+03  0.00000000000E+00 0. -1.
         21   -1    0    0  502  503 -0.00000000000E+00 -0.00000000000E+00 -0.11684736955E+03  0.11684736955E+03  0.00000000000E+00 0.  1.
          6    1    1    2  501    0 -0.20767631981E+03 -0.36134467534E+02  0.35710406166E+03  0.44931888944E+03  0.17300000000E+03 0. -1.
         -6    1    1    2    0  503  0.20767631981E+03  0.36134467534E+02  0.19206821567E+03  0.33354812700E+03  0.17300000000E+03 0.  1.
<mgrwt>
<rscale>  2 0.27269792E+03</rscale>
<asrwt>0</asrwt>
<pdfrwt beam="1">  1       21 0.10246456E+00 0.27269792E+03</pdfrwt>
<pdfrwt beam="2">  1       21 0.17976519E-01 0.27269792E+03</pdfrwt>
<totfact> 0.20887504E+04</totfact>
</mgrwt>
</event>
<event>
 4    1  0.4102458E+000  0.1734585E+03  0.7546771E-02  0.1174288E+00
         21   -1    0    0  501  502  0.00000000000E+00  0.00000000000E+00  0.58667369629E+03  0.58667369629E+03  0.00000000000E+00 0.  1.
         21   -1    0    0  502  503 -0.00000000000E+00 -0.00000000000E+00 -0.57721628013E+02  0.57721628013E+02  0.00000000000E+00 0.  1.
          6    1    1    2  501    0 -0.12398773672E+02  0.22668178949E+01  0.37206422857E+03  0.41051145932E+03  0.17300000000E+03 0.  1.
         -6    1    1    2    0  503  0.12398773672E+02 -0.22668178949E+01  0.15688783971E+03  0.23388386499E+03  0.17300000000E+03 0.  1.
<mgrwt>
<rscale>  2 0.17345855E+03</rscale>
<asrwt>0</asrwt>
<pdfrwt beam="1">  1       21 0.90257487E-01 0.17345855E+03</pdfrwt>
<pdfrwt beam="2">  1       21 0.88802509E-02 0.17345855E+03</pdfrwt>
<totfact> 0.10517636E+05</totfact>
</mgrwt>
</event>
<event>
 4    1  0.4102458E+000  0.1866305E+03  0.7546771E-02  0.1161536E+00
         21   -1    0    0  501  502  0.00000000000E+00  0.00000000000E+00  0.80939734640E+03  0.80939734640E+03  0.00000000000E+00 0.  1.
         21   -1    0    0  502  503 -0.00000000000E+00 -0.00000000000E+00 -0.64271408069E+02  0.64271408069E+02  0.00000000000E+00 0. -1.
          6    1    1    2  501    0  0.65320426348E+02 -0.25202999796E+02  0.62367466746E+03  0.65100003082E+03  0.17300000000E+03 0.  1.
         -6    1    1    2    0  503 -0.65320426348E+02  0.25202999796E+02  0.12145127088E+03  0.22266872366E+03  0.17300000000E+03 0. -1.
<mgrwt>
<rscale>  2 0.18663052E+03</rscale>
<asrwt>0</asrwt>
<pdfrwt beam="1">  1       21 0.12452266E+00 0.18663052E+03</pdfrwt>
<pdfrwt beam="2">  1       21 0.98879095E-02 0.18663052E+03</pdfrwt>
<totfact> 0.39998332E+04</totfact>
</mgrwt>
</event>
<event>
 4    1  0.4102458E+000  0.2341001E+03  0.7546771E-02  0.1123787E+00
         21   -1    0    0  501  502  0.00000000000E+00  0.00000000000E+00  0.23498065439E+03  0.23498065439E+03  0.00000000000E+00 0. -1.
         21   -1    0    0  502  503 -0.00000000000E+00 -0.00000000000E+00 -0.25263420064E+03  0.25263420064E+03  0.00000000000E+00 0.  1.
          6    1    1    2  501    0  0.30956673907E+02  0.15464651345E+03  0.58754854781E+02  0.24136071085E+03  0.17300000000E+03 0. -1.
         -6    1    1    2    0  503 -0.30956673907E+02 -0.15464651345E+03 -0.76408401035E+02  0.24625414419E+03  0.17300000000E+03 0.  1.
<mgrwt>
<rscale>  2 0.23410011E+03</rscale>
<asrwt>0</asrwt>
<pdfrwt beam="1">  1       21 0.36150870E-01 0.23410011E+03</pdfrwt>
<pdfrwt beam="2">  1       21 0.38866800E-01 0.23410011E+03</pdfrwt>
<totfact> 0.46193675E+04</totfact>
</mgrwt>
</event>
<event>
 4    1  0.4102458E+000  0.2027605E+03  0.7546771E-02  0.1147431E+00
         21   -1    0    0  501  502  0.00000000000E+00  0.00000000000E+00  0.51333956177E+03  0.51333956177E+03  0.00000000000E+00 0. -1.
         21   -1    0    0  502  503 -0.00000000000E+00 -0.00000000000E+00 -0.13325296315E+03  0.13325296315E+03  0.00000000000E+00 0. -1.
          6    1    1    2  501    0 -0.10180168531E+03  0.28622108968E+02  0.39425434364E+03  0.44333767688E+03  0.17300000000E+03 0. -1.
         -6    1    1    2    0  503  0.10180168531E+03 -0.28622108968E+02 -0.14167745023E+02  0.20325484804E+03  0.17300000000E+03 0. -1.
<mgrwt>
<rscale>  2 0.20276047E+03</rscale>
<asrwt>0</asrwt>
<pdfrwt beam="1">  1       21 0.78975316E-01 0.20276047E+03</pdfrwt>
<pdfrwt beam="2">  1       21 0.20500456E-01 0.20276047E+03</pdfrwt>
<totfact> 0.31033630E+04</totfact>
</mgrwt>
</event>
<event>
 4    1  0.4102458E+000  0.2282096E+03  0.7546771E-02  0.1127906E+00
         21   -1    0    0  501  502  0.00000000000E+00  0.00000000000E+00  0.19279876419E+03  0.19279876419E+03  0.00000000000E+00 0. -1.
         21   -1    0    0  502  503 -0.00000000000E+00 -0.00000000000E+00 -0.33584134886E+03  0.33584134886E+03  0.00000000000E+00 0.  1.
          6    1    1    2  501    0 -0.47938661407E+02 -0.14089886520E+03  0.45402395087E+02  0.23268215005E+03  0.17300000000E+03 0. -1.
         -6    1    1    2    0  503  0.47938661407E+02  0.14089886520E+03 -0.18844497975E+03  0.29595796300E+03  0.17300000000E+03 0.  1.
<mgrwt>
<rscale>  2 0.22820956E+03</rscale>
<asrwt>0</asrwt>
<pdfrwt beam="1">  1       21 0.29661348E-01 0.22820956E+03</pdfrwt>
<pdfrwt beam="2">  1       21 0.51667900E-01 0.22820956E+03</pdfrwt>
<totfact> 0.38080493E+04</totfact>
</mgrwt>
</event>
<event>
 4    1  0.4102458E+000  0.1744792E+03  0.7546771E-02  0.1173256E+00
         21   -1    0    0  501  502  0.00000000000E+00  0.00000000000E+00  0.76264198912E+02  0.76264198912E+02  0.00000000000E+00 0. -1.
         21   -1    0    0  502  503 -0.00000000000E+00 -0.00000000000E+00 -0.47141140096E+03  0.47141140096E+03  0.00000000000E+00 0. -1.
          6    1    1    2  501    0 -0.81596542121E+01  0.21152106266E+02 -0.90381608977E+02  0.19649892315E+03  0.17300000000E+03 0. -1.
         -6    1    1    2    0  503  0.81596542121E+01 -0.21152106266E+02 -0.30476559308E+03  0.35117667673E+03  0.17300000000E+03 0. -1.
<mgrwt>
<rscale>  2 0.17447920E+03</rscale>
<asrwt>0</asrwt>
<pdfrwt beam="1">  1       21 0.11732954E-01 0.17447920E+03</pdfrwt>
<pdfrwt beam="2">  1       21 0.72524830E-01 0.17447920E+03</pdfrwt>
<totfact> 0.10540127E+05</totfact>
</mgrwt>
</event>
<event>
 4    1  0.4102458E+000  0.2057074E+03  0.7546771E-02  0.1145011E+00
         21   -1    0    0  501  502  0.00000000000E+00  0.00000000000E+00  0.19838780953E+04  0.19838780953E+04  0.00000000000E+00 0. -1.
         21   -1    0    0  502  503 -0.00000000000E+00 -0.00000000000E+00 -0.27596101480E+02  0.27596101480E+02  0.00000000000E+00 0. -1.
          6    1    1    2  501    0  0.10556043125E+03 -0.35264002205E+02  0.14573987965E+04  0.14718446951E+04  0.17300000000E+03 0. -1.
         -6    1    1    2    0  503 -0.10556043125E+03  0.35264002205E+02  0.49888319730E+03  0.53962950165E+03  0.17300000000E+03 0. -1.
<mgrwt>
<rscale>  2 0.20570745E+03</rscale>
<asrwt>0</asrwt>
<pdfrwt beam="1">  1       21 0.30521190E+00 0.20570745E+03</pdfrwt>
<pdfrwt beam="2">  1       21 0.42455556E-02 0.20570745E+03</pdfrwt>
<totfact> 0.11141329E+04</totfact>
</mgrwt>
</event>
<event>
 4    1  0.4102458E+000  0.1912778E+03  0.7546771E-02  0.1157314E+00
         21   -1    0    0  501  502  0.00000000000E+00  0.00000000000E+00  0.76860119133E+03  0.76860119133E+03  0.00000000000E+00 0. -1.
         21   -1    0    0  502  503 -0.00000000000E+00 -0.00000000000E+00 -0.11411355547E+03  0.11411355547E+03  0.00000000000E+00 0. -1.
          6    1    1    2  501    0  0.33740704341E+02  0.74295047794E+02  0.66419681256E+03  0.69119070818E+03  0.17300000000E+03 0. -1.
         -6    1    1    2    0  503 -0.33740704341E+02 -0.74295047794E+02 -0.97091767077E+01  0.19152403862E+03  0.17300000000E+03 0. -1.
<mgrwt>
<rscale>  2 0.19127778E+03</rscale>
<asrwt>0</asrwt>
<pdfrwt beam="1">  1       21 0.11824633E+00 0.19127778E+03</pdfrwt>
<pdfrwt beam="2">  1       21 0.17555932E-01 0.19127778E+03</pdfrwt>
<totfact> 0.16118052E+04</totfact>
</mgrwt>
</event>
<event>
 4    1  0.4102458E+000  0.2974944E+03  0.7546771E-02  0.1086500E+00
         21   -1    0    0  503  502  0.00000000000E+00  0.00000000000E+00  0.67054376221E+03  0.67054376221E+03  0.00000000000E+00 0. -1.
         21   -1    0    0  501  503 -0.00000000000E+00 -0.00000000000E+00 -0.15337754390E+03  0.15337754390E+03  0.00000000000E+00 0.  1.
          6    1    1    2  501    0  0.56608816957E+02  0.23530698854E+03  0.10473661031E+03  0.31539292090E+03  0.17300000000E+03 0.  1.
         -6    1    1    2    0  502 -0.56608816957E+02 -0.23530698854E+03  0.41242960800E+03  0.50852838521E+03  0.17300000000E+03 0. -1.
<mgrwt>
<rscale>  2 0.29749443E+03</rscale>
<asrwt>0</asrwt>
<pdfrwt beam="1">  1       21 0.10316058E+00 0.29749443E+03</pdfrwt>
<pdfrwt beam="2">  1       21 0.23596546E-01 0.29749443E+03</pdfrwt>
<totfact> 0.12150031E+04</totfact>
</mgrwt>
</event>
<event>
 4    1  0.4102458E+000  0.2360057E+03  0.7546771E-02  0.1122483E+00
         21   -1    0    0  503  502  0.00000000000E+00  0.00000000000E+00  0.96949566142E+02  0.96949566142E+02  0.00000000000E+00 0.  1.
         21   -1    0    0  501  503 -0.00000000000E+00 -0.00000000000E+00 -0.65182852205E+03  0.65182852205E+03  0.00000000000E+00 0. -1.
          6    1    1    2  501    0  0.16008464103E+03 -0.11941418432E+02 -0.40638093934E+03  0.46994058947E+03  0.17300000000E+03 0. -1.
         -6    1    1    2    0  502 -0.16008464103E+03  0.11941418432E+02 -0.14849801656E+03  0.27883749872E+03  0.17300000000E+03 0.  1.
<mgrwt>
<rscale>  2 0.23600570E+03</rscale>
<asrwt>0</asrwt>
<pdfrwt beam="1">  1       21 0.14915318E-01 0.23600570E+03</pdfrwt>
<pdfrwt beam="2">  1       21 0.10028131E+00 0.23600570E+03</pdfrwt>
<totfact> 0.31584887E+04</totfact>
</mgrwt>
</event>
<event>
 4    1  0.4102458E+000  0.1884046E+03  0.7546771E-02  0.1159908E+00
         21   -1    0    0  503  502  0.00000000000E+00  0.00000000000E+00  0.27284353527E+03  0.27284353527E+03  0.00000000000E+00 0.  1.
         21   -1    0    0  501  503 -0.00000000000E+00 -0.00000000000E+00 -0.14856592958E+03  0.14856592958E+03  0.00000000000E+00 0.  1.
          6    1    1    2  501    0 -0.15816939273E+02  0.72918449586E+02 -0.12150974549E+02  0.18879597994E+03  0.17300000000E+03 0.  1.
         -6    1    1    2    0  502  0.15816939273E+02 -0.72918449586E+02  0.13642858023E+03  0.23261348491E+03  0.17300000000E+03 0.  1.
<mgrwt>
<rscale>  2 0.18840455E+03</rscale>
<asrwt>0</asrwt>
<pdfrwt beam="1">  1       21 0.41975928E-01 0.18840455E+03</pdfrwt>
<pdfrwt beam="2">  1       21 0.22856297E-01 0.18840455E+03</pdfrwt>
<totfact> 0.98268299E+04</totfact>
</mgrwt>
</event>
<event>
 4    1  0.4102458E+000  0.2058458E+03  0.7546771E-02  0.1144899E+00
         21   -1    0    0  501  502  0.00000000000E+00  0.00000000000E+00  0.30743345243E+03  0.30743345243E+03  0.00000000000E+00 0.  1.
         21   -1    0    0  502  503 -0.00000000000E+00 -0.00000000000E+00 -0.32446615766E+03  0.32446615766E+03  0.00000000000E+00 0.  1.
          6    1    1    2  501    0  0.85087691194E+00  0.11154723267E+03  0.23111036057E+03  0.30949072340E+03  0.17300000000E+03 0.  1.
         -6    1    1    2    0  503 -0.85087691194E+00 -0.11154723267E+03 -0.24814306580E+03  0.32240888668E+03  0.17300000000E+03 0.  1.
<mgrwt>
<rscale>  2 0.20584584E+03</rscale>
<asrwt>0</asrwt>
<pdfrwt beam="1">  1       21 0.47297454E-01 0.20584584E+03</pdfrwt>
<pdfrwt beam="2">  1       21 0.49917870E-01 0.20584584E+03</pdfrwt>
<totfact> 0.16216943E+04</totfact>
</mgrwt>
</event>
<event>
 4    1  0.4102458E+000  0.1762043E+03  0.7546771E-02  0.1171528E+00
         21   -1    0    0  503  502  0.00000000000E+00  0.00000000000E+00  0.45354934163E+02  0.45354934163E+02  0.00000000000E+00 0.  1.
         21   -1    0    0  501  503 -0.00000000000E+00 -0.00000000000E+00 -0.21182314768E+04  0.21182314768E+04  0.00000000000E+00 0.  1.
          6    1    1    2  501    0  0.30500122223E+02 -0.13736429196E+02 -0.19264241598E+04  0.19344658152E+04  0.17300000000E+03 0.  1.
         -6    1    1    2    0  502 -0.30500122223E+02  0.13736429196E+02 -0.14645238287E+03  0.22912059574E+03  0.17300000000E+03 0.  1.
<mgrwt>
<rscale>  2 0.17620428E+03</rscale>
<asrwt>0</asrwt>
<pdfrwt beam="1">  1       21 0.69776854E-02 0.17620428E+03</pdfrwt>
<pdfrwt beam="2">  1       21 0.32588162E+00 0.17620428E+03</pdfrwt>
<totfact> 0.37606786E+03</totfact>
</mgrwt>
</event>
<event>
 4    1  0.4102458E+000  0.1998612E+03  0.7546771E-02  0.1149856E+00
         21   -1    0    0  501  502  0.00000000000E+00  0.00000000000E+00  0.38154850835E+03  0.38154850835E+03  0.00000000000E+00 0. -1.
         21   -1    0    0  502  503 -0.00000000000E+00 -0.00000000000E+00 -0.12571765495E+03  0.12571765495E+03  0.00000000000E+00 0.  1.
          6    1    1    2  501    0  0.97674857986E+02  0.21797639110E+02  0.23164383814E+03  0.30594669912E+03  0.17300000000E+03 0. -1.
         -6    1    1    2    0  503 -0.97674857986E+02 -0.21797639110E+02  0.24187015261E+02  0.20131946419E+03  0.17300000000E+03 0. -1.
<mgrwt>
<rscale>  2 0.19986124E+03</rscale>
<asrwt>0</asrwt>
<pdfrwt beam="1">  1       21 0.58699770E-01 0.19986124E+03</pdfrwt>
<pdfrwt beam="2">  1       21 0.19341178E-01 0.19986124E+03</pdfrwt>
<totfact> 0.66510369E+04</totfact>
</mgrwt>
</event>
<event>
 4    1  0.4102458E+000  0.1932309E+03  0.7546771E-02  0.1155579E+00
         21   -1    0    0  501  502  0.00000000000E+00  0.00000000000E+00  0.24046428940E+03  0.24046428940E+03  0.00000000000E+00 0. -1.
         21   -1    0    0  502  503 -0.00000000000E+00 -0.00000000000E+00 -0.19135140559E+03  0.19135140559E+03  0.00000000000E+00 0. -1.
          6    1    1    2  501    0 -0.32478691684E+02  0.79713926392E+02  0.11830447264E+03  0.22657035049E+03  0.17300000000E+03 0. -1.
         -6    1    1    2    0  503  0.32478691684E+02 -0.79713926392E+02 -0.69191588838E+02  0.20524534450E+03  0.17300000000E+03 0. -1.
<mgrwt>
<rscale>  2 0.19323089E+03</rscale>
<asrwt>0</asrwt>
<pdfrwt beam="1">  1       21 0.36994506E-01 0.19323089E+03</pdfrwt>
<pdfrwt beam="2">  1       21 0.29438678E-01 0.19323089E+03</pdfrwt>
<totfact> 0.77893405E+04</totfact>
</mgrwt>
</event>
<event>
 4    1  0.4102458E+000  0.1951758E+03  0.7546771E-02  0.1153874E+00
         21   -1    0    0  503  502  0.00000000000E+00  0.00000000000E+00  0.29579454445E+02  0.29579454445E+02  0.00000000000E+00 0.  1.
         21   -1    0    0  501  503 -0.00000000000E+00 -0.00000000000E+00 -0.18157940511E+04  0.18157940511E+04  0.00000000000E+00 0.  1.
          6    1    1    2  501    0 -0.81975588560E+02 -0.38007645034E+02 -0.13906374686E+04  0.14042671210E+04  0.17300000000E+03 0. -1.
         -6    1    1    2    0  502  0.81975588560E+02  0.38007645034E+02 -0.39557712809E+03  0.44110638453E+03  0.17300000000E+03 0. -1.
<mgrwt>
<rscale>  2 0.19517576E+03</rscale>
<asrwt>0</asrwt>
<pdfrwt beam="1">  1       21 0.45506854E-02 0.19517576E+03</pdfrwt>
<pdfrwt beam="2">  1       21 0.27935292E+00 0.19517576E+03</pdfrwt>
<totfact> 0.14122911E+04</totfact>
</mgrwt>
</event>
<event>
 4    1  0.4102458E+000  0.1795727E+03  0.7546771E-02  0.1168217E+00
         21   -1    0    0  503  502  0.00000000000E+00  0.00000000000E+00  0.25664475559E+03  0.25664475559E+03  0.00000000000E+00 0.  1.
         21   -1    0    0  501  503 -0.00000000000E+00 -0.00000000000E+00 -0.14197220760E+03  0.14197220760E+03  0.00000000000E+00 0.  1.
          6    1    1    2  501    0  0.26532283828E+02  0.40167122054E+02 -0.10251505552E+02  0.17986509707E+03  0.17300000000E+03 0.  1.
         -6    1    1    2    0  502 -0.26532283828E+02 -0.40167122054E+02  0.12492405354E+03  0.21875186612E+03  0.17300000000E+03 0.  1.
<mgrwt>
<rscale>  2 0.17957271E+03</rscale>
<asrwt>0</asrwt>
<pdfrwt beam="1">  1       21 0.39483808E-01 0.17957271E+03</pdfrwt>
<pdfrwt beam="2">  1       21 0.21841878E-01 0.17957271E+03</pdfrwt>
<totfact> 0.12155113E+05</totfact>
</mgrwt>
</event>
<event>
 4    1  0.4102458E+000  0.1883450E+03  0.7546771E-02  0.1159963E+00
         21   -1    0    0  501  502  0.00000000000E+00  0.00000000000E+00  0.23234246638E+03  0.23234246638E+03  0.00000000000E+00 0.  1.
         21   -1    0    0  502  503 -0.00000000000E+00 -0.00000000000E+00 -0.15885881927E+03  0.15885881927E+03  0.00000000000E+00 0.  1.
          6    1    1    2  501    0 -0.38778015096E+02 -0.63569535064E+02  0.75320895041E+02  0.20284737482E+03  0.17300000000E+03 0.  1.
         -6    1    1    2    0  503  0.38778015096E+02  0.63569535064E+02 -0.18372479293E+01  0.18835391082E+03  0.17300000000E+03 0.  1.
<mgrwt>
<rscale>  2 0.18834495E+03</rscale>
<asrwt>0</asrwt>
<pdfrwt beam="1">  1       21 0.35744995E-01 0.18834495E+03</pdfrwt>
<pdfrwt beam="2">  1       21 0.24439818E-01 0.18834495E+03</pdfrwt>
<totfact> 0.11953923E+05</totfact>
</mgrwt>
</event>
<event>
 4    1  0.4102458E+000  0.1755229E+03  0.7546771E-02  0.1172208E+00
         21   -1    0    0  503  502  0.00000000000E+00  0.00000000000E+00  0.69543139975E+02  0.69543139975E+02  0.00000000000E+00 0. -1.
         21   -1    0    0  501  503 -0.00000000000E+00 -0.00000000000E+00 -0.59840499457E+03  0.59840499457E+03  0.00000000000E+00 0. -1.
          6    1    1    2  501    0  0.22964538839E+02 -0.18759276219E+02 -0.43462098090E+03  0.46872558872E+03  0.17300000000E+03 0. -1.
         -6    1    1    2    0  502 -0.22964538839E+02  0.18759276219E+02 -0.94240873698E+02  0.19922254582E+03  0.17300000000E+03 0. -1.
<mgrwt>
<rscale>  2 0.17552288E+03</rscale>
<asrwt>0</asrwt>
<pdfrwt beam="1">  1       21 0.10698944E-01 0.17552288E+03</pdfrwt>
<pdfrwt beam="2">  1       21 0.92062309E-01 0.17552288E+03</pdfrwt>
<totfact> 0.72319444E+04</totfact>
</mgrwt>
</event>
<event>
 4    1  0.4102458E+000  0.2298722E+03  0.7546771E-02  0.1126730E+00
         21   -1    0    0  501  502  0.00000000000E+00  0.00000000000E+00  0.95211652873E+02  0.95211652873E+02  0.00000000000E+00 0.  1.
         21   -1    0    0  502  503 -0.00000000000E+00 -0.00000000000E+00 -0.64755757042E+03  0.64755757042E+03  0.00000000000E+00 0.  1.
          6    1    1    2  501    0 -0.35900715697E+00 -0.15136746839E+03 -0.13575555427E+03  0.26696593395E+03  0.17300000000E+03 0.  1.
         -6    1    1    2    0  503  0.35900715697E+00  0.15136746839E+03 -0.41659036327E+03  0.47580328934E+03  0.17300000000E+03 0.  1.
<mgrwt>
<rscale>  2 0.22987222E+03</rscale>
<asrwt>0</asrwt>
<pdfrwt beam="1">  1       21 0.14647947E-01 0.22987222E+03</pdfrwt>
<pdfrwt beam="2">  1       21 0.99624241E-01 0.22987222E+03</pdfrwt>
<totfact> 0.33261356E+04</totfact>
</mgrwt>
</event>
<event>
 4    1  0.4102458E+000  0.1841291E+03  0.7546771E-02  0.1163866E+00
         21   -1    0    0  503  502  0.00000000000E+00  0.00000000000E+00  0.99220586820E+02  0.99220586820E+02  0.00000000000E+00 0. -1.
         21   -1    0    0  501  503 -0.00000000000E+00 -0.00000000000E+00 -0.14999521622E+04  0.14999521622E+04  0.00000000000E+00 0. -1.
          6    1    1    2  501    0  0.27568703472E+02 -0.56696640875E+02 -0.14029987016E+04  0.14150296461E+04  0.17300000000E+03 0. -1.
         -6    1    1    2    0  502 -0.27568703472E+02  0.56696640875E+02  0.22671262582E+01  0.18414310294E+03  0.17300000000E+03 0. -1.
<mgrwt>
<rscale>  2 0.18412915E+03</rscale>
<asrwt>0</asrwt>
<pdfrwt beam="1">  1       21 0.15264706E-01 0.18412915E+03</pdfrwt>
<pdfrwt beam="2">  1       21 0.23076186E+00 0.18412915E+03</pdfrwt>
<totfact> 0.33180310E+03</totfact>
</mgrwt>
</event>
<event>
 4    1  0.4102458E+000  0.2150009E+03  0.7546771E-02  0.1137666E+00
         21   -1    0    0  503  502  0.00000000000E+00  0.00000000000E+00  0.14579164275E+04  0.14579164275E+04  0.00000000000E+00 0. -1.
         21   -1    0    0  501  503 -0.00000000000E+00 -0.00000000000E+00 -0.63756648380E+02  0.63756648380E+02  0.00000000000E+00 0. -1.
          6    1    1    2  501    0 -0.12259629424E+03 -0.35588711832E+02  0.15763916004E+03  0.26659991101E+03  0.17300000000E+03 0. -1.
         -6    1    1    2    0  502  0.12259629424E+03  0.35588711832E+02  0.12365206190E+04  0.12550731648E+04  0.17300000000E+03 0. -1.
<mgrwt>
<rscale>  2 0.21500095E+03</rscale>
<asrwt>0</asrwt>
<pdfrwt beam="1">  1       21 0.22429481E+00 0.21500095E+03</pdfrwt>
<pdfrwt beam="2">  1       21 0.98087162E-02 0.21500095E+03</pdfrwt>
<totfact> 0.77937576E+03</totfact>
</mgrwt>
</event>
<event>
 4    1  0.4102458E+000  0.1940703E+03  0.7546771E-02  0.1154841E+00
         21   -1    0    0  501  502  0.00000000000E+00  0.00000000000E+00  0.53281640607E+02  0.53281640607E+02  0.00000000000E+00 0.  1.
         21   -1    0    0  502  503 -0.00000000000E+00 -0.00000000000E+00 -0.10106178364E+04  0.10106178364E+04  0.00000000000E+00 0.  1.
          6    1    1    2  501    0  0.56204386494E+02 -0.67641415771E+02 -0.18703798688E+03  0.26953015179E+03  0.17300000000E+03 0.  1.
         -6    1    1    2    0  503 -0.56204386494E+02  0.67641415771E+02 -0.77029820887E+03  0.79436932518E+03  0.17300000000E+03 0.  1.
<mgrwt>
<rscale>  2 0.19407033E+03</rscale>
<asrwt>0</asrwt>
<pdfrwt beam="1">  1       21 0.81971753E-02 0.19407033E+03</pdfrwt>
<pdfrwt beam="2">  1       21 0.15547967E+00 0.19407033E+03</pdfrwt>
<totfact> 0.31238197E+04</totfact>
</mgrwt>
</event>
<event>
 4    1  0.4102458E+000  0.1775411E+03  0.7546771E-02  0.1170204E+00
         21   -1    0    0  501  502  0.00000000000E+00  0.00000000000E+00  0.10798067209E+04  0.10798067209E+04  0.00000000000E+00 0.  1.
         21   -1    0    0  502  503 -0.00000000000E+00 -0.00000000000E+00 -0.36733971360E+02  0.36733971360E+02  0.00000000000E+00 0.  1.
          6    1    1    2  501    0  0.13563728498E+02 -0.37521702798E+02  0.77451050874E+03  0.79459888061E+03  0.17300000000E+03 0.  1.
         -6    1    1    2    0  503 -0.13563728498E+02  0.37521702798E+02  0.26856224083E+03  0.32194181169E+03  0.17300000000E+03 0.  1.
<mgrwt>
<rscale>  2 0.17754113E+03</rscale>
<asrwt>0</asrwt>
<pdfrwt beam="1">  1       21 0.16612409E+00 0.17754113E+03</pdfrwt>
<pdfrwt beam="2">  1       21 0.56513810E-02 0.17754113E+03</pdfrwt>
<totfact> 0.50093589E+04</totfact>
</mgrwt>
</event>
<event>
 4    1  0.4102458E+000  0.3015116E+03  0.7546771E-02  0.1084487E+00
         21   -1    0    0  501  502  0.00000000000E+00  0.00000000000E+00  0.22673206547E+03  0.22673206547E+03  0.00000000000E+00 0.  1.
         21   -1    0    0  502  503 -0.00000000000E+00 -0.00000000000E+00 -0.47297719551E+03  0.47297719551E+03  0.00000000000E+00 0. -1.
          6    1    1    2  501    0  0.20410598667E+03  0.13900002172E+03  0.13399224758E+02  0.30180920970E+03  0.17300000000E+03 0.  1.
         -6    1    1    2    0  503 -0.20410598667E+03 -0.13900002172E+03 -0.25964435480E+03  0.39790005129E+03  0.17300000000E+03 0. -1.
<mgrwt>
<rscale>  2 0.30151162E+03</rscale>
<asrwt>0</asrwt>
<pdfrwt beam="1">  1       21 0.34881856E-01 0.30151162E+03</pdfrwt>
<pdfrwt beam="2">  1       21 0.72765722E-01 0.30151162E+03</pdfrwt>
<totfact> 0.12704785E+04</totfact>
</mgrwt>
</event>
<event>
 4    1  0.4102458E+000  0.2072959E+03  0.7546771E-02  0.1143725E+00
         21   -1    0    0  503  502  0.00000000000E+00  0.00000000000E+00  0.70229506927E+03  0.70229506927E+03  0.00000000000E+00 0. -1.
         21   -1    0    0  501  503 -0.00000000000E+00 -0.00000000000E+00 -0.65713918659E+02  0.65713918659E+02  0.00000000000E+00 0. -1.
          6    1    1    2  501    0 -0.70071493826E+02 -0.90180752001E+02  0.21750656656E+03  0.30046745044E+03  0.17300000000E+03 0. -1.
         -6    1    1    2    0  502  0.70071493826E+02  0.90180752001E+02  0.41907458405E+03  0.46754153749E+03  0.17300000000E+03 0. -1.
<mgrwt>
<rscale>  2 0.20729588E+03</rscale>
<asrwt>0</asrwt>
<pdfrwt beam="1">  1       21 0.10804539E+00 0.20729588E+03</pdfrwt>
<pdfrwt beam="2">  1       21 0.10109834E-01 0.20729588E+03</pdfrwt>
<totfact> 0.53881687E+04</totfact>
</mgrwt>
</event>
<event>
 4    1  0.4102458E+000  0.1832809E+03  0.7546771E-02  0.1164665E+00
         21   -1    0    0  503  502  0.00000000000E+00  0.00000000000E+00  0.18462488391E+04  0.18462488391E+04  0.00000000000E+00 0. -1.
         21   -1    0    0  501  503 -0.00000000000E+00 -0.00000000000E+00 -0.39275649849E+02  0.39275649849E+02  0.00000000000E+00 0.  1.
          6    1    1    2  501    0 -0.10666680909E+01 -0.60512356789E+02  0.21279222173E+03  0.28084232718E+03  0.17300000000E+03 0.  1.
         -6    1    1    2    0  502  0.10666680909E+01  0.60512356789E+02  0.15941809675E+04  0.16046821618E+04  0.17300000000E+03 0. -1.
<mgrwt>
<rscale>  2 0.18328089E+03</rscale>
<asrwt>0</asrwt>
<pdfrwt beam="1">  1       21 0.28403821E+00 0.18328089E+03</pdfrwt>
<pdfrwt beam="2">  1       21 0.60424091E-02 0.18328089E+03</pdfrwt>
<totfact> 0.83013017E+03</totfact>
</mgrwt>
</event>
<event>
 4    1  0.4102458E+000  0.1804963E+03  0.7546771E-02  0.1167324E+00
         21   -1    0    0  503  502  0.00000000000E+00  0.00000000000E+00  0.12381282944E+04  0.12381282944E+04  0.00000000000E+00 0. -1.
         21   -1    0    0  501  503 -0.00000000000E+00 -0.00000000000E+00 -0.76986944393E+02  0.76986944393E+02  0.00000000000E+00 0. -1.
          6    1    1    2  501    0 -0.24018632853E+02  0.45530252382E+02  0.47091429038E+02  0.18653820331E+03  0.17300000000E+03 0. -1.
         -6    1    1    2    0  502  0.24018632853E+02 -0.45530252382E+02  0.11140499210E+04  0.11285770355E+04  0.17300000000E+03 0. -1.
<mgrwt>
<rscale>  2 0.18049626E+03</rscale>
<asrwt>0</asrwt>
<pdfrwt beam="1">  1       21 0.19048126E+00 0.18049626E+03</pdfrwt>
<pdfrwt beam="2">  1       21 0.11844146E-01 0.18049626E+03</pdfrwt>
<totfact> 0.93972958E+03</totfact>
</mgrwt>
</event>
<event>
 4    1  0.4102458E+000  0.2279885E+03  0.7546771E-02  0.1128064E+00
         21   -1    0    0  503  502  0.00000000000E+00  0.00000000000E+00  0.10763042875E+03  0.10763042875E+03  0.00000000000E+00 0.  1.
         21   -1    0    0  501  503 -0.00000000000E+00 -0.00000000000E+00 -0.49877403122E+03  0.49877403122E+03  0.00000000000E+00 0.  1.
          6    1    1    2  501    0 -0.55255789788E+02 -0.13782798466E+03 -0.24959898813E+03  0.33805089933E+03  0.17300000000E+03 0.  1.
         -6    1    1    2    0  502  0.55255789788E+02  0.13782798466E+03 -0.14154461434E+03  0.26835356064E+03  0.17300000000E+03 0.  1.
<mgrwt>
<rscale>  2 0.22798850E+03</rscale>
<asrwt>0</asrwt>
<pdfrwt beam="1">  1       21 0.16558527E-01 0.22798850E+03</pdfrwt>
<pdfrwt beam="2">  1       21 0.76734467E-01 0.22798850E+03</pdfrwt>
<totfact> 0.48632096E+04</totfact>
</mgrwt>
</event>
<event>
 4    1  0.4102458E+000  0.2295124E+03  0.7546771E-02  0.1126983E+00
         21   -1    0    0  503  502  0.00000000000E+00  0.00000000000E+00  0.96847774078E+03  0.96847774078E+03  0.00000000000E+00 0. -1.
         21   -1    0    0  501  503 -0.00000000000E+00 -0.00000000000E+00 -0.55114889308E+02  0.55114889308E+02  0.00000000000E+00 0. -1.
          6    1    1    2  501    0  0.12475355276E+03  0.84755512805E+02  0.39800523506E+03  0.45943891108E+03  0.17300000000E+03 0. -1.
         -6    1    1    2    0  502 -0.12475355276E+03 -0.84755512805E+02  0.51535761642E+03  0.56415371902E+03  0.17300000000E+03 0. -1.
<mgrwt>
<rscale>  2 0.22951241E+03</rscale>
<asrwt>0</asrwt>
<pdfrwt beam="1">  1       21 0.14899656E+00 0.22951241E+03</pdfrwt>
<pdfrwt beam="2">  1       21 0.84792145E-02 0.22951241E+03</pdfrwt>
<totfact> 0.32278649E+04</totfact>
</mgrwt>
</event>
<event>
 4    1  0.4102458E+000  0.2281079E+03  0.7546771E-02  0.1127979E+00
         21   -1    0    0  503  502  0.00000000000E+00  0.00000000000E+00  0.15733260009E+04  0.15733260009E+04  0.00000000000E+00 0. -1.
         21   -1    0    0  501  503 -0.00000000000E+00 -0.00000000000E+00 -0.34418417368E+02  0.34418417368E+02  0.00000000000E+00 0.  1.
          6    1    1    2  501    0  0.14858771218E+03 -0.50890595635E+01  0.61046589272E+03  0.65169150133E+03  0.17300000000E+03 0.  1.
         -6    1    1    2    0  502 -0.14858771218E+03  0.50890595635E+01  0.92844169081E+03  0.95605291693E+03  0.17300000000E+03 0. -1.
<mgrwt>
<rscale>  2 0.22810788E+03</rscale>
<asrwt>0</asrwt>
<pdfrwt beam="1">  1       21 0.24205010E+00 0.22810788E+03</pdfrwt>
<pdfrwt beam="2">  1       21 0.52951424E-02 0.22810788E+03</pdfrwt>
<totfact> 0.17559763E+04</totfact>
</mgrwt>
</event>
<event>
 4    1  0.4102458E+000  0.1927344E+03  0.7546771E-02  0.1156018E+00
         21   -1    0    0  503  502  0.00000000000E+00  0.00000000000E+00  0.12511415821E+03  0.12511415821E+03  0.00000000000E+00 0.  1.
         21   -1    0    0  501  503 -0.00000000000E+00 -0.00000000000E+00 -0.67545457269E+03  0.67545457269E+03  0.00000000000E+00 0.  1.
          6    1    1    2  501    0 -0.27461241501E+02 -0.80395574628E+02 -0.57483381376E+03  0.60628415916E+03  0.17300000000E+03 0.  1.
         -6    1    1    2    0  502  0.27461241501E+02  0.80395574628E+02  0.24493399281E+02  0.19428457173E+03  0.17300000000E+03 0.  1.
<mgrwt>
<rscale>  2 0.19273445E+03</rscale>
<asrwt>0</asrwt>
<pdfrwt beam="1">  1       21 0.19248332E-01 0.19273445E+03</pdfrwt>
<pdfrwt beam="2">  1       21 0.10391609E+00 0.19273445E+03</pdfrwt>
<totfact> 0.18570158E+04</totfact>
</mgrwt>
</event>
<event>
 4    1  0.4102458E+000  0.1982446E+03  0.7546771E-02  0.1151229E+00
         21   -1    0    0  503  502  0.00000000000E+00  0.00000000000E+00  0.37527649108E+03  0.37527649108E+03  0.00000000000E+00 0. -1.
         21   -1    0    0  501  503 -0.00000000000E+00 -0.00000000000E+00 -0.26326713977E+03  0.26326713977E+03  0.00000000000E+00 0. -1.
          6    1    1    2  501    0 -0.84853440424E+02  0.46602749660E+02 -0.19175708337E+03  0.27581098900E+03  0.17300000000E+03 0. -1.
         -6    1    1    2    0  502  0.84853440424E+02 -0.46602749660E+02  0.30376643469E+03  0.36273264186E+03  0.17300000000E+03 0. -1.
<mgrwt>
<rscale>  2 0.19824460E+03</rscale>
<asrwt>0</asrwt>
<pdfrwt beam="1">  1       21 0.57734845E-01 0.19824460E+03</pdfrwt>
<pdfrwt beam="2">  1       21 0.40502637E-01 0.19824460E+03</pdfrwt>
<totfact> 0.16467850E+04</totfact>
</mgrwt>
</event>
<event>
 4    1  0.4102458E+000  0.2275906E+03  0.7546771E-02  0.1128347E+00
         21   -1    0    0  503  502  0.00000000000E+00  0.00000000000E+00  0.62127671520E+03  0.62127671520E+03  0.00000000000E+00 0.  1.
         21   -1    0    0  501  503 -0.00000000000E+00 -0.00000000000E+00 -0.13473981974E+03  0.13473981974E+03  0.00000000000E+00 0.  1.
          6    1    1    2  501    0 -0.97440747810E+02 -0.11123759469E+03  0.98710393016E+01  0.22780460756E+03  0.17300000000E+03 0.  1.
         -6    1    1    2    0  502  0.97440747810E+02  0.11123759469E+03  0.47666585616E+03  0.52821192739E+03  0.17300000000E+03 0.  1.
<mgrwt>
<rscale>  2 0.22759065E+03</rscale>
<asrwt>0</asrwt>
<pdfrwt beam="1">  1       21 0.95581032E-01 0.22759065E+03</pdfrwt>
<pdfrwt beam="2">  1       21 0.20729203E-01 0.22759065E+03</pdfrwt>
<totfact> 0.19308654E+04</totfact>
</mgrwt>
</event>
<event>
 4    1  0.4102458E+000  0.2458622E+03  0.7546771E-02  0.1115948E+00
         21   -1    0    0  503  502  0.00000000000E+00  0.00000000000E+00  0.16148323105E+03  0.16148323105E+03  0.00000000000E+00 0.  1.
         21   -1    0    0  501  503 -0.00000000000E+00 -0.00000000000E+00 -0.49762159710E+03  0.49762159710E+03  0.00000000000E+00 0.  1.
          6    1    1    2  501    0 -0.16662823023E+03 -0.52481027834E+02 -0.33210525567E+03  0.41320954277E+03  0.17300000000E+03 0.  1.
         -6    1    1    2    0  502  0.16662823023E+03  0.52481027834E+02 -0.40331103748E+01  0.24589528538E+03  0.17300000000E+03 0.  1.
<mgrwt>
<rscale>  2 0.24586221E+03</rscale>
<asrwt>0</asrwt>
<pdfrwt beam="1">  1       21 0.24843574E-01 0.24586221E+03</pdfrwt>
<pdfrwt beam="2">  1       21 0.76557169E-01 0.24586221E+03</pdfrwt>
<totfact> 0.22614579E+04</totfact>
</mgrwt>
</event>
<event>
 4    1  0.4102458E+000  0.2623270E+03  0.7546771E-02  0.1105753E+00
         21   -1    0    0  503  502  0.00000000000E+00  0.00000000000E+00  0.19875936195E+03  0.19875936195E+03  0.00000000000E+00 0. -1.
         21   -1    0    0  501  503 -0.00000000000E+00 -0.00000000000E+00 -0.40582259516E+03  0.40582259516E+03  0.00000000000E+00 0.  1.
          6    1    1    2  501    0  0.16461742599E+03 -0.10857047807E+03 -0.21937512642E+03  0.34196621432E+03  0.17300000000E+03 0.  1.
         -6    1    1    2    0  502 -0.16461742599E+03  0.10857047807E+03  0.12311893202E+02  0.26261574279E+03  0.17300000000E+03 0. -1.
<mgrwt>
<rscale>  2 0.26232698E+03</rscale>
<asrwt>0</asrwt>
<pdfrwt beam="1">  1       21 0.30578364E-01 0.26232698E+03</pdfrwt>
<pdfrwt beam="2">  1       21 0.62434244E-01 0.26232698E+03</pdfrwt>
<totfact> 0.23556842E+04</totfact>
</mgrwt>
</event>
<event>
 4    1  0.4102458E+000  0.1806381E+03  0.7546771E-02  0.1167187E+00
         21   -1    0    0  503  502  0.00000000000E+00  0.00000000000E+00  0.12268782571E+03  0.12268782571E+03  0.00000000000E+00 0. -1.
         21   -1    0    0  501  503 -0.00000000000E+00 -0.00000000000E+00 -0.49932181525E+03  0.49932181525E+03  0.00000000000E+00 0.  1.
          6    1    1    2  501    0  0.34136790954E+02  0.39189427942E+02 -0.40093065228E+03  0.43974483476E+03  0.17300000000E+03 0.  1.
         -6    1    1    2    0  502 -0.34136790954E+02 -0.39189427942E+02  0.24296662741E+02  0.18226480620E+03  0.17300000000E+03 0. -1.
<mgrwt>
<rscale>  2 0.18063812E+03</rscale>
<asrwt>0</asrwt>
<pdfrwt beam="1">  1       21 0.18875050E-01 0.18063812E+03</pdfrwt>
<pdfrwt beam="2">  1       21 0.76818740E-01 0.18063812E+03</pdfrwt>
<totfact> 0.38985641E+04</totfact>
</mgrwt>
</event>
<event>
 4    1  0.4102458E+000  0.2756442E+03  0.7546771E-02  0.1098092E+00
         21   -1    0    0  501  502  0.00000000000E+00  0.00000000000E+00  0.10402831313E+03  0.10402831313E+03  0.00000000000E+00 0. -1.
         21   -1    0    0  502  503 -0.00000000000E+00 -0.00000000000E+00 -0.73631886272E+03  0.73631886272E+03  0.00000000000E+00 0. -1.
          6    1    1    2  501    0  0.20201287402E+03  0.72398543393E+02 -0.27839629829E+03  0.39177065901E+03  0.17300000000E+03 0. -1.
         -6    1    1    2    0  503 -0.20201287402E+03 -0.72398543393E+02 -0.35389425130E+03  0.44857651684E+03  0.17300000000E+03 0. -1.
<mgrwt>
<rscale>  2 0.27564425E+03</rscale>
<asrwt>0</asrwt>
<pdfrwt beam="1">  1       21 0.16004356E-01 0.27564425E+03</pdfrwt>
<pdfrwt beam="2">  1       21 0.11327982E+00 0.27564425E+03</pdfrwt>
<totfact> 0.20261221E+04</totfact>
</mgrwt>
</event>
<event>
 4    1  0.4102458E+000  0.1781714E+03  0.7546771E-02  0.1169585E+00
         21   -1    0    0  501  502  0.00000000000E+00  0.00000000000E+00  0.50762245723E+03  0.50762245723E+03  0.00000000000E+00 0. -1.
         21   -1    0    0  502  503 -0.00000000000E+00 -0.00000000000E+00 -0.15735337176E+03  0.15735337176E+03  0.00000000000E+00 0. -1.
          6    1    1    2  501    0 -0.23952567369E+02  0.35246800197E+02  0.43322982095E+03  0.46843691162E+03  0.17300000000E+03 0. -1.
         -6    1    1    2    0  503  0.23952567369E+02 -0.35246800197E+02 -0.82960735486E+02  0.19653891737E+03  0.17300000000E+03 0. -1.
<mgrwt>
<rscale>  2 0.17817144E+03</rscale>
<asrwt>0</asrwt>
<pdfrwt beam="1">  1       21 0.78095762E-01 0.17817144E+03</pdfrwt>
<pdfrwt beam="2">  1       21 0.24208211E-01 0.17817144E+03</pdfrwt>
<totfact> 0.23585458E+04</totfact>
</mgrwt>
</event>
<event>
 4    1  0.4102458E+000  0.1923604E+03  0.7546771E-02  0.1156349E+00
         21   -1    0    0  503  502  0.00000000000E+00  0.00000000000E+00  0.40764712169E+02  0.40764712169E+02  0.00000000000E+00 0. -1.
         21   -1    0    0  501  503 -0.00000000000E+00 -0.00000000000E+00 -0.96969719911E+03  0.96969719911E+03  0.00000000000E+00 0.  1.
          6    1    1    2  501    0  0.77723382148E+02  0.32133959437E+02 -0.59220560090E+03  0.62266362446E+03  0.17300000000E+03 0. -1.
         -6    1    1    2    0  502 -0.77723382148E+02 -0.32133959437E+02 -0.33672688604E+03  0.38779828683E+03  0.17300000000E+03 0. -1.
<mgrwt>
<rscale>  2 0.19236038E+03</rscale>
<asrwt>0</asrwt>
<pdfrwt beam="1">  1       21 0.62714938E-02 0.19236038E+03</pdfrwt>
<pdfrwt beam="2">  1       21 0.14918419E+00 0.19236038E+03</pdfrwt>
<totfact> 0.55432032E+04</totfact>
</mgrwt>
</event>
<event>
 4    1  0.4102458E+000  0.2813079E+03  0.7546771E-02  0.1094977E+00
         21   -1    0    0  501  502  0.00000000000E+00  0.00000000000E+00  0.35918596170E+03  0.35918596170E+03  0.00000000000E+00 0. -1.
         21   -1    0    0  502  503 -0.00000000000E+00 -0.00000000000E+00 -0.30171946141E+03  0.30171946141E+03  0.00000000000E+00 0.  1.
          6    1    1    2  501    0  0.20100809572E+03  0.93812966484E+02  0.20037827754E+03  0.34537744764E+03  0.17300000000E+03 0. -1.
         -6    1    1    2    0  503 -0.20100809572E+03 -0.93812966484E+02 -0.14291177725E+03  0.31552797547E+03  0.17300000000E+03 0.  1.
<mgrwt>
<rscale>  2 0.28130789E+03</rscale>
<asrwt>0</asrwt>
<pdfrwt beam="1">  1       21 0.55259379E-01 0.28130789E+03</pdfrwt>
<pdfrwt beam="2">  1       21 0.46418378E-01 0.28130789E+03</pdfrwt>
<totfact> 0.13069036E+04</totfact>
</mgrwt>
</event>
<event>
 4    1  0.4102458E+000  0.2474965E+03  0.7546771E-02  0.1114897E+00
         21   -1    0    0  501  502  0.00000000000E+00  0.00000000000E+00  0.12896115828E+03  0.12896115828E+03  0.00000000000E+00 0.  1.
         21   -1    0    0  502  503 -0.00000000000E+00 -0.00000000000E+00 -0.48444772753E+03  0.48444772753E+03  0.00000000000E+00 0.  1.
          6    1    1    2  501    0 -0.17468150813E+03 -0.28493984872E+02 -0.13487669978E+03  0.28186213048E+03  0.17300000000E+03 0.  1.
         -6    1    1    2    0  503  0.17468150813E+03  0.28493984872E+02 -0.22060986948E+03  0.33154675532E+03  0.17300000000E+03 0.  1.
<mgrwt>
<rscale>  2 0.24749654E+03</rscale>
<asrwt>0</asrwt>
<pdfrwt beam="1">  1       21 0.19840178E-01 0.24749654E+03</pdfrwt>
<pdfrwt beam="2">  1       21 0.74530420E-01 0.24749654E+03</pdfrwt>
<totfact> 0.36782704E+04</totfact>
</mgrwt>
</event>
<event>
 4    1  0.4102458E+000  0.2347158E+03  0.7546771E-02  0.1123364E+00
         21   -1    0    0  503  502  0.00000000000E+00  0.00000000000E+00  0.28753412199E+03  0.28753412199E+03  0.00000000000E+00 0. -1.
         21   -1    0    0  501  503 -0.00000000000E+00 -0.00000000000E+00 -0.20051850551E+03  0.20051850551E+03  0.00000000000E+00 0. -1.
          6    1    1    2  501    0  0.14238033083E+03  0.69930867405E+02 -0.79569522383E+01  0.23485058636E+03  0.17300000000E+03 0. -1.
         -6    1    1    2    0  502 -0.14238033083E+03 -0.69930867405E+02  0.94972568717E+02  0.25320204113E+03  0.17300000000E+03 0. -1.
<mgrwt>
<rscale>  2 0.23471575E+03</rscale>
<asrwt>0</asrwt>
<pdfrwt beam="1">  1       21 0.44236019E-01 0.23471575E+03</pdfrwt>
<pdfrwt beam="2">  1       21 0.30849001E-01 0.23471575E+03</pdfrwt>
<totfact> 0.48574308E+04</totfact>
</mgrwt>
</event>
<event>
 4    1  0.4102458E+000  0.2043487E+03  0.7546771E-02  0.1146121E+00
         21   -1    0    0  503  502  0.00000000000E+00  0.00000000000E+00  0.27685071619E+03  0.27685071619E+03  0.00000000000E+00 0. -1.
         21   -1    0    0  501  503 -0.00000000000E+00 -0.00000000000E+00 -0.20336740177E+03  0.20336740177E+03  0.00000000000E+00 0. -1.
          6    1    1    2  501    0  0.15085841614E+02  0.10771173426E+03 -0.85294111154E+02  0.22143505981E+03  0.17300000000E+03 0. -1.
         -6    1    1    2    0  502 -0.15085841614E+02 -0.10771173426E+03  0.15877742558E+03  0.25878305815E+03  0.17300000000E+03 0. -1.
<mgrwt>
<rscale>  2 0.20434872E+03</rscale>
<asrwt>0</asrwt>
<pdfrwt beam="1">  1       21 0.42592418E-01 0.20434872E+03</pdfrwt>
<pdfrwt beam="2">  1       21 0.31287292E-01 0.20434872E+03</pdfrwt>
<totfact> 0.51761761E+04</totfact>
</mgrwt>
</event>
<event>
 4    1  0.4102458E+000  0.2222882E+03  0.7546771E-02  0.1132189E+00
         21   -1    0    0  503  502  0.00000000000E+00  0.00000000000E+00  0.39318346323E+03  0.39318346323E+03  0.00000000000E+00 0.  1.
         21   -1    0    0  501  503 -0.00000000000E+00 -0.00000000000E+00 -0.18688183018E+03  0.18688183018E+03  0.00000000000E+00 0.  1.
          6    1    1    2  501    0  0.13860421767E+03  0.16489510659E+02 -0.62836539862E+02  0.23099883952E+03  0.17300000000E+03 0.  1.
         -6    1    1    2    0  502 -0.13860421767E+03 -0.16489510659E+02  0.26913817291E+03  0.34906645389E+03  0.17300000000E+03 0.  1.
<mgrwt>
<rscale>  2 0.22228818E+03</rscale>
<asrwt>0</asrwt>
<pdfrwt beam="1">  1       21 0.60489763E-01 0.22228818E+03</pdfrwt>
<pdfrwt beam="2">  1       21 0.28751051E-01 0.22228818E+03</pdfrwt>
<totfact> 0.29007042E+04</totfact>
</mgrwt>
</event>
<event>
 4    1  0.4102458E+000  0.2019214E+03  0.7546771E-02  0.1148128E+00
         21   -1    0    0  503  502  0.00000000000E+00  0.00000000000E+00  0.14135538469E+04  0.14135538469E+04  0.00000000000E+00 0. -1.
         21   -1    0    0  501  503 -0.00000000000E+00 -0.00000000000E+00 -0.40487917006E+02  0.40487917006E+02  0.00000000000E+00 0.  1.
          6    1    1    2  501    0 -0.10297896845E+03 -0.15446364912E+02  0.29664706282E+03  0.35884779227E+03  0.17300000000E+03 0.  1.
         -6    1    1    2    0  502  0.10297896845E+03  0.15446364912E+02  0.10764188671E+04  0.10951939717E+04  0.17300000000E+03 0. -1.
<mgrwt>
<rscale>  2 0.20192142E+03</rscale>
<asrwt>0</asrwt>
<pdfrwt beam="1">  1       21 0.21746978E+00 0.20192142E+03</pdfrwt>
<pdfrwt beam="2">  1       21 0.62289114E-02 0.20192142E+03</pdfrwt>
<totfact> 0.19139849E+04</totfact>
</mgrwt>
</event>
<event>
 4    1  0.4102458E+000  0.1826528E+03  0.7546771E-02  0.1165260E+00
         21   -1    0    0  501  502  0.00000000000E+00  0.00000000000E+00  0.83233126156E+03  0.83233126156E+03  0.00000000000E+00 0. -1.
         21   -1    0    0  502  503 -0.00000000000E+00 -0.00000000000E+00 -0.43732268600E+02  0.43732268600E+02  0.00000000000E+00 0. -1.
          6    1    1    2  501    0  0.88570374656E+01  0.57918747412E+02  0.52083994222E+03  0.55193865042E+03  0.17300000000E+03 0. -1.
         -6    1    1    2    0  503 -0.88570374656E+01 -0.57918747412E+02  0.26775905074E+03  0.32412487974E+03  0.17300000000E+03 0. -1.
<mgrwt>
<rscale>  2 0.18265275E+03</rscale>
<asrwt>0</asrwt>
<pdfrwt beam="1">  1       21 0.12805095E+00 0.18265275E+03</pdfrwt>
<pdfrwt beam="2">  1       21 0.67280419E-02 0.18265275E+03</pdfrwt>
<totfact> 0.73077349E+04</totfact>
</mgrwt>
</event>
<event>
 4    1  0.4102458E+000  0.1821629E+03  0.7546771E-02  0.1165726E+00
         21   -1    0    0  501  502  0.00000000000E+00  0.00000000000E+00  0.62787972526E+02  0.62787972526E+02  0.00000000000E+00 0.  1.
         21   -1    0    0  502  503 -0.00000000000E+00 -0.00000000000E+00 -0.78396902370E+03  0.78396902370E+03  0.00000000000E+00 0.  1.
          6    1    1    2  501    0  0.16163127530E+02 -0.54708894302E+02 -0.11890520111E+03  0.21753564457E+03  0.17300000000E+03 0.  1.
         -6    1    1    2    0  503 -0.16163127530E+02  0.54708894302E+02 -0.60227585007E+03  0.62922135166E+03  0.17300000000E+03 0.  1.
<mgrwt>
<rscale>  2 0.18216287E+03</rscale>
<asrwt>0</asrwt>
<pdfrwt beam="1">  1       21 0.96596886E-02 0.18216287E+03</pdfrwt>
<pdfrwt beam="2">  1       21 0.12061061E+00 0.18216287E+03</pdfrwt>
<totfact> 0.45233643E+04</totfact>
</mgrwt>
</event>
<event>
 4    1  0.4102458E+000  0.2114316E+03  0.7546771E-02  0.1140437E+00
         21   -1    0    0  501  502  0.00000000000E+00  0.00000000000E+00  0.43617976732E+03  0.43617976732E+03  0.00000000000E+00 0. -1.
         21   -1    0    0  502  503 -0.00000000000E+00 -0.00000000000E+00 -0.10250062630E+03  0.10250062630E+03  0.00000000000E+00 0. -1.
          6    1    1    2  501    0 -0.46977718120E+02  0.11210444272E+03  0.16979614434E+03  0.27117161118E+03  0.17300000000E+03 0. -1.
         -6    1    1    2    0  503  0.46977718120E+02 -0.11210444272E+03  0.16388299668E+03  0.26750878244E+03  0.17300000000E+03 0. -1.
<mgrwt>
<rscale>  2 0.21143158E+03</rscale>
<asrwt>0</asrwt>
<pdfrwt beam="1">  1       21 0.67104578E-01 0.21143158E+03</pdfrwt>
<pdfrwt beam="2">  1       21 0.15769327E-01 0.21143158E+03</pdfrwt>
<totfact> 0.72192335E+04</totfact>
</mgrwt>
</event>
<event>
 4    1  0.4102458E+000  0.2210952E+03  0.7546771E-02  0.1133069E+00
         21   -1    0    0  503  502  0.00000000000E+00  0.00000000000E+00  0.22517026768E+03  0.22517026768E+03  0.00000000000E+00 0. -1.
         21   -1    0    0  501  503 -0.00000000000E+00 -0.00000000000E+00 -0.39576766559E+03  0.39576766559E+03  0.00000000000E+00 0. -1.
          6    1    1    2  501    0 -0.10683516037E+02 -0.13725868653E+03 -0.29390550548E+03  0.36778190642E+03  0.17300000000E+03 0. -1.
         -6    1    1    2    0  502  0.10683516037E+02  0.13725868653E+03  0.12330810757E+03  0.25315602686E+03  0.17300000000E+03 0. -1.
<mgrwt>
<rscale>  2 0.22109519E+03</rscale>
<asrwt>0</asrwt>
<pdfrwt beam="1">  1       21 0.34641580E-01 0.22109519E+03</pdfrwt>
<pdfrwt beam="2">  1       21 0.60887333E-01 0.22109519E+03</pdfrwt>
<totfact> 0.19833246E+04</totfact>
</mgrwt>
</event>
<event>
 4    1  0.4102458E+000  0.2805804E+03  0.7546771E-02  0.1095372E+00
         21   -1    0    0  501  502  0.00000000000E+00  0.00000000000E+00  0.81174031044E+03  0.81174031044E+03  0.00000000000E+00 0. -1.
         21   -1    0    0  502  503 -0.00000000000E+00 -0.00000000000E+00 -0.10100464890E+03  0.10100464890E+03  0.00000000000E+00 0.  1.
          6    1    1    2  501    0 -0.10674693436E+03 -0.19339451004E+03  0.26430762537E+03  0.38546577713E+03  0.17300000000E+03 0. -1.
         -6    1    1    2    0  503  0.10674693436E+03  0.19339451004E+03  0.44642803617E+03  0.52727918221E+03  0.17300000000E+03 0.  1.
<mgrwt>
<rscale>  2 0.28058037E+03</rscale>
<asrwt>0</asrwt>
<pdfrwt beam="1">  1       21 0.12488312E+00 0.28058037E+03</pdfrwt>
<pdfrwt beam="2">  1       21 0.15539177E-01 0.28058037E+03</pdfrwt>
<totfact> 0.16732816E+04</totfact>
</mgrwt>
</event>
<event>
 4    1  0.4102458E+000  0.1789966E+03  0.7546771E-02  0.1168778E+00
         21   -1    0    0  501  502  0.00000000000E+00  0.00000000000E+00  0.29786216413E+03  0.29786216413E+03  0.00000000000E+00 0.  1.
         21   -1    0    0  502  503 -0.00000000000E+00 -0.00000000000E+00 -0.15175831438E+03  0.15175831438E+03  0.00000000000E+00 0.  1.
          6    1    1    2  501    0  0.45782471703E+02 -0.38385250664E+01  0.19436689928E+03  0.26423145257E+03  0.17300000000E+03 0.  1.
         -6    1    1    2    0  503 -0.45782471703E+02  0.38385250664E+01 -0.48263049532E+02  0.18538902594E+03  0.17300000000E+03 0.  1.
<mgrwt>
<rscale>  2 0.17899656E+03</rscale>
<asrwt>0</asrwt>
<pdfrwt beam="1">  1       21 0.45824948E-01 0.17899656E+03</pdfrwt>
<pdfrwt beam="2">  1       21 0.23347433E-01 0.17899656E+03</pdfrwt>
<totfact> 0.79192703E+04</totfact>
</mgrwt>
</event>
<event>
 4    1  0.4102458E+000  0.2235940E+03  0.7546771E-02  0.1131232E+00
         21   -1    0    0  503  502  0.00000000000E+00  0.00000000000E+00  0.24473953973E+03  0.24473953973E+03  0.00000000000E+00 0. -1.
         21   -1    0    0  501  503 -0.00000000000E+00 -0.00000000000E+00 -0.22920644481E+03  0.22920644481E+03  0.00000000000E+00 0.  1.
          6    1    1    2  501    0  0.10230807185E+03  0.97971159547E+02 -0.70388113991E+02  0.23441155317E+03  0.17300000000E+03 0.  1.
         -6    1    1    2    0  502 -0.10230807185E+03 -0.97971159547E+02  0.85921208913E+02  0.23953443136E+03  0.17300000000E+03 0. -1.
<mgrwt>
<rscale>  2 0.22359403E+03</rscale>
<asrwt>0</asrwt>
<pdfrwt beam="1">  1       21 0.37652237E-01 0.22359403E+03</pdfrwt>
<pdfrwt beam="2">  1       21 0.35262530E-01 0.22359403E+03</pdfrwt>
<totfact> 0.51992184E+04</totfact>
</mgrwt>
</event>
<event>
 4    1  0.4102458E+000  0.2747885E+03  0.7546771E-02  0.1098570E+00
         21   -1    0    0  501  502  0.00000000000E+00  0.00000000000E+00  0.12453825888E+04  0.12453825888E+04  0.00000000000E+00 0.  1.
         21   -1    0    0  502  503 -0.00000000000E+00 -0.00000000000E+00 -0.77148334554E+02  0.77148334554E+02  0.00000000000E+00 0. -1.
          6    1    1    2  501    0 -0.13758677568E+03 -0.16324700383E+03  0.89009037712E+03  0.93154150983E+03  0.17300000000E+03 0.  1.
         -6    1    1    2    0  503  0.13758677568E+03  0.16324700383E+03  0.27814387711E+03  0.39098941351E+03  0.17300000000E+03 0. -1.
<mgrwt>
<rscale>  2 0.27478847E+03</rscale>
<asrwt>0</asrwt>
<pdfrwt beam="1">  1       21 0.19159731E+00 0.27478847E+03</pdfrwt>
<pdfrwt beam="2">  1       21 0.11868975E-01 0.27478847E+03</pdfrwt>
<totfact> 0.85877871E+03</totfact>
</mgrwt>
</event>
<event>
 4    1  0.4102458E+000  0.1845382E+03  0.7546771E-02  0.1163482E+00
         21   -1    0    0  503  502  0.00000000000E+00  0.00000000000E+00  0.15997774358E+03  0.15997774358E+03  0.00000000000E+00 0.  1.
         21   -1    0    0  501  503 -0.00000000000E+00 -0.00000000000E+00 -0.42113596927E+03  0.42113596927E+03  0.00000000000E+00 0.  1.
          6    1    1    2  501    0  0.61475557554E+02 -0.18603834831E+02 -0.33490804641E+03  0.38238429152E+03  0.17300000000E+03 0.  1.
         -6    1    1    2    0  502 -0.61475557554E+02  0.18603834831E+02  0.73749820722E+02  0.19872942133E+03  0.17300000000E+03 0.  1.
<mgrwt>
<rscale>  2 0.18453820E+03</rscale>
<asrwt>0</asrwt>
<pdfrwt beam="1">  1       21 0.24611960E-01 0.18453820E+03</pdfrwt>
<pdfrwt beam="2">  1       21 0.64790149E-01 0.18453820E+03</pdfrwt>
<totfact> 0.34397923E+04</totfact>
</mgrwt>
</event>
<event>
 4    1  0.4102458E+000  0.3331471E+03  0.7546771E-02  0.1069753E+00
         21   -1    0    0  501  502  0.00000000000E+00  0.00000000000E+00  0.75971396655E+03  0.75971396655E+03  0.00000000000E+00 0. -1.
         21   -1    0    0  502  503 -0.00000000000E+00 -0.00000000000E+00 -0.17337776612E+03  0.17337776612E+03  0.00000000000E+00 0.  1.
          6    1    1    2  501    0 -0.28411853091E+03 -0.18294314201E+02  0.47825571599E+03  0.58285122580E+03  0.17300000000E+03 0.  1.
         -6    1    1    2    0  503  0.28411853091E+03  0.18294314201E+02  0.10808048444E+03  0.35024050688E+03  0.17300000000E+03 0. -1.
<mgrwt>
<rscale>  2 0.33314715E+03</rscale>
<asrwt>0</asrwt>
<pdfrwt beam="1">  1       21 0.11687907E+00 0.33314715E+03</pdfrwt>
<pdfrwt beam="2">  1       21 0.26673503E-01 0.33314715E+03</pdfrwt>
<totfact> 0.69438579E+03</totfact>
</mgrwt>
</event>
<event>
 4    1  0.4102458E+000  0.1857573E+03  0.7546771E-02  0.1162345E+00
         21   -1    0    0  503  502  0.00000000000E+00  0.00000000000E+00  0.55271606013E+02  0.55271606013E+02  0.00000000000E+00 0. -1.
         21   -1    0    0  501  503 -0.00000000000E+00 -0.00000000000E+00 -0.73828965476E+03  0.73828965476E+03  0.00000000000E+00 0. -1.
          6    1    1    2  501    0  0.44781245987E+02 -0.50709295579E+02 -0.49742087632E+03  0.53097393613E+03  0.17300000000E+03 0. -1.
         -6    1    1    2    0  502 -0.44781245987E+02  0.50709295579E+02 -0.18559717243E+03  0.26258732464E+03  0.17300000000E+03 0. -1.
<mgrwt>
<rscale>  2 0.18575735E+03</rscale>
<asrwt>0</asrwt>
<pdfrwt beam="1">  1       21 0.85033244E-02 0.18575735E+03</pdfrwt>
<pdfrwt beam="2">  1       21 0.11358302E+00 0.18575735E+03</pdfrwt>
<totfact> 0.65403963E+04</totfact>
</mgrwt>
</event>
<event>
 4    1  0.4102458E+000  0.1977210E+03  0.7546771E-02  0.1151676E+00
         21   -1    0    0  501  502  0.00000000000E+00  0.00000000000E+00  0.18254651949E+03  0.18254651949E+03  0.00000000000E+00 0. -1.
         21   -1    0    0  502  503 -0.00000000000E+00 -0.00000000000E+00 -0.21479495515E+03  0.21479495515E+03  0.00000000000E+00 0. -1.
          6    1    1    2  501    0 -0.43892217409E+02  0.85076910323E+02 -0.26951788453E+02  0.19954950844E+03  0.17300000000E+03 0. -1.
         -6    1    1    2    0  503  0.43892217409E+02 -0.85076910323E+02 -0.52966472026E+01  0.19779196619E+03  0.17300000000E+03 0. -1.
<mgrwt>
<rscale>  2 0.19772103E+03</rscale>
<asrwt>0</asrwt>
<pdfrwt beam="1">  1       21 0.28084080E-01 0.19772103E+03</pdfrwt>
<pdfrwt beam="2">  1       21 0.33045378E-01 0.19772103E+03</pdfrwt>
<totfact> 0.10658569E+05</totfact>
</mgrwt>
</event>
<event>
 4    1  0.4102458E+000  0.2293444E+03  0.7546771E-02  0.1127102E+00
         21   -1    0    0  503  502  0.00000000000E+00  0.00000000000E+00  0.57557327243E+03  0.57557327243E+03  0.00000000000E+00 0.  1.
         21   -1    0    0  501  503 -0.00000000000E+00 -0.00000000000E+00 -0.94192897158E+02  0.94192897158E+02  0.00000000000E+00 0. -1.
          6    1    1    2  501    0  0.14561445207E+03 -0.38291923868E+02  0.18287200420E+03  0.29332747912E+03  0.17300000000E+03 0. -1.
         -6    1    1    2    0  502 -0.14561445207E+03  0.38291923868E+02  0.29850837107E+03  0.37643869047E+03  0.17300000000E+03 0. -1.
<mgrwt>
<rscale>  2 0.22934437E+03</rscale>
<asrwt>0</asrwt>
<pdfrwt beam="1">  1       21 0.88549732E-01 0.22934437E+03</pdfrwt>
<pdfrwt beam="2">  1       21 0.14491215E-01 0.22934437E+03</pdfrwt>
<totfact> 0.44742418E+04</totfact>
</mgrwt>
</event>
<event>
 4    1  0.4102458E+000  0.1903757E+03  0.7546771E-02  0.1158123E+00
         21   -1    0    0  501  502  0.00000000000E+00  0.00000000000E+00  0.36305485655E+02  0.36305485655E+02  0.00000000000E+00 0. -1.
         21   -1    0    0  502  503 -0.00000000000E+00 -0.00000000000E+00 -0.11393197222E+04  0.11393197222E+04  0.00000000000E+00 0.  1.
          6    1    1    2  501    0  0.16127667395E+02 -0.77806139740E+02 -0.34468695330E+03  0.39376641911E+03  0.17300000000E+03 0. -1.
         -6    1    1    2    0  503 -0.16127667395E+02  0.77806139740E+02 -0.75832728320E+03  0.78185878871E+03  0.17300000000E+03 0.  1.
<mgrwt>
<rscale>  2 0.19037567E+03</rscale>
<asrwt>0</asrwt>
<pdfrwt beam="1">  1       21 0.55854598E-02 0.19037567E+03</pdfrwt>
<pdfrwt beam="2">  1       21 0.17527994E+00 0.19037567E+03</pdfrwt>
<totfact> 0.43747361E+04</totfact>
</mgrwt>
</event>
<event>
 4    1  0.4102458E+000  0.1898717E+03  0.7546771E-02  0.1158577E+00
         21   -1    0    0  501  502  0.00000000000E+00  0.00000000000E+00  0.90744156941E+02  0.90744156941E+02  0.00000000000E+00 0.  1.
         21   -1    0    0  502  503 -0.00000000000E+00 -0.00000000000E+00 -0.63441806087E+03  0.63441806087E+03  0.00000000000E+00 0.  1.
          6    1    1    2  501    0 -0.63958440943E+02 -0.45073141908E+02 -0.50163501997E+02  0.19638647413E+03  0.17300000000E+03 0.  1.
         -6    1    1    2    0  503  0.63958440943E+02  0.45073141908E+02 -0.49351040193E+03  0.52877574368E+03  0.17300000000E+03 0.  1.
<mgrwt>
<rscale>  2 0.18987172E+03</rscale>
<asrwt>0</asrwt>
<pdfrwt beam="1">  1       21 0.13960640E-01 0.18987172E+03</pdfrwt>
<pdfrwt beam="2">  1       21 0.97602776E-01 0.18987172E+03</pdfrwt>
<totfact> 0.38911617E+04</totfact>
</mgrwt>
</event>
<event>
 4    1  0.4102458E+000  0.1963487E+03  0.7546771E-02  0.1152857E+00
         21   -1    0    0  501  502  0.00000000000E+00  0.00000000000E+00  0.19949826296E+04  0.19949826296E+04  0.00000000000E+00 0.  1.
         21   -1    0    0  502  503 -0.00000000000E+00 -0.00000000000E+00 -0.24242369651E+02  0.24242369651E+02  0.00000000000E+00 0.  1.
          6    1    1    2  501    0 -0.41605420332E+02  0.83023004467E+02  0.14400840399E+04  0.14534080199E+04  0.17300000000E+03 0.  1.
         -6    1    1    2    0  503  0.41605420332E+02 -0.83023004467E+02  0.53065622008E+03  0.56581697940E+03  0.17300000000E+03 0.  1.
<mgrwt>
<rscale>  2 0.19634875E+03</rscale>
<asrwt>0</asrwt>
<pdfrwt beam="1">  1       21 0.30692028E+00 0.19634875E+03</pdfrwt>
<pdfrwt beam="2">  1       21 0.37295969E-02 0.19634875E+03</pdfrwt>
<totfact> 0.13666610E+04</totfact>
</mgrwt>
</event>
<event>
 4    1  0.4102458E+000  0.2024748E+03  0.7546771E-02  0.1147668E+00
         21   -1    0    0  503  502  0.00000000000E+00  0.00000000000E+00  0.17388048974E+03  0.17388048974E+03  0.00000000000E+00 0.  1.
         21   -1    0    0  501  503 -0.00000000000E+00 -0.00000000000E+00 -0.23704310111E+03  0.23704310111E+03  0.00000000000E+00 0.  1.
          6    1    1    2  501    0 -0.91267443957E+02  0.52319212201E+02 -0.16532218857E+02  0.20314861691E+03  0.17300000000E+03 0.  1.
         -6    1    1    2    0  502  0.91267443957E+02 -0.52319212201E+02 -0.46630392509E+02  0.20777497394E+03  0.17300000000E+03 0.  1.
<mgrwt>
<rscale>  2 0.20247480E+03</rscale>
<asrwt>0</asrwt>
<pdfrwt beam="1">  1       21 0.26750845E-01 0.20247480E+03</pdfrwt>
<pdfrwt beam="2">  1       21 0.36468169E-01 0.20247480E+03</pdfrwt>
<totfact> 0.96091944E+04</totfact>
</mgrwt>
</event>
<event>
 4    1  0.4102458E+000  0.2181640E+03  0.7546771E-02  0.1135259E+00
         21   -1    0    0  501  502  0.00000000000E+00  0.00000000000E+00  0.23222241041E+03  0.23222241041E+03  0.00000000000E+00 0. -1.
         21   -1    0    0  502  503 -0.00000000000E+00 -0.00000000000E+00 -0.33157186206E+03  0.33157186206E+03  0.00000000000E+00 0. -1.
          6    1    1    2  501    0 -0.12629933993E+03  0.41412704436E+02  0.12452389555E+03  0.25120058901E+03  0.17300000000E+03 0. -1.
         -6    1    1    2    0  503  0.12629933993E+03 -0.41412704436E+02 -0.22387334720E+03  0.31259368347E+03  0.17300000000E+03 0. -1.
<mgrwt>
<rscale>  2 0.21816401E+03</rscale>
<asrwt>0</asrwt>
<pdfrwt beam="1">  1       21 0.35726525E-01 0.21816401E+03</pdfrwt>
<pdfrwt beam="2">  1       21 0.51011055E-01 0.21816401E+03</pdfrwt>
<totfact> 0.27224158E+04</totfact>
</mgrwt>
</event>
<event>
 4    1  0.4102458E+000  0.1753326E+03  0.7546771E-02  0.1172398E+00
         21   -1    0    0  503  502  0.00000000000E+00  0.00000000000E+00  0.34897400183E+02  0.34897400183E+02  0.00000000000E+00 0. -1.
         21   -1    0    0  501  503 -0.00000000000E+00 -0.00000000000E+00 -0.11187035943E+04  0.11187035943E+04  0.00000000000E+00 0. -1.
          6    1    1    2  501    0 -0.19834411118E+02  0.20472517549E+02 -0.80783267238E+03  0.82664088600E+03  0.17300000000E+03 0. -1.
         -6    1    1    2    0  502  0.19834411118E+02 -0.20472517549E+02 -0.27597352172E+03  0.32696010847E+03  0.17300000000E+03 0. -1.
<mgrwt>
<rscale>  2 0.17533262E+03</rscale>
<asrwt>0</asrwt>
<pdfrwt beam="1">  1       21 0.53688307E-02 0.17533262E+03</pdfrwt>
<pdfrwt beam="2">  1       21 0.17210825E+00 0.17533262E+03</pdfrwt>
<totfact> 0.49682521E+04</totfact>
</mgrwt>
</event>
<event>
 4    1  0.4102458E+000  0.1835586E+03  0.7546771E-02  0.1164403E+00
         21   -1    0    0  503  502  0.00000000000E+00  0.00000000000E+00  0.36445560976E+03  0.36445560976E+03  0.00000000000E+00 0. -1.
         21   -1    0    0  501  503 -0.00000000000E+00 -0.00000000000E+00 -0.95769696429E+02  0.95769696429E+02  0.00000000000E+00 0. -1.
          6    1    1    2  501    0  0.24666272934E+02 -0.56181300441E+02  0.91497585376E+02  0.20509893142E+03  0.17300000000E+03 0.  1.
         -6    1    1    2    0  502 -0.24666272934E+02  0.56181300441E+02  0.17718832796E+03  0.25512637477E+03  0.17300000000E+03 0.  1.
<mgrwt>
<rscale>  2 0.18355861E+03</rscale>
<asrwt>0</asrwt>
<pdfrwt beam="1">  1       21 0.56070093E-01 0.18355861E+03</pdfrwt>
<pdfrwt beam="2">  1       21 0.14733800E-01 0.18355861E+03</pdfrwt>
<totfact> 0.12174644E+05</totfact>
</mgrwt>
</event>
<event>
 4    1  0.4102458E+000  0.2174095E+03  0.7546771E-02  0.1135829E+00
         21   -1    0    0  501  502  0.00000000000E+00  0.00000000000E+00  0.74485325687E+03  0.74485325687E+03  0.00000000000E+00 0. -1.
         21   -1    0    0  502  503 -0.00000000000E+00 -0.00000000000E+00 -0.19233444361E+03  0.19233444361E+03  0.00000000000E+00 0.  1.
          6    1    1    2  501    0 -0.54289632405E+01 -0.13156140085E+03  0.65983845164E+03  0.69473279619E+03  0.17300000000E+03 0. -1.
         -6    1    1    2    0  503  0.54289632405E+01  0.13156140085E+03 -0.10731963838E+03  0.24245490430E+03  0.17300000000E+03 0.  1.
<mgrwt>
<rscale>  2 0.21740947E+03</rscale>
<asrwt>0</asrwt>
<pdfrwt beam="1">  1       21 0.11459281E+00 0.21740947E+03</pdfrwt>
<pdfrwt beam="2">  1       21 0.29589915E-01 0.21740947E+03</pdfrwt>
<totfact> 0.63536595E+03</totfact>
</mgrwt>
</event>
<event>
 4    1  0.4102458E+000  0.2287199E+03  0.7546771E-02  0.1127544E+00
         21   -1    0    0  501  502  0.00000000000E+00  0.00000000000E+00  0.35858413248E+03  0.35858413248E+03  0.00000000000E+00 0. -1.
         21   -1    0    0  502  503 -0.00000000000E+00 -0.00000000000E+00 -0.15258078553E+03  0.15258078553E+03  0.00000000000E+00 0. -1.
          6    1    1    2  501    0 -0.12047018029E+03 -0.88717183863E+02  0.15653366798E+03  0.27715625965E+03  0.17300000000E+03 0. -1.
         -6    1    1    2    0  503  0.12047018029E+03  0.88717183863E+02  0.49469678967E+02  0.23400865836E+03  0.17300000000E+03 0. -1.
<mgrwt>
<rscale>  2 0.22871992E+03</rscale>
<asrwt>0</asrwt>
<pdfrwt beam="1">  1       21 0.55166790E-01 0.22871992E+03</pdfrwt>
<pdfrwt beam="2">  1       21 0.23473967E-01 0.22871992E+03</pdfrwt>
<totfact> 0.52045875E+04</totfact>
</mgrwt>
</event>
<event>
 4    1  0.4102458E+000  0.2707444E+03  0.7546771E-02  0.1100854E+00
         21   -1    0    0  503  502  0.00000000000E+00  0.00000000000E+00  0.23135264548E+03  0.23135264548E+03  0.00000000000E+00 0. -1.
         21   -1    0    0  501  503 -0.00000000000E+00 -0.00000000000E+00 -0.38496727462E+03  0.38496727462E+03  0.00000000000E+00 0. -1.
          6    1    1    2  501    0 -0.71122656308E+02 -0.19574236932E+03 -0.20644004891E+03  0.34047026475E+03  0.17300000000E+03 0. -1.
         -6    1    1    2    0  502  0.71122656308E+02  0.19574236932E+03  0.52825419768E+02  0.27584965535E+03  0.17300000000E+03 0. -1.
<mgrwt>
<rscale>  2 0.27074436E+03</rscale>
<asrwt>0</asrwt>
<pdfrwt beam="1">  1       21 0.35592715E-01 0.27074436E+03</pdfrwt>
<pdfrwt beam="2">  1       21 0.59225734E-01 0.27074436E+03</pdfrwt>
<totfact> 0.19463349E+04</totfact>
</mgrwt>
</event>
<event>
 4    1  0.4102458E+000  0.2119226E+03  0.7546771E-02  0.1140052E+00
         21   -1    0    0  501  502  0.00000000000E+00  0.00000000000E+00  0.69114320602E+03  0.69114320602E+03  0.00000000000E+00 0.  1.
         21   -1    0    0  502  503 -0.00000000000E+00 -0.00000000000E+00 -0.18605269075E+03  0.18605269075E+03  0.00000000000E+00 0.  1.
          6    1    1    2  501    0 -0.55709586602E+02 -0.10898914282E+03  0.60635507872E+03  0.64232209426E+03  0.17300000000E+03 0.  1.
         -6    1    1    2    0  503  0.55709586602E+02  0.10898914282E+03 -0.10126456345E+03  0.23487380250E+03  0.17300000000E+03 0.  1.
<mgrwt>
<rscale>  2 0.21192261E+03</rscale>
<asrwt>0</asrwt>
<pdfrwt beam="1">  1       21 0.10632972E+00 0.21192261E+03</pdfrwt>
<pdfrwt beam="2">  1       21 0.28623491E-01 0.21192261E+03</pdfrwt>
<totfact> 0.81612369E+03</totfact>
</mgrwt>
</event>
<event>
 4    1  0.4102458E+000  0.3016957E+03  0.7546771E-02  0.1084396E+00
         21   -1    0    0  503  502  0.00000000000E+00  0.00000000000E+00  0.22298585225E+03  0.22298585225E+03  0.00000000000E+00 0.  1.
         21   -1    0    0  501  503 -0.00000000000E+00 -0.00000000000E+00 -0.64038460439E+03  0.64038460439E+03  0.00000000000E+00 0. -1.
          6    1    1    2  501    0 -0.11112034683E+03  0.22077948218E+03 -0.46863990528E+03  0.55735417111E+03  0.17300000000E+03 0. -1.
         -6    1    1    2    0  502  0.11112034683E+03 -0.22077948218E+03  0.51241153140E+02  0.30601628553E+03  0.17300000000E+03 0.  1.
<mgrwt>
<rscale>  2 0.30169573E+03</rscale>
<asrwt>0</asrwt>
<pdfrwt beam="1">  1       21 0.34305516E-01 0.30169573E+03</pdfrwt>
<pdfrwt beam="2">  1       21 0.98520707E-01 0.30169573E+03</pdfrwt>
<totfact> 0.65120214E+03</totfact>
</mgrwt>
</event>
<event>
 4    1  0.4102458E+000  0.1862047E+03  0.7546771E-02  0.1161930E+00
         21   -1    0    0  503  502  0.00000000000E+00  0.00000000000E+00  0.64787311432E+02  0.64787311432E+02  0.00000000000E+00 0. -1.
         21   -1    0    0  501  503 -0.00000000000E+00 -0.00000000000E+00 -0.57585722460E+03  0.57585722460E+03  0.00000000000E+00 0. -1.
          6    1    1    2  501    0 -0.65951217588E+02 -0.19839584248E+02 -0.34068073907E+03  0.38824674909E+03  0.17300000000E+03 0. -1.
         -6    1    1    2    0  502  0.65951217588E+02  0.19839584248E+02 -0.17038917410E+03  0.25239778695E+03  0.17300000000E+03 0. -1.
<mgrwt>
<rscale>  2 0.18620465E+03</rscale>
<asrwt>0</asrwt>
<pdfrwt beam="1">  1       21 0.99672787E-02 0.18620465E+03</pdfrwt>
<pdfrwt beam="2">  1       21 0.88593419E-01 0.18620465E+03</pdfrwt>
<totfact> 0.89160504E+04</totfact>
</mgrwt>
</event>
<event>
 4    1  0.4102458E+000  0.1774219E+03  0.7546771E-02  0.1170322E+00
         21   -1    0    0  501  502  0.00000000000E+00  0.00000000000E+00  0.14635205533E+04  0.14635205533E+04  0.00000000000E+00 0. -1.
         21   -1    0    0  502  503 -0.00000000000E+00 -0.00000000000E+00 -0.42245878490E+02  0.42245878490E+02  0.00000000000E+00 0. -1.
          6    1    1    2  501    0 -0.37116518870E+02 -0.13110751771E+02  0.12381216360E+04  0.12507692487E+04  0.17300000000E+03 0. -1.
         -6    1    1    2    0  503  0.37116518870E+02  0.13110751771E+02  0.18315303874E+03  0.25499718309E+03  0.17300000000E+03 0. -1.
<mgrwt>
<rscale>  2 0.17742189E+03</rscale>
<asrwt>0</asrwt>
<pdfrwt beam="1">  1       21 0.22515697E+00 0.17742189E+03</pdfrwt>
<pdfrwt beam="2">  1       21 0.64993671E-02 0.17742189E+03</pdfrwt>
<totfact> 0.16295993E+04</totfact>
</mgrwt>
</event>
<event>
 4    1  0.4102458E+000  0.2130105E+03  0.7546771E-02  0.1139204E+00
         21   -1    0    0  503  502  0.00000000000E+00  0.00000000000E+00  0.29131813633E+03  0.29131813633E+03  0.00000000000E+00 0.  1.
         21   -1    0    0  501  503 -0.00000000000E+00 -0.00000000000E+00 -0.41111752486E+03  0.41111752486E+03  0.00000000000E+00 0. -1.
          6    1    1    2  501    0  0.53710255732E+02 -0.11206991405E+03 -0.33670504152E+03  0.39842658319E+03  0.17300000000E+03 0. -1.
         -6    1    1    2    0  502 -0.53710255732E+02  0.11206991405E+03  0.21690565299E+03  0.30400907800E+03  0.17300000000E+03 0.  1.
<mgrwt>
<rscale>  2 0.21301046E+03</rscale>
<asrwt>0</asrwt>
<pdfrwt beam="1">  1       21 0.44818175E-01 0.21301046E+03</pdfrwt>
<pdfrwt beam="2">  1       21 0.63248850E-01 0.21301046E+03</pdfrwt>
<totfact> 0.10901443E+04</totfact>
</mgrwt>
</event>
<event>
 4    1  0.4102458E+000  0.1829682E+03  0.7546771E-02  0.1164961E+00
         21   -1    0    0  503  502  0.00000000000E+00  0.00000000000E+00  0.34136466130E+03  0.34136466130E+03  0.00000000000E+00 0. -1.
         21   -1    0    0  501  503 -0.00000000000E+00 -0.00000000000E+00 -0.17353194621E+03  0.17353194621E+03  0.00000000000E+00 0. -1.
          6    1    1    2  501    0  0.55461009460E+02  0.21735713084E+02 -0.85855840730E+02  0.20211034160E+03  0.17300000000E+03 0. -1.
         -6    1    1    2    0  502 -0.55461009460E+02 -0.21735713084E+02  0.25368855582E+03  0.31278626592E+03  0.17300000000E+03 0. -1.
<mgrwt>
<rscale>  2 0.18296821E+03</rscale>
<asrwt>0</asrwt>
<pdfrwt beam="1">  1       21 0.52517640E-01 0.18296821E+03</pdfrwt>
<pdfrwt beam="2">  1       21 0.26697223E-01 0.18296821E+03</pdfrwt>
<totfact> 0.46133423E+04</totfact>
</mgrwt>
</event>
<event>
 4    1  0.4102458E+000  0.2037487E+03  0.7546771E-02  0.1146614E+00
         21   -1    0    0  503  502  0.00000000000E+00  0.00000000000E+00  0.10991947443E+04  0.10991947443E+04  0.00000000000E+00 0.  1.
         21   -1    0    0  501  503 -0.00000000000E+00 -0.00000000000E+00 -0.46382375384E+02  0.46382375384E+02  0.00000000000E+00 0. -1.
          6    1    1    2  501    0 -0.99904647661E+02  0.40044877165E+02  0.27954695175E+03  0.34591910766E+03  0.17300000000E+03 0. -1.
         -6    1    1    2    0  502  0.99904647661E+02 -0.40044877165E+02  0.77326541719E+03  0.79965801205E+03  0.17300000000E+03 0.  1.
<mgrwt>
<rscale>  2 0.20374870E+03</rscale>
<asrwt>0</asrwt>
<pdfrwt beam="1">  1       21 0.16910686E+00 0.20374870E+03</pdfrwt>
<pdfrwt beam="2">  1       21 0.71357509E-02 0.20374870E+03</pdfrwt>
<totfact> 0.31451286E+04</totfact>
</mgrwt>
</event>
<event>
 4    1  0.4102458E+000  0.1735069E+03  0.7546771E-02  0.1174239E+00
         21   -1    0    0  503  502  0.00000000000E+00  0.00000000000E+00  0.52812589540E+02  0.52812589540E+02  0.00000000000E+00 0. -1.
         21   -1    0    0  501  503 -0.00000000000E+00 -0.00000000000E+00 -0.64660784781E+03  0.64660784781E+03  0.00000000000E+00 0. -1.
          6    1    1    2  501    0 -0.13222369783E+02 -0.89410930629E+00 -0.41724771129E+03  0.45188525432E+03  0.17300000000E+03 0. -1.
         -6    1    1    2    0  502  0.13222369783E+02  0.89410930629E+00 -0.17654754699E+03  0.24753518304E+03  0.17300000000E+03 0. -1.
<mgrwt>
<rscale>  2 0.17350686E+03</rscale>
<asrwt>0</asrwt>
<pdfrwt beam="1">  1       21 0.81250140E-02 0.17350686E+03</pdfrwt>
<pdfrwt beam="2">  1       21 0.99478127E-01 0.17350686E+03</pdfrwt>
<totfact> 0.97869738E+04</totfact>
</mgrwt>
</event>
<event>
 4    1  0.4102458E+000  0.2058982E+03  0.7546771E-02  0.1144856E+00
         21   -1    0    0  503  502  0.00000000000E+00  0.00000000000E+00  0.17260427608E+03  0.17260427608E+03  0.00000000000E+00 0. -1.
         21   -1    0    0  501  503 -0.00000000000E+00 -0.00000000000E+00 -0.25517429130E+03  0.25517429130E+03  0.00000000000E+00 0.  1.
          6    1    1    2  501    0 -0.65489659307E+02 -0.90422151344E+02 -0.82685129632E+02  0.22188035423E+03  0.17300000000E+03 0. -1.
         -6    1    1    2    0  502  0.65489659307E+02  0.90422151344E+02  0.11511441001E+00  0.20589821316E+03  0.17300000000E+03 0.  1.
<mgrwt>
<rscale>  2 0.20589818E+03</rscale>
<asrwt>0</asrwt>
<pdfrwt beam="1">  1       21 0.26554504E-01 0.20589818E+03</pdfrwt>
<pdfrwt beam="2">  1       21 0.39257583E-01 0.20589818E+03</pdfrwt>
<totfact> 0.83942217E+04</totfact>
</mgrwt>
</event>
<event>
 4    1  0.4102458E+000  0.2334793E+03  0.7546771E-02  0.1124215E+00
         21   -1    0    0  503  502  0.00000000000E+00  0.00000000000E+00  0.66217305399E+03  0.66217305399E+03  0.00000000000E+00 0.  1.
         21   -1    0    0  501  503 -0.00000000000E+00 -0.00000000000E+00 -0.87262118551E+02  0.87262118551E+02  0.00000000000E+00 0. -1.
          6    1    1    2  501    0  0.84438415999E+02  0.13211258578E+03  0.19831351958E+03  0.30633451236E+03  0.17300000000E+03 0. -1.
         -6    1    1    2    0  502 -0.84438415999E+02 -0.13211258578E+03  0.37659741586E+03  0.44310066018E+03  0.17300000000E+03 0.  1.
<mgrwt>
<rscale>  2 0.23347930E+03</rscale>
<asrwt>0</asrwt>
<pdfrwt beam="1">  1       21 0.10187277E+00 0.23347930E+03</pdfrwt>
<pdfrwt beam="2">  1       21 0.13424942E-01 0.23347930E+03</pdfrwt>
<totfact> 0.36885427E+04</totfact>
</mgrwt>
</event>
<event>
 4    1  0.4102458E+000  0.1991140E+03  0.7546771E-02  0.1150489E+00
         21   -1    0    0  503  502  0.00000000000E+00  0.00000000000E+00  0.44731030021E+03  0.44731030021E+03  0.00000000000E+00 0. -1.
         21   -1    0    0  501  503 -0.00000000000E+00 -0.00000000000E+00 -0.12163840274E+03  0.12163840274E+03  0.00000000000E+00 0.  1.
          6    1    1    2  501    0  0.65289102435E+02 -0.73856075151E+02  0.14651964696E+02  0.19965236488E+03  0.17300000000E+03 0.  1.
         -6    1    1    2    0  502 -0.65289102435E+02  0.73856075151E+02  0.31101993277E+03  0.36929633807E+03  0.17300000000E+03 0. -1.
<mgrwt>
<rscale>  2 0.19911400E+03</rscale>
<asrwt>0</asrwt>
<pdfrwt beam="1">  1       21 0.68816968E-01 0.19911400E+03</pdfrwt>
<pdfrwt beam="2">  1       21 0.18713601E-01 0.19911400E+03</pdfrwt>
<totfact> 0.50098342E+04</totfact>
</mgrwt>
</event>
<event>
 4    1  0.4102458E+000  0.1820794E+03  0.7546771E-02  0.1165806E+00
         21   -1    0    0  501  502  0.00000000000E+00  0.00000000000E+00  0.10897658004E+03  0.10897658004E+03  0.00000000000E+00 0.  1.
         21   -1    0    0  502  503 -0.00000000000E+00 -0.00000000000E+00 -0.34432722080E+03  0.34432722080E+03  0.00000000000E+00 0.  1.
          6    1    1    2  501    0  0.38534710953E+02  0.41701094729E+02 -0.40321372587E+02  0.18649053149E+03  0.17300000000E+03 0.  1.
         -6    1    1    2    0  503 -0.38534710953E+02 -0.41701094729E+02 -0.19502926817E+03  0.26681326934E+03  0.17300000000E+03 0.  1.
<mgrwt>
<rscale>  2 0.18207939E+03</rscale>
<asrwt>0</asrwt>
<pdfrwt beam="1">  1       21 0.16765628E-01 0.18207939E+03</pdfrwt>
<pdfrwt beam="2">  1       21 0.52973418E-01 0.18207939E+03</pdfrwt>
<totfact> 0.10847348E+05</totfact>
</mgrwt>
</event>
<event>
 4    1  0.4102458E+000  0.2604117E+03  0.7546771E-02  0.1106896E+00
         21   -1    0    0  501  502  0.00000000000E+00  0.00000000000E+00  0.56665006298E+03  0.56665006298E+03  0.00000000000E+00 0.  1.
         21   -1    0    0  502  503 -0.00000000000E+00 -0.00000000000E+00 -0.12797017481E+03  0.12797017481E+03  0.00000000000E+00 0.  1.
          6    1    1    2  501    0 -0.31163788059E+02 -0.19213035738E+03  0.30776124534E+03  0.40315163406E+03  0.17300000000E+03 0.  1.
         -6    1    1    2    0  503  0.31163788059E+02  0.19213035738E+03  0.13091864283E+03  0.29146860372E+03  0.17300000000E+03 0.  1.
<mgrwt>
<rscale>  2 0.26041170E+03</rscale>
<asrwt>0</asrwt>
<pdfrwt beam="1">  1       21 0.87176932E-01 0.26041170E+03</pdfrwt>
<pdfrwt beam="2">  1       21 0.19687719E-01 0.26041170E+03</pdfrwt>
<totfact> 0.25953904E+04</totfact>
</mgrwt>
</event>
<event>
 4    1  0.4102458E+000  0.2046516E+03  0.7546771E-02  0.1145873E+00
         21   -1    0    0  503  502  0.00000000000E+00  0.00000000000E+00  0.11779130303E+04  0.11779130303E+04  0.00000000000E+00 0. -1.
         21   -1    0    0  501  503 -0.00000000000E+00 -0.00000000000E+00 -0.46571808396E+02  0.46571808396E+02  0.00000000000E+00 0.  1.
          6    1    1    2  501    0  0.84437884439E+02 -0.69451700970E+02  0.26791288872E+03  0.33713441094E+03  0.17300000000E+03 0.  1.
         -6    1    1    2    0  502 -0.84437884439E+02  0.69451700970E+02  0.86342833319E+03  0.88735042776E+03  0.17300000000E+03 0. -1.
<mgrwt>
<rscale>  2 0.20465164E+03</rscale>
<asrwt>0</asrwt>
<pdfrwt beam="1">  1       21 0.18121737E+00 0.20465164E+03</pdfrwt>
<pdfrwt beam="2">  1       21 0.71648945E-02 0.20465164E+03</pdfrwt>
<totfact> 0.25725797E+04</totfact>
</mgrwt>
</event>
<event>
 4    1  0.4102458E+000  0.2875146E+03  0.7546771E-02  0.1091654E+00
         21   -1    0    0  503  502  0.00000000000E+00  0.00000000000E+00  0.12507540084E+03  0.12507540084E+03  0.00000000000E+00 0. -1.
         21   -1    0    0  501  503 -0.00000000000E+00 -0.00000000000E+00 -0.88868045346E+03  0.88868045346E+03  0.00000000000E+00 0. -1.
          6    1    1    2  501    0  0.51463681784E+02  0.22380155922E+03 -0.63841108582E+03  0.70016666798E+03  0.17300000000E+03 0. -1.
         -6    1    1    2    0  502 -0.51463681784E+02 -0.22380155922E+03 -0.12519396680E+03  0.31358918632E+03  0.17300000000E+03 0. -1.
<mgrwt>
<rscale>  2 0.28751461E+03</rscale>
<asrwt>0</asrwt>
<pdfrwt beam="1">  1       21 0.19242370E-01 0.28751461E+03</pdfrwt>
<pdfrwt beam="2">  1       21 0.13672006E+00 0.28751461E+03</pdfrwt>
<totfact> 0.88880086E+03</totfact>
</mgrwt>
</event>
<event>
 4    1  0.4102458E+000  0.2233239E+03  0.7546771E-02  0.1131429E+00
         21   -1    0    0  503  502  0.00000000000E+00  0.00000000000E+00  0.10128712734E+03  0.10128712734E+03  0.00000000000E+00 0.  1.
         21   -1    0    0  501  503 -0.00000000000E+00 -0.00000000000E+00 -0.62510819452E+03  0.62510819452E+03  0.00000000000E+00 0.  1.
          6    1    1    2  501    0  0.39712684929E+02 -0.13552656153E+03 -0.42925760557E+03  0.48387564328E+03  0.17300000000E+03 0.  1.
         -6    1    1    2    0  502 -0.39712684929E+02  0.13552656153E+03 -0.94563461614E+02  0.24251967858E+03  0.17300000000E+03 0.  1.
<mgrwt>
<rscale>  2 0.22332386E+03</rscale>
<asrwt>0</asrwt>
<pdfrwt beam="1">  1       21 0.15582635E-01 0.22332386E+03</pdfrwt>
<pdfrwt beam="2">  1       21 0.96170494E-01 0.22332386E+03</pdfrwt>
<totfact> 0.32398049E+04</totfact>
</mgrwt>
</event>
<event>
 4    1  0.4102458E+000  0.2087918E+03  0.7546771E-02  0.1142526E+00
         21   -1    0    0  501  502  0.00000000000E+00  0.00000000000E+00  0.73749833773E+02  0.73749833773E+02  0.00000000000E+00 0. -1.
         21   -1    0    0  502  503 -0.00000000000E+00 -0.00000000000E+00 -0.61757797061E+03  0.61757797061E+03  0.00000000000E+00 0.  1.
          6    1    1    2  501    0  0.11642891363E+03  0.10456757254E+02 -0.20035018917E+03  0.28936868179E+03  0.17300000000E+03 0.  1.
         -6    1    1    2    0  503 -0.11642891363E+03 -0.10456757254E+02 -0.34347794766E+03  0.40195912259E+03  0.17300000000E+03 0. -1.
<mgrwt>
<rscale>  2 0.20879185E+03</rscale>
<asrwt>0</asrwt>
<pdfrwt beam="1">  1       21 0.11346128E-01 0.20879185E+03</pdfrwt>
<pdfrwt beam="2">  1       21 0.95011999E-01 0.20879185E+03</pdfrwt>
<totfact> 0.59593044E+04</totfact>
</mgrwt>
</event>
<event>
 4    1  0.4102458E+000  0.1757518E+03  0.7546771E-02  0.1171979E+00
         21   -1    0    0  501  502  0.00000000000E+00  0.00000000000E+00  0.13454989404E+04  0.13454989404E+04  0.00000000000E+00 0. -1.
         21   -1    0    0  502  503 -0.00000000000E+00 -0.00000000000E+00 -0.39103725041E+02  0.39103725041E+02  0.00000000000E+00 0. -1.
          6    1    1    2  501    0 -0.23513197282E+02  0.20169943380E+02  0.10980619010E+04  0.11120380549E+04  0.17300000000E+03 0. -1.
         -6    1    1    2    0  503  0.23513197282E+02 -0.20169943380E+02  0.20833331437E+03  0.27256461058E+03  0.17300000000E+03 0. -1.
<mgrwt>
<rscale>  2 0.17575181E+03</rscale>
<asrwt>0</asrwt>
<pdfrwt beam="1">  1       21 0.20699980E+00 0.17575181E+03</pdfrwt>
<pdfrwt beam="2">  1       21 0.60159588E-02 0.17575181E+03</pdfrwt>
<totfact> 0.24099320E+04</totfact>
</mgrwt>
</event>
<event>
 4    1  0.4102458E+000  0.2651005E+03  0.7546771E-02  0.1104117E+00
         21   -1    0    0  501  502  0.00000000000E+00  0.00000000000E+00  0.44444723995E+03  0.44444723995E+03  0.00000000000E+00 0. -1.
         21   -1    0    0  502  503 -0.00000000000E+00 -0.00000000000E+00 -0.27433424017E+03  0.27433424017E+03  0.00000000000E+00 0. -1.
          6    1    1    2  501    0  0.16850834098E+03 -0.10933525370E+03  0.31896555920E+03  0.41474966744E+03  0.17300000000E+03 0. -1.
         -6    1    1    2    0  503 -0.16850834098E+03  0.10933525370E+03 -0.14885255941E+03  0.30403181268E+03  0.17300000000E+03 0. -1.
<mgrwt>
<rscale>  2 0.26510047E+03</rscale>
<asrwt>0</asrwt>
<pdfrwt beam="1">  1       21 0.68376499E-01 0.26510047E+03</pdfrwt>
<pdfrwt beam="2">  1       21 0.42205268E-01 0.26510047E+03</pdfrwt>
<totfact> 0.10089683E+04</totfact>
</mgrwt>
</event>
<event>
 4    1  0.4102458E+000  0.1776595E+03  0.7546771E-02  0.1170088E+00
         21   -1    0    0  501  502  0.00000000000E+00  0.00000000000E+00  0.44917828408E+03  0.44917828408E+03  0.00000000000E+00 0. -1.
         21   -1    0    0  502  503 -0.00000000000E+00 -0.00000000000E+00 -0.91057069971E+02  0.91057069971E+02  0.00000000000E+00 0. -1.
          6    1    1    2  501    0  0.13123091842E+02  0.38231845114E+02  0.30812695061E+03  0.35567556454E+03  0.17300000000E+03 0. -1.
         -6    1    1    2    0  503 -0.13123091842E+02 -0.38231845114E+02  0.49994263498E+02  0.18455978951E+03  0.17300000000E+03 0. -1.
<mgrwt>
<rscale>  2 0.17765948E+03</rscale>
<asrwt>0</asrwt>
<pdfrwt beam="1">  1       21 0.69104350E-01 0.17765948E+03</pdfrwt>
<pdfrwt beam="2">  1       21 0.14008780E-01 0.17765948E+03</pdfrwt>
<totfact> 0.85183977E+04</totfact>
</mgrwt>
</event>
<event>
 4    1  0.4102458E+000  0.1823358E+03  0.7546771E-02  0.1165561E+00
         21   -1    0    0  503  502  0.00000000000E+00  0.00000000000E+00  0.73647859223E+02  0.73647859223E+02  0.00000000000E+00 0.  1.
         21   -1    0    0  501  503 -0.00000000000E+00 -0.00000000000E+00 -0.45179113016E+03  0.45179113016E+03  0.00000000000E+00 0.  1.
          6    1    1    2  501    0  0.17467438619E+02 -0.54883683345E+02 -0.19657202411E+03  0.26811730785E+03  0.17300000000E+03 0.  1.
         -6    1    1    2    0  502 -0.17467438619E+02  0.54883683345E+02 -0.18157124683E+03  0.25732168153E+03  0.17300000000E+03 0.  1.
<mgrwt>
<rscale>  2 0.18233576E+03</rscale>
<asrwt>0</asrwt>
<pdfrwt beam="1">  1       21 0.11330440E-01 0.18233576E+03</pdfrwt>
<pdfrwt beam="2">  1       21 0.69506327E-01 0.18233576E+03</pdfrwt>
<totfact> 0.12281823E+05</totfact>
</mgrwt>
</event>
<event>
 4    1  0.4102458E+000  0.2231635E+03  0.7546771E-02  0.1131546E+00
         21   -1    0    0  501  502  0.00000000000E+00  0.00000000000E+00  0.24795653929E+03  0.24795653929E+03  0.00000000000E+00 0.  1.
         21   -1    0    0  502  503 -0.00000000000E+00 -0.00000000000E+00 -0.43670622874E+03  0.43670622874E+03  0.00000000000E+00 0.  1.
          6    1    1    2  501    0 -0.12618138534E+03  0.62858444787E+02  0.15720522638E+03  0.27297510745E+03  0.17300000000E+03 0.  1.
         -6    1    1    2    0  503  0.12618138534E+03 -0.62858444787E+02 -0.34595491583E+03  0.41168766058E+03  0.17300000000E+03 0.  1.
<mgrwt>
<rscale>  2 0.22316345E+03</rscale>
<asrwt>0</asrwt>
<pdfrwt beam="1">  1       21 0.38147160E-01 0.22316345E+03</pdfrwt>
<pdfrwt beam="2">  1       21 0.67185573E-01 0.22316345E+03</pdfrwt>
<totfact> 0.13181674E+04</totfact>
</mgrwt>
</event>
<event>
 4    1  0.4102458E+000  0.2108637E+03  0.7546771E-02  0.1140884E+00
         21   -1    0    0  501  502  0.00000000000E+00  0.00000000000E+00  0.10838412265E+04  0.10838412265E+04  0.00000000000E+00 0.  1.
         21   -1    0    0  502  503 -0.00000000000E+00 -0.00000000000E+00 -0.98118254253E+02  0.98118254253E+02  0.00000000000E+00 0.  1.
          6    1    1    2  501    0 -0.10059362247E+02  0.12013876691E+03  0.94367180492E+03  0.96694363305E+03  0.17300000000E+03 0.  1.
         -6    1    1    2    0  503  0.10059362247E+02 -0.12013876691E+03  0.42051167304E+02  0.21501584768E+03  0.17300000000E+03 0.  1.
<mgrwt>
<rscale>  2 0.21086373E+03</rscale>
<asrwt>0</asrwt>
<pdfrwt beam="1">  1       21 0.16674480E+00 0.21086373E+03</pdfrwt>
<pdfrwt beam="2">  1       21 0.15095117E-01 0.21086373E+03</pdfrwt>
<totfact> 0.86013773E+03</totfact>
</mgrwt>
</event>
<event>
 4    1  0.4102458E+000  0.2604009E+03  0.7546771E-02  0.1106903E+00
         21   -1    0    0  503  502  0.00000000000E+00  0.00000000000E+00  0.59679258517E+03  0.59679258517E+03  0.00000000000E+00 0. -1.
         21   -1    0    0  501  503 -0.00000000000E+00 -0.00000000000E+00 -0.13627334919E+03  0.13627334919E+03  0.00000000000E+00 0. -1.
          6    1    1    2  501    0  0.18633627276E+03  0.56199771322E+02  0.80823022453E+02  0.27265542687E+03  0.17300000000E+03 0. -1.
         -6    1    1    2    0  502 -0.18633627276E+03 -0.56199771322E+02  0.37969621352E+03  0.46041050749E+03  0.17300000000E+03 0. -1.
<mgrwt>
<rscale>  2 0.26040088E+03</rscale>
<asrwt>0</asrwt>
<pdfrwt beam="1">  1       21 0.91814242E-01 0.26040088E+03</pdfrwt>
<pdfrwt beam="2">  1       21 0.20965131E-01 0.26040088E+03</pdfrwt>
<totfact> 0.20431127E+04</totfact>
</mgrwt>
</event>
<event>
 4    1  0.4102458E+000  0.1813207E+03  0.7546771E-02  0.1166531E+00
         21   -1    0    0  503  502  0.00000000000E+00  0.00000000000E+00  0.53458027887E+03  0.53458027887E+03  0.00000000000E+00 0. -1.
         21   -1    0    0  501  503 -0.00000000000E+00 -0.00000000000E+00 -0.64320436131E+02  0.64320436131E+02  0.00000000000E+00 0. -1.
          6    1    1    2  501    0 -0.38045334426E+02  0.38739544415E+02  0.17243467121E+03  0.25022173289E+03  0.17300000000E+03 0.  1.
         -6    1    1    2    0  502  0.38045334426E+02 -0.38739544415E+02  0.29782517152E+03  0.34867898211E+03  0.17300000000E+03 0.  1.
<mgrwt>
<rscale>  2 0.18132071E+03</rscale>
<asrwt>0</asrwt>
<pdfrwt beam="1">  1       21 0.82243117E-01 0.18132071E+03</pdfrwt>
<pdfrwt beam="2">  1       21 0.98954521E-02 0.18132071E+03</pdfrwt>
<totfact> 0.10725582E+05</totfact>
</mgrwt>
</event>
<event>
 4    1  0.4102458E+000  0.1733056E+03  0.7546771E-02  0.1174444E+00
         21   -1    0    0  503  502  0.00000000000E+00  0.00000000000E+00  0.24123427070E+02  0.24123427070E+02  0.00000000000E+00 0.  1.
         21   -1    0    0  501  503 -0.00000000000E+00 -0.00000000000E+00 -0.16138637245E+04  0.16138637245E+04  0.00000000000E+00 0.  1.
          6    1    1    2  501    0 -0.73846185384E+01  0.71616490585E+01 -0.11863882523E+04  0.11989795274E+04  0.17300000000E+03 0.  1.
         -6    1    1    2    0  502  0.73846185384E+01 -0.71616490585E+01 -0.40335204506E+03  0.43900762415E+03  0.17300000000E+03 0.  1.
<mgrwt>
<rscale>  2 0.17330557E+03</rscale>
<asrwt>0</asrwt>
<pdfrwt beam="1">  1       21 0.37112956E-02 0.17330557E+03</pdfrwt>
<pdfrwt beam="2">  1       21 0.24828679E+00 0.17330557E+03</pdfrwt>
<totfact> 0.30731421E+04</totfact>
</mgrwt>
</event>
<event>
 4    1  0.4102458E+000  0.1991178E+03  0.7546771E-02  0.1150485E+00
         21   -1    0    0  503  502  0.00000000000E+00  0.00000000000E+00  0.20218034101E+03  0.20218034101E+03  0.00000000000E+00 0. -1.
         21   -1    0    0  501  503 -0.00000000000E+00 -0.00000000000E+00 -0.19649640237E+03  0.19649640237E+03  0.00000000000E+00 0.  1.
          6    1    1    2  501    0  0.10103108105E+02 -0.98065484251E+02 -0.60918913238E+01  0.19921100154E+03  0.17300000000E+03 0. -1.
         -6    1    1    2    0  502 -0.10103108105E+02  0.98065484251E+02  0.11775829963E+02  0.19946574184E+03  0.17300000000E+03 0.  1.
<mgrwt>
<rscale>  2 0.19911783E+03</rscale>
<asrwt>0</asrwt>
<pdfrwt beam="1">  1       21 0.31104668E-01 0.19911783E+03</pdfrwt>
<pdfrwt beam="2">  1       21 0.30230216E-01 0.19911783E+03</pdfrwt>
<totfact> 0.10397937E+05</totfact>
</mgrwt>
</event>
<event>
 4    1  0.4102458E+000  0.3022331E+03  0.7546771E-02  0.1084130E+00
         21   -1    0    0  503  502  0.00000000000E+00  0.00000000000E+00  0.16882943750E+03  0.16882943750E+03  0.00000000000E+00 0.  1.
         21   -1    0    0  501  503 -0.00000000000E+00 -0.00000000000E+00 -0.63616648268E+03  0.63616648268E+03  0.00000000000E+00 0. -1.
          6    1    1    2  501    0 -0.24782221244E+03  0.10677238925E+00 -0.38930461954E+03  0.49285185115E+03  0.17300000000E+03 0. -1.
         -6    1    1    2    0  502  0.24782221244E+03 -0.10677238925E+00 -0.78032425632E+02  0.31214406903E+03  0.17300000000E+03 0.  1.
<mgrwt>
<rscale>  2 0.30223312E+03</rscale>
<asrwt>0</asrwt>
<pdfrwt beam="1">  1       21 0.25973760E-01 0.30223312E+03</pdfrwt>
<pdfrwt beam="2">  1       21 0.97871766E-01 0.30223312E+03</pdfrwt>
<totfact> 0.11437855E+04</totfact>
</mgrwt>
</event>
<event>
 4    1  0.4102458E+000  0.2121648E+03  0.7546771E-02  0.1139863E+00
         21   -1    0    0  503  502  0.00000000000E+00  0.00000000000E+00  0.19537483113E+03  0.19537483113E+03  0.00000000000E+00 0. -1.
         21   -1    0    0  501  503 -0.00000000000E+00 -0.00000000000E+00 -0.34533139631E+03  0.34533139631E+03  0.00000000000E+00 0. -1.
          6    1    1    2  501    0  0.11774178664E+03  0.34953734515E+02 -0.23094690004E+03  0.31360861359E+03  0.17300000000E+03 0. -1.
         -6    1    1    2    0  502 -0.11774178664E+03 -0.34953734515E+02  0.80990334864E+02  0.22709761386E+03  0.17300000000E+03 0. -1.
<mgrwt>
<rscale>  2 0.21216478E+03</rscale>
<asrwt>0</asrwt>
<pdfrwt beam="1">  1       21 0.30057667E-01 0.21216478E+03</pdfrwt>
<pdfrwt beam="2">  1       21 0.53127906E-01 0.21216478E+03</pdfrwt>
<totfact> 0.35262195E+04</totfact>
</mgrwt>
</event>
<event>
 4    1  0.4102458E+000  0.1837697E+03  0.7546771E-02  0.1164204E+00
         21   -1    0    0  501  502  0.00000000000E+00  0.00000000000E+00  0.60814028735E+03  0.60814028735E+03  0.00000000000E+00 0. -1.
         21   -1    0    0  502  503 -0.00000000000E+00 -0.00000000000E+00 -0.64437539037E+02  0.64437539037E+02  0.00000000000E+00 0. -1.
          6    1    1    2  501    0  0.51056864149E+02 -0.35149441350E+02  0.39686909357E+03  0.43735153371E+03  0.17300000000E+03 0. -1.
         -6    1    1    2    0  503 -0.51056864149E+02  0.35149441350E+02  0.14683365475E+03  0.23522629268E+03  0.17300000000E+03 0. -1.
<mgrwt>
<rscale>  2 0.18376966E+03</rscale>
<asrwt>0</asrwt>
<pdfrwt beam="1">  1       21 0.93560040E-01 0.18376966E+03</pdfrwt>
<pdfrwt beam="2">  1       21 0.99134680E-02 0.18376966E+03</pdfrwt>
<totfact> 0.79409638E+04</totfact>
</mgrwt>
</event>
<event>
 4    1  0.4102458E+000  0.2013862E+03  0.7546771E-02  0.1148575E+00
         21   -1    0    0  501  502  0.00000000000E+00  0.00000000000E+00  0.15232433361E+03  0.15232433361E+03  0.00000000000E+00 0.  1.
         21   -1    0    0  502  503 -0.00000000000E+00 -0.00000000000E+00 -0.63800141650E+03  0.63800141650E+03  0.00000000000E+00 0. -1.
          6    1    1    2  501    0  0.58823265368E+02 -0.84659418347E+02  0.58803227016E+02  0.20979564622E+03  0.17300000000E+03 0.  1.
         -6    1    1    2    0  503 -0.58823265368E+02  0.84659418347E+02 -0.54448030990E+03  0.58053010390E+03  0.17300000000E+03 0. -1.
<mgrwt>
<rscale>  2 0.20138618E+03</rscale>
<asrwt>0</asrwt>
<pdfrwt beam="1">  1       21 0.23434513E-01 0.20138618E+03</pdfrwt>
<pdfrwt beam="2">  1       21 0.98154064E-01 0.20138618E+03</pdfrwt>
<totfact> 0.14611900E+04</totfact>
</mgrwt>
</event>
<event>
 4    1  0.4102458E+000  0.1845609E+03  0.7546771E-02  0.1163461E+00
         21   -1    0    0  501  502  0.00000000000E+00  0.00000000000E+00  0.83402553782E+03  0.83402553782E+03  0.00000000000E+00 0.  1.
         21   -1    0    0  502  503 -0.00000000000E+00 -0.00000000000E+00 -0.41688932024E+02  0.41688932024E+02  0.00000000000E+00 0.  1.
          6    1    1    2  501    0  0.12517764959E+01 -0.64281855010E+02  0.33373525001E+03  0.38136851066E+03  0.17300000000E+03 0.  1.
         -6    1    1    2    0  503 -0.12517764959E+01  0.64281855010E+02  0.45860135579E+03  0.49434595919E+03  0.17300000000E+03 0.  1.
<mgrwt>
<rscale>  2 0.18456089E+03</rscale>
<asrwt>0</asrwt>
<pdfrwt beam="1">  1       21 0.12831161E+00 0.18456089E+03</pdfrwt>
<pdfrwt beam="2">  1       21 0.64136825E-02 0.18456089E+03</pdfrwt>
<totfact> 0.78866202E+04</totfact>
</mgrwt>
</event>
<event>
 4    1  0.4102458E+000  0.2052825E+03  0.7546771E-02  0.1145357E+00
         21   -1    0    0  501  502  0.00000000000E+00  0.00000000000E+00  0.12705863567E+04  0.12705863567E+04  0.00000000000E+00 0.  1.
         21   -1    0    0  502  503 -0.00000000000E+00 -0.00000000000E+00 -0.56887172872E+02  0.56887172872E+02  0.00000000000E+00 0.  1.
          6    1    1    2  501    0 -0.56933756413E+02 -0.94712406822E+02  0.10354496950E+04  0.10556026542E+04  0.17300000000E+03 0.  1.
         -6    1    1    2    0  503  0.56933756413E+02  0.94712406822E+02  0.17824948885E+03  0.27187087541E+03  0.17300000000E+03 0.  1.
<mgrwt>
<rscale>  2 0.20528247E+03</rscale>
<asrwt>0</asrwt>
<pdfrwt beam="1">  1       21 0.19547480E+00 0.20528247E+03</pdfrwt>
<pdfrwt beam="2">  1       21 0.87518737E-02 0.20528247E+03</pdfrwt>
<totfact> 0.14588605E+04</totfact>
</mgrwt>
</event>
<event>
 4    1  0.4102458E+000  0.1851191E+03  0.7546771E-02  0.1162939E+00
         21   -1    0    0  503  502  0.00000000000E+00  0.00000000000E+00  0.91449411086E+03  0.91449411086E+03  0.00000000000E+00 0. -1.
         21   -1    0    0  501  503 -0.00000000000E+00 -0.00000000000E+00 -0.13966552918E+04  0.13966552918E+04  0.00000000000E+00 0. -1.
          6    1    1    2  501    0 -0.37505460071E+02 -0.54161194506E+02 -0.13810474311E+04  0.13933991178E+04  0.17300000000E+03 0. -1.
         -6    1    1    2    0  502  0.37505460071E+02  0.54161194506E+02  0.89888625019E+03  0.91775028483E+03  0.17300000000E+03 0. -1.
<mgrwt>
<rscale>  2 0.18511914E+03</rscale>
<asrwt>0</asrwt>
<pdfrwt beam="1">  1       21 0.14069140E+00 0.18511914E+03</pdfrwt>
<pdfrwt beam="2">  1       21 0.21487005E+00 0.18511914E+03</pdfrwt>
<totfact> 0.38715724E+01</totfact>
</mgrwt>
</event>
<event>
 4    1  0.4102458E+000  0.2607620E+03  0.7546771E-02  0.1106686E+00
         21   -1    0    0  501  502  0.00000000000E+00  0.00000000000E+00  0.21284325370E+03  0.21284325370E+03  0.00000000000E+00 0. -1.
         21   -1    0    0  502  503 -0.00000000000E+00 -0.00000000000E+00 -0.33241049675E+03  0.33241049675E+03  0.00000000000E+00 0.  1.
          6    1    1    2  501    0 -0.33747917742E+02  0.19216889486E+03 -0.59907457785E+01  0.26083077874E+03  0.17300000000E+03 0. -1.
         -6    1    1    2    0  503  0.33747917742E+02 -0.19216889486E+03 -0.11357649727E+03  0.28442297171E+03  0.17300000000E+03 0.  1.
<mgrwt>
<rscale>  2 0.26076197E+03</rscale>
<asrwt>0</asrwt>
<pdfrwt beam="1">  1       21 0.32745116E-01 0.26076197E+03</pdfrwt>
<pdfrwt beam="2">  1       21 0.51140076E-01 0.26076197E+03</pdfrwt>
<totfact> 0.31573548E+04</totfact>
</mgrwt>
</event>
<event>
 4    1  0.4102458E+000  0.1873645E+03  0.7546771E-02  0.1160860E+00
         21   -1    0    0  503  502  0.00000000000E+00  0.00000000000E+00  0.20786404613E+03  0.20786404613E+03  0.00000000000E+00 0.  1.
         21   -1    0    0  501  503 -0.00000000000E+00 -0.00000000000E+00 -0.18029616450E+03  0.18029616450E+03  0.00000000000E+00 0.  1.
          6    1    1    2  501    0 -0.71710271497E+01 -0.71589277331E+02 -0.35038855822E+02  0.19061261678E+03  0.17300000000E+03 0.  1.
         -6    1    1    2    0  502  0.71710271497E+01  0.71589277331E+02  0.62606737456E+02  0.19754759385E+03  0.17300000000E+03 0.  1.
<mgrwt>
<rscale>  2 0.18736448E+03</rscale>
<asrwt>0</asrwt>
<pdfrwt beam="1">  1       21 0.31979084E-01 0.18736448E+03</pdfrwt>
<pdfrwt beam="2">  1       21 0.27737872E-01 0.18736448E+03</pdfrwt>
<totfact> 0.11689894E+05</totfact>
</mgrwt>
</event>
<event>
 4    1  0.4102458E+000  0.1989015E+03  0.7546771E-02  0.1150669E+00
         21   -1    0    0  503  502  0.00000000000E+00  0.00000000000E+00  0.15780151029E+03  0.15780151029E+03  0.00000000000E+00 0. -1.
         21   -1    0    0  501  503 -0.00000000000E+00 -0.00000000000E+00 -0.25442716397E+03  0.25442716397E+03  0.00000000000E+00 0. -1.
          6    1    1    2  501    0 -0.80843040317E+02  0.55652603992E+02 -0.73239078169E+02  0.21195700524E+03  0.17300000000E+03 0. -1.
         -6    1    1    2    0  502  0.80843040317E+02 -0.55652603992E+02 -0.23386575504E+02  0.20027166902E+03  0.17300000000E+03 0. -1.
<mgrwt>
<rscale>  2 0.19890151E+03</rscale>
<asrwt>0</asrwt>
<pdfrwt beam="1">  1       21 0.24277156E-01 0.19890151E+03</pdfrwt>
<pdfrwt beam="2">  1       21 0.39142640E-01 0.19890151E+03</pdfrwt>
<totfact> 0.10054340E+05</totfact>
</mgrwt>
</event>
<event>
 4    1  0.4102458E+000  0.2224672E+03  0.7546771E-02  0.1132057E+00
         21   -1    0    0  501  502  0.00000000000E+00  0.00000000000E+00  0.13219719974E+03  0.13219719974E+03  0.00000000000E+00 0. -1.
         21   -1    0    0  502  503 -0.00000000000E+00 -0.00000000000E+00 -0.52567615377E+03  0.52567615377E+03  0.00000000000E+00 0. -1.
          6    1    1    2  501    0 -0.13445894819E+03  0.38515579714E+02 -0.20269561445E+02  0.22338870551E+03  0.17300000000E+03 0. -1.
         -6    1    1    2    0  503  0.13445894819E+03 -0.38515579714E+02 -0.37320939258E+03  0.43448464799E+03  0.17300000000E+03 0. -1.
<mgrwt>
<rscale>  2 0.22246721E+03</rscale>
<asrwt>0</asrwt>
<pdfrwt beam="1">  1       21 0.20338031E-01 0.22246721E+03</pdfrwt>
<pdfrwt beam="2">  1       21 0.80873254E-01 0.22246721E+03</pdfrwt>
<totfact> 0.29539452E+04</totfact>
</mgrwt>
</event>
<event>
 4    1  0.4102458E+000  0.2368176E+03  0.7546771E-02  0.1121931E+00
         21   -1    0    0  503  502  0.00000000000E+00  0.00000000000E+00  0.99688508149E+02  0.99688508149E+02  0.00000000000E+00 0.  1.
         21   -1    0    0  501  503 -0.00000000000E+00 -0.00000000000E+00 -0.77705267264E+03  0.77705267264E+03  0.00000000000E+00 0.  1.
          6    1    1    2  501    0  0.89116772793E+02 -0.13495095395E+03 -0.56898753045E+03  0.61630298472E+03  0.17300000000E+03 0.  1.
         -6    1    1    2    0  502 -0.89116772793E+02  0.13495095395E+03 -0.10837663404E+03  0.26043819607E+03  0.17300000000E+03 0.  1.
<mgrwt>
<rscale>  2 0.23681757E+03</rscale>
<asrwt>0</asrwt>
<pdfrwt beam="1">  1       21 0.15336694E-01 0.23681757E+03</pdfrwt>
<pdfrwt beam="2">  1       21 0.11954656E+00 0.23681757E+03</pdfrwt>
<totfact> 0.19558444E+04</totfact>
</mgrwt>
</event>
<event>
 4    1  0.4102458E+000  0.2383075E+03  0.7546771E-02  0.1120925E+00
         21   -1    0    0  503  502  0.00000000000E+00  0.00000000000E+00  0.99273339734E+03  0.99273339734E+03  0.00000000000E+00 0.  1.
         21   -1    0    0  501  503 -0.00000000000E+00 -0.00000000000E+00 -0.59573358468E+02  0.59573358468E+02  0.00000000000E+00 0. -1.
          6    1    1    2  501    0 -0.11125331100E+03 -0.12035010256E+03  0.36169694053E+03  0.43314561429E+03  0.17300000000E+03 0. -1.
         -6    1    1    2    0  502  0.11125331100E+03  0.12035010256E+03  0.57146309834E+03  0.61916114151E+03  0.17300000000E+03 0.  1.
<mgrwt>
<rscale>  2 0.23830746E+03</rscale>
<asrwt>0</asrwt>
<pdfrwt beam="1">  1       21 0.15272820E+00 0.23830746E+03</pdfrwt>
<pdfrwt beam="2">  1       21 0.91651328E-02 0.23830746E+03</pdfrwt>
<totfact> 0.26234674E+04</totfact>
</mgrwt>
</event>
<event>
 4    1  0.4102458E+000  0.2148020E+03  0.7546771E-02  0.1137819E+00
         21   -1    0    0  503  502  0.00000000000E+00  0.00000000000E+00  0.91954674819E+03  0.91954674819E+03  0.00000000000E+00 0. -1.
         21   -1    0    0  501  503 -0.00000000000E+00 -0.00000000000E+00 -0.10709166292E+03  0.10709166292E+03  0.00000000000E+00 0. -1.
          6    1    1    2  501    0 -0.94683462786E+02 -0.85123023330E+02  0.32011296916E+02  0.21717414753E+03  0.17300000000E+03 0. -1.
         -6    1    1    2    0  502  0.94683462786E+02  0.85123023330E+02  0.78044378836E+03  0.80946426358E+03  0.17300000000E+03 0. -1.
<mgrwt>
<rscale>  2 0.21480197E+03</rscale>
<asrwt>0</asrwt>
<pdfrwt beam="1">  1       21 0.14146872E+00 0.21480197E+03</pdfrwt>
<pdfrwt beam="2">  1       21 0.16475641E-01 0.21480197E+03</pdfrwt>
<totfact> 0.11329075E+04</totfact>
</mgrwt>
</event>
<event>
 4    1  0.4102458E+000  0.3746481E+03  0.7546771E-02  0.1052930E+00
         21   -1    0    0  501  502  0.00000000000E+00  0.00000000000E+00  0.53631687374E+03  0.53631687374E+03  0.00000000000E+00 0. -1.
         21   -1    0    0  502  503 -0.00000000000E+00 -0.00000000000E+00 -0.33710548430E+03  0.33710548430E+03  0.00000000000E+00 0.  1.
          6    1    1    2  501    0 -0.33225255668E+03 -0.63565676351E+01  0.30613184734E+03  0.48381595192E+03  0.17300000000E+03 0. -1.
         -6    1    1    2    0  503  0.33225255668E+03  0.63565676351E+01 -0.10692045790E+03  0.38960640612E+03  0.17300000000E+03 0.  1.
<mgrwt>
<rscale>  2 0.37464806E+03</rscale>
<asrwt>0</asrwt>
<pdfrwt beam="1">  1       21 0.82510288E-01 0.37464806E+03</pdfrwt>
<pdfrwt beam="2">  1       21 0.51862382E-01 0.37464806E+03</pdfrwt>
<totfact> 0.40765719E+03</totfact>
</mgrwt>
</event>
<event>
 4    1  0.4102458E+000  0.2586798E+03  0.7546771E-02  0.1107939E+00
         21   -1    0    0  501  502  0.00000000000E+00  0.00000000000E+00  0.47086000212E+03  0.47086000212E+03  0.00000000000E+00 0.  1.
         21   -1    0    0  502  503 -0.00000000000E+00 -0.00000000000E+00 -0.16555753169E+03  0.16555753169E+03  0.00000000000E+00 0. -1.
          6    1    1    2  501    0 -0.19161627756E+03  0.16414235477E+02  0.27239708408E+03  0.37565329277E+03  0.17300000000E+03 0.  1.
         -6    1    1    2    0  503  0.19161627756E+03 -0.16414235477E+02  0.32905386352E+02  0.26076424104E+03  0.17300000000E+03 0. -1.
<mgrwt>
<rscale>  2 0.25867977E+03</rscale>
<asrwt>0</asrwt>
<pdfrwt beam="1">  1       21 0.72440000E-01 0.25867977E+03</pdfrwt>
<pdfrwt beam="2">  1       21 0.25470390E-01 0.25867977E+03</pdfrwt>
<totfact> 0.24260768E+04</totfact>
</mgrwt>
</event>
<event>
 4    1  0.4102458E+000  0.4365787E+03  0.7546771E-02  0.1031802E+00
         21   -1    0    0  503  502  0.00000000000E+00  0.00000000000E+00  0.25257417898E+03  0.25257417898E+03  0.00000000000E+00 0.  1.
         21   -1    0    0  501  503 -0.00000000000E+00 -0.00000000000E+00 -0.94941940797E+03  0.94941940797E+03  0.00000000000E+00 0.  1.
          6    1    1    2  501    0 -0.31133298687E+03 -0.25247524475E+03 -0.62064365354E+03  0.75881455087E+03  0.17300000000E+03 0.  1.
         -6    1    1    2    0  502  0.31133298687E+03  0.25247524475E+03 -0.76201575444E+02  0.44317903609E+03  0.17300000000E+03 0.  1.
<mgrwt>
<rscale>  2 0.43657872E+03</rscale>
<asrwt>0</asrwt>
<pdfrwt beam="1">  1       21 0.38857566E-01 0.43657872E+03</pdfrwt>
<pdfrwt beam="2">  1       21 0.14606452E+00 0.43657872E+03</pdfrwt>
<totfact> 0.17586291E+03</totfact>
</mgrwt>
</event>
<event>
 4    1  0.4102458E+000  0.5192507E+03  0.7546771E-02  0.1008873E+00
         21   -1    0    0  501  502  0.00000000000E+00  0.00000000000E+00  0.11709028862E+04  0.11709028862E+04  0.00000000000E+00 0. -1.
         21   -1    0    0  502  503 -0.00000000000E+00 -0.00000000000E+00 -0.35690007395E+03  0.35690007395E+03  0.00000000000E+00 0.  1.
          6    1    1    2  501    0 -0.46801370881E+03  0.14371999875E+03  0.86202737140E+03  0.10063361559E+04  0.17300000000E+03 0. -1.
         -6    1    1    2    0  503  0.46801370881E+03 -0.14371999875E+03 -0.48024559111E+02  0.52146680427E+03  0.17300000000E+03 0.  1.
<mgrwt>
<rscale>  2 0.51925068E+03</rscale>
<asrwt>0</asrwt>
<pdfrwt beam="1">  1       21 0.18013890E+00 0.51925068E+03</pdfrwt>
<pdfrwt beam="2">  1       21 0.54907704E-01 0.51925068E+03</pdfrwt>
<totfact> 0.45545813E+02</totfact>
</mgrwt>
</event>
<event>
 4    1  0.4102458E+000  0.1755477E+03  0.7546771E-02  0.1172183E+00
         21   -1    0    0  503  502  0.00000000000E+00  0.00000000000E+00  0.71693529244E+02  0.71693529244E+02  0.00000000000E+00 0.  1.
         21   -1    0    0  501  503 -0.00000000000E+00 -0.00000000000E+00 -0.67921680109E+03  0.67921680109E+03  0.00000000000E+00 0.  1.
          6    1    1    2  501    0 -0.15185618019E+02  0.25639428203E+02 -0.53126039061E+03  0.55951281121E+03  0.17300000000E+03 0.  1.
         -6    1    1    2    0  502  0.15185618019E+02 -0.25639428203E+02 -0.76262881233E+02  0.19139751913E+03  0.17300000000E+03 0.  1.
<mgrwt>
<rscale>  2 0.17554767E+03</rscale>
<asrwt>0</asrwt>
<pdfrwt beam="1">  1       21 0.11029773E-01 0.17554767E+03</pdfrwt>
<pdfrwt beam="2">  1       21 0.10449490E+00 0.17554767E+03</pdfrwt>
<totfact> 0.50849652E+04</totfact>
</mgrwt>
</event>
<event>
 4    1  0.4102458E+000  0.2267687E+03  0.7546771E-02  0.1128935E+00
         21   -1    0    0  503  502  0.00000000000E+00  0.00000000000E+00  0.30504347504E+02  0.30504347504E+02  0.00000000000E+00 0. -1.
         21   -1    0    0  501  503 -0.00000000000E+00 -0.00000000000E+00 -0.20121423291E+04  0.20121423291E+04  0.00000000000E+00 0. -1.
          6    1    1    2  501    0 -0.70918131063E+02 -0.12831857832E+03 -0.14021341917E+04  0.14203535934E+04  0.17300000000E+03 0. -1.
         -6    1    1    2    0  502  0.70918131063E+02  0.12831857832E+03 -0.57950378989E+03  0.62229308316E+03  0.17300000000E+03 0. -1.
<mgrwt>
<rscale>  2 0.22676869E+03</rscale>
<asrwt>0</asrwt>
<pdfrwt beam="1">  1       21 0.46929745E-02 0.22676869E+03</pdfrwt>
<pdfrwt beam="2">  1       21 0.30956049E+00 0.22676869E+03</pdfrwt>
<totfact> 0.86892117E+03</totfact>
</mgrwt>
</event>
<event>
 4    1  0.4102458E+000  0.1742834E+03  0.7546771E-02  0.1173453E+00
         21   -1    0    0  503  502  0.00000000000E+00  0.00000000000E+00  0.82592820333E+02  0.82592820333E+02  0.00000000000E+00 0.  1.
         21   -1    0    0  501  503 -0.00000000000E+00 -0.00000000000E+00 -0.38864008519E+03  0.38864008519E+03  0.00000000000E+00 0.  1.
          6    1    1    2  501    0 -0.15402467864E+02 -0.14437910214E+02 -0.20763127319E+03  0.27108197077E+03  0.17300000000E+03 0.  1.
         -6    1    1    2    0  502  0.15402467864E+02  0.14437910214E+02 -0.98415991661E+02  0.20015093475E+03  0.17300000000E+03 0.  1.
<mgrwt>
<rscale>  2 0.17428336E+03</rscale>
<asrwt>0</asrwt>
<pdfrwt beam="1">  1       21 0.12706588E-01 0.17428336E+03</pdfrwt>
<pdfrwt beam="2">  1       21 0.59790782E-01 0.17428336E+03</pdfrwt>
<totfact> 0.13914108E+05</totfact>
</mgrwt>
</event>
<event>
 4    1  0.4102458E+000  0.1900871E+03  0.7546771E-02  0.1158383E+00
         21   -1    0    0  503  502  0.00000000000E+00  0.00000000000E+00  0.56195070356E+02  0.56195070356E+02  0.00000000000E+00 0.  1.
         21   -1    0    0  501  503 -0.00000000000E+00 -0.00000000000E+00 -0.10350229451E+04  0.10350229451E+04  0.00000000000E+00 0.  1.
          6    1    1    2  501    0 -0.52053525660E+02  0.59114674485E+02 -0.82520211446E+03  0.84681263806E+03  0.17300000000E+03 0.  1.
         -6    1    1    2    0  502  0.52053525660E+02 -0.59114674485E+02 -0.15362576027E+03  0.24440537738E+03  0.17300000000E+03 0.  1.
<mgrwt>
<rscale>  2 0.19008712E+03</rscale>
<asrwt>0</asrwt>
<pdfrwt beam="1">  1       21 0.86453960E-02 0.19008712E+03</pdfrwt>
<pdfrwt beam="2">  1       21 0.15923429E+00 0.19008712E+03</pdfrwt>
<totfact> 0.26767828E+04</totfact>
</mgrwt>
</event>
<event>
 4    1  0.4102458E+000  0.2927988E+03  0.7546771E-02  0.1088897E+00
         21   -1    0    0  503  502  0.00000000000E+00  0.00000000000E+00  0.19082948986E+03  0.19082948986E+03  0.00000000000E+00 0.  1.
         21   -1    0    0  501  503 -0.00000000000E+00 -0.00000000000E+00 -0.13708741874E+04  0.13708741874E+04  0.00000000000E+00 0. -1.
          6    1    1    2  501    0 -0.95106050987E+02  0.21623355467E+03 -0.12302664428E+04  0.12646290489E+04  0.17300000000E+03 0. -1.
         -6    1    1    2    0  502  0.95106050987E+02 -0.21623355467E+03  0.50221745270E+02  0.29707462833E+03  0.17300000000E+03 0.  1.
<mgrwt>
<rscale>  2 0.29279876E+03</rscale>
<asrwt>0</asrwt>
<pdfrwt beam="1">  1       21 0.29358382E-01 0.29279876E+03</pdfrwt>
<pdfrwt beam="2">  1       21 0.21090373E+00 0.29279876E+03</pdfrwt>
<totfact> 0.11614841E+03</totfact>
</mgrwt>
</event>
<event>
 4    1  0.4102458E+000  0.3139905E+03  0.7546771E-02  0.1078449E+00
         21   -1    0    0  501  502  0.00000000000E+00  0.00000000000E+00  0.93476594723E+03  0.93476594723E+03  0.00000000000E+00 0. -1.
         21   -1    0    0  502  503 -0.00000000000E+00 -0.00000000000E+00 -0.26721658329E+03  0.26721658329E+03  0.00000000000E+00 0. -1.
          6    1    1    2  501    0  0.35126145118E+02  0.25966740995E+03  0.80135224379E+03  0.86067149859E+03  0.17300000000E+03 0. -1.
         -6    1    1    2    0  503 -0.35126145118E+02 -0.25966740995E+03 -0.13380287985E+03  0.34131103193E+03  0.17300000000E+03 0. -1.
<mgrwt>
<rscale>  2 0.31399046E+03</rscale>
<asrwt>0</asrwt>
<pdfrwt beam="1">  1       21 0.14381014E+00 0.31399046E+03</pdfrwt>
<pdfrwt beam="2">  1       21 0.41110244E-01 0.31399046E+03</pdfrwt>
<totfact> 0.17348280E+03</totfact>
</mgrwt>
</event>
<event>
 4    1  0.4102458E+000  0.1736180E+03  0.7546771E-02  0.1174127E+00
         21   -1    0    0  501  502  0.00000000000E+00  0.00000000000E+00  0.92092854837E+03  0.92092854837E+03  0.00000000000E+00 0.  1.
         21   -1    0    0  502  503 -0.00000000000E+00 -0.00000000000E+00 -0.34810953307E+02  0.34810953307E+02  0.00000000000E+00 0.  1.
          6    1    1    2  501    0 -0.74203928836E+01 -0.12615471294E+02  0.55985920551E+03  0.58616170324E+03  0.17300000000E+03 0. -1.
         -6    1    1    2    0  503  0.74203928836E+01  0.12615471294E+02  0.32625838955E+03  0.36957779844E+03  0.17300000000E+03 0. -1.
<mgrwt>
<rscale>  2 0.17361801E+03</rscale>
<asrwt>0</asrwt>
<pdfrwt beam="1">  1       21 0.14168130E+00 0.17361801E+03</pdfrwt>
<pdfrwt beam="2">  1       21 0.53555320E-02 0.17361801E+03</pdfrwt>
<totfact> 0.83827053E+04</totfact>
</mgrwt>
</event>
<event>
 4    1  0.4102458E+000  0.2472327E+03  0.7546771E-02  0.1115066E+00
         21   -1    0    0  501  502  0.00000000000E+00  0.00000000000E+00  0.33732336365E+03  0.33732336365E+03  0.00000000000E+00 0. -1.
         21   -1    0    0  502  503 -0.00000000000E+00 -0.00000000000E+00 -0.26614262183E+03  0.26614262183E+03  0.00000000000E+00 0.  1.
          6    1    1    2  501    0 -0.13195747505E+03 -0.11739776906E+03  0.20604967121E+03  0.32183921204E+03  0.17300000000E+03 0. -1.
         -6    1    1    2    0  503  0.13195747505E+03  0.11739776906E+03 -0.13486892939E+03  0.28162677343E+03  0.17300000000E+03 0.  1.
<mgrwt>
<rscale>  2 0.24723271E+03</rscale>
<asrwt>0</asrwt>
<pdfrwt beam="1">  1       21 0.51895902E-01 0.24723271E+03</pdfrwt>
<pdfrwt beam="2">  1       21 0.40945019E-01 0.24723271E+03</pdfrwt>
<totfact> 0.19654466E+04</totfact>
</mgrwt>
</event>
<event>
 4    1  0.4102458E+000  0.1995568E+03  0.7546771E-02  0.1150113E+00
         21   -1    0    0  503  502  0.00000000000E+00  0.00000000000E+00  0.35468876162E+03  0.35468876162E+03  0.00000000000E+00 0.  1.
         21   -1    0    0  501  503 -0.00000000000E+00 -0.00000000000E+00 -0.23861438759E+03  0.23861438759E+03  0.00000000000E+00 0.  1.
          6    1    1    2  501    0  0.60911165329E+01 -0.99281558798E+02 -0.15782000446E+03  0.25442107504E+03  0.17300000000E+03 0.  1.
         -6    1    1    2    0  502 -0.60911165329E+01  0.99281558798E+02  0.27389437850E+03  0.33888207417E+03  0.17300000000E+03 0.  1.
<mgrwt>
<rscale>  2 0.19955683E+03</rscale>
<asrwt>0</asrwt>
<pdfrwt beam="1">  1       21 0.54567502E-01 0.19955683E+03</pdfrwt>
<pdfrwt beam="2">  1       21 0.36709906E-01 0.19955683E+03</pdfrwt>
<totfact> 0.22606362E+04</totfact>
</mgrwt>
</event>
<event>
 4    1  0.4102458E+000  0.1796157E+03  0.7546771E-02  0.1168176E+00
         21   -1    0    0  501  502  0.00000000000E+00  0.00000000000E+00  0.99640821141E+03  0.99640821141E+03  0.00000000000E+00 0.  1.
         21   -1    0    0  502  503 -0.00000000000E+00 -0.00000000000E+00 -0.32407128964E+02  0.32407128964E+02  0.00000000000E+00 0.  1.
          6    1    1    2  501    0  0.91271764121E+01 -0.47428688935E+02  0.49740137436E+03  0.52883826743E+03  0.17300000000E+03 0.  1.
         -6    1    1    2    0  503 -0.91271764121E+01  0.47428688935E+02  0.46659970808E+03  0.49997707294E+03  0.17300000000E+03 0.  1.
<mgrwt>
<rscale>  2 0.17961566E+03</rscale>
<asrwt>0</asrwt>
<pdfrwt beam="1">  1       21 0.15329355E+00 0.17961566E+03</pdfrwt>
<pdfrwt beam="2">  1       21 0.49857129E-02 0.17961566E+03</pdfrwt>
<totfact> 0.76804071E+04</totfact>
</mgrwt>
</event>
<event>
 4    1  0.4102458E+000  0.1857085E+03  0.7546771E-02  0.1162390E+00
         21   -1    0    0  503  502  0.00000000000E+00  0.00000000000E+00  0.36290395505E+03  0.36290395505E+03  0.00000000000E+00 0. -1.
         21   -1    0    0  501  503 -0.00000000000E+00 -0.00000000000E+00 -0.18172109573E+03  0.18172109573E+03  0.00000000000E+00 0. -1.
          6    1    1    2  501    0 -0.60143971856E+02 -0.30681552475E+02 -0.97490049878E+02  0.20974261569E+03  0.17300000000E+03 0.  1.
         -6    1    1    2    0  502  0.60143971856E+02  0.30681552475E+02  0.27867290919E+03  0.33488243509E+03  0.17300000000E+03 0.  1.
<mgrwt>
<rscale>  2 0.18570852E+03</rscale>
<asrwt>0</asrwt>
<pdfrwt beam="1">  1       21 0.55831378E-01 0.18570852E+03</pdfrwt>
<pdfrwt beam="2">  1       21 0.27957092E-01 0.18570852E+03</pdfrwt>
<totfact> 0.37054148E+04</totfact>
</mgrwt>
</event>
<event>
 4    1  0.4102458E+000  0.1765597E+03  0.7546771E-02  0.1171175E+00
         21   -1    0    0  503  502  0.00000000000E+00  0.00000000000E+00  0.73110574160E+02  0.73110574160E+02  0.00000000000E+00 0. -1.
         21   -1    0    0  501  503 -0.00000000000E+00 -0.00000000000E+00 -0.46329752433E+03  0.46329752433E+03  0.00000000000E+00 0. -1.
          6    1    1    2  501    0  0.13893662540E+02 -0.32423552586E+02 -0.27079710523E+03  0.32327139190E+03  0.17300000000E+03 0.  1.
         -6    1    1    2    0  502 -0.13893662540E+02  0.32423552586E+02 -0.11938984494E+03  0.21313670659E+03  0.17300000000E+03 0.  1.
<mgrwt>
<rscale>  2 0.17655968E+03</rscale>
<asrwt>0</asrwt>
<pdfrwt beam="1">  1       21 0.11247781E-01 0.17655968E+03</pdfrwt>
<pdfrwt beam="2">  1       21 0.71276543E-01 0.17655968E+03</pdfrwt>
<totfact> 0.11797556E+05</totfact>
</mgrwt>
</event>
<event>
 4    1  0.4102458E+000  0.1848444E+03  0.7546771E-02  0.1163195E+00
         21   -1    0    0  501  502  0.00000000000E+00  0.00000000000E+00  0.55230260687E+03  0.55230260687E+03  0.00000000000E+00 0.  1.
         21   -1    0    0  502  503 -0.00000000000E+00 -0.00000000000E+00 -0.99786051569E+02  0.99786051569E+02  0.00000000000E+00 0. -1.
          6    1    1    2  501    0 -0.44627765372E+01 -0.64950340876E+02  0.42725527305E+03  0.46552608037E+03  0.17300000000E+03 0.  1.
         -6    1    1    2    0  503  0.44627765372E+01  0.64950340876E+02  0.25261282248E+02  0.18656257807E+03  0.17300000000E+03 0. -1.
<mgrwt>
<rscale>  2 0.18484443E+03</rscale>
<asrwt>0</asrwt>
<pdfrwt beam="1">  1       21 0.84969630E-01 0.18484443E+03</pdfrwt>
<pdfrwt beam="2">  1       21 0.15351701E-01 0.18484443E+03</pdfrwt>
<totfact> 0.45273534E+04</totfact>
</mgrwt>
</event>
<event>
 4    1  0.4102458E+000  0.2380967E+03  0.7546771E-02  0.1121067E+00
         21   -1    0    0  501  502  0.00000000000E+00  0.00000000000E+00  0.77221582257E+03  0.77221582257E+03  0.00000000000E+00 0.  1.
         21   -1    0    0  502  503 -0.00000000000E+00 -0.00000000000E+00 -0.13485218225E+03  0.13485218225E+03  0.00000000000E+00 0.  1.
          6    1    1    2  501    0 -0.40149048109E+02 -0.15858468145E+03  0.62481223029E+03  0.66864068855E+03  0.17300000000E+03 0.  1.
         -6    1    1    2    0  503  0.40149048109E+02  0.15858468145E+03  0.12551410026E+02  0.23842731628E+03  0.17300000000E+03 0.  1.
<mgrwt>
<rscale>  2 0.23809672E+03</rscale>
<asrwt>0</asrwt>
<pdfrwt beam="1">  1       21 0.11880243E+00 0.23809672E+03</pdfrwt>
<pdfrwt beam="2">  1       21 0.20746490E-01 0.23809672E+03</pdfrwt>
<totfact> 0.11326007E+04</totfact>
</mgrwt>
</event>
<event>
 4    1  0.4102458E+000  0.1913367E+03  0.7546771E-02  0.1157261E+00
         21   -1    0    0  501  502  0.00000000000E+00  0.00000000000E+00  0.53461605569E+02  0.53461605569E+02  0.00000000000E+00 0. -1.
         21   -1    0    0  502  503 -0.00000000000E+00 -0.00000000000E+00 -0.11015056255E+04  0.11015056255E+04  0.00000000000E+00 0. -1.
          6    1    1    2  501    0 -0.29161453094E+02 -0.76356761297E+02 -0.16882572270E+03  0.25517027646E+03  0.17300000000E+03 0. -1.
         -6    1    1    2    0  503  0.29161453094E+02  0.76356761297E+02 -0.87921829720E+03  0.89979695458E+03  0.17300000000E+03 0. -1.
<mgrwt>
<rscale>  2 0.19133673E+03</rscale>
<asrwt>0</asrwt>
<pdfrwt beam="1">  1       21 0.82248626E-02 0.19133673E+03</pdfrwt>
<pdfrwt beam="2">  1       21 0.16946240E+00 0.19133673E+03</pdfrwt>
<totfact> 0.24634778E+04</totfact>
</mgrwt>
</event>
<event>
 4    1  0.4102458E+000  0.2174851E+03  0.7546771E-02  0.1135772E+00
         21   -1    0    0  501  502  0.00000000000E+00  0.00000000000E+00  0.61225186558E+03  0.61225186558E+03  0.00000000000E+00 0. -1.
         21   -1    0    0  502  503 -0.00000000000E+00 -0.00000000000E+00 -0.31367919862E+03  0.31367919862E+03  0.00000000000E+00 0. -1.
          6    1    1    2  501    0 -0.12833894624E+03 -0.29997966877E+02  0.55121723194E+03  0.59257083959E+03  0.17300000000E+03 0. -1.
         -6    1    1    2    0  503  0.12833894624E+03  0.29997966877E+02 -0.25264456498E+03  0.33336022461E+03  0.17300000000E+03 0. -1.
<mgrwt>
<rscale>  2 0.21748509E+03</rscale>
<asrwt>0</asrwt>
<pdfrwt beam="1">  1       21 0.94192595E-01 0.21748509E+03</pdfrwt>
<pdfrwt beam="2">  1       21 0.48258338E-01 0.21748509E+03</pdfrwt>
<totfact> 0.38004600E+03</totfact>
</mgrwt>
</event>
<event>
 4    1  0.4102458E+000  0.2057023E+03  0.7546771E-02  0.1145015E+00
         21   -1    0    0  501  502  0.00000000000E+00  0.00000000000E+00  0.22229080484E+03  0.22229080484E+03  0.00000000000E+00 0.  1.
         21   -1    0    0  502  503 -0.00000000000E+00 -0.00000000000E+00 -0.19309174412E+03  0.19309174412E+03  0.00000000000E+00 0.  1.
          6    1    1    2  501    0  0.83874609462E+02 -0.73140207207E+02  0.39340261436E+02  0.20943040895E+03  0.17300000000E+03 0.  1.
         -6    1    1    2    0  503 -0.83874609462E+02  0.73140207207E+02 -0.10141200721E+02  0.20595214001E+03  0.17300000000E+03 0.  1.
<mgrwt>
<rscale>  2 0.20570231E+03</rscale>
<asrwt>0</asrwt>
<pdfrwt beam="1">  1       21 0.34198585E-01 0.20570231E+03</pdfrwt>
<pdfrwt beam="2">  1       21 0.29706422E-01 0.20570231E+03</pdfrwt>
<totfact> 0.89011432E+04</totfact>
</mgrwt>
</event>
<event>
 4    1  0.4102458E+000  0.2277809E+03  0.7546771E-02  0.1128212E+00
         21   -1    0    0  503  502  0.00000000000E+00  0.00000000000E+00  0.18616172123E+03  0.18616172123E+03  0.00000000000E+00 0.  1.
         21   -1    0    0  501  503 -0.00000000000E+00 -0.00000000000E+00 -0.36124073878E+03  0.36124073878E+03  0.00000000000E+00 0.  1.
          6    1    1    2  501    0  0.41617437607E+02  0.14220798775E+03 -0.21836745838E+03  0.31554471913E+03  0.17300000000E+03 0.  1.
         -6    1    1    2    0  502 -0.41617437607E+02 -0.14220798775E+03  0.43288440827E+02  0.23185774087E+03  0.17300000000E+03 0.  1.
<mgrwt>
<rscale>  2 0.22778087E+03</rscale>
<asrwt>0</asrwt>
<pdfrwt beam="1">  1       21 0.28640265E-01 0.22778087E+03</pdfrwt>
<pdfrwt beam="2">  1       21 0.55575498E-01 0.22778087E+03</pdfrwt>
<totfact> 0.34951411E+04</totfact>
</mgrwt>
</event>
<event>
 4    1  0.4102458E+000  0.2544731E+03  0.7546771E-02  0.1110510E+00
         21   -1    0    0  501  502  0.00000000000E+00  0.00000000000E+00  0.15219564678E+03  0.15219564678E+03  0.00000000000E+00 0.  1.
         21   -1    0    0  502  503 -0.00000000000E+00 -0.00000000000E+00 -0.56872606491E+03  0.56872606491E+03  0.00000000000E+00 0.  1.
          6    1    1    2  501    0  0.10644554530E+03  0.15328704095E+03 -0.27362847821E+02  0.25594002516E+03  0.17300000000E+03 0.  1.
         -6    1    1    2    0  503 -0.10644554530E+03 -0.15328704095E+03 -0.38916757031E+03  0.46498168654E+03  0.17300000000E+03 0.  1.
<mgrwt>
<rscale>  2 0.25447312E+03</rscale>
<asrwt>0</asrwt>
<pdfrwt beam="1">  1       21 0.23414714E-01 0.25447312E+03</pdfrwt>
<pdfrwt beam="2">  1       21 0.87496319E-01 0.25447312E+03</pdfrwt>
<totfact> 0.18585021E+04</totfact>
</mgrwt>
</event>
<event>
 4    1  0.4102458E+000  0.1838364E+03  0.7546771E-02  0.1164141E+00
         21   -1    0    0  501  502  0.00000000000E+00  0.00000000000E+00  0.16289459987E+03  0.16289459987E+03  0.00000000000E+00 0. -1.
         21   -1    0    0  502  503 -0.00000000000E+00 -0.00000000000E+00 -0.60151488039E+03  0.60151488039E+03  0.00000000000E+00 0. -1.
          6    1    1    2  501    0 -0.61595641521E+02  0.85324218304E+01  0.90036530381E+02  0.20470076228E+03  0.17300000000E+03 0. -1.
         -6    1    1    2    0  503  0.61595641521E+02 -0.85324218304E+01 -0.52865681089E+03  0.55970871798E+03  0.17300000000E+03 0. -1.
<mgrwt>
<rscale>  2 0.18383641E+03</rscale>
<asrwt>0</asrwt>
<pdfrwt beam="1">  1       21 0.25060708E-01 0.18383641E+03</pdfrwt>
<pdfrwt beam="2">  1       21 0.92540751E-01 0.18383641E+03</pdfrwt>
<totfact> 0.14933307E+04</totfact>
</mgrwt>
</event>
<event>
 4    1  0.4102458E+000  0.2515798E+03  0.7546771E-02  0.1112310E+00
         21   -1    0    0  501  502  0.00000000000E+00  0.00000000000E+00  0.89134605717E+02  0.89134605717E+02  0.00000000000E+00 0.  1.
         21   -1    0    0  502  503 -0.00000000000E+00 -0.00000000000E+00 -0.76970652029E+03  0.76970652029E+03  0.00000000000E+00 0.  1.
          6    1    1    2  501    0 -0.17663017164E+03  0.46531581704E+02 -0.22076280255E+03  0.33470676811E+03  0.17300000000E+03 0.  1.
         -6    1    1    2    0  503  0.17663017164E+03 -0.46531581704E+02 -0.45980911203E+03  0.52413435790E+03  0.17300000000E+03 0.  1.
<mgrwt>
<rscale>  2 0.25157982E+03</rscale>
<asrwt>0</asrwt>
<pdfrwt beam="1">  1       21 0.13713016E-01 0.25157982E+03</pdfrwt>
<pdfrwt beam="2">  1       21 0.11841639E+00 0.25157982E+03</pdfrwt>
<totfact> 0.24383037E+04</totfact>
</mgrwt>
</event>
<event>
 4    1  0.4102458E+000  0.2159323E+03  0.7546771E-02  0.1136952E+00
         21   -1    0    0  503  502  0.00000000000E+00  0.00000000000E+00  0.46885450759E+03  0.46885450759E+03  0.00000000000E+00 0. -1.
         21   -1    0    0  501  503 -0.00000000000E+00 -0.00000000000E+00 -0.13015157854E+03  0.13015157854E+03  0.00000000000E+00 0. -1.
          6    1    1    2  501    0 -0.12902270612E+03  0.71353528347E+01  0.23882926800E+02  0.21724908780E+03  0.17300000000E+03 0. -1.
         -6    1    1    2    0  502  0.12902270612E+03 -0.71353528347E+01  0.31482000225E+03  0.38175699833E+03  0.17300000000E+03 0. -1.
<mgrwt>
<rscale>  2 0.21593233E+03</rscale>
<asrwt>0</asrwt>
<pdfrwt beam="1">  1       21 0.72131462E-01 0.21593233E+03</pdfrwt>
<pdfrwt beam="2">  1       21 0.20023320E-01 0.21593233E+03</pdfrwt>
<totfact> 0.39465573E+04</totfact>
</mgrwt>
</event>
<event>
 4    1  0.4102458E+000  0.2229614E+03  0.7546771E-02  0.1131694E+00
         21   -1    0    0  501  502  0.00000000000E+00  0.00000000000E+00  0.41217628454E+03  0.41217628454E+03  0.00000000000E+00 0.  1.
         21   -1    0    0  502  503 -0.00000000000E+00 -0.00000000000E+00 -0.55481077574E+03  0.55481077574E+03  0.00000000000E+00 0.  1.
          6    1    1    2  501    0  0.10981875374E+03 -0.87878560190E+02  0.35640759106E+03  0.42040239174E+03  0.17300000000E+03 0.  1.
         -6    1    1    2    0  503 -0.10981875374E+03  0.87878560190E+02 -0.49904208226E+03  0.54658466854E+03  0.17300000000E+03 0.  1.
<mgrwt>
<rscale>  2 0.22296143E+03</rscale>
<asrwt>0</asrwt>
<pdfrwt beam="1">  1       21 0.63411737E-01 0.22296143E+03</pdfrwt>
<pdfrwt beam="2">  1       21 0.85355503E-01 0.22296143E+03</pdfrwt>
<totfact> 0.26618695E+03</totfact>
</mgrwt>
</event>
<event>
 4    1  0.4102458E+000  0.1830446E+03  0.7546771E-02  0.1164889E+00
         21   -1    0    0  501  502  0.00000000000E+00  0.00000000000E+00  0.67636790141E+02  0.67636790141E+02  0.00000000000E+00 0. -1.
         21   -1    0    0  502  503 -0.00000000000E+00 -0.00000000000E+00 -0.52459139664E+03  0.52459139664E+03  0.00000000000E+00 0. -1.
          6    1    1    2  501    0 -0.12121147134E+02  0.58561168528E+02 -0.15859158385E+03  0.24219129451E+03  0.17300000000E+03 0. -1.
         -6    1    1    2    0  503  0.12121147134E+02 -0.58561168528E+02 -0.29836302265E+03  0.35003689227E+03  0.17300000000E+03 0. -1.
<mgrwt>
<rscale>  2 0.18304462E+03</rscale>
<asrwt>0</asrwt>
<pdfrwt beam="1">  1       21 0.10405660E-01 0.18304462E+03</pdfrwt>
<pdfrwt beam="2">  1       21 0.80706370E-01 0.18304462E+03</pdfrwt>
<totfact> 0.10235739E+05</totfact>
</mgrwt>
</event>
<event>
 4    1  0.4102458E+000  0.2691295E+03  0.7546771E-02  0.1101779E+00
         21   -1    0    0  503  502  0.00000000000E+00  0.00000000000E+00  0.17131862299E+03  0.17131862299E+03  0.00000000000E+00 0.  1.
         21   -1    0    0  501  503 -0.00000000000E+00 -0.00000000000E+00 -0.42799630675E+03  0.42799630675E+03  0.00000000000E+00 0. -1.
          6    1    1    2  501    0 -0.97446390913E+02  0.18167526759E+03 -0.16140907650E+03  0.31382095522E+03  0.17300000000E+03 0. -1.
         -6    1    1    2    0  502  0.97446390913E+02 -0.18167526759E+03 -0.95268607260E+02  0.28549397452E+03  0.17300000000E+03 0.  1.
<mgrwt>
<rscale>  2 0.26912953E+03</rscale>
<asrwt>0</asrwt>
<pdfrwt beam="1">  1       21 0.26356712E-01 0.26912953E+03</pdfrwt>
<pdfrwt beam="2">  1       21 0.65845585E-01 0.26912953E+03</pdfrwt>
<totfact> 0.27936804E+04</totfact>
</mgrwt>
</event>
<event>
 4    1  0.4102458E+000  0.1930459E+03  0.7546771E-02  0.1155742E+00
         21   -1    0    0  501  502  0.00000000000E+00  0.00000000000E+00  0.14495586446E+03  0.14495586446E+03  0.00000000000E+00 0. -1.
         21   -1    0    0  502  503 -0.00000000000E+00 -0.00000000000E+00 -0.30300731121E+03  0.30300731121E+03  0.00000000000E+00 0.  1.
          6    1    1    2  501    0  0.56461533847E+02  0.64418968882E+02  0.81657108201E+01  0.19321849598E+03  0.17300000000E+03 0. -1.
         -6    1    1    2    0  503 -0.56461533847E+02 -0.64418968882E+02 -0.16621715757E+03  0.25474467968E+03  0.17300000000E+03 0.  1.
<mgrwt>
<rscale>  2 0.19304587E+03</rscale>
<asrwt>0</asrwt>
<pdfrwt beam="1">  1       21 0.22300903E-01 0.19304587E+03</pdfrwt>
<pdfrwt beam="2">  1       21 0.46616508E-01 0.19304587E+03</pdfrwt>
<totfact> 0.82901395E+04</totfact>
</mgrwt>
</event>
<event>
 4    1  0.4102458E+000  0.1927198E+03  0.7546771E-02  0.1156031E+00
         21   -1    0    0  501  502  0.00000000000E+00  0.00000000000E+00  0.66483617185E+02  0.66483617185E+02  0.00000000000E+00 0.  1.
         21   -1    0    0  502  503 -0.00000000000E+00 -0.00000000000E+00 -0.60049118968E+03  0.60049118968E+03  0.00000000000E+00 0. -1.
          6    1    1    2  501    0 -0.84336311544E+02  0.99656869813E+01 -0.17897202383E+03  0.26300553925E+03  0.17300000000E+03 0.  1.
         -6    1    1    2    0  503  0.84336311544E+02 -0.99656869813E+01 -0.35503554866E+03  0.40396926761E+03  0.17300000000E+03 0. -1.
<mgrwt>
<rscale>  2 0.19271982E+03</rscale>
<asrwt>0</asrwt>
<pdfrwt beam="1">  1       21 0.10228249E-01 0.19271982E+03</pdfrwt>
<pdfrwt beam="2">  1       21 0.92383256E-01 0.19271982E+03</pdfrwt>
<totfact> 0.77096353E+04</totfact>
</mgrwt>
</event>
<event>
 4    1  0.4102458E+000  0.4577282E+03  0.7546771E-02  0.1025442E+00
         21   -1    0    0  503  502  0.00000000000E+00  0.00000000000E+00  0.29242151214E+03  0.29242151214E+03  0.00000000000E+00 0.  1.
         21   -1    0    0  501  503 -0.00000000000E+00 -0.00000000000E+00 -0.12969957572E+04  0.12969957572E+04  0.00000000000E+00 0. -1.
          6    1    1    2  501    0 -0.69779514419E+02 -0.41799149089E+03 -0.10339600005E+04  0.11307468107E+04  0.17300000000E+03 0. -1.
         -6    1    1    2    0  502  0.69779514419E+02  0.41799149089E+03  0.29385755428E+02  0.45867045873E+03  0.17300000000E+03 0.  1.
<mgrwt>
<rscale>  2 0.45772816E+03</rscale>
<asrwt>0</asrwt>
<pdfrwt beam="1">  1       21 0.44987925E-01 0.45772816E+03</pdfrwt>
<pdfrwt beam="2">  1       21 0.19953781E+00 0.45772816E+03</pdfrwt>
<totfact> 0.52640219E+02</totfact>
</mgrwt>
</event>
<event>
 4    1  0.4102458E+000  0.2432101E+03  0.7546771E-02  0.1117673E+00
         21   -1    0    0  503  502  0.00000000000E+00  0.00000000000E+00  0.60578165841E+02  0.60578165841E+02  0.00000000000E+00 0. -1.
         21   -1    0    0  501  503 -0.00000000000E+00 -0.00000000000E+00 -0.97706642991E+03  0.97706642991E+03  0.00000000000E+00 0. -1.
          6    1    1    2  501    0 -0.14462814750E+03  0.91130998037E+02 -0.44514460514E+03  0.50725228372E+03  0.17300000000E+03 0. -1.
         -6    1    1    2    0  502  0.14462814750E+03 -0.91130998037E+02 -0.47134365893E+03  0.53039231204E+03  0.17300000000E+03 0. -1.
<mgrwt>
<rscale>  2 0.24321011E+03</rscale>
<asrwt>0</asrwt>
<pdfrwt beam="1">  1       21 0.93197183E-02 0.24321011E+03</pdfrwt>
<pdfrwt beam="2">  1       21 0.15031790E+00 0.24321011E+03</pdfrwt>
<totfact> 0.26503670E+04</totfact>
</mgrwt>
</event>
<event>
 4    1  0.4102458E+000  0.1995895E+03  0.7546771E-02  0.1150086E+00
         21   -1    0    0  503  502  0.00000000000E+00  0.00000000000E+00  0.14847571106E+04  0.14847571106E+04  0.00000000000E+00 0.  1.
         21   -1    0    0  501  503 -0.00000000000E+00 -0.00000000000E+00 -0.28549960153E+02  0.28549960153E+02  0.00000000000E+00 0.  1.
          6    1    1    2  501    0 -0.99312246426E+02 -0.66378104523E+01  0.54238395122E+03  0.57794146188E+03  0.17300000000E+03 0.  1.
         -6    1    1    2    0  502  0.99312246426E+02  0.66378104523E+01  0.91382319924E+03  0.93536560889E+03  0.17300000000E+03 0.  1.
<mgrwt>
<rscale>  2 0.19958954E+03</rscale>
<asrwt>0</asrwt>
<pdfrwt beam="1">  1       21 0.22842411E+00 0.19958954E+03</pdfrwt>
<pdfrwt beam="2">  1       21 0.43923027E-02 0.19958954E+03</pdfrwt>
<totfact> 0.29772438E+04</totfact>
</mgrwt>
</event>
<event>
 4    1  0.4102458E+000  0.1885982E+03  0.7546771E-02  0.1159732E+00
         21   -1    0    0  501  502  0.00000000000E+00  0.00000000000E+00  0.27544103834E+02  0.27544103834E+02  0.00000000000E+00 0. -1.
         21   -1    0    0  502  503 -0.00000000000E+00 -0.00000000000E+00 -0.14555261045E+04  0.14555261045E+04  0.00000000000E+00 0.  1.
          6    1    1    2  501    0 -0.12805454177E+02 -0.74001991329E+02 -0.46495204698E+03  0.50174662965E+03  0.17300000000E+03 0. -1.
         -6    1    1    2    0  503  0.12805454177E+02  0.74001991329E+02 -0.96302995367E+03  0.98132357866E+03  0.17300000000E+03 0. -1.
<mgrwt>
<rscale>  2 0.18859818E+03</rscale>
<asrwt>0</asrwt>
<pdfrwt beam="1">  1       21 0.42375540E-02 0.18859818E+03</pdfrwt>
<pdfrwt beam="2">  1       21 0.22392712E+00 0.18859818E+03</pdfrwt>
<totfact> 0.33959889E+04</totfact>
</mgrwt>
</event>
<event>
 4    1  0.4102458E+000  0.2476516E+03  0.7546771E-02  0.1114798E+00
         21   -1    0    0  501  502  0.00000000000E+00  0.00000000000E+00  0.88431036828E+03  0.88431036828E+03  0.00000000000E+00 0.  1.
         21   -1    0    0  502  503 -0.00000000000E+00 -0.00000000000E+00 -0.13675330069E+03  0.13675330069E+03  0.00000000000E+00 0.  1.
          6    1    1    2  501    0 -0.14985198364E+03 -0.94587079191E+02  0.73218714883E+03  0.77293554289E+03  0.17300000000E+03 0.  1.
         -6    1    1    2    0  503  0.14985198364E+03  0.94587079191E+02  0.15369918764E+02  0.24812812608E+03  0.17300000000E+03 0.  1.
<mgrwt>
<rscale>  2 0.24765164E+03</rscale>
<asrwt>0</asrwt>
<pdfrwt beam="1">  1       21 0.13604775E+00 0.24765164E+03</pdfrwt>
<pdfrwt beam="2">  1       21 0.21038970E-01 0.24765164E+03</pdfrwt>
<totfact> 0.77822391E+03</totfact>
</mgrwt>
</event>
<event>
 4    1  0.4102458E+000  0.2053168E+03  0.7546771E-02  0.1145329E+00
         21   -1    0    0  503  502  0.00000000000E+00  0.00000000000E+00  0.17531679801E+03  0.17531679801E+03  0.00000000000E+00 0.  1.
         21   -1    0    0  501  503 -0.00000000000E+00 -0.00000000000E+00 -0.27259044500E+03  0.27259044500E+03  0.00000000000E+00 0.  1.
          6    1    1    2  501    0 -0.68819614390E+02 -0.86543928410E+02 -0.12553678889E+03  0.24065426702E+03  0.17300000000E+03 0.  1.
         -6    1    1    2    0  502  0.68819614390E+02  0.86543928410E+02  0.28263141901E+02  0.20725297600E+03  0.17300000000E+03 0.  1.
<mgrwt>
<rscale>  2 0.20531681E+03</rscale>
<asrwt>0</asrwt>
<pdfrwt beam="1">  1       21 0.26971815E-01 0.20531681E+03</pdfrwt>
<pdfrwt beam="2">  1       21 0.41936991E-01 0.20531681E+03</pdfrwt>
<totfact> 0.71269631E+04</totfact>
</mgrwt>
</event>
<event>
 4    1  0.4102458E+000  0.2122537E+03  0.7546771E-02  0.1139794E+00
         21   -1    0    0  503  502  0.00000000000E+00  0.00000000000E+00  0.65697024262E+02  0.65697024262E+02  0.00000000000E+00 0. -1.
         21   -1    0    0  501  503 -0.00000000000E+00 -0.00000000000E+00 -0.69928074490E+03  0.69928074490E+03  0.00000000000E+00 0. -1.
          6    1    1    2  501    0 -0.10531874732E+03  0.63487118557E+02 -0.26358424121E+03  0.33842030816E+03  0.17300000000E+03 0. -1.
         -6    1    1    2    0  502  0.10531874732E+03 -0.63487118557E+02 -0.36999947943E+03  0.42655746100E+03  0.17300000000E+03 0. -1.
<mgrwt>
<rscale>  2 0.21225375E+03</rscale>
<asrwt>0</asrwt>
<pdfrwt beam="1">  1       21 0.10107235E-01 0.21225375E+03</pdfrwt>
<pdfrwt beam="2">  1       21 0.10758165E+00 0.21225375E+03</pdfrwt>
<totfact> 0.54337236E+04</totfact>
</mgrwt>
</event>
<event>
 4    1  0.4102458E+000  0.1954536E+03  0.7546771E-02  0.1153632E+00
         21   -1    0    0  503  502  0.00000000000E+00  0.00000000000E+00  0.32502382283E+02  0.32502382283E+02  0.00000000000E+00 0. -1.
         21   -1    0    0  501  503 -0.00000000000E+00 -0.00000000000E+00 -0.26081003833E+04  0.26081003833E+04  0.00000000000E+00 0. -1.
          6    1    1    2  501    0  0.68774217127E+02 -0.59525073632E+02 -0.22663739276E+04  0.22747863431E+04  0.17300000000E+03 0. -1.
         -6    1    1    2    0  502 -0.68774217127E+02  0.59525073632E+02 -0.30922407343E+03  0.36581642243E+03  0.17300000000E+03 0. -1.
<mgrwt>
<rscale>  2 0.19545364E+03</rscale>
<asrwt>0</asrwt>
<pdfrwt beam="1">  1       21 0.50003656E-02 0.19545364E+03</pdfrwt>
<pdfrwt beam="2">  1       21 0.40124629E+00 0.19545364E+03</pdfrwt>
<totfact> 0.22923097E+03</totfact>
</mgrwt>
</event>
<event>
 4    1  0.4102458E+000  0.1990119E+03  0.7546771E-02  0.1150575E+00
         21   -1    0    0  501  502  0.00000000000E+00  0.00000000000E+00  0.18050465005E+03  0.18050465005E+03  0.00000000000E+00 0. -1.
         21   -1    0    0  502  503 -0.00000000000E+00 -0.00000000000E+00 -0.46556820511E+03  0.46556820511E+03  0.00000000000E+00 0. -1.
          6    1    1    2  501    0 -0.26233330368E+02  0.94808027706E+02  0.92356323114E+02  0.21939790372E+03  0.17300000000E+03 0. -1.
         -6    1    1    2    0  503  0.26233330368E+02 -0.94808027706E+02 -0.37741987818E+03  0.42667495143E+03  0.17300000000E+03 0. -1.
<mgrwt>
<rscale>  2 0.19901193E+03</rscale>
<asrwt>0</asrwt>
<pdfrwt beam="1">  1       21 0.27769947E-01 0.19901193E+03</pdfrwt>
<pdfrwt beam="2">  1       21 0.71625875E-01 0.19901193E+03</pdfrwt>
<totfact> 0.21720678E+04</totfact>
</mgrwt>
</event>
<event>
 4    1  0.4102458E+000  0.2243197E+03  0.7546771E-02  0.1130703E+00
         21   -1    0    0  503  502  0.00000000000E+00  0.00000000000E+00  0.80990347908E+03  0.80990347908E+03  0.00000000000E+00 0. -1.
         21   -1    0    0  501  503 -0.00000000000E+00 -0.00000000000E+00 -0.14938448900E+03  0.14938448900E+03  0.00000000000E+00 0. -1.
          6    1    1    2  501    0  0.97153754554E+02 -0.10464936857E+03 -0.36313120261E+02  0.22723992842E+03  0.17300000000E+03 0. -1.
         -6    1    1    2    0  502 -0.97153754554E+02  0.10464936857E+03  0.69683211034E+03  0.73204803966E+03  0.17300000000E+03 0. -1.
<mgrwt>
<rscale>  2 0.22431973E+03</rscale>
<asrwt>0</asrwt>
<pdfrwt beam="1">  1       21 0.12460053E+00 0.22431973E+03</pdfrwt>
<pdfrwt beam="2">  1       21 0.22982230E-01 0.22431973E+03</pdfrwt>
<totfact> 0.83552608E+03</totfact>
</mgrwt>
</event>
<event>
 4    1  0.4102458E+000  0.2548176E+03  0.7546771E-02  0.1110298E+00
         21   -1    0    0  501  502  0.00000000000E+00  0.00000000000E+00  0.98276832786E+03  0.98276832786E+03  0.00000000000E+00 0. -1.
         21   -1    0    0  502  503 -0.00000000000E+00 -0.00000000000E+00 -0.67225039380E+02  0.67225039380E+02  0.00000000000E+00 0.  1.
          6    1    1    2  501    0  0.18100222954E+03  0.47341179299E+02  0.52657276119E+03  0.58498792054E+03  0.17300000000E+03 0. -1.
         -6    1    1    2    0  503 -0.18100222954E+03 -0.47341179299E+02  0.38897052729E+03  0.46500544670E+03  0.17300000000E+03 0.  1.
<mgrwt>
<rscale>  2 0.25481757E+03</rscale>
<asrwt>0</asrwt>
<pdfrwt beam="1">  1       21 0.15119512E+00 0.25481757E+03</pdfrwt>
<pdfrwt beam="2">  1       21 0.10342314E-01 0.25481757E+03</pdfrwt>
<totfact> 0.21562126E+04</totfact>
</mgrwt>
</event>
<event>
 4    1  0.4102458E+000  0.1839946E+03  0.7546771E-02  0.1163992E+00
         21   -1    0    0  503  502  0.00000000000E+00  0.00000000000E+00  0.40113003658E+02  0.40113003658E+02  0.00000000000E+00 0.  1.
         21   -1    0    0  501  503 -0.00000000000E+00 -0.00000000000E+00 -0.13891293271E+04  0.13891293271E+04  0.00000000000E+00 0.  1.
          6    1    1    2  501    0 -0.32012893625E+02 -0.53853361324E+02 -0.11221883391E+04  0.11371722290E+04  0.17300000000E+03 0.  1.
         -6    1    1    2    0  502  0.32012893625E+02  0.53853361324E+02 -0.22682798431E+03  0.29207010177E+03  0.17300000000E+03 0.  1.
<mgrwt>
<rscale>  2 0.18399459E+03</rscale>
<asrwt>0</asrwt>
<pdfrwt beam="1">  1       21 0.61712306E-02 0.18399459E+03</pdfrwt>
<pdfrwt beam="2">  1       21 0.21371223E+00 0.18399459E+03</pdfrwt>
<totfact> 0.20813085E+04</totfact>
</mgrwt>
</event>
<event>
 4    1  0.4102458E+000  0.2417915E+03  0.7546771E-02  0.1118605E+00
         21   -1    0    0  503  502  0.00000000000E+00  0.00000000000E+00  0.74737246612E+03  0.74737246612E+03  0.00000000000E+00 0. -1.
         21   -1    0    0  501  503 -0.00000000000E+00 -0.00000000000E+00 -0.17585876573E+03  0.17585876573E+03  0.00000000000E+00 0.  1.
          6    1    1    2  501    0 -0.10819913469E+03  0.12971913999E+03 -0.58195917790E+02  0.24869634673E+03  0.17300000000E+03 0.  1.
         -6    1    1    2    0  502  0.10819913469E+03 -0.12971913999E+03  0.62970961818E+03  0.67453488513E+03  0.17300000000E+03 0. -1.
<mgrwt>
<rscale>  2 0.24179146E+03</rscale>
<asrwt>0</asrwt>
<pdfrwt beam="1">  1       21 0.11498038E+00 0.24179146E+03</pdfrwt>
<pdfrwt beam="2">  1       21 0.27055195E-01 0.24179146E+03</pdfrwt>
<totfact> 0.73790941E+03</totfact>
</mgrwt>
</event>
<event>
 4    1  0.4102458E+000  0.1912930E+03  0.7546771E-02  0.1157300E+00
         21   -1    0    0  501  502  0.00000000000E+00  0.00000000000E+00  0.68862899972E+03  0.68862899972E+03  0.00000000000E+00 0.  1.
         21   -1    0    0  502  503 -0.00000000000E+00 -0.00000000000E+00 -0.14156433738E+03  0.14156433738E+03  0.00000000000E+00 0.  1.
          6    1    1    2  501    0  0.51430409505E+02  0.63394982199E+02  0.60159804384E+03  0.63127903271E+03  0.17300000000E+03 0.  1.
         -6    1    1    2    0  503 -0.51430409505E+02 -0.63394982199E+02 -0.54533381505E+02  0.19891430438E+03  0.17300000000E+03 0.  1.
<mgrwt>
<rscale>  2 0.19129300E+03</rscale>
<asrwt>0</asrwt>
<pdfrwt beam="1">  1       21 0.10594292E+00 0.19129300E+03</pdfrwt>
<pdfrwt beam="2">  1       21 0.21779129E-01 0.19129300E+03</pdfrwt>
<totfact> 0.14081494E+04</totfact>
</mgrwt>
</event>
<event>
 4    1  0.4102458E+000  0.2129832E+03  0.7546771E-02  0.1139225E+00
         21   -1    0    0  501  502  0.00000000000E+00  0.00000000000E+00  0.31920904881E+04  0.31920904881E+04  0.00000000000E+00 0.  1.
         21   -1    0    0  502  503 -0.00000000000E+00 -0.00000000000E+00 -0.14293615223E+02  0.14293615223E+02  0.00000000000E+00 0. -1.
          6    1    1    2  501    0 -0.27346667419E+02  0.12118177597E+03  0.17109976822E+04  0.17242026945E+04  0.17300000000E+03 0.  1.
         -6    1    1    2    0  503  0.27346667419E+02 -0.12118177597E+03  0.14667991907E+04  0.14821814089E+04  0.17300000000E+03 0. -1.
<mgrwt>
<rscale>  2 0.21298325E+03</rscale>
<asrwt>0</asrwt>
<pdfrwt beam="1">  1       21 0.49109028E+00 0.21298325E+03</pdfrwt>
<pdfrwt beam="2">  1       21 0.21990203E-02 0.21298325E+03</pdfrwt>
<totfact> 0.22390456E+03</totfact>
</mgrwt>
</event>
<event>
 4    1  0.4102458E+000  0.2246319E+03  0.7546771E-02  0.1130476E+00
         21   -1    0    0  503  502  0.00000000000E+00  0.00000000000E+00  0.25104740830E+03  0.25104740830E+03  0.00000000000E+00 0. -1.
         21   -1    0    0  501  503 -0.00000000000E+00 -0.00000000000E+00 -0.20877758596E+03  0.20877758596E+03  0.00000000000E+00 0. -1.
          6    1    1    2  501    0  0.34373061206E+02  0.13910056538E+03 -0.23252548222E+02  0.22583214037E+03  0.17300000000E+03 0. -1.
         -6    1    1    2    0  502 -0.34373061206E+02 -0.13910056538E+03  0.65522370562E+02  0.23399285389E+03  0.17300000000E+03 0. -1.
<mgrwt>
<rscale>  2 0.22463186E+03</rscale>
<asrwt>0</asrwt>
<pdfrwt beam="1">  1       21 0.38622678E-01 0.22463186E+03</pdfrwt>
<pdfrwt beam="2">  1       21 0.32119629E-01 0.22463186E+03</pdfrwt>
<totfact> 0.59412201E+04</totfact>
</mgrwt>
</event>
<event>
 4    1  0.4102458E+000  0.1853290E+03  0.7546771E-02  0.1162743E+00
         21   -1    0    0  501  502  0.00000000000E+00  0.00000000000E+00  0.13258092452E+03  0.13258092452E+03  0.00000000000E+00 0.  1.
         21   -1    0    0  502  503 -0.00000000000E+00 -0.00000000000E+00 -0.64952956818E+03  0.64952956818E+03  0.00000000000E+00 0.  1.
          6    1    1    2  501    0  0.58029392281E+02  0.32410502114E+02  0.44726530606E+02  0.19064971428E+03  0.17300000000E+03 0.  1.
         -6    1    1    2    0  503 -0.58029392281E+02 -0.32410502114E+02 -0.56167517427E+03  0.59146077842E+03  0.17300000000E+03 0.  1.
<mgrwt>
<rscale>  2 0.18532903E+03</rscale>
<asrwt>0</asrwt>
<pdfrwt beam="1">  1       21 0.20397066E-01 0.18532903E+03</pdfrwt>
<pdfrwt beam="2">  1       21 0.99927624E-01 0.18532903E+03</pdfrwt>
<totfact> 0.18382015E+04</totfact>
</mgrwt>
</event>
<event>
 4    1  0.4102458E+000  0.1842187E+03  0.7546771E-02  0.1163781E+00
         21   -1    0    0  503  502  0.00000000000E+00  0.00000000000E+00  0.86604360183E+03  0.86604360183E+03  0.00000000000E+00 0.  1.
         21   -1    0    0  501  503 -0.00000000000E+00 -0.00000000000E+00 -0.54307136832E+02  0.54307136832E+02  0.00000000000E+00 0.  1.
          6    1    1    2  501    0  0.10607985690E+02  0.62410004404E+02  0.16304444633E+03  0.24600818988E+03  0.17300000000E+03 0.  1.
         -6    1    1    2    0  502 -0.10607985690E+02 -0.62410004404E+02  0.64869201867E+03  0.67434254878E+03  0.17300000000E+03 0.  1.
<mgrwt>
<rscale>  2 0.18421872E+03</rscale>
<asrwt>0</asrwt>
<pdfrwt beam="1">  1       21 0.13323747E+00 0.18421872E+03</pdfrwt>
<pdfrwt beam="2">  1       21 0.83549448E-02 0.18421872E+03</pdfrwt>
<totfact> 0.45397824E+04</totfact>
</mgrwt>
</event>
<event>
 4    1  0.4102458E+000  0.1777511E+03  0.7546771E-02  0.1169997E+00
         21   -1    0    0  501  502  0.00000000000E+00  0.00000000000E+00  0.14036934194E+03  0.14036934194E+03  0.00000000000E+00 0. -1.
         21   -1    0    0  502  503 -0.00000000000E+00 -0.00000000000E+00 -0.28207579800E+03  0.28207579800E+03  0.00000000000E+00 0. -1.
          6    1    1    2  501    0 -0.15650468817E+02  0.37703076820E+02  0.24086551581E+02  0.17937564256E+03  0.17300000000E+03 0. -1.
         -6    1    1    2    0  503  0.15650468817E+02 -0.37703076820E+02 -0.16579300764E+03  0.24306949739E+03  0.17300000000E+03 0. -1.
<mgrwt>
<rscale>  2 0.17775112E+03</rscale>
<asrwt>0</asrwt>
<pdfrwt beam="1">  1       21 0.21595283E-01 0.17775112E+03</pdfrwt>
<pdfrwt beam="2">  1       21 0.43396277E-01 0.17775112E+03</pdfrwt>
<totfact> 0.10260735E+05</totfact>
</mgrwt>
</event>
<event>
 4    1  0.4102458E+000  0.1886062E+03  0.7546771E-02  0.1159724E+00
         21   -1    0    0  503  502  0.00000000000E+00  0.00000000000E+00  0.16888482809E+04  0.16888482809E+04  0.00000000000E+00 0.  1.
         21   -1    0    0  501  503 -0.00000000000E+00 -0.00000000000E+00 -0.29876737529E+02  0.29876737529E+02  0.00000000000E+00 0.  1.
          6    1    1    2  501    0 -0.63632714398E+00  0.75119205122E+02  0.36273119825E+03  0.40883520161E+03  0.17300000000E+03 0.  1.
         -6    1    1    2    0  502  0.63632714398E+00 -0.75119205122E+02  0.12962403451E+04  0.13098898168E+04  0.17300000000E+03 0.  1.
<mgrwt>
<rscale>  2 0.18860620E+03</rscale>
<asrwt>0</asrwt>
<pdfrwt beam="1">  1       21 0.25982274E+00 0.18860620E+03</pdfrwt>
<pdfrwt beam="2">  1       21 0.45964225E-02 0.18860620E+03</pdfrwt>
<totfact> 0.18132509E+04</totfact>
</mgrwt>
</event>
<event>
 4    1  0.4102458E+000  0.2169923E+03  0.7546771E-02  0.1136145E+00
         21   -1    0    0  501  502  0.00000000000E+00  0.00000000000E+00  0.34561095886E+03  0.34561095886E+03  0.00000000000E+00 0. -1.
         21   -1    0    0  502  503 -0.00000000000E+00 -0.00000000000E+00 -0.13698378849E+03  0.13698378849E+03  0.00000000000E+00 0. -1.
          6    1    1    2  501    0  0.45044440789E+02  0.12299459009E+03  0.12210669468E+03  0.24898938878E+03  0.17300000000E+03 0. -1.
         -6    1    1    2    0  503 -0.45044440789E+02 -0.12299459009E+03  0.86520475683E+02  0.23360535857E+03  0.17300000000E+03 0. -1.
<mgrwt>
<rscale>  2 0.21699233E+03</rscale>
<asrwt>0</asrwt>
<pdfrwt beam="1">  1       21 0.53170916E-01 0.21699233E+03</pdfrwt>
<pdfrwt beam="2">  1       21 0.21074429E-01 0.21699233E+03</pdfrwt>
<totfact> 0.69362168E+04</totfact>
</mgrwt>
</event>
<event>
 4    1  0.4102458E+000  0.1913847E+03  0.7546771E-02  0.1157218E+00
         21   -1    0    0  501  502  0.00000000000E+00  0.00000000000E+00  0.74765952479E+03  0.74765952479E+03  0.00000000000E+00 0.  1.
         21   -1    0    0  502  503 -0.00000000000E+00 -0.00000000000E+00 -0.49082856130E+02  0.49082856130E+02  0.00000000000E+00 0.  1.
          6    1    1    2  501    0  0.78390371930E+02 -0.23537940720E+02  0.36658493676E+03  0.41353669840E+03  0.17300000000E+03 0.  1.
         -6    1    1    2    0  503 -0.78390371930E+02  0.23537940720E+02  0.33199173190E+03  0.38320568252E+03  0.17300000000E+03 0.  1.
<mgrwt>
<rscale>  2 0.19138465E+03</rscale>
<asrwt>0</asrwt>
<pdfrwt beam="1">  1       21 0.11502453E+00 0.19138465E+03</pdfrwt>
<pdfrwt beam="2">  1       21 0.75512092E-02 0.19138465E+03</pdfrwt>
<totfact> 0.77784243E+04</totfact>
</mgrwt>
</event>
<event>
 4    1  0.4102458E+000  0.1839629E+03  0.7546771E-02  0.1164022E+00
         21   -1    0    0  501  502  0.00000000000E+00  0.00000000000E+00  0.26177800963E+03  0.26177800963E+03  0.00000000000E+00 0. -1.
         21   -1    0    0  502  503 -0.00000000000E+00 -0.00000000000E+00 -0.24612499327E+03  0.24612499327E+03  0.00000000000E+00 0. -1.
          6    1    1    2  501    0  0.21376134835E+02  0.58791136224E+02  0.18280323253E+03  0.25934409317E+03  0.17300000000E+03 0. -1.
         -6    1    1    2    0  503 -0.21376134835E+02 -0.58791136224E+02 -0.16715021617E+03  0.24855890973E+03  0.17300000000E+03 0. -1.
<mgrwt>
<rscale>  2 0.18396287E+03</rscale>
<asrwt>0</asrwt>
<pdfrwt beam="1">  1       21 0.40273540E-01 0.18396287E+03</pdfrwt>
<pdfrwt beam="2">  1       21 0.37865383E-01 0.18396287E+03</pdfrwt>
<totfact> 0.40134440E+04</totfact>
</mgrwt>
</event>
<event>
 4    1  0.4102458E+000  0.2648428E+03  0.7546771E-02  0.1104268E+00
         21   -1    0    0  501  502  0.00000000000E+00  0.00000000000E+00  0.24515499512E+03  0.24515499512E+03  0.00000000000E+00 0. -1.
         21   -1    0    0  502  503 -0.00000000000E+00 -0.00000000000E+00 -0.28679655588E+03  0.28679655588E+03  0.00000000000E+00 0.  1.
          6    1    1    2  501    0  0.15561523034E+03  0.12647760785E+03 -0.33819180713E+02  0.26699329989E+03  0.17300000000E+03 0. -1.
         -6    1    1    2    0  503 -0.15561523034E+03 -0.12647760785E+03 -0.78223800465E+01  0.26495825111E+03  0.17300000000E+03 0.  1.
<mgrwt>
<rscale>  2 0.26484276E+03</rscale>
<asrwt>0</asrwt>
<pdfrwt beam="1">  1       21 0.37716153E-01 0.26484276E+03</pdfrwt>
<pdfrwt beam="2">  1       21 0.44122547E-01 0.26484276E+03</pdfrwt>
<totfact> 0.32319299E+04</totfact>
</mgrwt>
</event>
<event>
 4    1  0.4102458E+000  0.1984813E+03  0.7546771E-02  0.1151027E+00
         21   -1    0    0  503  502  0.00000000000E+00  0.00000000000E+00  0.35890767627E+03  0.35890767627E+03  0.00000000000E+00 0.  1.
         21   -1    0    0  501  503 -0.00000000000E+00 -0.00000000000E+00 -0.12186137361E+03  0.12186137361E+03  0.00000000000E+00 0.  1.
          6    1    1    2  501    0  0.96733944309E+02 -0.10410856192E+02  0.42781628118E+02  0.20303967497E+03  0.17300000000E+03 0.  1.
         -6    1    1    2    0  502 -0.96733944309E+02  0.10410856192E+02  0.19426467454E+03  0.27772937490E+03  0.17300000000E+03 0.  1.
<mgrwt>
<rscale>  2 0.19848134E+03</rscale>
<asrwt>0</asrwt>
<pdfrwt beam="1">  1       21 0.55216565E-01 0.19848134E+03</pdfrwt>
<pdfrwt beam="2">  1       21 0.18747904E-01 0.19848134E+03</pdfrwt>
<totfact> 0.80337677E+04</totfact>
</mgrwt>
</event>
<event>
 4    1  0.4102458E+000  0.1913438E+03  0.7546771E-02  0.1157255E+00
         21   -1    0    0  501  502  0.00000000000E+00  0.00000000000E+00  0.11310950816E+03  0.11310950816E+03  0.00000000000E+00 0.  1.
         21   -1    0    0  502  503 -0.00000000000E+00 -0.00000000000E+00 -0.55928001113E+03  0.55928001113E+03  0.00000000000E+00 0.  1.
          6    1    1    2  501    0 -0.65451118218E+02 -0.48985666158E+02 -0.48853743646E+01  0.19140614214E+03  0.17300000000E+03 0.  1.
         -6    1    1    2    0  503  0.65451118218E+02  0.48985666158E+02 -0.44128512861E+03  0.48098337716E+03  0.17300000000E+03 0.  1.
<mgrwt>
<rscale>  2 0.19134379E+03</rscale>
<asrwt>0</asrwt>
<pdfrwt beam="1">  1       21 0.17401463E-01 0.19134379E+03</pdfrwt>
<pdfrwt beam="2">  1       21 0.86043080E-01 0.19134379E+03</pdfrwt>
<totfact> 0.34848202E+04</totfact>
</mgrwt>
</event>
<event>
 4    1  0.4102458E+000  0.2094351E+03  0.7546771E-02  0.1142014E+00
         21   -1    0    0  503  502  0.00000000000E+00  0.00000000000E+00  0.32487508045E+03  0.32487508045E+03  0.00000000000E+00 0. -1.
         21   -1    0    0  501  503 -0.00000000000E+00 -0.00000000000E+00 -0.14366834828E+03  0.14366834828E+03  0.00000000000E+00 0.  1.
          6    1    1    2  501    0  0.95304799218E+02 -0.69649572393E+02  0.33108791645E+02  0.21203598698E+03  0.17300000000E+03 0. -1.
         -6    1    1    2    0  502 -0.95304799218E+02  0.69649572393E+02  0.14809794053E+03  0.25650744176E+03  0.17300000000E+03 0. -1.
<mgrwt>
<rscale>  2 0.20943512E+03</rscale>
<asrwt>0</asrwt>
<pdfrwt beam="1">  1       21 0.49980781E-01 0.20943512E+03</pdfrwt>
<pdfrwt beam="2">  1       21 0.22102823E-01 0.20943512E+03</pdfrwt>
<totfact> 0.72430372E+04</totfact>
</mgrwt>
</event>
<event>
 4    1  0.4102458E+000  0.2364808E+03  0.7546771E-02  0.1122160E+00
         21   -1    0    0  501  502  0.00000000000E+00  0.00000000000E+00  0.26564219555E+03  0.26564219555E+03  0.00000000000E+00 0. -1.
         21   -1    0    0  502  503 -0.00000000000E+00 -0.00000000000E+00 -0.24902397707E+03  0.24902397707E+03  0.00000000000E+00 0.  1.
          6    1    1    2  501    0  0.13267231865E+03  0.91609079876E+02  0.10949598247E+03  0.26060034119E+03  0.17300000000E+03 0. -1.
         -6    1    1    2    0  503 -0.13267231865E+03 -0.91609079876E+02 -0.92877763989E+02  0.25406583142E+03  0.17300000000E+03 0.  1.
<mgrwt>
<rscale>  2 0.23648080E+03</rscale>
<asrwt>0</asrwt>
<pdfrwt beam="1">  1       21 0.40868030E-01 0.23648080E+03</pdfrwt>
<pdfrwt beam="2">  1       21 0.38311381E-01 0.23648080E+03</pdfrwt>
<totfact> 0.37086699E+04</totfact>
</mgrwt>
</event>
<event>
 4    1  0.4102458E+000  0.2042690E+03  0.7546771E-02  0.1146186E+00
         21   -1    0    0  501  502  0.00000000000E+00  0.00000000000E+00  0.42999562172E+03  0.42999562172E+03  0.00000000000E+00 0.  1.
         21   -1    0    0  502  503 -0.00000000000E+00 -0.00000000000E+00 -0.10732837899E+03  0.10732837899E+03  0.00000000000E+00 0. -1.
          6    1    1    2  501    0 -0.17009101558E+02 -0.10727299227E+03  0.24452342095E+03  0.31861812221E+03  0.17300000000E+03 0.  1.
         -6    1    1    2    0  503  0.17009101558E+02  0.10727299227E+03  0.78143821790E+02  0.21870587850E+03  0.17300000000E+03 0. -1.
<mgrwt>
<rscale>  2 0.20426895E+03</rscale>
<asrwt>0</asrwt>
<pdfrwt beam="1">  1       21 0.66153172E-01 0.20426895E+03</pdfrwt>
<pdfrwt beam="2">  1       21 0.16512059E-01 0.20426895E+03</pdfrwt>
<totfact> 0.68669600E+04</totfact>
</mgrwt>
</event>
<event>
 4    1  0.4102458E+000  0.2806052E+03  0.7546771E-02  0.1095359E+00
         21   -1    0    0  501  502  0.00000000000E+00  0.00000000000E+00  0.15436707774E+04  0.15436707774E+04  0.00000000000E+00 0. -1.
         21   -1    0    0  502  503 -0.00000000000E+00 -0.00000000000E+00 -0.58094736361E+02  0.58094736361E+02  0.00000000000E+00 0. -1.
          6    1    1    2  501    0 -0.37946948392E+02 -0.21764718157E+03  0.10225118688E+04  0.10603158909E+04  0.17300000000E+03 0. -1.
         -6    1    1    2    0  503  0.37946948392E+02  0.21764718157E+03  0.46306417218E+03  0.54144962286E+03  0.17300000000E+03 0. -1.
<mgrwt>
<rscale>  2 0.28060518E+03</rscale>
<asrwt>0</asrwt>
<pdfrwt beam="1">  1       21 0.23748778E+00 0.28060518E+03</pdfrwt>
<pdfrwt beam="2">  1       21 0.89376529E-02 0.28060518E+03</pdfrwt>
<totfact> 0.72636710E+03</totfact>
</mgrwt>
</event>
<event>
 4    1  0.4102458E+000  0.1780752E+03  0.7546771E-02  0.1169679E+00
         21   -1    0    0  501  502  0.00000000000E+00  0.00000000000E+00  0.10371820956E+03  0.10371820956E+03  0.00000000000E+00 0. -1.
         21   -1    0    0  502  503 -0.00000000000E+00 -0.00000000000E+00 -0.48161308692E+03  0.48161308692E+03  0.00000000000E+00 0. -1.
          6    1    1    2  501    0  0.26603011671E+02  0.32772701485E+02 -0.12090247893E+02  0.17848513744E+03  0.17300000000E+03 0. -1.
         -6    1    1    2    0  503 -0.26603011671E+02 -0.32772701485E+02 -0.36580462947E+03  0.40684615905E+03  0.17300000000E+03 0. -1.
<mgrwt>
<rscale>  2 0.17807518E+03</rscale>
<asrwt>0</asrwt>
<pdfrwt beam="1">  1       21 0.15956647E-01 0.17807518E+03</pdfrwt>
<pdfrwt beam="2">  1       21 0.74094322E-01 0.17807518E+03</pdfrwt>
<totfact> 0.57632171E+04</totfact>
</mgrwt>
</event>
<event>
 4    1  0.4102458E+000  0.2694797E+03  0.7546771E-02  0.1101578E+00
         21   -1    0    0  503  502  0.00000000000E+00  0.00000000000E+00  0.69248301616E+03  0.69248301616E+03  0.00000000000E+00 0.  1.
         21   -1    0    0  501  503 -0.00000000000E+00 -0.00000000000E+00 -0.10487041479E+03  0.10487041479E+03  0.00000000000E+00 0. -1.
          6    1    1    2  501    0  0.36296192327E+02 -0.20340322142E+03  0.29187903792E+03  0.39725641196E+03  0.17300000000E+03 0. -1.
         -6    1    1    2    0  502 -0.36296192327E+02  0.20340322142E+03  0.29573356345E+03  0.40009701900E+03  0.17300000000E+03 0.  1.
<mgrwt>
<rscale>  2 0.26947965E+03</rscale>
<asrwt>0</asrwt>
<pdfrwt beam="1">  1       21 0.10653585E+00 0.26947965E+03</pdfrwt>
<pdfrwt beam="2">  1       21 0.16133910E-01 0.26947965E+03</pdfrwt>
<totfact> 0.23260280E+04</totfact>
</mgrwt>
</event>
<event>
 4    1  0.4102458E+000  0.3250897E+03  0.7546771E-02  0.1073330E+00
         21   -1    0    0  503  502  0.00000000000E+00  0.00000000000E+00  0.87765981456E+02  0.87765981456E+02  0.00000000000E+00 0. -1.
         21   -1    0    0  501  503 -0.00000000000E+00 -0.00000000000E+00 -0.12042297308E+04  0.12042297308E+04  0.00000000000E+00 0.  1.
          6    1    1    2  501    0 -0.11924771113E+03 -0.24806108415E+03 -0.56352141959E+03  0.65056875764E+03  0.17300000000E+03 0. -1.
         -6    1    1    2    0  502  0.11924771113E+03  0.24806108415E+03 -0.55294232979E+03  0.64142695465E+03  0.17300000000E+03 0.  1.
<mgrwt>
<rscale>  2 0.32508971E+03</rscale>
<asrwt>0</asrwt>
<pdfrwt beam="1">  1       21 0.13502459E-01 0.32508971E+03</pdfrwt>
<pdfrwt beam="2">  1       21 0.18526611E+00 0.32508971E+03</pdfrwt>
<totfact> 0.72940010E+03</totfact>
</mgrwt>
</event>
<event>
 4    1  0.4102458E+000  0.1732817E+03  0.7546771E-02  0.1174468E+00
         21   -1    0    0  503  502  0.00000000000E+00  0.00000000000E+00  0.57368792126E+03  0.57368792126E+03  0.00000000000E+00 0. -1.
         21   -1    0    0  501  503 -0.00000000000E+00 -0.00000000000E+00 -0.60000905469E+02  0.60000905469E+02  0.00000000000E+00 0. -1.
          6    1    1    2  501    0  0.44119132821E+01  0.88365148336E+01  0.14362409968E+03  0.22506539268E+03  0.17300000000E+03 0. -1.
         -6    1    1    2    0  502 -0.44119132821E+01 -0.88365148336E+01  0.37006291611E+03  0.40862343405E+03  0.17300000000E+03 0. -1.
<mgrwt>
<rscale>  2 0.17328170E+03</rscale>
<asrwt>0</asrwt>
<pdfrwt beam="1">  1       21 0.88259676E-01 0.17328170E+03</pdfrwt>
<pdfrwt beam="2">  1       21 0.92309089E-02 0.17328170E+03</pdfrwt>
<totfact> 0.10348921E+05</totfact>
</mgrwt>
</event>
<event>
 4    1  0.4102458E+000  0.1845045E+03  0.7546771E-02  0.1163513E+00
         21   -1    0    0  501  502  0.00000000000E+00  0.00000000000E+00  0.39056568420E+03  0.39056568420E+03  0.00000000000E+00 0. -1.
         21   -1    0    0  502  503 -0.00000000000E+00 -0.00000000000E+00 -0.10971404866E+03  0.10971404866E+03  0.00000000000E+00 0.  1.
          6    1    1    2  501    0 -0.10866435061E+02  0.63204700589E+02  0.25383779139E+03  0.31380812278E+03  0.17300000000E+03 0.  1.
         -6    1    1    2    0  503  0.10866435061E+02 -0.63204700589E+02  0.27013844150E+02  0.18647161007E+03  0.17300000000E+03 0.  1.
<mgrwt>
<rscale>  2 0.18450451E+03</rscale>
<asrwt>0</asrwt>
<pdfrwt beam="1">  1       21 0.60087028E-01 0.18450451E+03</pdfrwt>
<pdfrwt beam="2">  1       21 0.16879085E-01 0.18450451E+03</pdfrwt>
<totfact> 0.81922574E+04</totfact>
</mgrwt>
</event>
<event>
 4    1  0.4102458E+000  0.2617125E+03  0.7546771E-02  0.1106119E+00
         21   -1    0    0  501  502  0.00000000000E+00  0.00000000000E+00  0.25026203340E+03  0.25026203340E+03  0.00000000000E+00 0. -1.
         21   -1    0    0  502  503 -0.00000000000E+00 -0.00000000000E+00 -0.51425996827E+03  0.51425996827E+03  0.00000000000E+00 0.  1.
          6    1    1    2  501    0 -0.63601933309E+02  0.18579348373E+03  0.12945316783E+03  0.29197867590E+03  0.17300000000E+03 0. -1.
         -6    1    1    2    0  503  0.63601933309E+02 -0.18579348373E+03 -0.39345110270E+03  0.47254332577E+03  0.17300000000E+03 0.  1.
<mgrwt>
<rscale>  2 0.26171248E+03</rscale>
<asrwt>0</asrwt>
<pdfrwt beam="1">  1       21 0.38501852E-01 0.26171248E+03</pdfrwt>
<pdfrwt beam="2">  1       21 0.79116917E-01 0.26171248E+03</pdfrwt>
<totfact> 0.87859524E+03</totfact>
</mgrwt>
</event>
<event>
 4    1  0.4102458E+000  0.2299946E+03  0.7546771E-02  0.1126644E+00
         21   -1    0    0  503  502  0.00000000000E+00  0.00000000000E+00  0.57587705908E+03  0.57587705908E+03  0.00000000000E+00 0.  1.
         21   -1    0    0  501  503 -0.00000000000E+00 -0.00000000000E+00 -0.12359442052E+03  0.12359442052E+03  0.00000000000E+00 0.  1.
          6    1    1    2  501    0 -0.12502404640E+03  0.85659298688E+02  0.48911809705E+02  0.23513802916E+03  0.17300000000E+03 0.  1.
         -6    1    1    2    0  502  0.12502404640E+03 -0.85659298688E+02  0.40337082885E+03  0.46433345044E+03  0.17300000000E+03 0.  1.
<mgrwt>
<rscale>  2 0.22999463E+03</rscale>
<asrwt>0</asrwt>
<pdfrwt beam="1">  1       21 0.88596469E-01 0.22999463E+03</pdfrwt>
<pdfrwt beam="2">  1       21 0.19014527E-01 0.22999463E+03</pdfrwt>
<totfact> 0.27070331E+04</totfact>
</mgrwt>
</event>
<event>
 4    1  0.4102458E+000  0.2487759E+03  0.7546771E-02  0.1114081E+00
         21   -1    0    0  501  502  0.00000000000E+00  0.00000000000E+00  0.50649157021E+03  0.50649157021E+03  0.00000000000E+00 0.  1.
         21   -1    0    0  502  503 -0.00000000000E+00 -0.00000000000E+00 -0.12944455446E+03  0.12944455446E+03  0.00000000000E+00 0. -1.
          6    1    1    2  501    0  0.15862072348E+03 -0.82461647476E+02  0.26378502389E+03  0.36259067287E+03  0.17300000000E+03 0. -1.
         -6    1    1    2    0  503 -0.15862072348E+03  0.82461647476E+02  0.11326199186E+03  0.27334545180E+03  0.17300000000E+03 0.  1.
<mgrwt>
<rscale>  2 0.24877592E+03</rscale>
<asrwt>0</asrwt>
<pdfrwt beam="1">  1       21 0.77921779E-01 0.24877592E+03</pdfrwt>
<pdfrwt beam="2">  1       21 0.19914547E-01 0.24877592E+03</pdfrwt>
<totfact> 0.33020184E+04</totfact>
</mgrwt>
</event>
<event>
 4    1  0.4102458E+000  0.2054549E+03  0.7546771E-02  0.1145217E+00
         21   -1    0    0  501  502  0.00000000000E+00  0.00000000000E+00  0.43936552822E+03  0.43936552822E+03  0.00000000000E+00 0. -1.
         21   -1    0    0  502  503 -0.00000000000E+00 -0.00000000000E+00 -0.18176688095E+03  0.18176688095E+03  0.00000000000E+00 0. -1.
          6    1    1    2  501    0  0.10531973851E+03  0.34503028607E+02  0.34203928621E+03  0.39900197946E+03  0.17300000000E+03 0. -1.
         -6    1    1    2    0  503 -0.10531973851E+03 -0.34503028607E+02 -0.84440638935E+02  0.22213042972E+03  0.17300000000E+03 0. -1.
<mgrwt>
<rscale>  2 0.20545488E+03</rscale>
<asrwt>0</asrwt>
<pdfrwt beam="1">  1       21 0.67594696E-01 0.20545488E+03</pdfrwt>
<pdfrwt beam="2">  1       21 0.27964136E-01 0.20545488E+03</pdfrwt>
<totfact> 0.24258338E+04</totfact>
</mgrwt>
</event>
<event>
 4    1  0.4102458E+000  0.1948102E+03  0.7546771E-02  0.1154193E+00
         21   -1    0    0  501  502  0.00000000000E+00  0.00000000000E+00  0.40067584838E+03  0.40067584838E+03  0.00000000000E+00 0. -1.
         21   -1    0    0  502  503 -0.00000000000E+00 -0.00000000000E+00 -0.18195081561E+03  0.18195081561E+03  0.00000000000E+00 0. -1.
          6    1    1    2  501    0  0.88793390198E+02  0.11737190814E+02  0.31107113984E+03  0.36703716683E+03  0.17300000000E+03 0. -1.
         -6    1    1    2    0  503 -0.88793390198E+02 -0.11737190814E+02 -0.92346107077E+02  0.21558949715E+03  0.17300000000E+03 0. -1.
<mgrwt>
<rscale>  2 0.19481024E+03</rscale>
<asrwt>0</asrwt>
<pdfrwt beam="1">  1       21 0.61642438E-01 0.19481024E+03</pdfrwt>
<pdfrwt beam="2">  1       21 0.27992433E-01 0.19481024E+03</pdfrwt>
<totfact> 0.29768710E+04</totfact>
</mgrwt>
</event>
<event>
 4    1  0.4102458E+000  0.3002191E+03  0.7546771E-02  0.1085131E+00
         21   -1    0    0  501  502  0.00000000000E+00  0.00000000000E+00  0.10556298297E+03  0.10556298297E+03  0.00000000000E+00 0.  1.
         21   -1    0    0  502  503 -0.00000000000E+00 -0.00000000000E+00 -0.10176307844E+04  0.10176307844E+04  0.00000000000E+00 0.  1.
          6    1    1    2  501    0 -0.16141774458E+02 -0.24483051293E+03 -0.23071172041E+03  0.37862835984E+03  0.17300000000E+03 0.  1.
         -6    1    1    2    0  503  0.16141774458E+02  0.24483051293E+03 -0.68135608101E+03  0.74456540751E+03  0.17300000000E+03 0.  1.
<mgrwt>
<rscale>  2 0.30021915E+03</rscale>
<asrwt>0</asrwt>
<pdfrwt beam="1">  1       21 0.16240458E-01 0.30021915E+03</pdfrwt>
<pdfrwt beam="2">  1       21 0.15655859E+00 0.30021915E+03</pdfrwt>
<totfact> 0.84512395E+03</totfact>
</mgrwt>
</event>
<event>
 4    1  0.4102458E+000  0.2071157E+03  0.7546771E-02  0.1143871E+00
         21   -1    0    0  503  502  0.00000000000E+00  0.00000000000E+00  0.22521921216E+04  0.22521921216E+04  0.00000000000E+00 0. -1.
         21   -1    0    0  501  503 -0.00000000000E+00 -0.00000000000E+00 -0.21194661032E+02  0.21194661032E+02  0.00000000000E+00 0. -1.
          6    1    1    2  501    0  0.95078126044E+02  0.62674375066E+02  0.75364019325E+03  0.78158202911E+03  0.17300000000E+03 0. -1.
         -6    1    1    2    0  502 -0.95078126044E+02 -0.62674375066E+02  0.14773572673E+04  0.14918047535E+04  0.17300000000E+03 0. -1.
<mgrwt>
<rscale>  2 0.20711573E+03</rscale>
<asrwt>0</asrwt>
<pdfrwt beam="1">  1       21 0.34649091E+00 0.20711573E+03</pdfrwt>
<pdfrwt beam="2">  1       21 0.32607189E-02 0.20711573E+03</pdfrwt>
<totfact> 0.99405261E+03</totfact>
</mgrwt>
</event>
<event>
 4    1  0.4102458E+000  0.2151615E+03  0.7546771E-02  0.1137543E+00
         21   -1    0    0  501  502  0.00000000000E+00  0.00000000000E+00  0.12965553060E+03  0.12965553060E+03  0.00000000000E+00 0. -1.
         21   -1    0    0  502  503 -0.00000000000E+00 -0.00000000000E+00 -0.52791265347E+03  0.52791265347E+03  0.00000000000E+00 0. -1.
          6    1    1    2  501    0  0.12454453891E+03  0.29225658335E+02 -0.12084559615E+02  0.21550062148E+03  0.17300000000E+03 0. -1.
         -6    1    1    2    0  503 -0.12454453891E+03 -0.29225658335E+02 -0.38617256325E+03  0.44206756258E+03  0.17300000000E+03 0. -1.
<mgrwt>
<rscale>  2 0.21516152E+03</rscale>
<asrwt>0</asrwt>
<pdfrwt beam="1">  1       21 0.19947005E-01 0.21516152E+03</pdfrwt>
<pdfrwt beam="2">  1       21 0.81217331E-01 0.21516152E+03</pdfrwt>
<totfact> 0.30455082E+04</totfact>
</mgrwt>
</event>
<event>
 4    1  0.4102458E+000  0.2328040E+03  0.7546771E-02  0.1124682E+00
         21   -1    0    0  503  502  0.00000000000E+00  0.00000000000E+00  0.46897203816E+03  0.46897203816E+03  0.00000000000E+00 0.  1.
         21   -1    0    0  501  503 -0.00000000000E+00 -0.00000000000E+00 -0.13729539425E+03  0.13729539425E+03  0.00000000000E+00 0. -1.
          6    1    1    2  501    0 -0.15219923899E+03  0.33228027601E+02  0.45245994090E+02  0.23716009392E+03  0.17300000000E+03 0. -1.
         -6    1    1    2    0  502  0.15219923899E+03 -0.33228027601E+02  0.28643064982E+03  0.36910733849E+03  0.17300000000E+03 0.  1.
<mgrwt>
<rscale>  2 0.23280402E+03</rscale>
<asrwt>0</asrwt>
<pdfrwt beam="1">  1       21 0.72149543E-01 0.23280402E+03</pdfrwt>
<pdfrwt beam="2">  1       21 0.21122369E-01 0.23280402E+03</pdfrwt>
<totfact> 0.35387595E+04</totfact>
</mgrwt>
</event>
<event>
 4    1  0.4102458E+000  0.2294913E+03  0.7546771E-02  0.1126998E+00
         21   -1    0    0  501  502  0.00000000000E+00  0.00000000000E+00  0.33690366901E+03  0.33690366901E+03  0.00000000000E+00 0.  1.
         21   -1    0    0  502  503 -0.00000000000E+00 -0.00000000000E+00 -0.20601055647E+03  0.20601055647E+03  0.00000000000E+00 0. -1.
          6    1    1    2  501    0  0.10062502684E+03  0.11230261123E+03  0.19876004007E+03  0.30359813248E+03  0.17300000000E+03 0.  1.
         -6    1    1    2    0  503 -0.10062502684E+03 -0.11230261123E+03 -0.67866927541E+02  0.23931609300E+03  0.17300000000E+03 0. -1.
<mgrwt>
<rscale>  2 0.22949133E+03</rscale>
<asrwt>0</asrwt>
<pdfrwt beam="1">  1       21 0.51831334E-01 0.22949133E+03</pdfrwt>
<pdfrwt beam="2">  1       21 0.31693932E-01 0.22949133E+03</pdfrwt>
<totfact> 0.33195288E+04</totfact>
</mgrwt>
</event>
<event>
 4    1  0.4102458E+000  0.2122720E+03  0.7546771E-02  0.1139779E+00
         21   -1    0    0  503  502  0.00000000000E+00  0.00000000000E+00  0.21719062012E+03  0.21719062012E+03  0.00000000000E+00 0.  1.
         21   -1    0    0  501  503 -0.00000000000E+00 -0.00000000000E+00 -0.21345445705E+03  0.21345445705E+03  0.00000000000E+00 0.  1.
          6    1    1    2  501    0 -0.11173776341E+03  0.51430394892E+02 -0.34201164728E+02  0.21500961132E+03  0.17300000000E+03 0.  1.
         -6    1    1    2    0  502  0.11173776341E+03 -0.51430394892E+02  0.37937327801E+02  0.21563546585E+03  0.17300000000E+03 0.  1.
<mgrwt>
<rscale>  2 0.21227203E+03</rscale>
<asrwt>0</asrwt>
<pdfrwt beam="1">  1       21 0.33413941E-01 0.21227203E+03</pdfrwt>
<pdfrwt beam="2">  1       21 0.32839147E-01 0.21227203E+03</pdfrwt>
<totfact> 0.76349361E+04</totfact>
</mgrwt>
</event>
<event>
 4    1  0.4102458E+000  0.1958238E+03  0.7546771E-02  0.1153311E+00
         21   -1    0    0  501  502  0.00000000000E+00  0.00000000000E+00  0.13361097732E+03  0.13361097732E+03  0.00000000000E+00 0. -1.
         21   -1    0    0  502  503 -0.00000000000E+00 -0.00000000000E+00 -0.30658962465E+03  0.30658962465E+03  0.00000000000E+00 0. -1.
          6    1    1    2  501    0  0.33893876745E+02  0.85259417357E+02 -0.30859954574E+02  0.19824051030E+03  0.17300000000E+03 0. -1.
         -6    1    1    2    0  503 -0.33893876745E+02 -0.85259417357E+02 -0.14211869275E+03  0.24196009167E+03  0.17300000000E+03 0. -1.
<mgrwt>
<rscale>  2 0.19582381E+03</rscale>
<asrwt>0</asrwt>
<pdfrwt beam="1">  1       21 0.20555535E-01 0.19582381E+03</pdfrwt>
<pdfrwt beam="2">  1       21 0.47167634E-01 0.19582381E+03</pdfrwt>
<totfact> 0.94198581E+04</totfact>
</mgrwt>
</event>
<event>
 4    1  0.4102458E+000  0.3466177E+03  0.7546771E-02  0.1064012E+00
         21   -1    0    0  501  502  0.00000000000E+00  0.00000000000E+00  0.11957415698E+04  0.11957415698E+04  0.00000000000E+00 0. -1.
         21   -1    0    0  502  503 -0.00000000000E+00 -0.00000000000E+00 -0.14891795529E+03  0.14891795529E+03  0.00000000000E+00 0. -1.
          6    1    1    2  501    0  0.26652528876E+03  0.13848858946E+03  0.90686980816E+03  0.97085357696E+03  0.17300000000E+03 0. -1.
         -6    1    1    2    0  503 -0.26652528876E+03 -0.13848858946E+03  0.13995380639E+03  0.37380594816E+03  0.17300000000E+03 0. -1.
<mgrwt>
<rscale>  2 0.34661768E+03</rscale>
<asrwt>0</asrwt>
<pdfrwt beam="1">  1       21 0.18396024E+00 0.34661768E+03</pdfrwt>
<pdfrwt beam="2">  1       21 0.22910455E-01 0.34661768E+03</pdfrwt>
<totfact> 0.27389567E+03</totfact>
</mgrwt>
</event>
<event>
 4    1  0.4102458E+000  0.1844277E+03  0.7546771E-02  0.1163585E+00
         21   -1    0    0  501  502  0.00000000000E+00  0.00000000000E+00  0.35123010109E+03  0.35123010109E+03  0.00000000000E+00 0. -1.
         21   -1    0    0  502  503 -0.00000000000E+00 -0.00000000000E+00 -0.13912248054E+03  0.13912248054E+03  0.00000000000E+00 0. -1.
          6    1    1    2  501    0 -0.63910546422E+02 -0.97579417886E-01  0.24121547866E+03  0.30364201720E+03  0.17300000000E+03 0. -1.
         -6    1    1    2    0  503  0.63910546422E+02  0.97579417886E-01 -0.29107858105E+02  0.18671056443E+03  0.17300000000E+03 0. -1.
<mgrwt>
<rscale>  2 0.18442768E+03</rscale>
<asrwt>0</asrwt>
<pdfrwt beam="1">  1       21 0.54035400E-01 0.18442768E+03</pdfrwt>
<pdfrwt beam="2">  1       21 0.21403459E-01 0.18442768E+03</pdfrwt>
<totfact> 0.66057469E+04</totfact>
</mgrwt>
</event>
<event>
 4    1  0.4102458E+000  0.2490623E+03  0.7546771E-02  0.1113899E+00
         21   -1    0    0  503  502  0.00000000000E+00  0.00000000000E+00  0.92176483197E+03  0.92176483197E+03  0.00000000000E+00 0.  1.
         21   -1    0    0  501  503 -0.00000000000E+00 -0.00000000000E+00 -0.78597174081E+02  0.78597174081E+02  0.00000000000E+00 0.  1.
          6    1    1    2  501    0 -0.13047049575E+03 -0.12280264625E+03  0.23192825058E+03  0.34032742118E+03  0.17300000000E+03 0.  1.
         -6    1    1    2    0  502  0.13047049575E+03  0.12280264625E+03  0.61123940731E+03  0.66003458488E+03  0.17300000000E+03 0.  1.
<mgrwt>
<rscale>  2 0.24906232E+03</rscale>
<asrwt>0</asrwt>
<pdfrwt beam="1">  1       21 0.14180997E+00 0.24906232E+03</pdfrwt>
<pdfrwt beam="2">  1       21 0.12091874E-01 0.24906232E+03</pdfrwt>
<totfact> 0.19362704E+04</totfact>
</mgrwt>
</event>
<event>
 4    1  0.4102458E+000  0.2363714E+03  0.7546771E-02  0.1122234E+00
         21   -1    0    0  503  502  0.00000000000E+00  0.00000000000E+00  0.54569468211E+02  0.54569468211E+02  0.00000000000E+00 0.  1.
         21   -1    0    0  501  503 -0.00000000000E+00 -0.00000000000E+00 -0.12558415500E+04  0.12558415500E+04  0.00000000000E+00 0. -1.
          6    1    1    2  501    0  0.15004282943E+03 -0.58562599356E+02 -0.88223950241E+03  0.91335533519E+03  0.17300000000E+03 0. -1.
         -6    1    1    2    0  502 -0.15004282943E+03  0.58562599356E+02 -0.31903257934E+03  0.39705568298E+03  0.17300000000E+03 0.  1.
<mgrwt>
<rscale>  2 0.23637138E+03</rscale>
<asrwt>0</asrwt>
<pdfrwt beam="1">  1       21 0.83953030E-02 0.23637138E+03</pdfrwt>
<pdfrwt beam="2">  1       21 0.19320639E+00 0.23637138E+03</pdfrwt>
<totfact> 0.15884615E+04</totfact>
</mgrwt>
</event>
<event>
 4    1  0.4102458E+000  0.2041659E+03  0.7546771E-02  0.1146271E+00
         21   -1    0    0  501  502  0.00000000000E+00  0.00000000000E+00  0.18465881138E+04  0.18465881138E+04  0.00000000000E+00 0.  1.
         21   -1    0    0  502  503 -0.00000000000E+00 -0.00000000000E+00 -0.47443923907E+02  0.47443923907E+02  0.00000000000E+00 0.  1.
          6    1    1    2  501    0  0.27046824838E+02 -0.10499139781E+03  0.15852335212E+04  0.15983269507E+04  0.17300000000E+03 0.  1.
         -6    1    1    2    0  503 -0.27046824838E+02  0.10499139781E+03  0.21391066870E+03  0.29570508709E+03  0.17300000000E+03 0.  1.
<mgrwt>
<rscale>  2 0.20416592E+03</rscale>
<asrwt>0</asrwt>
<pdfrwt beam="1">  1       21 0.28409042E+00 0.20416592E+03</pdfrwt>
<pdfrwt beam="2">  1       21 0.72990666E-02 0.20416592E+03</pdfrwt>
<totfact> 0.58579016E+03</totfact>
</mgrwt>
</event>
<event>
 4    1  0.4102458E+000  0.2570636E+03  0.7546771E-02  0.1108920E+00
         21   -1    0    0  503  502  0.00000000000E+00  0.00000000000E+00  0.16143183055E+03  0.16143183055E+03  0.00000000000E+00 0.  1.
         21   -1    0    0  501  503 -0.00000000000E+00 -0.00000000000E+00 -0.97976705175E+03  0.97976705175E+03  0.00000000000E+00 0.  1.
          6    1    1    2  501    0 -0.89520561175E+02  0.16774605949E+03 -0.84454636653E+03  0.88280249013E+03  0.17300000000E+03 0.  1.
         -6    1    1    2    0  502  0.89520561175E+02 -0.16774605949E+03  0.26211145335E+02  0.25839639217E+03  0.17300000000E+03 0.  1.
<mgrwt>
<rscale>  2 0.25706356E+03</rscale>
<asrwt>0</asrwt>
<pdfrwt beam="1">  1       21 0.24835666E-01 0.25706356E+03</pdfrwt>
<pdfrwt beam="2">  1       21 0.15073340E+00 0.25706356E+03</pdfrwt>
<totfact> 0.43095000E+03</totfact>
</mgrwt>
</event>
<event>
 4    1  0.4102458E+000  0.1986888E+03  0.7546771E-02  0.1150850E+00
         21   -1    0    0  501  502  0.00000000000E+00  0.00000000000E+00  0.56074921973E+03  0.56074921973E+03  0.00000000000E+00 0.  1.
         21   -1    0    0  502  503 -0.00000000000E+00 -0.00000000000E+00 -0.87463728241E+02  0.87463728241E+02  0.00000000000E+00 0.  1.
          6    1    1    2  501    0  0.70682951084E+02 -0.67469815955E+02  0.37979529587E+03  0.42862772006E+03  0.17300000000E+03 0.  1.
         -6    1    1    2    0  503 -0.70682951084E+02  0.67469815955E+02  0.93490195617E+02  0.21958522791E+03  0.17300000000E+03 0.  1.
<mgrwt>
<rscale>  2 0.19868884E+03</rscale>
<asrwt>0</asrwt>
<pdfrwt beam="1">  1       21 0.86269109E-01 0.19868884E+03</pdfrwt>
<pdfrwt beam="2">  1       21 0.13455959E-01 0.19868884E+03</pdfrwt>
<totfact> 0.55163178E+04</totfact>
</mgrwt>
</event>
<event>
 4    1  0.4102458E+000  0.1870828E+03  0.7546771E-02  0.1161119E+00
         21   -1    0    0  503  502  0.00000000000E+00  0.00000000000E+00  0.14546165788E+03  0.14546165788E+03  0.00000000000E+00 0. -1.
         21   -1    0    0  501  503 -0.00000000000E+00 -0.00000000000E+00 -0.28062703091E+03  0.28062703091E+03  0.00000000000E+00 0.  1.
          6    1    1    2  501    0 -0.53041993994E+02  0.47513187479E+02 -0.14803004258E+03  0.23856414151E+03  0.17300000000E+03 0.  1.
         -6    1    1    2    0  502  0.53041993994E+02 -0.47513187479E+02  0.12864669544E+02  0.18752454728E+03  0.17300000000E+03 0. -1.
<mgrwt>
<rscale>  2 0.18708275E+03</rscale>
<asrwt>0</asrwt>
<pdfrwt beam="1">  1       21 0.22378717E-01 0.18708275E+03</pdfrwt>
<pdfrwt beam="2">  1       21 0.43173389E-01 0.18708275E+03</pdfrwt>
<totfact> 0.96620874E+04</totfact>
</mgrwt>
</event>
<event>
 4    1  0.4102458E+000  0.1849686E+03  0.7546771E-02  0.1163079E+00
         21   -1    0    0  501  502  0.00000000000E+00  0.00000000000E+00  0.12181007185E+04  0.12181007185E+04  0.00000000000E+00 0.  1.
         21   -1    0    0  502  503 -0.00000000000E+00 -0.00000000000E+00 -0.28481882089E+02  0.28481882089E+02  0.00000000000E+00 0.  1.
          6    1    1    2  501    0 -0.38014860850E+02 -0.53284472304E+02  0.66815653993E+03  0.69328675631E+03  0.17300000000E+03 0.  1.
         -6    1    1    2    0  503  0.38014860850E+02  0.53284472304E+02  0.52146229644E+03  0.55329584423E+03  0.17300000000E+03 0.  1.
<mgrwt>
<rscale>  2 0.18496855E+03</rscale>
<asrwt>0</asrwt>
<pdfrwt beam="1">  1       21 0.18740007E+00 0.18496855E+03</pdfrwt>
<pdfrwt beam="2">  1       21 0.43818290E-02 0.18496855E+03</pdfrwt>
<totfact> 0.54812819E+04</totfact>
</mgrwt>
</event>
<event>
 4    1  0.4102458E+000  0.2831957E+03  0.7546771E-02  0.1093956E+00
         21   -1    0    0  501  502  0.00000000000E+00  0.00000000000E+00  0.19037947625E+04  0.19037947625E+04  0.00000000000E+00 0. -1.
         21   -1    0    0  502  503 -0.00000000000E+00 -0.00000000000E+00 -0.44224098000E+02  0.44224098000E+02  0.00000000000E+00 0.  1.
          6    1    1    2  501    0 -0.48716402042E+02 -0.21885503512E+03  0.11419222835E+04  0.11765144775E+04  0.17300000000E+03 0. -1.
         -6    1    1    2    0  503  0.48716402042E+02  0.21885503512E+03  0.71764838095E+03  0.77150438295E+03  0.17300000000E+03 0.  1.
<mgrwt>
<rscale>  2 0.28319572E+03</rscale>
<asrwt>0</asrwt>
<pdfrwt beam="1">  1       21 0.29289144E+00 0.28319572E+03</pdfrwt>
<pdfrwt beam="2">  1       21 0.68037089E-02 0.28319572E+03</pdfrwt>
<totfact> 0.54765217E+03</totfact>
</mgrwt>
</event>
<event>
 4    1  0.4102458E+000  0.1752388E+03  0.7546771E-02  0.1172492E+00
         21   -1    0    0  501  502  0.00000000000E+00  0.00000000000E+00  0.42840379331E+03  0.42840379331E+03  0.00000000000E+00 0. -1.
         21   -1    0    0  502  503 -0.00000000000E+00 -0.00000000000E+00 -0.12838763473E+03  0.12838763473E+03  0.00000000000E+00 0. -1.
          6    1    1    2  501    0  0.23635319648E+02  0.14866394421E+02  0.33502688180E+03  0.37808947294E+03  0.17300000000E+03 0. -1.
         -6    1    1    2    0  503 -0.23635319648E+02 -0.14866394421E+02 -0.35010723221E+02  0.17870195511E+03  0.17300000000E+03 0. -1.
<mgrwt>
<rscale>  2 0.17523880E+03</rscale>
<asrwt>0</asrwt>
<pdfrwt beam="1">  1       21 0.65908275E-01 0.17523880E+03</pdfrwt>
<pdfrwt beam="2">  1       21 0.19751944E-01 0.17523880E+03</pdfrwt>
<totfact> 0.50381271E+04</totfact>
</mgrwt>
</event>
<event>
 4    1  0.4102458E+000  0.2604472E+03  0.7546771E-02  0.1106875E+00
         21   -1    0    0  501  502  0.00000000000E+00  0.00000000000E+00  0.12621934852E+03  0.12621934852E+03  0.00000000000E+00 0. -1.
         21   -1    0    0  502  503 -0.00000000000E+00 -0.00000000000E+00 -0.62249983111E+03  0.62249983111E+03  0.00000000000E+00 0. -1.
          6    1    1    2  501    0 -0.15234990683E+03  0.12121565521E+03 -0.10974086546E+03  0.28262304706E+03  0.17300000000E+03 0. -1.
         -6    1    1    2    0  503  0.15234990683E+03 -0.12121565521E+03 -0.38653961713E+03  0.46609613256E+03  0.17300000000E+03 0. -1.
<mgrwt>
<rscale>  2 0.26044717E+03</rscale>
<asrwt>0</asrwt>
<pdfrwt beam="1">  1       21 0.19418362E-01 0.26044717E+03</pdfrwt>
<pdfrwt beam="2">  1       21 0.95769203E-01 0.26044717E+03</pdfrwt>
<totfact> 0.21370562E+04</totfact>
</mgrwt>
</event>
<event>
 4    1  0.4102458E+000  0.1838292E+03  0.7546771E-02  0.1164148E+00
         21   -1    0    0  501  502  0.00000000000E+00  0.00000000000E+00  0.14568346241E+03  0.14568346241E+03  0.00000000000E+00 0.  1.
         21   -1    0    0  502  503 -0.00000000000E+00 -0.00000000000E+00 -0.23196386861E+03  0.23196386861E+03  0.00000000000E+00 0.  1.
          6    1    1    2  501    0  0.62143132429E+02  0.15532520336E+01 -0.43493098408E+02  0.18890429087E+03  0.17300000000E+03 0.  1.
         -6    1    1    2    0  503 -0.62143132429E+02 -0.15532520336E+01 -0.42787307791E+02  0.18874304016E+03  0.17300000000E+03 0.  1.
<mgrwt>
<rscale>  2 0.18382922E+03</rscale>
<asrwt>0</asrwt>
<pdfrwt beam="1">  1       21 0.22412841E-01 0.18382922E+03</pdfrwt>
<pdfrwt beam="2">  1       21 0.35686749E-01 0.18382922E+03</pdfrwt>
<totfact> 0.14152132E+05</totfact>
</mgrwt>
</event>
<event>
 4    1  0.4102458E+000  0.1998822E+03  0.7546771E-02  0.1149838E+00
         21   -1    0    0  501  502  0.00000000000E+00  0.00000000000E+00  0.97478111025E+02  0.97478111025E+02  0.00000000000E+00 0. -1.
         21   -1    0    0  502  503 -0.00000000000E+00 -0.00000000000E+00 -0.41961615379E+03  0.41961615379E+03  0.00000000000E+00 0. -1.
          6    1    1    2  501    0 -0.10002651021E+03 -0.43140422344E+01 -0.12165681713E+03  0.23399421972E+03  0.17300000000E+03 0. -1.
         -6    1    1    2    0  503  0.10002651021E+03  0.43140422344E+01 -0.20048122563E+03  0.28310004510E+03  0.17300000000E+03 0. -1.
<mgrwt>
<rscale>  2 0.19988225E+03</rscale>
<asrwt>0</asrwt>
<pdfrwt beam="1">  1       21 0.14996632E-01 0.19988225E+03</pdfrwt>
<pdfrwt beam="2">  1       21 0.64556332E-01 0.19988225E+03</pdfrwt>
<totfact> 0.86548675E+04</totfact>
</mgrwt>
</event>
<event>
 4    1  0.4102458E+000  0.1857566E+03  0.7546771E-02  0.1162345E+00
         21   -1    0    0  501  502  0.00000000000E+00  0.00000000000E+00  0.84522978405E+03  0.84522978405E+03  0.00000000000E+00 0. -1.
         21   -1    0    0  502  503 -0.00000000000E+00 -0.00000000000E+00 -0.73724835849E+02  0.73724835849E+02  0.00000000000E+00 0. -1.
          6    1    1    2  501    0 -0.47515175807E+02  0.48154175398E+02  0.69269831569E+03  0.71717255462E+03  0.17300000000E+03 0.  1.
         -6    1    1    2    0  503  0.47515175807E+02 -0.48154175398E+02  0.78806632508E+02  0.20178206528E+03  0.17300000000E+03 0.  1.
<mgrwt>
<rscale>  2 0.18575661E+03</rscale>
<asrwt>0</asrwt>
<pdfrwt beam="1">  1       21 0.13003534E+00 0.18575661E+03</pdfrwt>
<pdfrwt beam="2">  1       21 0.11342283E-01 0.18575661E+03</pdfrwt>
<totfact> 0.28148316E+04</totfact>
</mgrwt>
</event>
<event>
 4    1  0.4102458E+000  0.2048680E+03  0.7546771E-02  0.1145696E+00
         21   -1    0    0  503  502  0.00000000000E+00  0.00000000000E+00  0.14393490994E+04  0.14393490994E+04  0.00000000000E+00 0.  1.
         21   -1    0    0  501  503 -0.00000000000E+00 -0.00000000000E+00 -0.30123141275E+02  0.30123141275E+02  0.00000000000E+00 0.  1.
          6    1    1    2  501    0  0.10783412374E+02 -0.10920455879E+03  0.57321009665E+03  0.60872057016E+03  0.17300000000E+03 0.  1.
         -6    1    1    2    0  502 -0.10783412374E+02  0.10920455879E+03  0.83601586145E+03  0.86075167048E+03  0.17300000000E+03 0.  1.
<mgrwt>
<rscale>  2 0.20486805E+03</rscale>
<asrwt>0</asrwt>
<pdfrwt beam="1">  1       21 0.22143827E+00 0.20486805E+03</pdfrwt>
<pdfrwt beam="2">  1       21 0.46343305E-02 0.20486805E+03</pdfrwt>
<totfact> 0.29876467E+04</totfact>
</mgrwt>
</event>
<event>
 4    1  0.4102458E+000  0.3094270E+03  0.7546771E-02  0.1080621E+00
         21   -1    0    0  501  502  0.00000000000E+00  0.00000000000E+00  0.59816491017E+03  0.59816491017E+03  0.00000000000E+00 0.  1.
         21   -1    0    0  502  503 -0.00000000000E+00 -0.00000000000E+00 -0.19335195808E+03  0.19335195808E+03  0.00000000000E+00 0. -1.
          6    1    1    2  501    0  0.42537064485E+02  0.25299532759E+03  0.36661490293E+03  0.47974110172E+03  0.17300000000E+03 0.  1.
         -6    1    1    2    0  503 -0.42537064485E+02 -0.25299532759E+03  0.38198049161E+02  0.31177576653E+03  0.17300000000E+03 0. -1.
<mgrwt>
<rscale>  2 0.30942695E+03</rscale>
<asrwt>0</asrwt>
<pdfrwt beam="1">  1       21 0.92025370E-01 0.30942695E+03</pdfrwt>
<pdfrwt beam="2">  1       21 0.29746455E-01 0.30942695E+03</pdfrwt>
<totfact> 0.10124354E+04</totfact>
</mgrwt>
</event>
<event>
 4    1  0.4102458E+000  0.1739244E+03  0.7546771E-02  0.1173816E+00
         21   -1    0    0  503  502  0.00000000000E+00  0.00000000000E+00  0.40006444944E+03  0.40006444944E+03  0.00000000000E+00 0.  1.
         21   -1    0    0  501  503 -0.00000000000E+00 -0.00000000000E+00 -0.33096673215E+03  0.33096673215E+03  0.00000000000E+00 0.  1.
          6    1    1    2  501    0 -0.16878124817E+02 -0.59842243760E+01 -0.28651074972E+03  0.33516875114E+03  0.17300000000E+03 0.  1.
         -6    1    1    2    0  502  0.16878124817E+02  0.59842243760E+01  0.35560846700E+03  0.39586243045E+03  0.17300000000E+03 0.  1.
<mgrwt>
<rscale>  2 0.17392436E+03</rscale>
<asrwt>0</asrwt>
<pdfrwt beam="1">  1       21 0.61548376E-01 0.17392436E+03</pdfrwt>
<pdfrwt beam="2">  1       21 0.50917959E-01 0.17392436E+03</pdfrwt>
<totfact> 0.91200681E+03</totfact>
</mgrwt>
</event>
<event>
 4    1  0.4102458E+000  0.1816541E+03  0.7546771E-02  0.1166212E+00
         21   -1    0    0  501  502  0.00000000000E+00  0.00000000000E+00  0.37966759208E+03  0.37966759208E+03  0.00000000000E+00 0.  1.
         21   -1    0    0  502  503 -0.00000000000E+00 -0.00000000000E+00 -0.87522931564E+02  0.87522931564E+02  0.00000000000E+00 0.  1.
          6    1    1    2  501    0  0.43181963028E+02  0.34706177472E+02  0.16556636679E+03  0.24578531791E+03  0.17300000000E+03 0. -1.
         -6    1    1    2    0  503 -0.43181963028E+02 -0.34706177472E+02  0.12657829372E+03  0.22140520574E+03  0.17300000000E+03 0. -1.
<mgrwt>
<rscale>  2 0.18165407E+03</rscale>
<asrwt>0</asrwt>
<pdfrwt beam="1">  1       21 0.58410398E-01 0.18165407E+03</pdfrwt>
<pdfrwt beam="2">  1       21 0.13465067E-01 0.18165407E+03</pdfrwt>
<totfact> 0.13144377E+05</totfact>
</mgrwt>
</event>
<event>
 4    1  0.4102458E+000  0.1944946E+03  0.7546771E-02  0.1154469E+00
         21   -1    0    0  501  502  0.00000000000E+00  0.00000000000E+00  0.60801640936E+03  0.60801640936E+03  0.00000000000E+00 0. -1.
         21   -1    0    0  502  503 -0.00000000000E+00 -0.00000000000E+00 -0.63549765105E+02  0.63549765105E+02  0.00000000000E+00 0. -1.
          6    1    1    2  501    0 -0.82830540900E+02  0.32222173123E+02  0.32088415067E+03  0.37522633849E+03  0.17300000000E+03 0. -1.
         -6    1    1    2    0  503  0.82830540900E+02 -0.32222173123E+02  0.22358249358E+03  0.29633983597E+03  0.17300000000E+03 0. -1.
<mgrwt>
<rscale>  2 0.19449465E+03</rscale>
<asrwt>0</asrwt>
<pdfrwt beam="1">  1       21 0.93540982E-01 0.19449465E+03</pdfrwt>
<pdfrwt beam="2">  1       21 0.97768873E-02 0.19449465E+03</pdfrwt>
<totfact> 0.81040822E+04</totfact>
</mgrwt>
</event>
<event>
 4    1  0.4102458E+000  0.2003130E+03  0.7546771E-02  0.1149475E+00
         21   -1    0    0  501  502  0.00000000000E+00  0.00000000000E+00  0.93415096409E+02  0.93415096409E+02  0.00000000000E+00 0. -1.
         21   -1    0    0  502  503 -0.00000000000E+00 -0.00000000000E+00 -0.53576026902E+03  0.53576026902E+03  0.00000000000E+00 0. -1.
          6    1    1    2  501    0  0.91905977687E+02  0.41828041625E+02 -0.81096137780E+02  0.21610617151E+03  0.17300000000E+03 0. -1.
         -6    1    1    2    0  503 -0.91905977687E+02 -0.41828041625E+02 -0.36124903483E+03  0.41306919392E+03  0.17300000000E+03 0. -1.
<mgrwt>
<rscale>  2 0.20031299E+03</rscale>
<asrwt>0</asrwt>
<pdfrwt beam="1">  1       21 0.14371553E-01 0.20031299E+03</pdfrwt>
<pdfrwt beam="2">  1       21 0.82424656E-01 0.20031299E+03</pdfrwt>
<totfact> 0.54296653E+04</totfact>
</mgrwt>
</event>
<event>
 4    1  0.4102458E+000  0.1917659E+03  0.7546771E-02  0.1156878E+00
         21   -1    0    0  501  502  0.00000000000E+00  0.00000000000E+00  0.23740445948E+03  0.23740445948E+03  0.00000000000E+00 0. -1.
         21   -1    0    0  502  503 -0.00000000000E+00 -0.00000000000E+00 -0.16225814963E+03  0.16225814963E+03  0.00000000000E+00 0.  1.
          6    1    1    2  501    0  0.38851787127E+02 -0.73045777482E+02  0.80125174935E+02  0.20783212126E+03  0.17300000000E+03 0.  1.
         -6    1    1    2    0  503 -0.38851787127E+02  0.73045777482E+02 -0.49788650902E+01  0.19183048785E+03  0.17300000000E+03 0.  1.
<mgrwt>
<rscale>  2 0.19176586E+03</rscale>
<asrwt>0</asrwt>
<pdfrwt beam="1">  1       21 0.36523763E-01 0.19176586E+03</pdfrwt>
<pdfrwt beam="2">  1       21 0.24962792E-01 0.19176586E+03</pdfrwt>
<totfact> 0.10985632E+05</totfact>
</mgrwt>
</event>
<event>
 4    1  0.4102458E+000  0.1929652E+03  0.7546771E-02  0.1155814E+00
         21   -1    0    0  501  502  0.00000000000E+00  0.00000000000E+00  0.28464719903E+04  0.28464719903E+04  0.00000000000E+00 0. -1.
         21   -1    0    0  502  503 -0.00000000000E+00 -0.00000000000E+00 -0.20411662687E+02  0.20411662687E+02  0.00000000000E+00 0. -1.
          6    1    1    2  501    0  0.85054779112E+02  0.85004837047E+01  0.22720504271E+04  0.22802299702E+04  0.17300000000E+03 0. -1.
         -6    1    1    2    0  503 -0.85054779112E+02 -0.85004837047E+01  0.55400990052E+03  0.58665368280E+03  0.17300000000E+03 0. -1.
<mgrwt>
<rscale>  2 0.19296521E+03</rscale>
<asrwt>0</asrwt>
<pdfrwt beam="1">  1       21 0.43791845E+00 0.19296521E+03</pdfrwt>
<pdfrwt beam="2">  1       21 0.31402581E-02 0.19296521E+03</pdfrwt>
<totfact> 0.29288509E+03</totfact>
</mgrwt>
</event>
<event>
 4    1  0.4102458E+000  0.1894538E+03  0.7546771E-02  0.1158955E+00
         21   -1    0    0  501  502  0.00000000000E+00  0.00000000000E+00  0.60047312744E+03  0.60047312744E+03  0.00000000000E+00 0.  1.
         21   -1    0    0  502  503 -0.00000000000E+00 -0.00000000000E+00 -0.90196399251E+02  0.90196399251E+02  0.00000000000E+00 0.  1.
          6    1    1    2  501    0  0.26245195416E+02 -0.72628831360E+02  0.45569706962E+03  0.49351046259E+03  0.17300000000E+03 0.  1.
         -6    1    1    2    0  503 -0.26245195416E+02  0.72628831360E+02  0.54579658569E+02  0.19715906410E+03  0.17300000000E+03 0.  1.
<mgrwt>
<rscale>  2 0.18945384E+03</rscale>
<asrwt>0</asrwt>
<pdfrwt beam="1">  1       21 0.92380479E-01 0.18945384E+03</pdfrwt>
<pdfrwt beam="2">  1       21 0.13876369E-01 0.18945384E+03</pdfrwt>
<totfact> 0.44751635E+04</totfact>
</mgrwt>
</event>
<event>
 4    1  0.4102458E+000  0.1992048E+03  0.7546771E-02  0.1150412E+00
         21   -1    0    0  503  502  0.00000000000E+00  0.00000000000E+00  0.84305668001E+02  0.84305668001E+02  0.00000000000E+00 0.  1.
         21   -1    0    0  501  503 -0.00000000000E+00 -0.00000000000E+00 -0.52368138277E+03  0.52368138277E+03  0.00000000000E+00 0. -1.
          6    1    1    2  501    0 -0.84256417763E+02 -0.51520916862E+02 -0.31638167074E+03  0.37387151588E+03  0.17300000000E+03 0. -1.
         -6    1    1    2    0  502  0.84256417763E+02  0.51520916862E+02 -0.12299404402E+03  0.23411553488E+03  0.17300000000E+03 0.  1.
<mgrwt>
<rscale>  2 0.19920479E+03</rscale>
<asrwt>0</asrwt>
<pdfrwt beam="1">  1       21 0.12970103E-01 0.19920479E+03</pdfrwt>
<pdfrwt beam="2">  1       21 0.80566366E-01 0.19920479E+03</pdfrwt>
<totfact> 0.68880996E+04</totfact>
</mgrwt>
</event>
<event>
 4    1  0.4102458E+000  0.2159753E+03  0.7546771E-02  0.1136920E+00
         21   -1    0    0  503  502  0.00000000000E+00  0.00000000000E+00  0.14032633879E+03  0.14032633879E+03  0.00000000000E+00 0. -1.
         21   -1    0    0  501  503 -0.00000000000E+00 -0.00000000000E+00 -0.57516044500E+03  0.57516044500E+03  0.00000000000E+00 0.  1.
          6    1    1    2  501    0 -0.91180911194E+02  0.91664380069E+02 -0.44983020969E+03  0.49899151766E+03  0.17300000000E+03 0.  1.
         -6    1    1    2    0  502  0.91180911194E+02 -0.91664380069E+02  0.14996103480E+02  0.21649526614E+03  0.17300000000E+03 0. -1.
<mgrwt>
<rscale>  2 0.21597527E+03</rscale>
<asrwt>0</asrwt>
<pdfrwt beam="1">  1       21 0.21588668E-01 0.21597527E+03</pdfrwt>
<pdfrwt beam="2">  1       21 0.88486222E-01 0.21597527E+03</pdfrwt>
<totfact> 0.21553984E+04</totfact>
</mgrwt>
</event>
<event>
 4    1  0.4102458E+000  0.2571596E+03  0.7546771E-02  0.1108862E+00
         21   -1    0    0  501  502  0.00000000000E+00  0.00000000000E+00  0.42004205006E+03  0.42004205006E+03  0.00000000000E+00 0. -1.
         21   -1    0    0  502  503 -0.00000000000E+00 -0.00000000000E+00 -0.16694594790E+03  0.16694594790E+03  0.00000000000E+00 0. -1.
          6    1    1    2  501    0  0.10980393900E+03  0.15538712193E+03  0.19658519872E+03  0.32369245131E+03  0.17300000000E+03 0. -1.
         -6    1    1    2    0  503 -0.10980393900E+03 -0.15538712193E+03  0.56510903443E+02  0.26329554665E+03  0.17300000000E+03 0. -1.
<mgrwt>
<rscale>  2 0.25715961E+03</rscale>
<asrwt>0</asrwt>
<pdfrwt beam="1">  1       21 0.64621853E-01 0.25715961E+03</pdfrwt>
<pdfrwt beam="2">  1       21 0.25683992E-01 0.25715961E+03</pdfrwt>
<totfact> 0.30757931E+04</totfact>
</mgrwt>
</event>
<event>
 4    1  0.4102458E+000  0.2027267E+03  0.7546771E-02  0.1147459E+00
         21   -1    0    0  503  502  0.00000000000E+00  0.00000000000E+00  0.46993105770E+03  0.46993105770E+03  0.00000000000E+00 0. -1.
         21   -1    0    0  501  503 -0.00000000000E+00 -0.00000000000E+00 -0.30103827164E+03  0.30103827164E+03  0.00000000000E+00 0. -1.
          6    1    1    2  501    0 -0.87674472951E+02 -0.59010895716E+02 -0.24025134622E+03  0.31435459020E+03  0.17300000000E+03 0. -1.
         -6    1    1    2    0  502  0.87674472951E+02  0.59010895716E+02  0.40914413228E+03  0.45661473914E+03  0.17300000000E+03 0. -1.
<mgrwt>
<rscale>  2 0.20272666E+03</rscale>
<asrwt>0</asrwt>
<pdfrwt beam="1">  1       21 0.72297086E-01 0.20272666E+03</pdfrwt>
<pdfrwt beam="2">  1       21 0.46313580E-01 0.20272666E+03</pdfrwt>
<totfact> 0.76491981E+03</totfact>
</mgrwt>
</event>
<event>
 4    1  0.4102458E+000  0.1802970E+03  0.7546771E-02  0.1167516E+00
         21   -1    0    0  501  502  0.00000000000E+00  0.00000000000E+00  0.13321414968E+04  0.13321414968E+04  0.00000000000E+00 0.  1.
         21   -1    0    0  502  503 -0.00000000000E+00 -0.00000000000E+00 -0.87348763272E+02  0.87348763272E+02  0.00000000000E+00 0.  1.
          6    1    1    2  501    0  0.17076819630E+02 -0.47816030211E+02  0.12249012234E+04  0.12380993488E+04  0.17300000000E+03 0.  1.
         -6    1    1    2    0  503 -0.17076819630E+02  0.47816030211E+02  0.19891510166E+02  0.18139091127E+03  0.17300000000E+03 0.  1.
<mgrwt>
<rscale>  2 0.18029695E+03</rscale>
<asrwt>0</asrwt>
<pdfrwt beam="1">  1       21 0.20494483E+00 0.18029695E+03</pdfrwt>
<pdfrwt beam="2">  1       21 0.13438272E-01 0.18029695E+03</pdfrwt>
<totfact> 0.60481825E+03</totfact>
</mgrwt>
</event>
<event>
 4    1  0.4102458E+000  0.2394027E+03  0.7546771E-02  0.1120191E+00
         21   -1    0    0  503  502  0.00000000000E+00  0.00000000000E+00  0.18982249972E+03  0.18982249972E+03  0.00000000000E+00 0.  1.
         21   -1    0    0  501  503 -0.00000000000E+00 -0.00000000000E+00 -0.37690334576E+03  0.37690334576E+03  0.00000000000E+00 0. -1.
          6    1    1    2  501    0  0.13415115980E+03 -0.96892349691E+02 -0.21991887274E+03  0.32508148469E+03  0.17300000000E+03 0. -1.
         -6    1    1    2    0  502 -0.13415115980E+03  0.96892349691E+02  0.32838026699E+02  0.24164436079E+03  0.17300000000E+03 0.  1.
<mgrwt>
<rscale>  2 0.23940272E+03</rscale>
<asrwt>0</asrwt>
<pdfrwt beam="1">  1       21 0.29203461E-01 0.23940272E+03</pdfrwt>
<pdfrwt beam="2">  1       21 0.57985130E-01 0.23940272E+03</pdfrwt>
<totfact> 0.30565086E+04</totfact>
</mgrwt>
</event>
<event>
 4    1  0.4102458E+000  0.1794162E+03  0.7546771E-02  0.1168369E+00
         21   -1    0    0  501  502  0.00000000000E+00  0.00000000000E+00  0.29737581767E+03  0.29737581767E+03  0.00000000000E+00 0. -1.
         21   -1    0    0  502  503 -0.00000000000E+00 -0.00000000000E+00 -0.59383611111E+03  0.59383611111E+03  0.00000000000E+00 0. -1.
          6    1    1    2  501    0 -0.41170320719E+01  0.47373340244E+02  0.25472058422E+03  0.31156501624E+03  0.17300000000E+03 0. -1.
         -6    1    1    2    0  503  0.41170320719E+01 -0.47373340244E+02 -0.55118087766E+03  0.57964691254E+03  0.17300000000E+03 0. -1.
<mgrwt>
<rscale>  2 0.17941623E+03</rscale>
<asrwt>0</asrwt>
<pdfrwt beam="1">  1       21 0.45750126E-01 0.17941623E+03</pdfrwt>
<pdfrwt beam="2">  1       21 0.91359401E-01 0.17941623E+03</pdfrwt>
<totfact> 0.46977543E+03</totfact>
</mgrwt>
</event>
<event>
 4    1  0.4102458E+000  0.2441375E+03  0.7546771E-02  0.1117067E+00
         21   -1    0    0  503  502  0.00000000000E+00  0.00000000000E+00  0.92805799910E+03  0.92805799910E+03  0.00000000000E+00 0.  1.
         21   -1    0    0  501  503 -0.00000000000E+00 -0.00000000000E+00 -0.21134897321E+03  0.21134897321E+03  0.00000000000E+00 0.  1.
          6    1    1    2  501    0 -0.34202445495E+02  0.16883213488E+03 -0.11697283186E+03  0.27071339169E+03  0.17300000000E+03 0.  1.
         -6    1    1    2    0  502  0.34202445495E+02 -0.16883213488E+03  0.83368185776E+03  0.86869358062E+03  0.17300000000E+03 0.  1.
<mgrwt>
<rscale>  2 0.24413746E+03</rscale>
<asrwt>0</asrwt>
<pdfrwt beam="1">  1       21 0.14277815E+00 0.24413746E+03</pdfrwt>
<pdfrwt beam="2">  1       21 0.32515227E-01 0.24413746E+03</pdfrwt>
<totfact> 0.29679035E+03</totfact>
</mgrwt>
</event>
<event>
 4    1  0.4102458E+000  0.1738524E+03  0.7546771E-02  0.1173889E+00
         21   -1    0    0  501  502  0.00000000000E+00  0.00000000000E+00  0.68170917262E+03  0.68170917262E+03  0.00000000000E+00 0. -1.
         21   -1    0    0  502  503 -0.00000000000E+00 -0.00000000000E+00 -0.48530244160E+02  0.48530244160E+02  0.00000000000E+00 0. -1.
          6    1    1    2  501    0  0.16098329548E+02 -0.60406260514E+01  0.42392078192E+03  0.45818497871E+03  0.17300000000E+03 0. -1.
         -6    1    1    2    0  503 -0.16098329548E+02  0.60406260514E+01  0.20925814655E+03  0.27205443807E+03  0.17300000000E+03 0. -1.
<mgrwt>
<rscale>  2 0.17385237E+03</rscale>
<asrwt>0</asrwt>
<pdfrwt beam="1">  1       21 0.10487833E+00 0.17385237E+03</pdfrwt>
<pdfrwt beam="2">  1       21 0.74661919E-02 0.17385237E+03</pdfrwt>
<totfact> 0.99913699E+04</totfact>
</mgrwt>
</event>
<event>
 4    1  0.4102458E+000  0.1902467E+03  0.7546771E-02  0.1158239E+00
         21   -1    0    0  501  502  0.00000000000E+00  0.00000000000E+00  0.19001421778E+03  0.19001421778E+03  0.00000000000E+00 0.  1.
         21   -1    0    0  502  503 -0.00000000000E+00 -0.00000000000E+00 -0.20642855393E+03  0.20642855393E+03  0.00000000000E+00 0. -1.
          6    1    1    2  501    0 -0.10071511917E+02  0.78507075791E+02  0.46890636807E+02  0.19594011361E+03  0.17300000000E+03 0.  1.
         -6    1    1    2    0  503  0.10071511917E+02 -0.78507075791E+02 -0.63304972957E+02  0.20050265809E+03  0.17300000000E+03 0. -1.
<mgrwt>
<rscale>  2 0.19024667E+03</rscale>
<asrwt>0</asrwt>
<pdfrwt beam="1">  1       21 0.29232956E-01 0.19024667E+03</pdfrwt>
<pdfrwt beam="2">  1       21 0.31758239E-01 0.19024667E+03</pdfrwt>
<totfact> 0.10693596E+05</totfact>
</mgrwt>
</event>
<event>
 4    1  0.4102458E+000  0.1800779E+03  0.7546771E-02  0.1167728E+00
         21   -1    0    0  501  502  0.00000000000E+00  0.00000000000E+00  0.83601752564E+02  0.83601752564E+02  0.00000000000E+00 0. -1.
         21   -1    0    0  502  503 -0.00000000000E+00 -0.00000000000E+00 -0.45618460498E+03  0.45618460498E+03  0.00000000000E+00 0.  1.
          6    1    1    2  501    0  0.61341420379E+01 -0.49612555118E+02 -0.81861656395E+02  0.19781143575E+03  0.17300000000E+03 0. -1.
         -6    1    1    2    0  503 -0.61341420379E+01  0.49612555118E+02 -0.29072119603E+03  0.34197492180E+03  0.17300000000E+03 0. -1.
<mgrwt>
<rscale>  2 0.18007785E+03</rscale>
<asrwt>0</asrwt>
<pdfrwt beam="1">  1       21 0.12861808E-01 0.18007785E+03</pdfrwt>
<pdfrwt beam="2">  1       21 0.70182247E-01 0.18007785E+03</pdfrwt>
<totfact> 0.95938442E+04</totfact>
</mgrwt>
</event>
<event>
 4    1  0.4102458E+000  0.1779556E+03  0.7546771E-02  0.1169796E+00
         21   -1    0    0  503  502  0.00000000000E+00  0.00000000000E+00  0.25586687571E+03  0.25586687571E+03  0.00000000000E+00 0.  1.
         21   -1    0    0  501  503 -0.00000000000E+00 -0.00000000000E+00 -0.14536402844E+03  0.14536402844E+03  0.00000000000E+00 0. -1.
          6    1    1    2  501    0  0.35097119698E+02  0.22524981527E+02 -0.22073738958E+02  0.17931935912E+03  0.17300000000E+03 0. -1.
         -6    1    1    2    0  502 -0.35097119698E+02 -0.22524981527E+02  0.13257658623E+03  0.22191154504E+03  0.17300000000E+03 0.  1.
<mgrwt>
<rscale>  2 0.17795556E+03</rscale>
<asrwt>0</asrwt>
<pdfrwt beam="1">  1       21 0.39364135E-01 0.17795556E+03</pdfrwt>
<pdfrwt beam="2">  1       21 0.22363697E-01 0.17795556E+03</pdfrwt>
<totfact> 0.11704839E+05</totfact>
</mgrwt>
</event>
<event>
 4    1  0.4102458E+000  0.2284653E+03  0.7546771E-02  0.1127725E+00
         21   -1    0    0  501  502  0.00000000000E+00  0.00000000000E+00  0.41199943761E+03  0.41199943761E+03  0.00000000000E+00 0.  1.
         21   -1    0    0  502  503 -0.00000000000E+00 -0.00000000000E+00 -0.23868578970E+03  0.23868578970E+03  0.00000000000E+00 0.  1.
          6    1    1    2  501    0  0.14322124344E+03 -0.41893781605E+02  0.30951447771E+03  0.38470199560E+03  0.17300000000E+03 0.  1.
         -6    1    1    2    0  503 -0.14322124344E+03  0.41893781605E+02 -0.13620082980E+03  0.26598323170E+03  0.17300000000E+03 0.  1.
<mgrwt>
<rscale>  2 0.22846534E+03</rscale>
<asrwt>0</asrwt>
<pdfrwt beam="1">  1       21 0.63384529E-01 0.22846534E+03</pdfrwt>
<pdfrwt beam="2">  1       21 0.36720891E-01 0.22846534E+03</pdfrwt>
<totfact> 0.16114465E+04</totfact>
</mgrwt>
</event>
<event>
 4    1  0.4102458E+000  0.1737267E+03  0.7546771E-02  0.1174016E+00
         21   -1    0    0  501  502  0.00000000000E+00  0.00000000000E+00  0.19296070575E+03  0.19296070575E+03  0.00000000000E+00 0. -1.
         21   -1    0    0  502  503 -0.00000000000E+00 -0.00000000000E+00 -0.28198496974E+03  0.28198496974E+03  0.00000000000E+00 0. -1.
          6    1    1    2  501    0 -0.15696321144E+02 -0.23680664493E+01  0.11395986057E+03  0.20776869845E+03  0.17300000000E+03 0. -1.
         -6    1    1    2    0  503  0.15696321144E+02  0.23680664493E+01 -0.20298412456E+03  0.26717697704E+03  0.17300000000E+03 0. -1.
<mgrwt>
<rscale>  2 0.17372675E+03</rscale>
<asrwt>0</asrwt>
<pdfrwt beam="1">  1       21 0.29686263E-01 0.17372675E+03</pdfrwt>
<pdfrwt beam="2">  1       21 0.43382303E-01 0.17372675E+03</pdfrwt>
<totfact> 0.56041196E+04</totfact>
</mgrwt>
</event>
<event>
 4    1  0.4102458E+000  0.1976961E+03  0.7546771E-02  0.1151697E+00
         21   -1    0    0  501  502  0.00000000000E+00  0.00000000000E+00  0.68679352526E+02  0.68679352526E+02  0.00000000000E+00 0. -1.
         21   -1    0    0  502  503 -0.00000000000E+00 -0.00000000000E+00 -0.73948599218E+03  0.73948599218E+03  0.00000000000E+00 0. -1.
          6    1    1    2  501    0  0.56030128553E+02  0.77558938744E+02 -0.14142512712E+03  0.24307371488E+03  0.17300000000E+03 0. -1.
         -6    1    1    2    0  503 -0.56030128553E+02 -0.77558938744E+02 -0.52938151254E+03  0.56509162983E+03  0.17300000000E+03 0. -1.
<mgrwt>
<rscale>  2 0.19769614E+03</rscale>
<asrwt>0</asrwt>
<pdfrwt beam="1">  1       21 0.10566054E-01 0.19769614E+03</pdfrwt>
<pdfrwt beam="2">  1       21 0.11376708E+00 0.19769614E+03</pdfrwt>
<totfact> 0.44182661E+04</totfact>
</mgrwt>
</event>
<event>
 4    1  0.4102458E+000  0.2017970E+03  0.7546771E-02  0.1148232E+00
         21   -1    0    0  503  502  0.00000000000E+00  0.00000000000E+00  0.81440636619E+02  0.81440636619E+02  0.00000000000E+00 0. -1.
         21   -1    0    0  501  503 -0.00000000000E+00 -0.00000000000E+00 -0.54275742874E+03  0.54275742874E+03  0.00000000000E+00 0. -1.
          6    1    1    2  501    0 -0.65479198362E+02 -0.80656769928E+02 -0.31823496724E+03  0.37682294825E+03  0.17300000000E+03 0. -1.
         -6    1    1    2    0  502  0.65479198362E+02  0.80656769928E+02 -0.14308182488E+03  0.24737511711E+03  0.17300000000E+03 0. -1.
<mgrwt>
<rscale>  2 0.20179703E+03</rscale>
<asrwt>0</asrwt>
<pdfrwt beam="1">  1       21 0.12529328E-01 0.20179703E+03</pdfrwt>
<pdfrwt beam="2">  1       21 0.83501145E-01 0.20179703E+03</pdfrwt>
<totfact> 0.67492125E+04</totfact>
</mgrwt>
</event>
<event>
 4    1  0.4102458E+000  0.2089596E+03  0.7546771E-02  0.1142393E+00
         21   -1    0    0  503  502  0.00000000000E+00  0.00000000000E+00  0.22657240659E+02  0.22657240659E+02  0.00000000000E+00 0.  1.
         21   -1    0    0  501  503 -0.00000000000E+00 -0.00000000000E+00 -0.19271757294E+04  0.19271757294E+04  0.00000000000E+00 0. -1.
          6    1    1    2  501    0  0.11373195401E+03 -0.28286762231E+02 -0.95515795052E+03  0.97774782470E+03  0.17300000000E+03 0.  1.
         -6    1    1    2    0  502 -0.11373195401E+03  0.28286762231E+02 -0.94936053826E+03  0.97208514539E+03  0.17300000000E+03 0. -1.
<mgrwt>
<rscale>  2 0.20895956E+03</rscale>
<asrwt>0</asrwt>
<pdfrwt beam="1">  1       21 0.34857293E-02 0.20895956E+03</pdfrwt>
<pdfrwt beam="2">  1       21 0.29648858E+00 0.20895956E+03</pdfrwt>
<totfact> 0.17358698E+04</totfact>
</mgrwt>
</event>
<event>
 4    1  0.4102458E+000  0.1867531E+03  0.7546771E-02  0.1161423E+00
         21   -1    0    0  501  502  0.00000000000E+00  0.00000000000E+00  0.84491326205E+03  0.84491326205E+03  0.00000000000E+00 0.  1.
         21   -1    0    0  502  503 -0.00000000000E+00 -0.00000000000E+00 -0.42084878676E+02  0.42084878676E+02  0.00000000000E+00 0.  1.
          6    1    1    2  501    0  0.59388046614E+02  0.37693243025E+02  0.46280582821E+03  0.49906508120E+03  0.17300000000E+03 0.  1.
         -6    1    1    2    0  503 -0.59388046614E+02 -0.37693243025E+02  0.34002255516E+03  0.38793305952E+03  0.17300000000E+03 0.  1.
<mgrwt>
<rscale>  2 0.18675310E+03</rscale>
<asrwt>0</asrwt>
<pdfrwt beam="1">  1       21 0.12998664E+00 0.18675310E+03</pdfrwt>
<pdfrwt beam="2">  1       21 0.64745974E-02 0.18675310E+03</pdfrwt>
<totfact> 0.75026289E+04</totfact>
</mgrwt>
</event>
<event>
 4    1  0.4102458E+000  0.1800312E+03  0.7546771E-02  0.1167773E+00
         21   -1    0    0  503  502  0.00000000000E+00  0.00000000000E+00  0.37114423510E+02  0.37114423510E+02  0.00000000000E+00 0. -1.
         21   -1    0    0  501  503 -0.00000000000E+00 -0.00000000000E+00 -0.97344253019E+03  0.97344253019E+03  0.00000000000E+00 0. -1.
          6    1    1    2  501    0  0.35861796011E+02 -0.34585650400E+02 -0.63024467576E+03  0.65545372602E+03  0.17300000000E+03 0. -1.
         -6    1    1    2    0  502 -0.35861796011E+02  0.34585650400E+02 -0.30608343092E+03  0.35510322768E+03  0.17300000000E+03 0. -1.
<mgrwt>
<rscale>  2 0.18003121E+03</rscale>
<asrwt>0</asrwt>
<pdfrwt beam="1">  1       21 0.57099118E-02 0.18003121E+03</pdfrwt>
<pdfrwt beam="2">  1       21 0.14976038E+00 0.18003121E+03</pdfrwt>
<totfact> 0.64849331E+04</totfact>
</mgrwt>
</event>
<event>
 4    1  0.4102458E+000  0.1895656E+03  0.7546771E-02  0.1158854E+00
         21   -1    0    0  501  502  0.00000000000E+00  0.00000000000E+00  0.64550695255E+02  0.64550695255E+02  0.00000000000E+00 0.  1.
         21   -1    0    0  502  503 -0.00000000000E+00 -0.00000000000E+00 -0.56742740149E+03  0.56742740149E+03  0.00000000000E+00 0.  1.
          6    1    1    2  501    0  0.75281792186E+02  0.18406056478E+02 -0.20798336095E+03  0.28141110422E+03  0.17300000000E+03 0.  1.
         -6    1    1    2    0  503 -0.75281792186E+02 -0.18406056478E+02 -0.29489334529E+03  0.35056699253E+03  0.17300000000E+03 0.  1.
<mgrwt>
<rscale>  2 0.18956564E+03</rscale>
<asrwt>0</asrwt>
<pdfrwt beam="1">  1       21 0.99308767E-02 0.18956564E+03</pdfrwt>
<pdfrwt beam="2">  1       21 0.87296519E-01 0.18956564E+03</pdfrwt>
<totfact> 0.92710401E+04</totfact>
</mgrwt>
</event>
<event>
 4    1  0.4102458E+000  0.2522796E+03  0.7546771E-02  0.1111873E+00
         21   -1    0    0  501  502  0.00000000000E+00  0.00000000000E+00  0.24246547579E+03  0.24246547579E+03  0.00000000000E+00 0.  1.
         21   -1    0    0  502  503 -0.00000000000E+00 -0.00000000000E+00 -0.40546900657E+03  0.40546900657E+03  0.00000000000E+00 0. -1.
          6    1    1    2  501    0 -0.14415404176E+02  0.18305248713E+03  0.11087685748E+03  0.27556976330E+03  0.17300000000E+03 0.  1.
         -6    1    1    2    0  503  0.14415404176E+02 -0.18305248713E+03 -0.27388038826E+03  0.37236471905E+03  0.17300000000E+03 0. -1.
<mgrwt>
<rscale>  2 0.25227964E+03</rscale>
<asrwt>0</asrwt>
<pdfrwt beam="1">  1       21 0.37302381E-01 0.25227964E+03</pdfrwt>
<pdfrwt beam="2">  1       21 0.62379846E-01 0.25227964E+03</pdfrwt>
<totfact> 0.15965870E+04</totfact>
</mgrwt>
</event>
<event>
 4    1  0.4102458E+000  0.2384060E+03  0.7546771E-02  0.1120859E+00
         21   -1    0    0  501  502  0.00000000000E+00  0.00000000000E+00  0.55021247386E+02  0.55021247386E+02  0.00000000000E+00 0.  1.
         21   -1    0    0  502  503 -0.00000000000E+00 -0.00000000000E+00 -0.11050993414E+04  0.11050993414E+04  0.00000000000E+00 0. -1.
          6    1    1    2  501    0  0.93121636297E+02 -0.13504358103E+03 -0.37688518377E+03  0.44595947089E+03  0.17300000000E+03 0.  1.
         -6    1    1    2    0  503 -0.93121636297E+02  0.13504358103E+03 -0.67319291025E+03  0.71416111791E+03  0.17300000000E+03 0.  1.
<mgrwt>
<rscale>  2 0.23840597E+03</rscale>
<asrwt>0</asrwt>
<pdfrwt beam="1">  1       21 0.84648078E-02 0.23840597E+03</pdfrwt>
<pdfrwt beam="2">  1       21 0.17001527E+00 0.23840597E+03</pdfrwt>
<totfact> 0.22525927E+04</totfact>
</mgrwt>
</event>
<event>
 4    1  0.4102458E+000  0.2788117E+03  0.7546771E-02  0.1096340E+00
         21   -1    0    0  503  502  0.00000000000E+00  0.00000000000E+00  0.10347920696E+03  0.10347920696E+03  0.00000000000E+00 0.  1.
         21   -1    0    0  501  503 -0.00000000000E+00 -0.00000000000E+00 -0.76336358726E+03  0.76336358726E+03  0.00000000000E+00 0.  1.
          6    1    1    2  501    0 -0.57863569066E+02  0.21085251980E+03 -0.27528321800E+03  0.39181223544E+03  0.17300000000E+03 0.  1.
         -6    1    1    2    0  502  0.57863569066E+02 -0.21085251980E+03 -0.38460116230E+03  0.47503055878E+03  0.17300000000E+03 0.  1.
<mgrwt>
<rscale>  2 0.27881172E+03</rscale>
<asrwt>0</asrwt>
<pdfrwt beam="1">  1       21 0.15919878E-01 0.27881172E+03</pdfrwt>
<pdfrwt beam="2">  1       21 0.11744055E+00 0.27881172E+03</pdfrwt>
<totfact> 0.18690405E+04</totfact>
</mgrwt>
</event>
<event>
 4    1  0.4102458E+000  0.1904974E+03  0.7546771E-02  0.1158014E+00
         21   -1    0    0  501  502  0.00000000000E+00  0.00000000000E+00  0.21526671320E+04  0.21526671320E+04  0.00000000000E+00 0.  1.
         21   -1    0    0  502  503 -0.00000000000E+00 -0.00000000000E+00 -0.45222165398E+02  0.45222165398E+02  0.00000000000E+00 0.  1.
          6    1    1    2  501    0 -0.11518591137E+02  0.78914930559E+02  0.19240578540E+04  0.19334652492E+04  0.17300000000E+03 0.  1.
         -6    1    1    2    0  503  0.11518591137E+02 -0.78914930559E+02  0.18338711257E+03  0.26442404819E+03  0.17300000000E+03 0.  1.
<mgrwt>
<rscale>  2 0.19049736E+03</rscale>
<asrwt>0</asrwt>
<pdfrwt beam="1">  1       21 0.33117948E+00 0.19049736E+03</pdfrwt>
<pdfrwt beam="2">  1       21 0.69572579E-02 0.19049736E+03</pdfrwt>
<totfact> 0.34554624E+03</totfact>
</mgrwt>
</event>
<event>
 4    1  0.4102458E+000  0.1735080E+03  0.7546771E-02  0.1174238E+00
         21   -1    0    0  501  502  0.00000000000E+00  0.00000000000E+00  0.33817506152E+03  0.33817506152E+03  0.00000000000E+00 0.  1.
         21   -1    0    0  502  503 -0.00000000000E+00 -0.00000000000E+00 -0.10239153350E+03  0.10239153350E+03  0.00000000000E+00 0.  1.
          6    1    1    2  501    0  0.45766136842E+01  0.12453312810E+02  0.19749068648E+03  0.26288324717E+03  0.17300000000E+03 0.  1.
         -6    1    1    2    0  503 -0.45766136842E+01 -0.12453312810E+02  0.38292841531E+02  0.17768334786E+03  0.17300000000E+03 0.  1.
<mgrwt>
<rscale>  2 0.17350801E+03</rscale>
<asrwt>0</asrwt>
<pdfrwt beam="1">  1       21 0.52026932E-01 0.17350801E+03</pdfrwt>
<pdfrwt beam="2">  1       21 0.15752544E-01 0.17350801E+03</pdfrwt>
<totfact> 0.12665678E+05</totfact>
</mgrwt>
</event>
<event>
 4    1  0.4102458E+000  0.1781929E+03  0.7546771E-02  0.1169564E+00
         21   -1    0    0  501  502  0.00000000000E+00  0.00000000000E+00  0.74903347927E+02  0.74903347927E+02  0.00000000000E+00 0. -1.
         21   -1    0    0  502  503 -0.00000000000E+00 -0.00000000000E+00 -0.45888771485E+03  0.45888771485E+03  0.00000000000E+00 0. -1.
          6    1    1    2  501    0 -0.48194399464E+01  0.42431957641E+02 -0.11831228720E+03  0.21389365426E+03  0.17300000000E+03 0. -1.
         -6    1    1    2    0  503  0.48194399464E+01 -0.42431957641E+02 -0.26567207972E+03  0.31989740851E+03  0.17300000000E+03 0. -1.
<mgrwt>
<rscale>  2 0.17819287E+03</rscale>
<asrwt>0</asrwt>
<pdfrwt beam="1">  1       21 0.11523592E-01 0.17819287E+03</pdfrwt>
<pdfrwt beam="2">  1       21 0.70598110E-01 0.17819287E+03</pdfrwt>
<totfact> 0.11533626E+05</totfact>
</mgrwt>
</event>
<event>
 4    1  0.4102458E+000  0.4261317E+03  0.7546771E-02  0.1035089E+00
         21   -1    0    0  503  502  0.00000000000E+00  0.00000000000E+00  0.27015497646E+03  0.27015497646E+03  0.00000000000E+00 0. -1.
         21   -1    0    0  501  503 -0.00000000000E+00 -0.00000000000E+00 -0.88527305090E+03  0.88527305090E+03  0.00000000000E+00 0.  1.
          6    1    1    2  501    0 -0.24690007974E+03 -0.30116364229E+03 -0.59100887419E+03  0.72861490391E+03  0.17300000000E+03 0.  1.
         -6    1    1    2    0  502  0.24690007974E+03  0.30116364229E+03 -0.24109200255E+02  0.42681312345E+03  0.17300000000E+03 0. -1.
<mgrwt>
<rscale>  2 0.42613166E+03</rscale>
<asrwt>0</asrwt>
<pdfrwt beam="1">  1       21 0.41562303E-01 0.42613166E+03</pdfrwt>
<pdfrwt beam="2">  1       21 0.13619586E+00 0.42613166E+03</pdfrwt>
<totfact> 0.18525017E+03</totfact>
</mgrwt>
</event>
<event>
 4    1  0.4102458E+000  0.2129128E+03  0.7546771E-02  0.1139280E+00
         21   -1    0    0  503  502  0.00000000000E+00  0.00000000000E+00  0.35900469826E+03  0.35900469826E+03  0.00000000000E+00 0.  1.
         21   -1    0    0  501  503 -0.00000000000E+00 -0.00000000000E+00 -0.13591088053E+03  0.13591088053E+03  0.00000000000E+00 0. -1.
          6    1    1    2  501    0  0.14884760306E+02  0.12321246765E+03  0.45643069072E+02  0.21775021935E+03  0.17300000000E+03 0.  1.
         -6    1    1    2    0  502 -0.14884760306E+02 -0.12321246765E+03  0.17745074866E+03  0.27716535944E+03  0.17300000000E+03 0. -1.
<mgrwt>
<rscale>  2 0.21291282E+03</rscale>
<asrwt>0</asrwt>
<pdfrwt beam="1">  1       21 0.55231492E-01 0.21291282E+03</pdfrwt>
<pdfrwt beam="2">  1       21 0.20909366E-01 0.21291282E+03</pdfrwt>
<totfact> 0.65066067E+04</totfact>
</mgrwt>
</event>
<event>
 4    1  0.4102458E+000  0.2658833E+03  0.7546771E-02  0.1103659E+00
         21   -1    0    0  503  502  0.00000000000E+00  0.00000000000E+00  0.17183934092E+04  0.17183934092E+04  0.00000000000E+00 0.  1.
         21   -1    0    0  501  503 -0.00000000000E+00 -0.00000000000E+00 -0.46890225908E+02  0.46890225908E+02  0.00000000000E+00 0.  1.
          6    1    1    2  501    0  0.19351960060E+03  0.57576837304E+02  0.52664884681E+03  0.58996011378E+03  0.17300000000E+03 0.  1.
         -6    1    1    2    0  502 -0.19351960060E+03 -0.57576837304E+02  0.11448543365E+04  0.11753235213E+04  0.17300000000E+03 0.  1.
<mgrwt>
<rscale>  2 0.26588330E+03</rscale>
<asrwt>0</asrwt>
<pdfrwt beam="1">  1       21 0.26436817E+00 0.26588330E+03</pdfrwt>
<pdfrwt beam="2">  1       21 0.72138822E-02 0.26588330E+03</pdfrwt>
<totfact> 0.73789092E+03</totfact>
</mgrwt>
</event>
<event>
 4    1  0.4102458E+000  0.2263447E+03  0.7546771E-02  0.1129239E+00
         21   -1    0    0  501  502  0.00000000000E+00  0.00000000000E+00  0.89955431355E+02  0.89955431355E+02  0.00000000000E+00 0.  1.
         21   -1    0    0  502  503 -0.00000000000E+00 -0.00000000000E+00 -0.70448760307E+03  0.70448760307E+03  0.00000000000E+00 0.  1.
          6    1    1    2  501    0  0.77257809080E+01 -0.14575060949E+03 -0.13340526587E+03  0.26273350152E+03  0.17300000000E+03 0.  1.
         -6    1    1    2    0  503 -0.77257809080E+01  0.14575060949E+03 -0.48112690585E+03  0.53170953291E+03  0.17300000000E+03 0.  1.
<mgrwt>
<rscale>  2 0.22634471E+03</rscale>
<asrwt>0</asrwt>
<pdfrwt beam="1">  1       21 0.13839298E-01 0.22634471E+03</pdfrwt>
<pdfrwt beam="2">  1       21 0.10838270E+00 0.22634471E+03</pdfrwt>
<totfact> 0.30164465E+04</totfact>
</mgrwt>
</event>
<event>
 4    1  0.4102458E+000  0.2314832E+03  0.7546771E-02  0.1125600E+00
         21   -1    0    0  501  502  0.00000000000E+00  0.00000000000E+00  0.11746799090E+04  0.11746799090E+04  0.00000000000E+00 0.  1.
         21   -1    0    0  502  503 -0.00000000000E+00 -0.00000000000E+00 -0.29522923188E+03  0.29522923188E+03  0.00000000000E+00 0. -1.
          6    1    1    2  501    0 -0.12303392670E+03  0.92293572897E+02  0.11155194944E+04  0.11392840704E+04  0.17300000000E+03 0.  1.
         -6    1    1    2    0  503  0.12303392670E+03 -0.92293572897E+02 -0.23606881729E+03  0.33062507046E+03  0.17300000000E+03 0. -1.
<mgrwt>
<rscale>  2 0.23148315E+03</rscale>
<asrwt>0</asrwt>
<pdfrwt beam="1">  1       21 0.18071998E+00 0.23148315E+03</pdfrwt>
<pdfrwt beam="2">  1       21 0.45419883E-01 0.23148315E+03</pdfrwt>
<totfact> 0.80324989E+02</totfact>
</mgrwt>
</event>
<event>
 4    1  0.4102458E+000  0.2086910E+03  0.7546771E-02  0.1142607E+00
         21   -1    0    0  501  502  0.00000000000E+00  0.00000000000E+00  0.72204923263E+03  0.72204923263E+03  0.00000000000E+00 0.  1.
         21   -1    0    0  502  503 -0.00000000000E+00 -0.00000000000E+00 -0.15445169660E+03  0.15445169660E+03  0.00000000000E+00 0.  1.
          6    1    1    2  501    0 -0.22891636151E+02  0.11445037704E+03  0.62593626699E+03  0.65980915888E+03  0.17300000000E+03 0.  1.
         -6    1    1    2    0  503  0.22891636151E+02 -0.11445037704E+03 -0.58338730946E+02  0.21669177035E+03  0.17300000000E+03 0.  1.
<mgrwt>
<rscale>  2 0.20869096E+03</rscale>
<asrwt>0</asrwt>
<pdfrwt beam="1">  1       21 0.11108450E+00 0.20869096E+03</pdfrwt>
<pdfrwt beam="2">  1       21 0.23761800E-01 0.20869096E+03</pdfrwt>
<totfact> 0.10522291E+04</totfact>
</mgrwt>
</event>
<event>
 4    1  0.4102458E+000  0.1787519E+03  0.7546771E-02  0.1169016E+00
         21   -1    0    0  501  502  0.00000000000E+00  0.00000000000E+00  0.61488205905E+02  0.61488205905E+02  0.00000000000E+00 0.  1.
         21   -1    0    0  502  503 -0.00000000000E+00 -0.00000000000E+00 -0.53580369705E+03  0.53580369705E+03  0.00000000000E+00 0.  1.
          6    1    1    2  501    0 -0.34266330198E+02  0.29138939751E+02 -0.18530058115E+03  0.25746565707E+03  0.17300000000E+03 0. -1.
         -6    1    1    2    0  503  0.34266330198E+02 -0.29138939751E+02 -0.28901491000E+03  0.33982624589E+03  0.17300000000E+03 0. -1.
<mgrwt>
<rscale>  2 0.17875195E+03</rscale>
<asrwt>0</asrwt>
<pdfrwt beam="1">  1       21 0.94597238E-02 0.17875195E+03</pdfrwt>
<pdfrwt beam="2">  1       21 0.82431340E-01 0.17875195E+03</pdfrwt>
<totfact> 0.11561700E+05</totfact>
</mgrwt>
</event>
<event>
 4    1  0.4102458E+000  0.1870902E+03  0.7546771E-02  0.1161112E+00
         21   -1    0    0  501  502  0.00000000000E+00  0.00000000000E+00  0.24521274180E+03  0.24521274180E+03  0.00000000000E+00 0.  1.
         21   -1    0    0  502  503 -0.00000000000E+00 -0.00000000000E+00 -0.14689660057E+03  0.14689660057E+03  0.00000000000E+00 0. -1.
          6    1    1    2  501    0 -0.34471705631E+02  0.62333463216E+02  0.82119620169E+02  0.20431933619E+03  0.17300000000E+03 0. -1.
         -6    1    1    2    0  503  0.34471705631E+02 -0.62333463216E+02  0.16196521068E+02  0.18779000618E+03  0.17300000000E+03 0. -1.
<mgrwt>
<rscale>  2 0.18709024E+03</rscale>
<asrwt>0</asrwt>
<pdfrwt beam="1">  1       21 0.37725037E-01 0.18709024E+03</pdfrwt>
<pdfrwt beam="2">  1       21 0.22599477E-01 0.18709024E+03</pdfrwt>
<totfact> 0.12457637E+05</totfact>
</mgrwt>
</event>
<event>
 4    1  0.4102458E+000  0.2350797E+03  0.7546771E-02  0.1123115E+00
         21   -1    0    0  501  502  0.00000000000E+00  0.00000000000E+00  0.53070532500E+03  0.53070532500E+03  0.00000000000E+00 0.  1.
         21   -1    0    0  502  503 -0.00000000000E+00 -0.00000000000E+00 -0.60225035279E+03  0.60225035279E+03  0.00000000000E+00 0. -1.
          6    1    1    2  501    0  0.68088718828E+02  0.14386594025E+03  0.47941036786E+03  0.53394455068E+03  0.17300000000E+03 0.  1.
         -6    1    1    2    0  503 -0.68088718828E+02 -0.14386594025E+03 -0.55095539565E+03  0.59901112710E+03  0.17300000000E+03 0. -1.
<mgrwt>
<rscale>  2 0.23507974E+03</rscale>
<asrwt>0</asrwt>
<pdfrwt beam="1">  1       21 0.81646973E-01 0.23507974E+03</pdfrwt>
<pdfrwt beam="2">  1       21 0.92653900E-01 0.23507974E+03</pdfrwt>
<totfact> 0.12412624E+03</totfact>
</mgrwt>
</event>
<event>
 4    1  0.4102458E+000  0.2256930E+03  0.7546771E-02  0.1129708E+00
         21   -1    0    0  501  502  0.00000000000E+00  0.00000000000E+00  0.10296451860E+03  0.10296451860E+03  0.00000000000E+00 0.  1.
         21   -1    0    0  502  503 -0.00000000000E+00 -0.00000000000E+00 -0.58013114696E+03  0.58013114696E+03  0.00000000000E+00 0.  1.
          6    1    1    2  501    0 -0.10920675636E+03  0.95300661546E+02 -0.10752119164E+03  0.24999627673E+03  0.17300000000E+03 0.  1.
         -6    1    1    2    0  503  0.10920675636E+03 -0.95300661546E+02 -0.36964543671E+03  0.43309938883E+03  0.17300000000E+03 0.  1.
<mgrwt>
<rscale>  2 0.22569300E+03</rscale>
<asrwt>0</asrwt>
<pdfrwt beam="1">  1       21 0.15840695E-01 0.22569300E+03</pdfrwt>
<pdfrwt beam="2">  1       21 0.89250948E-01 0.22569300E+03</pdfrwt>
<totfact> 0.37391791E+04</totfact>
</mgrwt>
</event>
<event>
 4    1  0.4102458E+000  0.2286735E+03  0.7546771E-02  0.1127577E+00
         21   -1    0    0  501  502  0.00000000000E+00  0.00000000000E+00  0.14198341451E+04  0.14198341451E+04  0.00000000000E+00 0. -1.
         21   -1    0    0  502  503 -0.00000000000E+00 -0.00000000000E+00 -0.42543843568E+02  0.42543843568E+02  0.00000000000E+00 0.  1.
          6    1    1    2  501    0 -0.11631600993E+02 -0.14908818064E+03  0.95662359529E+03  0.98357525528E+03  0.17300000000E+03 0. -1.
         -6    1    1    2    0  503  0.11631600993E+02  0.14908818064E+03  0.42066670622E+03  0.47880273336E+03  0.17300000000E+03 0. -1.
<mgrwt>
<rscale>  2 0.22867352E+03</rscale>
<asrwt>0</asrwt>
<pdfrwt beam="1">  1       21 0.21843599E+00 0.22867352E+03</pdfrwt>
<pdfrwt beam="2">  1       21 0.65452078E-02 0.22867352E+03</pdfrwt>
<totfact> 0.16987261E+04</totfact>
</mgrwt>
</event>
<event>
 4    1  0.4102458E+000  0.1844467E+03  0.7546771E-02  0.1163568E+00
         21   -1    0    0  503  502  0.00000000000E+00  0.00000000000E+00  0.20102682416E+04  0.20102682416E+04  0.00000000000E+00 0.  1.
         21   -1    0    0  501  503 -0.00000000000E+00 -0.00000000000E+00 -0.20968987036E+02  0.20968987036E+02  0.00000000000E+00 0.  1.
          6    1    1    2  501    0 -0.31483216633E+02  0.55681302136E+02  0.54854987101E+03  0.57872926427E+03  0.17300000000E+03 0.  1.
         -6    1    1    2    0  502  0.31483216633E+02 -0.55681302136E+02  0.14407493836E+04  0.14525079644E+04  0.17300000000E+03 0.  1.
<mgrwt>
<rscale>  2 0.18444674E+03</rscale>
<asrwt>0</asrwt>
<pdfrwt beam="1">  1       21 0.30927189E+00 0.18444674E+03</pdfrwt>
<pdfrwt beam="2">  1       21 0.32259996E-02 0.18444674E+03</pdfrwt>
<totfact> 0.17081334E+04</totfact>
</mgrwt>
</event>
<event>
 4    1  0.4102458E+000  0.1799910E+03  0.7546771E-02  0.1167812E+00
         21   -1    0    0  501  502  0.00000000000E+00  0.00000000000E+00  0.42049293375E+03  0.42049293375E+03  0.00000000000E+00 0.  1.
         21   -1    0    0  502  503 -0.00000000000E+00 -0.00000000000E+00 -0.16974016134E+03  0.16974016134E+03  0.00000000000E+00 0.  1.
          6    1    1    2  501    0 -0.86629482348E+01 -0.48915440741E+02  0.34346370207E+03  0.38776807714E+03  0.17300000000E+03 0.  1.
         -6    1    1    2    0  503  0.86629482348E+01  0.48915440741E+02 -0.92710929651E+02  0.20246501795E+03  0.17300000000E+03 0.  1.
<mgrwt>
<rscale>  2 0.17999102E+03</rscale>
<asrwt>0</asrwt>
<pdfrwt beam="1">  1       21 0.64691220E-01 0.17999102E+03</pdfrwt>
<pdfrwt beam="2">  1       21 0.26113871E-01 0.17999102E+03</pdfrwt>
<totfact> 0.30897372E+04</totfact>
</mgrwt>
</event>
<event>
 4    1  0.4102458E+000  0.1995504E+03  0.7546771E-02  0.1150119E+00
         21   -1    0    0  501  502  0.00000000000E+00  0.00000000000E+00  0.54049942896E+03  0.54049942896E+03  0.00000000000E+00 0. -1.
         21   -1    0    0  502  503 -0.00000000000E+00 -0.00000000000E+00 -0.89497174153E+02  0.89497174153E+02  0.00000000000E+00 0. -1.
          6    1    1    2  501    0 -0.82299077523E+02 -0.55841149954E+02  0.35795360070E+03  0.40981843839E+03  0.17300000000E+03 0.  1.
         -6    1    1    2    0  503  0.82299077523E+02  0.55841149954E+02  0.93048654105E+02  0.22017816472E+03  0.17300000000E+03 0.  1.
<mgrwt>
<rscale>  2 0.19955043E+03</rscale>
<asrwt>0</asrwt>
<pdfrwt beam="1">  1       21 0.83153756E-01 0.19955043E+03</pdfrwt>
<pdfrwt beam="2">  1       21 0.13768796E-01 0.19955043E+03</pdfrwt>
<totfact> 0.57539237E+04</totfact>
</mgrwt>
</event>
<event>
 4    1  0.4102458E+000  0.2133159E+03  0.7546771E-02  0.1138967E+00
         21   -1    0    0  503  502  0.00000000000E+00  0.00000000000E+00  0.11389864858E+03  0.11389864858E+03  0.00000000000E+00 0.  1.
         21   -1    0    0  501  503 -0.00000000000E+00 -0.00000000000E+00 -0.42560446034E+03  0.42560446034E+03  0.00000000000E+00 0.  1.
          6    1    1    2  501    0  0.54008592629E+02 -0.11250671215E+03 -0.22264609224E+03  0.30834229477E+03  0.17300000000E+03 0.  1.
         -6    1    1    2    0  502 -0.54008592629E+02  0.11250671215E+03 -0.89059719523E+02  0.23116081415E+03  0.17300000000E+03 0.  1.
<mgrwt>
<rscale>  2 0.21331594E+03</rscale>
<asrwt>0</asrwt>
<pdfrwt beam="1">  1       21 0.17522869E-01 0.21331594E+03</pdfrwt>
<pdfrwt beam="2">  1       21 0.65477609E-01 0.21331594E+03</pdfrwt>
<totfact> 0.62688643E+04</totfact>
</mgrwt>
</event>
<event>
 4    1  0.4102458E+000  0.1803143E+03  0.7546771E-02  0.1167499E+00
         21   -1    0    0  501  502  0.00000000000E+00  0.00000000000E+00  0.15572009614E+03  0.15572009614E+03  0.00000000000E+00 0.  1.
         21   -1    0    0  502  503 -0.00000000000E+00 -0.00000000000E+00 -0.28842525007E+03  0.28842525007E+03  0.00000000000E+00 0.  1.
          6    1    1    2  501    0 -0.49044753848E+02  0.13373425967E+02  0.50334696938E+02  0.18720795421E+03  0.17300000000E+03 0.  1.
         -6    1    1    2    0  503  0.49044753848E+02 -0.13373425967E+02 -0.18303985086E+03  0.25693739200E+03  0.17300000000E+03 0.  1.
<mgrwt>
<rscale>  2 0.18031427E+03</rscale>
<asrwt>0</asrwt>
<pdfrwt beam="1">  1       21 0.23956938E-01 0.18031427E+03</pdfrwt>
<pdfrwt beam="2">  1       21 0.44373115E-01 0.18031427E+03</pdfrwt>
<totfact> 0.80520654E+04</totfact>
</mgrwt>
</event>
<event>
 4    1  0.4102458E+000  0.1802716E+03  0.7546771E-02  0.1167540E+00
         21   -1    0    0  501  502  0.00000000000E+00  0.00000000000E+00  0.75012168113E+03  0.75012168113E+03  0.00000000000E+00 0. -1.
         21   -1    0    0  502  503 -0.00000000000E+00 -0.00000000000E+00 -0.45175121901E+02  0.45175121901E+02  0.00000000000E+00 0. -1.
          6    1    1    2  501    0 -0.49484443072E+02 -0.10961403578E+02  0.27196675625E+03  0.32628787746E+03  0.17300000000E+03 0. -1.
         -6    1    1    2    0  503  0.49484443072E+02  0.10961403578E+02  0.43297980298E+03  0.46900892557E+03  0.17300000000E+03 0. -1.
<mgrwt>
<rscale>  2 0.18027164E+03</rscale>
<asrwt>0</asrwt>
<pdfrwt beam="1">  1       21 0.11540333E+00 0.18027164E+03</pdfrwt>
<pdfrwt beam="2">  1       21 0.69500193E-02 0.18027164E+03</pdfrwt>
<totfact> 0.89509737E+04</totfact>
</mgrwt>
</event>
<event>
 4    1  0.4102458E+000  0.1999010E+03  0.7546771E-02  0.1149823E+00
         21   -1    0    0  501  502  0.00000000000E+00  0.00000000000E+00  0.49141075821E+02  0.49141075821E+02  0.00000000000E+00 0. -1.
         21   -1    0    0  502  503 -0.00000000000E+00 -0.00000000000E+00 -0.81606690584E+03  0.81606690584E+03  0.00000000000E+00 0. -1.
          6    1    1    2  501    0 -0.98813024599E+02  0.16352013914E+02 -0.35772017084E+03  0.40978545949E+03  0.17300000000E+03 0.  1.
         -6    1    1    2    0  503  0.98813024599E+02 -0.16352013914E+02 -0.40920565919E+03  0.45542252217E+03  0.17300000000E+03 0.  1.
<mgrwt>
<rscale>  2 0.19990098E+03</rscale>
<asrwt>0</asrwt>
<pdfrwt beam="1">  1       21 0.75601656E-02 0.19990098E+03</pdfrwt>
<pdfrwt beam="2">  1       21 0.12554875E+00 0.19990098E+03</pdfrwt>
<totfact> 0.62234378E+04</totfact>
</mgrwt>
</event>
<event>
 4    1  0.4102458E+000  0.1988860E+03  0.7546771E-02  0.1150682E+00
         21   -1    0    0  501  502  0.00000000000E+00  0.00000000000E+00  0.47665476486E+02  0.47665476486E+02  0.00000000000E+00 0. -1.
         21   -1    0    0  502  503 -0.00000000000E+00 -0.00000000000E+00 -0.10444015825E+04  0.10444015825E+04  0.00000000000E+00 0. -1.
          6    1    1    2  501    0 -0.97511713932E+02  0.10866932034E+02 -0.25088680078E+03  0.32015591728E+03  0.17300000000E+03 0. -1.
         -6    1    1    2    0  503  0.97511713932E+02 -0.10866932034E+02 -0.74584930521E+03  0.77191114168E+03  0.17300000000E+03 0. -1.
<mgrwt>
<rscale>  2 0.19888596E+03</rscale>
<asrwt>0</asrwt>
<pdfrwt beam="1">  1       21 0.73331500E-02 0.19888596E+03</pdfrwt>
<pdfrwt beam="2">  1       21 0.16067717E+00 0.19888596E+03</pdfrwt>
<totfact> 0.34597280E+04</totfact>
</mgrwt>
</event>
<event>
 4    1  0.4102458E+000  0.2371007E+03  0.7546771E-02  0.1121739E+00
         21   -1    0    0  501  502  0.00000000000E+00  0.00000000000E+00  0.11023915909E+03  0.11023915909E+03  0.00000000000E+00 0. -1.
         21   -1    0    0  502  503 -0.00000000000E+00 -0.00000000000E+00 -0.65358424070E+03  0.65358424070E+03  0.00000000000E+00 0.  1.
          6    1    1    2  501    0 -0.15872429505E+03 -0.33080653958E+02 -0.92637749610E+02  0.25455546381E+03  0.17300000000E+03 0. -1.
         -6    1    1    2    0  503  0.15872429505E+03  0.33080653958E+02 -0.45070733200E+03  0.50926793598E+03  0.17300000000E+03 0.  1.
<mgrwt>
<rscale>  2 0.23710068E+03</rscale>
<asrwt>0</asrwt>
<pdfrwt beam="1">  1       21 0.16959870E-01 0.23710068E+03</pdfrwt>
<pdfrwt beam="2">  1       21 0.10055142E+00 0.23710068E+03</pdfrwt>
<totfact> 0.24767522E+04</totfact>
</mgrwt>
</event>
<event>
 4    1  0.4102458E+000  0.1758440E+03  0.7546771E-02  0.1171887E+00
         21   -1    0    0  503  502  0.00000000000E+00  0.00000000000E+00  0.11671829781E+03  0.11671829781E+03  0.00000000000E+00 0.  1.
         21   -1    0    0  501  503 -0.00000000000E+00 -0.00000000000E+00 -0.27095438591E+03  0.27095438591E+03  0.00000000000E+00 0. -1.
          6    1    1    2  501    0 -0.26309049933E+02  0.17319132268E+02 -0.10604286388E+03  0.20534411954E+03  0.17300000000E+03 0.  1.
         -6    1    1    2    0  502  0.26309049933E+02 -0.17319132268E+02 -0.48193224221E+02  0.18232856417E+03  0.17300000000E+03 0.  1.
<mgrwt>
<rscale>  2 0.17584402E+03</rscale>
<asrwt>0</asrwt>
<pdfrwt beam="1">  1       21 0.17956661E-01 0.17584402E+03</pdfrwt>
<pdfrwt beam="2">  1       21 0.41685290E-01 0.17584402E+03</pdfrwt>
<totfact> 0.15708258E+05</totfact>
</mgrwt>
</event>
<event>
 4    1  0.4102458E+000  0.2298689E+03  0.7546771E-02  0.1126732E+00
         21   -1    0    0  503  502  0.00000000000E+00  0.00000000000E+00  0.17186026683E+03  0.17186026683E+03  0.00000000000E+00 0.  1.
         21   -1    0    0  501  503 -0.00000000000E+00 -0.00000000000E+00 -0.47197712476E+03  0.47197712476E+03  0.00000000000E+00 0. -1.
          6    1    1    2  501    0 -0.12224824380E+03 -0.89252937000E+02 -0.34012014315E+03  0.41051361933E+03  0.17300000000E+03 0. -1.
         -6    1    1    2    0  502  0.12224824380E+03  0.89252937000E+02  0.40003285220E+02  0.23332377227E+03  0.17300000000E+03 0.  1.
<mgrwt>
<rscale>  2 0.22986892E+03</rscale>
<asrwt>0</asrwt>
<pdfrwt beam="1">  1       21 0.26440041E-01 0.22986892E+03</pdfrwt>
<pdfrwt beam="2">  1       21 0.72611865E-01 0.22986892E+03</pdfrwt>
<totfact> 0.22769255E+04</totfact>
</mgrwt>
</event>
<event>
 4    1  0.4102458E+000  0.2046314E+03  0.7546771E-02  0.1145889E+00
         21   -1    0    0  503  502  0.00000000000E+00  0.00000000000E+00  0.10925858939E+04  0.10925858939E+04  0.00000000000E+00 0. -1.
         21   -1    0    0  501  503 -0.00000000000E+00 -0.00000000000E+00 -0.41054434219E+02  0.41054434219E+02  0.00000000000E+00 0. -1.
          6    1    1    2  501    0  0.43899764079E+02 -0.10008912600E+03  0.37963117465E+03  0.43127004440E+03  0.17300000000E+03 0. -1.
         -6    1    1    2    0  502 -0.43899764079E+02  0.10008912600E+03  0.67190028502E+03  0.70237028371E+03  0.17300000000E+03 0. -1.
<mgrwt>
<rscale>  2 0.20463143E+03</rscale>
<asrwt>0</asrwt>
<pdfrwt beam="1">  1       21 0.16809012E+00 0.20463143E+03</pdfrwt>
<pdfrwt beam="2">  1       21 0.63160676E-02 0.20463143E+03</pdfrwt>
<totfact> 0.39448673E+04</totfact>
</mgrwt>
</event>
<event>
 4    1  0.4102458E+000  0.2219526E+03  0.7546771E-02  0.1132436E+00
         21   -1    0    0  501  502  0.00000000000E+00  0.00000000000E+00  0.31988567390E+03  0.31988567390E+03  0.00000000000E+00 0. -1.
         21   -1    0    0  502  503 -0.00000000000E+00 -0.00000000000E+00 -0.39694301577E+03  0.39694301577E+03  0.00000000000E+00 0. -1.
          6    1    1    2  501    0 -0.11985354401E+03 -0.70491705234E+02  0.24186741604E+03  0.32827244700E+03  0.17300000000E+03 0. -1.
         -6    1    1    2    0  503  0.11985354401E+03  0.70491705234E+02 -0.31892475791E+03  0.38855624268E+03  0.17300000000E+03 0. -1.
<mgrwt>
<rscale>  2 0.22195259E+03</rscale>
<asrwt>0</asrwt>
<pdfrwt beam="1">  1       21 0.49213180E-01 0.22195259E+03</pdfrwt>
<pdfrwt beam="2">  1       21 0.61068156E-01 0.22195259E+03</pdfrwt>
<totfact> 0.96346771E+03</totfact>
</mgrwt>
</event>
<event>
 4    1  0.4102458E+000  0.2680931E+03  0.7546771E-02  0.1102376E+00
         21   -1    0    0  501  502  0.00000000000E+00  0.00000000000E+00  0.13496671577E+03  0.13496671577E+03  0.00000000000E+00 0.  1.
         21   -1    0    0  502  503 -0.00000000000E+00 -0.00000000000E+00 -0.66561720245E+03  0.66561720245E+03  0.00000000000E+00 0. -1.
          6    1    1    2  501    0  0.19809932891E+03 -0.51976350436E+02 -0.86333902819E+02  0.28165125225E+03  0.17300000000E+03 0. -1.
         -6    1    1    2    0  503 -0.19809932891E+03  0.51976350436E+02 -0.44431658386E+03  0.51893266597E+03  0.17300000000E+03 0.  1.
<mgrwt>
<rscale>  2 0.26809305E+03</rscale>
<asrwt>0</asrwt>
<pdfrwt beam="1">  1       21 0.20764110E-01 0.26809305E+03</pdfrwt>
<pdfrwt beam="2">  1       21 0.10240265E+00 0.26809305E+03</pdfrwt>
<totfact> 0.15994944E+04</totfact>
</mgrwt>
</event>
<event>
 4    1  0.4102458E+000  0.2094797E+03  0.7546771E-02  0.1141979E+00
         21   -1    0    0  501  502  0.00000000000E+00  0.00000000000E+00  0.11204386462E+03  0.11204386462E+03  0.00000000000E+00 0. -1.
         21   -1    0    0  502  503 -0.00000000000E+00 -0.00000000000E+00 -0.40048502442E+03  0.40048502442E+03  0.00000000000E+00 0. -1.
          6    1    1    2  501    0 -0.11652869504E+03  0.19333682531E+02 -0.10615308839E+03  0.23484081038E+03  0.17300000000E+03 0. -1.
         -6    1    1    2    0  503  0.11652869504E+03 -0.19333682531E+02 -0.18228807141E+03  0.27768807866E+03  0.17300000000E+03 0. -1.
<mgrwt>
<rscale>  2 0.20947966E+03</rscale>
<asrwt>0</asrwt>
<pdfrwt beam="1">  1       21 0.17237517E-01 0.20947966E+03</pdfrwt>
<pdfrwt beam="2">  1       21 0.61613081E-01 0.20947966E+03</pdfrwt>
<totfact> 0.73875392E+04</totfact>
</mgrwt>
</event>
<event>
 4    1  0.4102458E+000  0.1962917E+03  0.7546771E-02  0.1152906E+00
         21   -1    0    0  503  502  0.00000000000E+00  0.00000000000E+00  0.11376276059E+04  0.11376276059E+04  0.00000000000E+00 0. -1.
         21   -1    0    0  501  503 -0.00000000000E+00 -0.00000000000E+00 -0.33881229839E+02  0.33881229839E+02  0.00000000000E+00 0.  1.
          6    1    1    2  501    0  0.17293308918E+02 -0.91117385803E+02  0.56295097064E+03  0.59619143895E+03  0.17300000000E+03 0. -1.
         -6    1    1    2    0  502 -0.17293308918E+02  0.91117385803E+02  0.54079540545E+03  0.57531739682E+03  0.17300000000E+03 0.  1.
<mgrwt>
<rscale>  2 0.19629171E+03</rscale>
<asrwt>0</asrwt>
<pdfrwt beam="1">  1       21 0.17501960E+00 0.19629171E+03</pdfrwt>
<pdfrwt beam="2">  1       21 0.52124978E-02 0.19629171E+03</pdfrwt>
<totfact> 0.49233106E+04</totfact>
</mgrwt>
</event>
<event>
 4    1  0.4102458E+000  0.2170133E+03  0.7546771E-02  0.1136130E+00
         21   -1    0    0  503  502  0.00000000000E+00  0.00000000000E+00  0.46293235854E+03  0.46293235854E+03  0.00000000000E+00 0.  1.
         21   -1    0    0  501  503 -0.00000000000E+00 -0.00000000000E+00 -0.12901825235E+03  0.12901825235E+03  0.00000000000E+00 0.  1.
          6    1    1    2  501    0 -0.12359522338E+03 -0.43473874672E+02  0.30841855143E+02  0.21919392567E+03  0.17300000000E+03 0.  1.
         -6    1    1    2    0  502  0.12359522338E+03  0.43473874672E+02  0.30307225104E+03  0.37275668522E+03  0.17300000000E+03 0.  1.
<mgrwt>
<rscale>  2 0.21701326E+03</rscale>
<asrwt>0</asrwt>
<pdfrwt beam="1">  1       21 0.71220362E-01 0.21701326E+03</pdfrwt>
<pdfrwt beam="2">  1       21 0.19848962E-01 0.21701326E+03</pdfrwt>
<totfact> 0.41244300E+04</totfact>
</mgrwt>
</event>
<event>
 4    1  0.4102458E+000  0.1848840E+03  0.7546771E-02  0.1163158E+00
         21   -1    0    0  503  502  0.00000000000E+00  0.00000000000E+00  0.89907968491E+03  0.89907968491E+03  0.00000000000E+00 0. -1.
         21   -1    0    0  501  503 -0.00000000000E+00 -0.00000000000E+00 -0.51753639317E+02  0.51753639317E+02  0.00000000000E+00 0. -1.
          6    1    1    2  501    0 -0.12985008537E+02 -0.63910005250E+02  0.17874949178E+03  0.25716430551E+03  0.17300000000E+03 0. -1.
         -6    1    1    2    0  502  0.12985008537E+02  0.63910005250E+02  0.66857655380E+03  0.69366901871E+03  0.17300000000E+03 0. -1.
<mgrwt>
<rscale>  2 0.18488402E+03</rscale>
<asrwt>0</asrwt>
<pdfrwt beam="1">  1       21 0.13831994E+00 0.18488402E+03</pdfrwt>
<pdfrwt beam="2">  1       21 0.79620991E-02 0.18488402E+03</pdfrwt>
<totfact> 0.44859287E+04</totfact>
</mgrwt>
</event>
<event>
 4    1  0.4102458E+000  0.1850867E+03  0.7546771E-02  0.1162969E+00
         21   -1    0    0  503  502  0.00000000000E+00  0.00000000000E+00  0.49331957482E+03  0.49331957482E+03  0.00000000000E+00 0.  1.
         21   -1    0    0  501  503 -0.00000000000E+00 -0.00000000000E+00 -0.82100363864E+02  0.82100363864E+02  0.00000000000E+00 0.  1.
          6    1    1    2  501    0 -0.62584754092E+02  0.20278943734E+02  0.92637418314E+02  0.20697530837E+03  0.17300000000E+03 0.  1.
         -6    1    1    2    0  502  0.62584754092E+02 -0.20278943734E+02  0.31858179265E+03  0.36844463032E+03  0.17300000000E+03 0.  1.
<mgrwt>
<rscale>  2 0.18508670E+03</rscale>
<asrwt>0</asrwt>
<pdfrwt beam="1">  1       21 0.75895317E-01 0.18508670E+03</pdfrwt>
<pdfrwt beam="2">  1       21 0.12630826E-01 0.18508670E+03</pdfrwt>
<totfact> 0.83145196E+04</totfact>
</mgrwt>
</event>
<event>
 4    1  0.4102458E+000  0.1793653E+03  0.7546771E-02  0.1168419E+00
         21   -1    0    0  501  502  0.00000000000E+00  0.00000000000E+00  0.93467140775E+02  0.93467140775E+02  0.00000000000E+00 0.  1.
         21   -1    0    0  502  503 -0.00000000000E+00 -0.00000000000E+00 -0.68620687369E+03  0.68620687369E+03  0.00000000000E+00 0.  1.
          6    1    1    2  501    0 -0.26962526154E+02 -0.38934813637E+02 -0.21156513789E+02  0.18060868087E+03  0.17300000000E+03 0.  1.
         -6    1    1    2    0  503  0.26962526154E+02  0.38934813637E+02 -0.57158321912E+03  0.59906533359E+03  0.17300000000E+03 0.  1.
<mgrwt>
<rscale>  2 0.17936526E+03</rscale>
<asrwt>0</asrwt>
<pdfrwt beam="1">  1       21 0.14379560E-01 0.17936526E+03</pdfrwt>
<pdfrwt beam="2">  1       21 0.10557029E+00 0.17936526E+03</pdfrwt>
<totfact> 0.30779712E+04</totfact>
</mgrwt>
</event>
<event>
 4    1  0.4102458E+000  0.1825867E+03  0.7546771E-02  0.1165323E+00
         21   -1    0    0  503  502  0.00000000000E+00  0.00000000000E+00  0.65712039786E+02  0.65712039786E+02  0.00000000000E+00 0.  1.
         21   -1    0    0  501  503 -0.00000000000E+00 -0.00000000000E+00 -0.50924908589E+03  0.50924908589E+03  0.00000000000E+00 0.  1.
          6    1    1    2  501    0  0.15156593249E+02  0.56384312823E+02 -0.20413639753E+03  0.27387877217E+03  0.17300000000E+03 0. -1.
         -6    1    1    2    0  502 -0.15156593249E+02 -0.56384312823E+02 -0.23940064858E+03  0.30108235350E+03  0.17300000000E+03 0. -1.
<mgrwt>
<rscale>  2 0.18258673E+03</rscale>
<asrwt>0</asrwt>
<pdfrwt beam="1">  1       21 0.10109544E-01 0.18258673E+03</pdfrwt>
<pdfrwt beam="2">  1       21 0.78346015E-01 0.18258673E+03</pdfrwt>
<totfact> 0.11518979E+05</totfact>
</mgrwt>
</event>
<event>
 4    1  0.4102458E+000  0.2000891E+03  0.7546771E-02  0.1149664E+00
         21   -1    0    0  503  502  0.00000000000E+00  0.00000000000E+00  0.86795668141E+02  0.86795668141E+02  0.00000000000E+00 0. -1.
         21   -1    0    0  501  503 -0.00000000000E+00 -0.00000000000E+00 -0.52074265481E+03  0.52074265481E+03  0.00000000000E+00 0.  1.
          6    1    1    2  501    0  0.70600318558E+02 -0.71569854996E+02 -0.31963686725E+03  0.37709862905E+03  0.17300000000E+03 0.  1.
         -6    1    1    2    0  502 -0.70600318558E+02  0.71569854996E+02 -0.11431011942E+03  0.23043969390E+03  0.17300000000E+03 0. -1.
<mgrwt>
<rscale>  2 0.20008910E+03</rscale>
<asrwt>0</asrwt>
<pdfrwt beam="1">  1       21 0.13353179E-01 0.20008910E+03</pdfrwt>
<pdfrwt beam="2">  1       21 0.80114256E-01 0.20008910E+03</pdfrwt>
<totfact> 0.66168346E+04</totfact>
</mgrwt>
</event>
<event>
 4    1  0.4102458E+000  0.2180919E+03  0.7546771E-02  0.1135314E+00
         21   -1    0    0  501  502  0.00000000000E+00  0.00000000000E+00  0.13549100636E+04  0.13549100636E+04  0.00000000000E+00 0.  1.
         21   -1    0    0  502  503 -0.00000000000E+00 -0.00000000000E+00 -0.35145089117E+02  0.35145089117E+02  0.00000000000E+00 0. -1.
          6    1    1    2  501    0  0.72462152473E+02 -0.11128490911E+03  0.68336128625E+03  0.71731913545E+03  0.17300000000E+03 0. -1.
         -6    1    1    2    0  503 -0.72462152473E+02  0.11128490911E+03  0.63640368828E+03  0.67273601731E+03  0.17300000000E+03 0.  1.
<mgrwt>
<rscale>  2 0.21809194E+03</rscale>
<asrwt>0</asrwt>
<pdfrwt beam="1">  1       21 0.20844766E+00 0.21809194E+03</pdfrwt>
<pdfrwt beam="2">  1       21 0.54069378E-02 0.21809194E+03</pdfrwt>
<totfact> 0.27442558E+04</totfact>
</mgrwt>
</event>
<event>
 4    1  0.4102458E+000  0.2190160E+03  0.7546771E-02  0.1134619E+00
         21   -1    0    0  501  502  0.00000000000E+00  0.00000000000E+00  0.23671777456E+02  0.23671777456E+02  0.00000000000E+00 0. -1.
         21   -1    0    0  502  503 -0.00000000000E+00 -0.00000000000E+00 -0.23106117871E+04  0.23106117871E+04  0.00000000000E+00 0. -1.
          6    1    1    2  501    0 -0.11928049092E+03  0.61734660135E+02 -0.73411806316E+03  0.76609224930E+03  0.17300000000E+03 0. -1.
         -6    1    1    2    0  503  0.11928049092E+03 -0.61734660135E+02 -0.15528219465E+04  0.15681913153E+04  0.17300000000E+03 0. -1.
<mgrwt>
<rscale>  2 0.21901599E+03</rscale>
<asrwt>0</asrwt>
<pdfrwt beam="1">  1       21 0.36418110E-02 0.21901599E+03</pdfrwt>
<pdfrwt beam="2">  1       21 0.35547883E+00 0.21901599E+03</pdfrwt>
<totfact> 0.72138503E+03</totfact>
</mgrwt>
</event>
<event>
 4    1  0.4102458E+000  0.2380510E+03  0.7546771E-02  0.1121098E+00
         21   -1    0    0  503  502  0.00000000000E+00  0.00000000000E+00  0.15763252925E+04  0.15763252925E+04  0.00000000000E+00 0. -1.
         21   -1    0    0  501  503 -0.00000000000E+00 -0.00000000000E+00 -0.37471599144E+02  0.37471599144E+02  0.00000000000E+00 0.  1.
          6    1    1    2  501    0 -0.59922566487E+02  0.15214655086E+03  0.60680725302E+03  0.65183075198E+03  0.17300000000E+03 0.  1.
         -6    1    1    2    0  502  0.59922566487E+02 -0.15214655086E+03  0.93204644038E+03  0.96196613971E+03  0.17300000000E+03 0. -1.
<mgrwt>
<rscale>  2 0.23805102E+03</rscale>
<asrwt>0</asrwt>
<pdfrwt beam="1">  1       21 0.24251153E+00 0.23805102E+03</pdfrwt>
<pdfrwt beam="2">  1       21 0.57648626E-02 0.23805102E+03</pdfrwt>
<totfact> 0.14974975E+04</totfact>
</mgrwt>
</event>
<event>
 4    1  0.4102458E+000  0.2411229E+03  0.7546771E-02  0.1119047E+00
         21   -1    0    0  503  502  0.00000000000E+00  0.00000000000E+00  0.61554417282E+02  0.61554417282E+02  0.00000000000E+00 0. -1.
         21   -1    0    0  501  503 -0.00000000000E+00 -0.00000000000E+00 -0.96166875265E+03  0.96166875265E+03  0.00000000000E+00 0.  1.
          6    1    1    2  501    0 -0.11149000443E+03  0.12562338301E+03 -0.38176618661E+03  0.45153701585E+03  0.17300000000E+03 0.  1.
         -6    1    1    2    0  502  0.11149000443E+03 -0.12562338301E+03 -0.51834814876E+03  0.57168615408E+03  0.17300000000E+03 0. -1.
<mgrwt>
<rscale>  2 0.24112291E+03</rscale>
<asrwt>0</asrwt>
<pdfrwt beam="1">  1       21 0.94699111E-02 0.24112291E+03</pdfrwt>
<pdfrwt beam="2">  1       21 0.14794903E+00 0.24112291E+03</pdfrwt>
<totfact> 0.26902459E+04</totfact>
</mgrwt>
</event>
<event>
 4    1  0.4102458E+000  0.1776732E+03  0.7546771E-02  0.1170074E+00
         21   -1    0    0  503  502  0.00000000000E+00  0.00000000000E+00  0.20386648649E+03  0.20386648649E+03  0.00000000000E+00 0. -1.
         21   -1    0    0  501  503 -0.00000000000E+00 -0.00000000000E+00 -0.22858636403E+03  0.22858636403E+03  0.00000000000E+00 0. -1.
          6    1    1    2  501    0  0.37579602398E+02  0.15051128768E+02 -0.13517125054E+03  0.22324656765E+03  0.17300000000E+03 0. -1.
         -6    1    1    2    0  502 -0.37579602398E+02 -0.15051128768E+02  0.11045137301E+03  0.20920628287E+03  0.17300000000E+03 0. -1.
<mgrwt>
<rscale>  2 0.17767319E+03</rscale>
<asrwt>0</asrwt>
<pdfrwt beam="1">  1       21 0.31364075E-01 0.17767319E+03</pdfrwt>
<pdfrwt beam="2">  1       21 0.35167133E-01 0.17767319E+03</pdfrwt>
<totfact> 0.76628565E+04</totfact>
</mgrwt>
</event>
<event>
 4    1  0.4102458E+000  0.2021796E+03  0.7546771E-02  0.1147913E+00
         21   -1    0    0  501  502  0.00000000000E+00  0.00000000000E+00  0.36798068453E+02  0.36798068453E+02  0.00000000000E+00 0.  1.
         21   -1    0    0  502  503 -0.00000000000E+00 -0.00000000000E+00 -0.11370161688E+04  0.11370161688E+04  0.00000000000E+00 0.  1.
          6    1    1    2  501    0  0.66716015564E+02  0.80601170286E+02 -0.46104916182E+03  0.50343113233E+03  0.17300000000E+03 0.  1.
         -6    1    1    2    0  503 -0.66716015564E+02 -0.80601170286E+02 -0.63916893848E+03  0.67038310488E+03  0.17300000000E+03 0.  1.
<mgrwt>
<rscale>  2 0.20217956E+03</rscale>
<asrwt>0</asrwt>
<pdfrwt beam="1">  1       21 0.56612418E-02 0.20217956E+03</pdfrwt>
<pdfrwt beam="2">  1       21 0.17492555E+00 0.20217956E+03</pdfrwt>
<totfact> 0.42679127E+04</totfact>
</mgrwt>
</event>
<event>
 4    1  0.4102458E+000  0.1792197E+03  0.7546771E-02  0.1168560E+00
         21   -1    0    0  503  502  0.00000000000E+00  0.00000000000E+00  0.20293368540E+03  0.20293368540E+03  0.00000000000E+00 0. -1.
         21   -1    0    0  501  503 -0.00000000000E+00 -0.00000000000E+00 -0.15924616918E+03  0.15924616918E+03  0.00000000000E+00 0. -1.
          6    1    1    2  501    0 -0.11632335713E+02 -0.45336461373E+02  0.77154041522E+01  0.17938571132E+03  0.17300000000E+03 0. -1.
         -6    1    1    2    0  502  0.11632335713E+02  0.45336461373E+02  0.35972112060E+02  0.18279414326E+03  0.17300000000E+03 0. -1.
<mgrwt>
<rscale>  2 0.17921971E+03</rscale>
<asrwt>0</asrwt>
<pdfrwt beam="1">  1       21 0.31220567E-01 0.17921971E+03</pdfrwt>
<pdfrwt beam="2">  1       21 0.24499411E-01 0.17921971E+03</pdfrwt>
<totfact> 0.15584217E+05</totfact>
</mgrwt>
</event>
<event>
 4    1  0.4102458E+000  0.1781343E+03  0.7546771E-02  0.1169621E+00
         21   -1    0    0  503  502  0.00000000000E+00  0.00000000000E+00  0.24318973915E+03  0.24318973915E+03  0.00000000000E+00 0.  1.
         21   -1    0    0  501  503 -0.00000000000E+00 -0.00000000000E+00 -0.22949658022E+03  0.22949658022E+03  0.00000000000E+00 0.  1.
          6    1    1    2  501    0 -0.24596171440E+02  0.34610198979E+02 -0.14839387964E+03  0.23184602873E+03  0.17300000000E+03 0.  1.
         -6    1    1    2    0  502  0.24596171440E+02 -0.34610198979E+02  0.16208703857E+03  0.24084029064E+03  0.17300000000E+03 0.  1.
<mgrwt>
<rscale>  2 0.17813432E+03</rscale>
<asrwt>0</asrwt>
<pdfrwt beam="1">  1       21 0.37413806E-01 0.17813432E+03</pdfrwt>
<pdfrwt beam="2">  1       21 0.35307166E-01 0.17813432E+03</pdfrwt>
<totfact> 0.53644865E+04</totfact>
</mgrwt>
</event>
<event>
 4    1  0.4102458E+000  0.2219829E+03  0.7546771E-02  0.1132413E+00
         21   -1    0    0  501  502  0.00000000000E+00  0.00000000000E+00  0.10929664512E+03  0.10929664512E+03  0.00000000000E+00 0. -1.
         21   -1    0    0  502  503 -0.00000000000E+00 -0.00000000000E+00 -0.69610416149E+03  0.69610416149E+03  0.00000000000E+00 0. -1.
          6    1    1    2  501    0 -0.11920268371E+03  0.71680864234E+02 -0.54373506058E+02  0.22854519085E+03  0.17300000000E+03 0. -1.
         -6    1    1    2    0  503  0.11920268371E+03 -0.71680864234E+02 -0.53243401031E+03  0.57685561576E+03  0.17300000000E+03 0. -1.
<mgrwt>
<rscale>  2 0.22198294E+03</rscale>
<asrwt>0</asrwt>
<pdfrwt beam="1">  1       21 0.16814868E-01 0.22198294E+03</pdfrwt>
<pdfrwt beam="2">  1       21 0.10709295E+00 0.22198294E+03</pdfrwt>
<totfact> 0.21794227E+04</totfact>
</mgrwt>
</event>
<event>
 4    1  0.4102458E+000  0.2249430E+03  0.7546771E-02  0.1130251E+00
         21   -1    0    0  503  502  0.00000000000E+00  0.00000000000E+00  0.71386539768E+02  0.71386539768E+02  0.00000000000E+00 0.  1.
         21   -1    0    0  501  503 -0.00000000000E+00 -0.00000000000E+00 -0.12092208677E+04  0.12092208677E+04  0.00000000000E+00 0.  1.
          6    1    1    2  501    0 -0.34005747220E+02  0.13969233733E+03 -0.98082257362E+03  0.10062863712E+04  0.17300000000E+03 0.  1.
         -6    1    1    2    0  502  0.34005747220E+02 -0.13969233733E+03 -0.15701175435E+03  0.27432103630E+03  0.17300000000E+03 0.  1.
<mgrwt>
<rscale>  2 0.22494297E+03</rscale>
<asrwt>0</asrwt>
<pdfrwt beam="1">  1       21 0.10982546E-01 0.22494297E+03</pdfrwt>
<pdfrwt beam="2">  1       21 0.18603396E+00 0.22494297E+03</pdfrwt>
<totfact> 0.11110057E+04</totfact>
</mgrwt>
</event>
<event>
 4    1  0.4102458E+000  0.1831741E+03  0.7546771E-02  0.1164766E+00
         21   -1    0    0  503  502  0.00000000000E+00  0.00000000000E+00  0.49806838591E+02  0.49806838591E+02  0.00000000000E+00 0. -1.
         21   -1    0    0  501  503 -0.00000000000E+00 -0.00000000000E+00 -0.69920817436E+03  0.69920817436E+03  0.00000000000E+00 0.  1.
          6    1    1    2  501    0  0.15252827929E+02 -0.58233305377E+02 -0.39629121637E+03  0.43657702045E+03  0.17300000000E+03 0.  1.
         -6    1    1    2    0  502 -0.15252827929E+02  0.58233305377E+02 -0.25311011941E+03  0.31243799250E+03  0.17300000000E+03 0. -1.
<mgrwt>
<rscale>  2 0.18317414E+03</rscale>
<asrwt>0</asrwt>
<pdfrwt beam="1">  1       21 0.76625910E-02 0.18317414E+03</pdfrwt>
<pdfrwt beam="2">  1       21 0.10757048E+00 0.18317414E+03</pdfrwt>
<totfact> 0.89518463E+04</totfact>
</mgrwt>
</event>
<event>
 4    1  0.4102458E+000  0.1847069E+03  0.7546771E-02  0.1163324E+00
         21   -1    0    0  503  502  0.00000000000E+00  0.00000000000E+00  0.34470265043E+03  0.34470265043E+03  0.00000000000E+00 0. -1.
         21   -1    0    0  501  503 -0.00000000000E+00 -0.00000000000E+00 -0.10260636609E+03  0.10260636609E+03  0.00000000000E+00 0. -1.
          6    1    1    2  501    0 -0.50008432506E+02  0.41070613748E+02  0.78967861214E+02  0.20087947068E+03  0.17300000000E+03 0. -1.
         -6    1    1    2    0  502  0.50008432506E+02 -0.41070613748E+02  0.16312842312E+03  0.24642954584E+03  0.17300000000E+03 0. -1.
<mgrwt>
<rscale>  2 0.18470690E+03</rscale>
<asrwt>0</asrwt>
<pdfrwt beam="1">  1       21 0.53031176E-01 0.18470690E+03</pdfrwt>
<pdfrwt beam="2">  1       21 0.15785595E-01 0.18470690E+03</pdfrwt>
<totfact> 0.12072782E+05</totfact>
</mgrwt>
</event>
<event>
 4    1  0.4102458E+000  0.1767445E+03  0.7546771E-02  0.1170991E+00
         21   -1    0    0  503  502  0.00000000000E+00  0.00000000000E+00  0.33689754459E+03  0.33689754459E+03  0.00000000000E+00 0.  1.
         21   -1    0    0  501  503 -0.00000000000E+00 -0.00000000000E+00 -0.12016360073E+03  0.12016360073E+03  0.00000000000E+00 0.  1.
          6    1    1    2  501    0  0.26377712421E+02 -0.24775421036E+02 -0.83839444555E+00  0.17674645146E+03  0.17300000000E+03 0.  1.
         -6    1    1    2    0  502 -0.26377712421E+02  0.24775421036E+02  0.21757233830E+03  0.28031469386E+03  0.17300000000E+03 0.  1.
<mgrwt>
<rscale>  2 0.17674446E+03</rscale>
<asrwt>0</asrwt>
<pdfrwt beam="1">  1       21 0.51830391E-01 0.17674446E+03</pdfrwt>
<pdfrwt beam="2">  1       21 0.18486708E-01 0.17674446E+03</pdfrwt>
<totfact> 0.95037393E+04</totfact>
</mgrwt>
</event>
<event>
 4    1  0.4102458E+000  0.1948488E+03  0.7546771E-02  0.1154159E+00
         21   -1    0    0  503  502  0.00000000000E+00  0.00000000000E+00  0.19125998630E+03  0.19125998630E+03  0.00000000000E+00 0.  1.
         21   -1    0    0  501  503 -0.00000000000E+00 -0.00000000000E+00 -0.32841099134E+03  0.32841099134E+03  0.00000000000E+00 0.  1.
          6    1    1    2  501    0 -0.86810980572E+02  0.22381290343E+02 -0.23199511389E+03  0.30296501675E+03  0.17300000000E+03 0.  1.
         -6    1    1    2    0  502  0.86810980572E+02 -0.22381290343E+02  0.94844108841E+02  0.21670596089E+03  0.17300000000E+03 0.  1.
<mgrwt>
<rscale>  2 0.19484884E+03</rscale>
<asrwt>0</asrwt>
<pdfrwt beam="1">  1       21 0.29424614E-01 0.19484884E+03</pdfrwt>
<pdfrwt beam="2">  1       21 0.50524767E-01 0.19484884E+03</pdfrwt>
<totfact> 0.41211566E+04</totfact>
</mgrwt>
</event>
<event>
 4    1  0.4102458E+000  0.2126388E+03  0.7546771E-02  0.1139493E+00
         21   -1    0    0  503  502  0.00000000000E+00  0.00000000000E+00  0.36077158294E+03  0.36077158294E+03  0.00000000000E+00 0. -1.
         21   -1    0    0  501  503 -0.00000000000E+00 -0.00000000000E+00 -0.14384137510E+03  0.14384137510E+03  0.00000000000E+00 0.  1.
          6    1    1    2  501    0 -0.10999464975E+03 -0.56457229694E+02  0.17951406062E+02  0.21339516100E+03  0.17300000000E+03 0.  1.
         -6    1    1    2    0  502  0.10999464975E+03  0.56457229694E+02  0.19897880178E+03  0.29121779704E+03  0.17300000000E+03 0.  1.
<mgrwt>
<rscale>  2 0.21263876E+03</rscale>
<asrwt>0</asrwt>
<pdfrwt beam="1">  1       21 0.55503320E-01 0.21263876E+03</pdfrwt>
<pdfrwt beam="2">  1       21 0.22129442E-01 0.21263876E+03</pdfrwt>
<totfact> 0.57869136E+04</totfact>
</mgrwt>
</event>
<event>
 4    1  0.4102458E+000  0.1849329E+03  0.7546771E-02  0.1163113E+00
         21   -1    0    0  503  502  0.00000000000E+00  0.00000000000E+00  0.14610980753E+03  0.14610980753E+03  0.00000000000E+00 0.  1.
         21   -1    0    0  501  503 -0.00000000000E+00 -0.00000000000E+00 -0.25084412560E+03  0.25084412560E+03  0.00000000000E+00 0. -1.
          6    1    1    2  501    0  0.63561585396E+02  0.15202379049E+02 -0.10368928370E+03  0.21201805353E+03  0.17300000000E+03 0. -1.
         -6    1    1    2    0  502 -0.63561585396E+02 -0.15202379049E+02 -0.10450343689E+01  0.18493587960E+03  0.17300000000E+03 0. -1.
<mgrwt>
<rscale>  2 0.18493293E+03</rscale>
<asrwt>0</asrwt>
<pdfrwt beam="1">  1       21 0.22478432E-01 0.18493293E+03</pdfrwt>
<pdfrwt beam="2">  1       21 0.38591404E-01 0.18493293E+03</pdfrwt>
<totfact> 0.12033495E+05</totfact>
</mgrwt>
</event>
<event>
 4    1  0.4102458E+000  0.1805248E+03  0.7546771E-02  0.1167296E+00
         21   -1    0    0  501  502  0.00000000000E+00  0.00000000000E+00  0.37442157288E+02  0.37442157288E+02  0.00000000000E+00 0.  1.
         21   -1    0    0  502  503 -0.00000000000E+00 -0.00000000000E+00 -0.14459573846E+04  0.14459573846E+04  0.00000000000E+00 0. -1.
          6    1    1    2  501    0 -0.43272337932E+02  0.28066171483E+02 -0.23630784980E+03  0.29737283852E+03  0.17300000000E+03 0.  1.
         -6    1    1    2    0  503  0.43272337932E+02 -0.28066171483E+02 -0.11722073775E+04  0.11860267034E+04  0.17300000000E+03 0. -1.
<mgrwt>
<rscale>  2 0.18052480E+03</rscale>
<asrwt>0</asrwt>
<pdfrwt beam="1">  1       21 0.57603333E-02 0.18052480E+03</pdfrwt>
<pdfrwt beam="2">  1       21 0.22245493E+00 0.18052480E+03</pdfrwt>
<totfact> 0.20749160E+04</totfact>
</mgrwt>
</event>
<event>
 4    1  0.4102458E+000  0.1747675E+03  0.7546771E-02  0.1172965E+00
         21   -1    0    0  501  502  0.00000000000E+00  0.00000000000E+00  0.21439722941E+03  0.21439722941E+03  0.00000000000E+00 0. -1.
         21   -1    0    0  502  503 -0.00000000000E+00 -0.00000000000E+00 -0.17401863968E+03  0.17401863968E+03  0.00000000000E+00 0. -1.
          6    1    1    2  501    0  0.24713752778E+02  0.19753002804E+01  0.10288969568E+03  0.20280522889E+03  0.17300000000E+03 0. -1.
         -6    1    1    2    0  503 -0.24713752778E+02 -0.19753002804E+01 -0.62511105957E+02  0.18561064020E+03  0.17300000000E+03 0. -1.
<mgrwt>
<rscale>  2 0.17476748E+03</rscale>
<asrwt>0</asrwt>
<pdfrwt beam="1">  1       21 0.32984189E-01 0.17476748E+03</pdfrwt>
<pdfrwt beam="2">  1       21 0.26772099E-01 0.17476748E+03</pdfrwt>
<totfact> 0.11830223E+05</totfact>
</mgrwt>
</event>
<event>
 4    1  0.4102458E+000  0.2305160E+03  0.7546771E-02  0.1126277E+00
         21   -1    0    0  503  502  0.00000000000E+00  0.00000000000E+00  0.20876774992E+03  0.20876774992E+03  0.00000000000E+00 0. -1.
         21   -1    0    0  501  503 -0.00000000000E+00 -0.00000000000E+00 -0.30338758140E+03  0.30338758140E+03  0.00000000000E+00 0.  1.
          6    1    1    2  501    0  0.13662015365E+03 -0.67406010073E+02 -0.15007348614E+03  0.27506306153E+03  0.17300000000E+03 0.  1.
         -6    1    1    2    0  502 -0.13662015365E+03  0.67406010073E+02  0.55453654657E+02  0.23709226978E+03  0.17300000000E+03 0. -1.
<mgrwt>
<rscale>  2 0.23051602E+03</rscale>
<asrwt>0</asrwt>
<pdfrwt beam="1">  1       21 0.32118116E-01 0.23051602E+03</pdfrwt>
<pdfrwt beam="2">  1       21 0.46675012E-01 0.23051602E+03</pdfrwt>
<totfact> 0.40232054E+04</totfact>
</mgrwt>
</event>
<event>
 4    1  0.4102458E+000  0.2066930E+03  0.7546771E-02  0.1144212E+00
         21   -1    0    0  501  502  0.00000000000E+00  0.00000000000E+00  0.52393056356E+03  0.52393056356E+03  0.00000000000E+00 0.  1.
         21   -1    0    0  502  503 -0.00000000000E+00 -0.00000000000E+00 -0.22496056732E+03  0.22496056732E+03  0.00000000000E+00 0.  1.
          6    1    1    2  501    0 -0.59863966510E+02 -0.95965161416E+02  0.44846295023E+03  0.49380261686E+03  0.17300000000E+03 0.  1.
         -6    1    1    2    0  503  0.59863966510E+02  0.95965161416E+02 -0.14949295399E+03  0.25508851402E+03  0.17300000000E+03 0.  1.
<mgrwt>
<rscale>  2 0.20669303E+03</rscale>
<asrwt>0</asrwt>
<pdfrwt beam="1">  1       21 0.80604702E-01 0.20669303E+03</pdfrwt>
<pdfrwt beam="2">  1       21 0.34609318E-01 0.20669303E+03</pdfrwt>
<totfact> 0.10776462E+04</totfact>
</mgrwt>
</event>
<event>
 4    1  0.4102458E+000  0.1959149E+03  0.7546771E-02  0.1153232E+00
         21   -1    0    0  503  502  0.00000000000E+00  0.00000000000E+00  0.18059914810E+04  0.18059914810E+04  0.00000000000E+00 0.  1.
         21   -1    0    0  501  503 -0.00000000000E+00 -0.00000000000E+00 -0.23218184381E+02  0.23218184381E+02  0.00000000000E+00 0. -1.
          6    1    1    2  501    0 -0.91580013035E+02 -0.81695968804E+01  0.62529767371E+03  0.65527080040E+03  0.17300000000E+03 0. -1.
         -6    1    1    2    0  502  0.91580013035E+02  0.81695968804E+01  0.11574756229E+04  0.11739388650E+04  0.17300000000E+03 0.  1.
<mgrwt>
<rscale>  2 0.19591488E+03</rscale>
<asrwt>0</asrwt>
<pdfrwt beam="1">  1       21 0.27784473E+00 0.19591488E+03</pdfrwt>
<pdfrwt beam="2">  1       21 0.35720298E-02 0.19591488E+03</pdfrwt>
<totfact> 0.21616148E+04</totfact>
</mgrwt>
</event>
<event>
 4    1  0.4102458E+000  0.3805832E+03  0.7546771E-02  0.1050718E+00
         21   -1    0    0  503  502  0.00000000000E+00  0.00000000000E+00  0.10835139763E+04  0.10835139763E+04  0.00000000000E+00 0. -1.
         21   -1    0    0  501  503 -0.00000000000E+00 -0.00000000000E+00 -0.15526857919E+03  0.15526857919E+03  0.00000000000E+00 0.  1.
          6    1    1    2  501    0 -0.30328191230E+02  0.33763108321E+03  0.23316050066E+03  0.44632652465E+03  0.17300000000E+03 0.  1.
         -6    1    1    2    0  502  0.30328191230E+02 -0.33763108321E+03  0.69508489643E+03  0.79245603082E+03  0.17300000000E+03 0. -1.
<mgrwt>
<rscale>  2 0.38058317E+03</rscale>
<asrwt>0</asrwt>
<pdfrwt beam="1">  1       21 0.16669445E+00 0.38058317E+03</pdfrwt>
<pdfrwt beam="2">  1       21 0.23887474E-01 0.38058317E+03</pdfrwt>
<totfact> 0.32958975E+03</totfact>
</mgrwt>
</event>
<event>
 4    1  0.4102458E+000  0.1868869E+03  0.7546771E-02  0.1161300E+00
         21   -1    0    0  501  502  0.00000000000E+00  0.00000000000E+00  0.48119133356E+02  0.48119133356E+02  0.00000000000E+00 0. -1.
         21   -1    0    0  502  503 -0.00000000000E+00 -0.00000000000E+00 -0.11606730960E+04  0.11606730960E+04  0.00000000000E+00 0. -1.
          6    1    1    2  501    0  0.43885305641E+02  0.55423668120E+02 -0.18633900075E+03  0.26391083009E+03  0.17300000000E+03 0. -1.
         -6    1    1    2    0  503 -0.43885305641E+02 -0.55423668120E+02 -0.92621496194E+03  0.94488139930E+03  0.17300000000E+03 0. -1.
<mgrwt>
<rscale>  2 0.18688687E+03</rscale>
<asrwt>0</asrwt>
<pdfrwt beam="1">  1       21 0.74029448E-02 0.18688687E+03</pdfrwt>
<pdfrwt beam="2">  1       21 0.17856506E+00 0.18688687E+03</pdfrwt>
<totfact> 0.25655705E+04</totfact>
</mgrwt>
</event>
<event>
 4    1  0.4102458E+000  0.1941412E+03  0.7546771E-02  0.1154778E+00
         21   -1    0    0  501  502  0.00000000000E+00  0.00000000000E+00  0.41732318156E+03  0.41732318156E+03  0.00000000000E+00 0.  1.
         21   -1    0    0  502  503 -0.00000000000E+00 -0.00000000000E+00 -0.91450376196E+02  0.91450376196E+02  0.00000000000E+00 0.  1.
          6    1    1    2  501    0 -0.80209425112E+02  0.36445161134E+02  0.19127335748E+03  0.27253678455E+03  0.17300000000E+03 0.  1.
         -6    1    1    2    0  503  0.80209425112E+02 -0.36445161134E+02  0.13459944788E+03  0.23623677321E+03  0.17300000000E+03 0.  1.
<mgrwt>
<rscale>  2 0.19414119E+03</rscale>
<asrwt>0</asrwt>
<pdfrwt beam="1">  1       21 0.64203565E-01 0.19414119E+03</pdfrwt>
<pdfrwt beam="2">  1       21 0.14069289E-01 0.19414119E+03</pdfrwt>
<totfact> 0.98601194E+04</totfact>
</mgrwt>
</event>
<event>
 4    1  0.4102458E+000  0.2545916E+03  0.7546771E-02  0.1110437E+00
         21   -1    0    0  503  502  0.00000000000E+00  0.00000000000E+00  0.22653022901E+04  0.22653022901E+04  0.00000000000E+00 0. -1.
         21   -1    0    0  501  503 -0.00000000000E+00 -0.00000000000E+00 -0.28632968418E+02  0.28632968418E+02  0.00000000000E+00 0. -1.
          6    1    1    2  501    0 -0.12968902910E+03  0.13441971168E+03  0.11486879716E+04  0.11765631982E+04  0.17300000000E+03 0. -1.
         -6    1    1    2    0  502  0.12968902910E+03 -0.13441971168E+03  0.10879813501E+04  0.11173720604E+04  0.17300000000E+03 0. -1.
<mgrwt>
<rscale>  2 0.25459164E+03</rscale>
<asrwt>0</asrwt>
<pdfrwt beam="1">  1       21 0.34850790E+00 0.25459164E+03</pdfrwt>
<pdfrwt beam="2">  1       21 0.44050739E-02 0.25459164E+03</pdfrwt>
<totfact> 0.55572180E+03</totfact>
</mgrwt>
</event>
<event>
 4    1  0.4102458E+000  0.1839501E+03  0.7546771E-02  0.1164034E+00
         21   -1    0    0  501  502  0.00000000000E+00  0.00000000000E+00  0.15231956474E+03  0.15231956474E+03  0.00000000000E+00 0. -1.
         21   -1    0    0  502  503 -0.00000000000E+00 -0.00000000000E+00 -0.28710213838E+03  0.28710213838E+03  0.00000000000E+00 0. -1.
          6    1    1    2  501    0 -0.11282671182E+02  0.61492562080E+02  0.37112848521E+02  0.18765659430E+03  0.17300000000E+03 0. -1.
         -6    1    1    2    0  503  0.11282671182E+02 -0.61492562080E+02 -0.17189542216E+03  0.25176510882E+03  0.17300000000E+03 0. -1.
<mgrwt>
<rscale>  2 0.18395009E+03</rscale>
<asrwt>0</asrwt>
<pdfrwt beam="1">  1       21 0.23433779E-01 0.18395009E+03</pdfrwt>
<pdfrwt beam="2">  1       21 0.44169560E-01 0.18395009E+03</pdfrwt>
<totfact> 0.84631648E+04</totfact>
</mgrwt>
</event>
<event>
 4    1  0.4102458E+000  0.1760291E+03  0.7546771E-02  0.1171702E+00
         21   -1    0    0  501  502  0.00000000000E+00  0.00000000000E+00  0.92421387991E+02  0.92421387991E+02  0.00000000000E+00 0. -1.
         21   -1    0    0  502  503 -0.00000000000E+00 -0.00000000000E+00 -0.53851117897E+03  0.53851117897E+03  0.00000000000E+00 0. -1.
          6    1    1    2  501    0  0.16052240262E+02 -0.28276397019E+02 -0.29242042760E+02  0.17844138004E+03  0.17300000000E+03 0. -1.
         -6    1    1    2    0  503 -0.16052240262E+02  0.28276397019E+02 -0.41684774821E+03  0.45249118692E+03  0.17300000000E+03 0. -1.
<mgrwt>
<rscale>  2 0.17602906E+03</rscale>
<asrwt>0</asrwt>
<pdfrwt beam="1">  1       21 0.14218675E-01 0.17602906E+03</pdfrwt>
<pdfrwt beam="2">  1       21 0.82847875E-01 0.17602906E+03</pdfrwt>
<totfact> 0.55362341E+04</totfact>
</mgrwt>
</event>
<event>
 4    1  0.4102458E+000  0.2270532E+03  0.7546771E-02  0.1128731E+00
         21   -1    0    0  503  502  0.00000000000E+00  0.00000000000E+00  0.90616338008E+03  0.90616338008E+03  0.00000000000E+00 0. -1.
         21   -1    0    0  501  503 -0.00000000000E+00 -0.00000000000E+00 -0.12956749412E+03  0.12956749412E+03  0.00000000000E+00 0. -1.
          6    1    1    2  501    0 -0.14011784141E+03 -0.44622299142E+02  0.44790075017E+00  0.22705364934E+03  0.17300000000E+03 0. -1.
         -6    1    1    2    0  502  0.14011784141E+03  0.44622299142E+02  0.77614798521E+03  0.80867722486E+03  0.17300000000E+03 0. -1.
<mgrwt>
<rscale>  2 0.22705321E+03</rscale>
<asrwt>0</asrwt>
<pdfrwt beam="1">  1       21 0.13940975E+00 0.22705321E+03</pdfrwt>
<pdfrwt beam="2">  1       21 0.19933461E-01 0.22705321E+03</pdfrwt>
<totfact> 0.81941727E+03</totfact>
</mgrwt>
</event>
<event>
 4    1  0.4102458E+000  0.1831916E+03  0.7546771E-02  0.1164749E+00
         21   -1    0    0  503  502  0.00000000000E+00  0.00000000000E+00  0.17734471897E+03  0.17734471897E+03  0.00000000000E+00 0. -1.
         21   -1    0    0  501  503 -0.00000000000E+00 -0.00000000000E+00 -0.19274048904E+03  0.19274048904E+03  0.00000000000E+00 0. -1.
          6    1    1    2  501    0  0.41818339908E+02  0.43374975911E+02 -0.32666358772E+02  0.18608130772E+03  0.17300000000E+03 0. -1.
         -6    1    1    2    0  502 -0.41818339908E+02 -0.43374975911E+02  0.17270588703E+02  0.18400390029E+03  0.17300000000E+03 0. -1.
<mgrwt>
<rscale>  2 0.18319160E+03</rscale>
<asrwt>0</asrwt>
<pdfrwt beam="1">  1       21 0.27283803E-01 0.18319160E+03</pdfrwt>
<pdfrwt beam="2">  1       21 0.29652383E-01 0.18319160E+03</pdfrwt>
<totfact> 0.14006012E+05</totfact>
</mgrwt>
</event>
<event>
 4    1  0.4102458E+000  0.2177107E+03  0.7546771E-02  0.1135601E+00
         21   -1    0    0  503  502  0.00000000000E+00  0.00000000000E+00  0.28398771033E+03  0.28398771033E+03  0.00000000000E+00 0.  1.
         21   -1    0    0  501  503 -0.00000000000E+00 -0.00000000000E+00 -0.17582928875E+03  0.17582928875E+03  0.00000000000E+00 0.  1.
          6    1    1    2  501    0  0.64667600999E+02  0.11526953220E+03  0.22729405968E+01  0.21772259858E+03  0.17300000000E+03 0.  1.
         -6    1    1    2    0  502 -0.64667600999E+02 -0.11526953220E+03  0.10588548098E+03  0.24209440050E+03  0.17300000000E+03 0.  1.
<mgrwt>
<rscale>  2 0.21771073E+03</rscale>
<asrwt>0</asrwt>
<pdfrwt beam="1">  1       21 0.43690417E-01 0.21771073E+03</pdfrwt>
<pdfrwt beam="2">  1       21 0.27050660E-01 0.21771073E+03</pdfrwt>
<totfact> 0.64830721E+04</totfact>
</mgrwt>
</event>
<event>
 4    1  0.4102458E+000  0.2738534E+03  0.7546771E-02  0.1099094E+00
         21   -1    0    0  501  502  0.00000000000E+00  0.00000000000E+00  0.28527995824E+03  0.28527995824E+03  0.00000000000E+00 0.  1.
         21   -1    0    0  502  503 -0.00000000000E+00 -0.00000000000E+00 -0.30334320828E+03  0.30334320828E+03  0.00000000000E+00 0. -1.
          6    1    1    2  501    0 -0.62288073088E+02 -0.20294547035E+03  0.98453021948E+02  0.29101317069E+03  0.17300000000E+03 0.  1.
         -6    1    1    2    0  503  0.62288073088E+02  0.20294547035E+03 -0.11651627199E+03  0.29760999584E+03  0.17300000000E+03 0. -1.
<mgrwt>
<rscale>  2 0.27385337E+03</rscale>
<asrwt>0</asrwt>
<pdfrwt beam="1">  1       21 0.43889224E-01 0.27385337E+03</pdfrwt>
<pdfrwt beam="2">  1       21 0.46668186E-01 0.27385337E+03</pdfrwt>
<totfact> 0.21033708E+04</totfact>
</mgrwt>
</event>
<event>
 4    1  0.4102458E+000  0.1798607E+03  0.7546771E-02  0.1167938E+00
         21   -1    0    0  503  502  0.00000000000E+00  0.00000000000E+00  0.67783464514E+02  0.67783464514E+02  0.00000000000E+00 0.  1.
         21   -1    0    0  501  503 -0.00000000000E+00 -0.00000000000E+00 -0.82883909562E+03  0.82883909562E+03  0.00000000000E+00 0.  1.
          6    1    1    2  501    0  0.34537240394E+02 -0.35043586508E+02 -0.67251264491E+03  0.69614878545E+03  0.17300000000E+03 0.  1.
         -6    1    1    2    0  502 -0.34537240394E+02  0.35043586508E+02 -0.88542986198E+02  0.20047377468E+03  0.17300000000E+03 0.  1.
<mgrwt>
<rscale>  2 0.17986071E+03</rscale>
<asrwt>0</asrwt>
<pdfrwt beam="1">  1       21 0.10428225E-01 0.17986071E+03</pdfrwt>
<pdfrwt beam="2">  1       21 0.12751371E+00 0.17986071E+03</pdfrwt>
<totfact> 0.34443434E+04</totfact>
</mgrwt>
</event>
<event>
 4    1  0.4102458E+000  0.2158669E+03  0.7546771E-02  0.1137002E+00
         21   -1    0    0  503  502  0.00000000000E+00  0.00000000000E+00  0.67508111518E+03  0.67508111518E+03  0.00000000000E+00 0.  1.
         21   -1    0    0  501  503 -0.00000000000E+00 -0.00000000000E+00 -0.75441765313E+02  0.75441765313E+02  0.00000000000E+00 0. -1.
          6    1    1    2  501    0  0.12529521975E+03  0.31154940275E+02  0.19039039638E+03  0.28783159213E+03  0.17300000000E+03 0. -1.
         -6    1    1    2    0  502 -0.12529521975E+03 -0.31154940275E+02  0.40924895349E+03  0.46269128837E+03  0.17300000000E+03 0.  1.
<mgrwt>
<rscale>  2 0.21586691E+03</rscale>
<asrwt>0</asrwt>
<pdfrwt beam="1">  1       21 0.10385863E+00 0.21586691E+03</pdfrwt>
<pdfrwt beam="2">  1       21 0.11606426E-01 0.21586691E+03</pdfrwt>
<totfact> 0.46160043E+04</totfact>
</mgrwt>
</event>
<event>
 4    1  0.4102458E+000  0.1812057E+03  0.7546771E-02  0.1166641E+00
         21   -1    0    0  503  502  0.00000000000E+00  0.00000000000E+00  0.23800107221E+03  0.23800107221E+03  0.00000000000E+00 0.  1.
         21   -1    0    0  501  503 -0.00000000000E+00 -0.00000000000E+00 -0.13840377402E+03  0.13840377402E+03  0.00000000000E+00 0.  1.
          6    1    1    2  501    0  0.35651713622E+02  0.40440781498E+02  0.60411417609E+02  0.19101057790E+03  0.17300000000E+03 0.  1.
         -6    1    1    2    0  502 -0.35651713622E+02 -0.40440781498E+02  0.39185880577E+02  0.18539426833E+03  0.17300000000E+03 0.  1.
<mgrwt>
<rscale>  2 0.18120569E+03</rscale>
<asrwt>0</asrwt>
<pdfrwt beam="1">  1       21 0.36615550E-01 0.18120569E+03</pdfrwt>
<pdfrwt beam="2">  1       21 0.21292888E-01 0.18120569E+03</pdfrwt>
<totfact> 0.14820586E+05</totfact>
</mgrwt>
</event>
<event>
 4    1  0.4102458E+000  0.2363533E+03  0.7546771E-02  0.1122246E+00
         21   -1    0    0  501  502  0.00000000000E+00  0.00000000000E+00  0.60206280965E+02  0.60206280965E+02  0.00000000000E+00 0.  1.
         21   -1    0    0  502  503 -0.00000000000E+00 -0.00000000000E+00 -0.11159366934E+04  0.11159366934E+04  0.00000000000E+00 0.  1.
          6    1    1    2  501    0  0.57777483654E+02  0.15031844611E+03 -0.28644130147E+03  0.37136436561E+03  0.17300000000E+03 0.  1.
         -6    1    1    2    0  503 -0.57777483654E+02 -0.15031844611E+03 -0.76928911098E+03  0.80477860877E+03  0.17300000000E+03 0.  1.
<mgrwt>
<rscale>  2 0.23635328E+03</rscale>
<asrwt>0</asrwt>
<pdfrwt beam="1">  1       21 0.92625060E-02 0.23635328E+03</pdfrwt>
<pdfrwt beam="2">  1       21 0.17168254E+00 0.23635328E+03</pdfrwt>
<totfact> 0.18731126E+04</totfact>
</mgrwt>
</event>
<event>
 4    1  0.4102458E+000  0.1997105E+03  0.7546771E-02  0.1149983E+00
         21   -1    0    0  503  502  0.00000000000E+00  0.00000000000E+00  0.28350563878E+03  0.28350563878E+03  0.00000000000E+00 0. -1.
         21   -1    0    0  501  503 -0.00000000000E+00 -0.00000000000E+00 -0.33613713357E+03  0.33613713357E+03  0.00000000000E+00 0. -1.
          6    1    1    2  501    0 -0.99745438990E+02  0.24800358253E+01 -0.26256804943E+03  0.32988828982E+03  0.17300000000E+03 0. -1.
         -6    1    1    2    0  502  0.99745438990E+02 -0.24800358253E+01  0.20993655464E+03  0.28975448254E+03  0.17300000000E+03 0. -1.
<mgrwt>
<rscale>  2 0.19971055E+03</rscale>
<asrwt>0</asrwt>
<pdfrwt beam="1">  1       21 0.43616252E-01 0.19971055E+03</pdfrwt>
<pdfrwt beam="2">  1       21 0.51713405E-01 0.19971055E+03</pdfrwt>
<totfact> 0.17862587E+04</totfact>
</mgrwt>
</event>
<event>
 4    1  0.4102458E+000  0.1858289E+03  0.7546771E-02  0.1162278E+00
         21   -1    0    0  503  502  0.00000000000E+00  0.00000000000E+00  0.34668077857E+03  0.34668077857E+03  0.00000000000E+00 0. -1.
         21   -1    0    0  501  503 -0.00000000000E+00 -0.00000000000E+00 -0.10166097391E+03  0.10166097391E+03  0.00000000000E+00 0. -1.
          6    1    1    2  501    0  0.64366754306E+02  0.21454553340E+02  0.90658146694E+02  0.20676381811E+03  0.17300000000E+03 0.  1.
         -6    1    1    2    0  502 -0.64366754306E+02 -0.21454553340E+02  0.15436165797E+03  0.24157793436E+03  0.17300000000E+03 0.  1.
<mgrwt>
<rscale>  2 0.18582889E+03</rscale>
<asrwt>0</asrwt>
<pdfrwt beam="1">  1       21 0.53335504E-01 0.18582889E+03</pdfrwt>
<pdfrwt beam="2">  1       21 0.15640150E-01 0.18582889E+03</pdfrwt>
<totfact> 0.12126953E+05</totfact>
</mgrwt>
</event>
<event>
 4    1  0.4102458E+000  0.1745118E+03  0.7546771E-02  0.1173223E+00
         21   -1    0    0  503  502  0.00000000000E+00  0.00000000000E+00  0.10525275536E+03  0.10525275536E+03  0.00000000000E+00 0. -1.
         21   -1    0    0  501  503 -0.00000000000E+00 -0.00000000000E+00 -0.32798662207E+03  0.32798662207E+03  0.00000000000E+00 0. -1.
          6    1    1    2  501    0 -0.99607145203E+01  0.20643635682E+02 -0.18571961344E+03  0.25484534594E+03  0.17300000000E+03 0. -1.
         -6    1    1    2    0  502  0.99607145203E+01 -0.20643635682E+02 -0.37014253268E+02  0.17839403149E+03  0.17300000000E+03 0. -1.
<mgrwt>
<rscale>  2 0.17451182E+03</rscale>
<asrwt>0</asrwt>
<pdfrwt beam="1">  1       21 0.16192732E-01 0.17451182E+03</pdfrwt>
<pdfrwt beam="2">  1       21 0.50459480E-01 0.17451182E+03</pdfrwt>
<totfact> 0.12833543E+05</totfact>
</mgrwt>
</event>
<event>
 4    1  0.4102458E+000  0.2717946E+03  0.7546771E-02  0.1100257E+00
         21   -1    0    0  503  502  0.00000000000E+00  0.00000000000E+00  0.10476577143E+04  0.10476577143E+04  0.00000000000E+00 0. -1.
         21   -1    0    0  501  503 -0.00000000000E+00 -0.00000000000E+00 -0.78001488374E+02  0.78001488374E+02  0.00000000000E+00 0. -1.
          6    1    1    2  501    0 -0.76737498263E+02 -0.19507602605E+03  0.31042450383E+03  0.41259625805E+03  0.17300000000E+03 0. -1.
         -6    1    1    2    0  502  0.76737498263E+02  0.19507602605E+03  0.65923172212E+03  0.71306294464E+03  0.17300000000E+03 0. -1.
<mgrwt>
<rscale>  2 0.27179459E+03</rscale>
<asrwt>0</asrwt>
<pdfrwt beam="1">  1       21 0.16117810E+00 0.27179459E+03</pdfrwt>
<pdfrwt beam="2">  1       21 0.12000230E-01 0.27179459E+03</pdfrwt>
<totfact> 0.13770026E+04</totfact>
</mgrwt>
</event>
<event>
 4    1  0.4102458E+000  0.2772253E+03  0.7546771E-02  0.1097214E+00
         21   -1    0    0  503  502  0.00000000000E+00  0.00000000000E+00  0.29773752289E+02  0.29773752289E+02  0.00000000000E+00 0. -1.
         21   -1    0    0  501  503 -0.00000000000E+00 -0.00000000000E+00 -0.26398187936E+04  0.26398187936E+04  0.00000000000E+00 0. -1.
          6    1    1    2  501    0  0.18887045971E+03 -0.10607933885E+03 -0.15038213939E+04  0.15291607703E+04  0.17300000000E+03 0. -1.
         -6    1    1    2    0  502 -0.18887045971E+03  0.10607933885E+03 -0.11062236474E+04  0.11404317756E+04  0.17300000000E+03 0. -1.
<mgrwt>
<rscale>  2 0.27722532E+03</rscale>
<asrwt>0</asrwt>
<pdfrwt beam="1">  1       21 0.45805783E-02 0.27722532E+03</pdfrwt>
<pdfrwt beam="2">  1       21 0.40612587E+00 0.27722532E+03</pdfrwt>
<totfact> 0.22477209E+03</totfact>
</mgrwt>
</event>
<event>
 4    1  0.4102458E+000  0.1975285E+03  0.7546771E-02  0.1151841E+00
         21   -1    0    0  501  502  0.00000000000E+00  0.00000000000E+00  0.52676031300E+03  0.52676031300E+03  0.00000000000E+00 0. -1.
         21   -1    0    0  502  503 -0.00000000000E+00 -0.00000000000E+00 -0.74354366800E+02  0.74354366800E+02  0.00000000000E+00 0. -1.
          6    1    1    2  501    0 -0.77035046227E+02 -0.56161612402E+02  0.24476602489E+03  0.31452811002E+03  0.17300000000E+03 0. -1.
         -6    1    1    2    0  503  0.77035046227E+02  0.56161612402E+02  0.20763992132E+03  0.28658656978E+03  0.17300000000E+03 0. -1.
<mgrwt>
<rscale>  2 0.19752854E+03</rscale>
<asrwt>0</asrwt>
<pdfrwt beam="1">  1       21 0.81040046E-01 0.19752854E+03</pdfrwt>
<pdfrwt beam="2">  1       21 0.11439134E-01 0.19752854E+03</pdfrwt>
<totfact> 0.85198424E+04</totfact>
</mgrwt>
</event>
<event>
 4    1  0.4102458E+000  0.1867804E+03  0.7546771E-02  0.1161398E+00
         21   -1    0    0  503  502  0.00000000000E+00  0.00000000000E+00  0.78027009744E+02  0.78027009744E+02  0.00000000000E+00 0.  1.
         21   -1    0    0  501  503 -0.00000000000E+00 -0.00000000000E+00 -0.94079304819E+03  0.94079304819E+03  0.00000000000E+00 0.  1.
          6    1    1    2  501    0 -0.57191954572E+02  0.41073050191E+02 -0.80039722866E+03  0.82190184254E+03  0.17300000000E+03 0.  1.
         -6    1    1    2    0  502  0.57191954572E+02 -0.41073050191E+02 -0.62368809782E+02  0.19691821539E+03  0.17300000000E+03 0.  1.
<mgrwt>
<rscale>  2 0.18678039E+03</rscale>
<asrwt>0</asrwt>
<pdfrwt beam="1">  1       21 0.12004155E-01 0.18678039E+03</pdfrwt>
<pdfrwt beam="2">  1       21 0.14473739E+00 0.18678039E+03</pdfrwt>
<totfact> 0.19324023E+04</totfact>
</mgrwt>
</event>
<event>
 4    1  0.4102458E+000  0.1782025E+03  0.7546771E-02  0.1169554E+00
         21   -1    0    0  501  502  0.00000000000E+00  0.00000000000E+00  0.51693657292E+02  0.51693657292E+02  0.00000000000E+00 0. -1.
         21   -1    0    0  502  503 -0.00000000000E+00 -0.00000000000E+00 -0.69133041429E+03  0.69133041429E+03  0.00000000000E+00 0. -1.
          6    1    1    2  501    0  0.23998025084E+02  0.35372559039E+02 -0.19581815136E+03  0.26476569178E+03  0.17300000000E+03 0. -1.
         -6    1    1    2    0  503 -0.23998025084E+02 -0.35372559039E+02 -0.44381860563E+03  0.47825837980E+03  0.17300000000E+03 0. -1.
<mgrwt>
<rscale>  2 0.17820248E+03</rscale>
<asrwt>0</asrwt>
<pdfrwt beam="1">  1       21 0.79528717E-02 0.17820248E+03</pdfrwt>
<pdfrwt beam="2">  1       21 0.10635851E+00 0.17820248E+03</pdfrwt>
<totfact> 0.86430713E+04</totfact>
</mgrwt>
</event>
<event>
 4    1  0.4102458E+000  0.1745077E+03  0.7546771E-02  0.1173227E+00
         21   -1    0    0  501  502  0.00000000000E+00  0.00000000000E+00  0.82227851139E+02  0.82227851139E+02  0.00000000000E+00 0. -1.
         21   -1    0    0  502  503 -0.00000000000E+00 -0.00000000000E+00 -0.50227961318E+03  0.50227961318E+03  0.00000000000E+00 0. -1.
          6    1    1    2  501    0 -0.25798463580E+00  0.22888437101E+02 -0.60243341932E+02  0.18461367056E+03  0.17300000000E+03 0.  1.
         -6    1    1    2    0  503  0.25798463580E+00 -0.22888437101E+02 -0.35980842011E+03  0.39989379376E+03  0.17300000000E+03 0.  1.
<mgrwt>
<rscale>  2 0.17450773E+03</rscale>
<asrwt>0</asrwt>
<pdfrwt beam="1">  1       21 0.12650439E-01 0.17450773E+03</pdfrwt>
<pdfrwt beam="2">  1       21 0.77273786E-01 0.17450773E+03</pdfrwt>
<totfact> 0.80002506E+04</totfact>
</mgrwt>
</event>
<event>
 4    1  0.4102458E+000  0.1790626E+03  0.7546771E-02  0.1168713E+00
         21   -1    0    0  501  502  0.00000000000E+00  0.00000000000E+00  0.36791610589E+02  0.36791610589E+02  0.00000000000E+00 0. -1.
         21   -1    0    0  502  503 -0.00000000000E+00 -0.00000000000E+00 -0.15551351824E+04  0.15551351824E+04  0.00000000000E+00 0. -1.
          6    1    1    2  501    0 -0.44160139657E+02 -0.13575824569E+02 -0.23142540549E+03  0.29261090078E+03  0.17300000000E+03 0. -1.
         -6    1    1    2    0  503  0.44160139657E+02  0.13575824569E+02 -0.12869181664E+04  0.12993158923E+04  0.17300000000E+03 0. -1.
<mgrwt>
<rscale>  2 0.17906262E+03</rscale>
<asrwt>0</asrwt>
<pdfrwt beam="1">  1       21 0.56602496E-02 0.17906262E+03</pdfrwt>
<pdfrwt beam="2">  1       21 0.23925149E+00 0.17906262E+03</pdfrwt>
<totfact> 0.16970958E+04</totfact>
</mgrwt>
</event>
<event>
 4    1  0.4102458E+000  0.2261143E+03  0.7546771E-02  0.1129405E+00
         21   -1    0    0  503  502  0.00000000000E+00  0.00000000000E+00  0.79008604086E+02  0.79008604086E+02  0.00000000000E+00 0.  1.
         21   -1    0    0  501  503 -0.00000000000E+00 -0.00000000000E+00 -0.83419106842E+03  0.83419106842E+03  0.00000000000E+00 0.  1.
          6    1    1    2  501    0  0.90397883237E+02 -0.11413540188E+03 -0.59381921100E+03  0.63541240357E+03  0.17300000000E+03 0.  1.
         -6    1    1    2    0  502 -0.90397883237E+02  0.11413540188E+03 -0.16136325333E+03  0.27778726894E+03  0.17300000000E+03 0.  1.
<mgrwt>
<rscale>  2 0.22611428E+03</rscale>
<asrwt>0</asrwt>
<pdfrwt beam="1">  1       21 0.12155171E-01 0.22611428E+03</pdfrwt>
<pdfrwt beam="2">  1       21 0.12833708E+00 0.22611428E+03</pdfrwt>
<totfact> 0.25102022E+04</totfact>
</mgrwt>
</event>
<event>
 4    1  0.4102458E+000  0.2151776E+03  0.7546771E-02  0.1137530E+00
         21   -1    0    0  503  502  0.00000000000E+00  0.00000000000E+00  0.10229899320E+03  0.10229899320E+03  0.00000000000E+00 0.  1.
         21   -1    0    0  501  503 -0.00000000000E+00 -0.00000000000E+00 -0.53177620325E+03  0.53177620325E+03  0.00000000000E+00 0.  1.
          6    1    1    2  501    0 -0.81342057810E+02 -0.98771762768E+02 -0.33706506459E+03  0.39989279721E+03  0.17300000000E+03 0.  1.
         -6    1    1    2    0  502  0.81342057810E+02  0.98771762768E+02 -0.92412145457E+02  0.23418239925E+03  0.17300000000E+03 0.  1.
<mgrwt>
<rscale>  2 0.21517758E+03</rscale>
<asrwt>0</asrwt>
<pdfrwt beam="1">  1       21 0.15738307E-01 0.21517758E+03</pdfrwt>
<pdfrwt beam="2">  1       21 0.81811724E-01 0.21517758E+03</pdfrwt>
<totfact> 0.46454741E+04</totfact>
</mgrwt>
</event>
<event>
 4    1  0.4102458E+000  0.1819980E+03  0.7546771E-02  0.1165883E+00
         21   -1    0    0  503  502  0.00000000000E+00  0.00000000000E+00  0.80029540857E+02  0.80029540857E+02  0.00000000000E+00 0.  1.
         21   -1    0    0  501  503 -0.00000000000E+00 -0.00000000000E+00 -0.49081720797E+03  0.49081720797E+03  0.00000000000E+00 0. -1.
          6    1    1    2  501    0 -0.46944315351E+02 -0.31472039480E+02 -0.31839308841E+03  0.36673889453E+03  0.17300000000E+03 0. -1.
         -6    1    1    2    0  502  0.46944315351E+02  0.31472039480E+02 -0.92394578706E+02  0.20410785430E+03  0.17300000000E+03 0.  1.
<mgrwt>
<rscale>  2 0.18199796E+03</rscale>
<asrwt>0</asrwt>
<pdfrwt beam="1">  1       21 0.12312237E-01 0.18199796E+03</pdfrwt>
<pdfrwt beam="2">  1       21 0.75510341E-01 0.18199796E+03</pdfrwt>
<totfact> 0.88146361E+04</totfact>
</mgrwt>
</event>
<event>
 4    1  0.4102458E+000  0.2682327E+03  0.7546771E-02  0.1102295E+00
         21   -1    0    0  503  502  0.00000000000E+00  0.00000000000E+00  0.44122431915E+02  0.44122431915E+02  0.00000000000E+00 0.  1.
         21   -1    0    0  501  503 -0.00000000000E+00 -0.00000000000E+00 -0.31050533961E+04  0.31050533961E+04  0.00000000000E+00 0.  1.
          6    1    1    2  501    0 -0.19808332180E+02  0.20402801633E+03 -0.26154878125E+04  0.26292062108E+04  0.17300000000E+03 0.  1.
         -6    1    1    2    0  502  0.19808332180E+02 -0.20402801633E+03 -0.44544315173E+03  0.51996961728E+03  0.17300000000E+03 0.  1.
<mgrwt>
<rscale>  2 0.26823274E+03</rscale>
<asrwt>0</asrwt>
<pdfrwt beam="1">  1       21 0.67880649E-02 0.26823274E+03</pdfrwt>
<pdfrwt beam="2">  1       21 0.47770063E+00 0.26823274E+03</pdfrwt>
<totfact> 0.38745272E+02</totfact>
</mgrwt>
</event>
<event>
 4    1  0.4102458E+000  0.1858825E+03  0.7546771E-02  0.1162228E+00
         21   -1    0    0  503  502  0.00000000000E+00  0.00000000000E+00  0.10456314905E+03  0.10456314905E+03  0.00000000000E+00 0.  1.
         21   -1    0    0  501  503 -0.00000000000E+00 -0.00000000000E+00 -0.36061795257E+03  0.36061795257E+03  0.00000000000E+00 0.  1.
          6    1    1    2  501    0 -0.29249806735E+02 -0.61382058868E+02 -0.19530671185E+03  0.26962384917E+03  0.17300000000E+03 0.  1.
         -6    1    1    2    0  502  0.29249806735E+02  0.61382058868E+02 -0.60748091666E+02  0.19555725245E+03  0.17300000000E+03 0.  1.
<mgrwt>
<rscale>  2 0.18588251E+03</rscale>
<asrwt>0</asrwt>
<pdfrwt beam="1">  1       21 0.16086638E-01 0.18588251E+03</pdfrwt>
<pdfrwt beam="2">  1       21 0.55479686E-01 0.18588251E+03</pdfrwt>
<totfact> 0.10599478E+05</totfact>
</mgrwt>
</event>
<event>
 4    1  0.4102458E+000  0.2175530E+03  0.7546771E-02  0.1135721E+00
         21   -1    0    0  501  502  0.00000000000E+00  0.00000000000E+00  0.25816875212E+02  0.25816875212E+02  0.00000000000E+00 0. -1.
         21   -1    0    0  502  503 -0.00000000000E+00 -0.00000000000E+00 -0.20993185686E+04  0.20993185686E+04  0.00000000000E+00 0. -1.
          6    1    1    2  501    0 -0.11231993408E+03 -0.69170344585E+02 -0.65848435945E+03  0.69349185705E+03  0.17300000000E+03 0. -1.
         -6    1    1    2    0  503  0.11231993408E+03  0.69170344585E+02 -0.14150173340E+04  0.14316435868E+04  0.17300000000E+03 0. -1.
<mgrwt>
<rscale>  2 0.21755299E+03</rscale>
<asrwt>0</asrwt>
<pdfrwt beam="1">  1       21 0.39718286E-02 0.21755299E+03</pdfrwt>
<pdfrwt beam="2">  1       21 0.32297196E+00 0.21755299E+03</pdfrwt>
<totfact> 0.97106212E+03</totfact>
</mgrwt>
</event>
<event>
 4    1  0.4102458E+000  0.1927380E+03  0.7546771E-02  0.1156015E+00
         21   -1    0    0  503  502  0.00000000000E+00  0.00000000000E+00  0.12341135008E+04  0.12341135008E+04  0.00000000000E+00 0.  1.
         21   -1    0    0  501  503 -0.00000000000E+00 -0.00000000000E+00 -0.30239588144E+02  0.30239588144E+02  0.00000000000E+00 0. -1.
          6    1    1    2  501    0  0.24529595005E+02 -0.81346458232E+02  0.55912703256E+03  0.59141439434E+03  0.17300000000E+03 0. -1.
         -6    1    1    2    0  502 -0.24529595005E+02  0.81346458232E+02  0.64474688011E+03  0.67293869462E+03  0.17300000000E+03 0. -1.
<mgrwt>
<rscale>  2 0.19273803E+03</rscale>
<asrwt>0</asrwt>
<pdfrwt beam="1">  1       21 0.18986358E+00 0.19273803E+03</pdfrwt>
<pdfrwt beam="2">  1       21 0.46522453E-02 0.19273803E+03</pdfrwt>
<totfact> 0.47495048E+04</totfact>
</mgrwt>
</event>
<event>
 4    1  0.4102458E+000  0.1890695E+03  0.7546771E-02  0.1159303E+00
         21   -1    0    0  501  502  0.00000000000E+00  0.00000000000E+00  0.79947584348E+02  0.79947584348E+02  0.00000000000E+00 0. -1.
         21   -1    0    0  502  503 -0.00000000000E+00 -0.00000000000E+00 -0.54863413791E+03  0.54863413791E+03  0.00000000000E+00 0. -1.
          6    1    1    2  501    0 -0.56420566331E+02  0.51332144544E+02 -0.99159671420E+02  0.21349451938E+03  0.17300000000E+03 0. -1.
         -6    1    1    2    0  503  0.56420566331E+02 -0.51332144544E+02 -0.36952688214E+03  0.41508720288E+03  0.17300000000E+03 0. -1.
<mgrwt>
<rscale>  2 0.18906948E+03</rscale>
<asrwt>0</asrwt>
<pdfrwt beam="1">  1       21 0.12299629E-01 0.18906948E+03</pdfrwt>
<pdfrwt beam="2">  1       21 0.84405251E-01 0.18906948E+03</pdfrwt>
<totfact> 0.68476670E+04</totfact>
</mgrwt>
</event>
<event>
 4    1  0.4102458E+000  0.3066177E+03  0.7546771E-02  0.1081979E+00
         21   -1    0    0  501  502  0.00000000000E+00  0.00000000000E+00  0.75481957713E+03  0.75481957713E+03  0.00000000000E+00 0. -1.
         21   -1    0    0  502  503 -0.00000000000E+00 -0.00000000000E+00 -0.31670373207E+03  0.31670373207E+03  0.00000000000E+00 0.  1.
          6    1    1    2  501    0  0.21028494382E+03  0.14094551294E+03  0.63637583648E+03  0.70639125170E+03  0.17300000000E+03 0. -1.
         -6    1    1    2    0  503 -0.21028494382E+03 -0.14094551294E+03 -0.19825999143E+03  0.36513205750E+03  0.17300000000E+03 0.  1.
<mgrwt>
<rscale>  2 0.30661767E+03</rscale>
<asrwt>0</asrwt>
<pdfrwt beam="1">  1       21 0.11612609E+00 0.30661767E+03</pdfrwt>
<pdfrwt beam="2">  1       21 0.48723651E-01 0.30661767E+03</pdfrwt>
<totfact> 0.21187553E+03</totfact>
</mgrwt>
</event>
<event>
 4    1  0.4102458E+000  0.1760324E+03  0.7546771E-02  0.1171699E+00
         21   -1    0    0  501  502  0.00000000000E+00  0.00000000000E+00  0.15183745018E+03  0.15183745018E+03  0.00000000000E+00 0. -1.
         21   -1    0    0  502  503 -0.00000000000E+00 -0.00000000000E+00 -0.43295900417E+03  0.43295900417E+03  0.00000000000E+00 0. -1.
          6    1    1    2  501    0 -0.31735362473E+02 -0.71593534221E+01  0.72033617013E+02  0.19020050356E+03  0.17300000000E+03 0. -1.
         -6    1    1    2    0  503  0.31735362473E+02  0.71593534221E+01 -0.35315517101E+03  0.39459595079E+03  0.17300000000E+03 0. -1.
<mgrwt>
<rscale>  2 0.17603235E+03</rscale>
<asrwt>0</asrwt>
<pdfrwt beam="1">  1       21 0.23359608E-01 0.17603235E+03</pdfrwt>
<pdfrwt beam="2">  1       21 0.66609077E-01 0.17603235E+03</pdfrwt>
<totfact> 0.35923709E+04</totfact>
</mgrwt>
</event>
<event>
 4    1  0.4102458E+000  0.2704594E+03  0.7546771E-02  0.1101017E+00
         21   -1    0    0  501  502  0.00000000000E+00  0.00000000000E+00  0.20907184579E+03  0.20907184579E+03  0.00000000000E+00 0. -1.
         21   -1    0    0  502  503 -0.00000000000E+00 -0.00000000000E+00 -0.43549985890E+03  0.43549985890E+03  0.00000000000E+00 0.  1.
          6    1    1    2  501    0 -0.89017600422E+02  0.18787011226E+03  0.29693701661E+02  0.27208459748E+03  0.17300000000E+03 0. -1.
         -6    1    1    2    0  503  0.89017600422E+02 -0.18787011226E+03 -0.25612171476E+03  0.37248710721E+03  0.17300000000E+03 0.  1.
<mgrwt>
<rscale>  2 0.27045945E+03</rscale>
<asrwt>0</asrwt>
<pdfrwt beam="1">  1       21 0.32164900E-01 0.27045945E+03</pdfrwt>
<pdfrwt beam="2">  1       21 0.66999978E-01 0.27045945E+03</pdfrwt>
<totfact> 0.18194729E+04</totfact>
</mgrwt>
</event>
<event>
 4    1  0.4102458E+000  0.2283841E+03  0.7546771E-02  0.1127782E+00
         21   -1    0    0  503  502  0.00000000000E+00  0.00000000000E+00  0.10764105655E+03  0.10764105655E+03  0.00000000000E+00 0. -1.
         21   -1    0    0  501  503 -0.00000000000E+00 -0.00000000000E+00 -0.51626470311E+03  0.51626470311E+03  0.00000000000E+00 0.  1.
          6    1    1    2  501    0 -0.14037580394E+03  0.50248669270E+02 -0.28160964156E+03  0.36257866086E+03  0.17300000000E+03 0.  1.
         -6    1    1    2    0  502  0.14037580394E+03 -0.50248669270E+02 -0.12701400500E+03  0.26132709879E+03  0.17300000000E+03 0.  1.
<mgrwt>
<rscale>  2 0.22838410E+03</rscale>
<asrwt>0</asrwt>
<pdfrwt beam="1">  1       21 0.16560162E-01 0.22838410E+03</pdfrwt>
<pdfrwt beam="2">  1       21 0.79425340E-01 0.22838410E+03</pdfrwt>
<totfact> 0.44971612E+04</totfact>
</mgrwt>
</event>
<event>
 4    1  0.4102458E+000  0.1807703E+03  0.7546771E-02  0.1167060E+00
         21   -1    0    0  503  502  0.00000000000E+00  0.00000000000E+00  0.78495889660E+02  0.78495889660E+02  0.00000000000E+00 0.  1.
         21   -1    0    0  501  503 -0.00000000000E+00 -0.00000000000E+00 -0.49370758006E+03  0.49370758006E+03  0.00000000000E+00 0.  1.
          6    1    1    2  501    0 -0.10823426549E+02 -0.51300551286E+02 -0.32089162538E+03  0.36830602542E+03  0.17300000000E+03 0.  1.
         -6    1    1    2    0  502  0.10823426549E+02  0.51300551286E+02 -0.94320065019E+02  0.20389744429E+03  0.17300000000E+03 0.  1.
<mgrwt>
<rscale>  2 0.18077028E+03</rscale>
<asrwt>0</asrwt>
<pdfrwt beam="1">  1       21 0.12076291E-01 0.18077028E+03</pdfrwt>
<pdfrwt beam="2">  1       21 0.75955012E-01 0.18077028E+03</pdfrwt>
<totfact> 0.90107161E+04</totfact>
</mgrwt>
</event>
<event>
 4    1  0.4102458E+000  0.2244547E+03  0.7546771E-02  0.1130605E+00
         21   -1    0    0  503  502  0.00000000000E+00  0.00000000000E+00  0.17091494965E+03  0.17091494965E+03  0.00000000000E+00 0.  1.
         21   -1    0    0  501  503 -0.00000000000E+00 -0.00000000000E+00 -0.52342638933E+03  0.52342638933E+03  0.00000000000E+00 0. -1.
          6    1    1    2  501    0  0.12785724962E+03  0.64058144543E+02 -0.40571765668E+03  0.46366662496E+03  0.17300000000E+03 0. -1.
         -6    1    1    2    0  502 -0.12785724962E+03 -0.64058144543E+02  0.53206216993E+02  0.23067471402E+03  0.17300000000E+03 0.  1.
<mgrwt>
<rscale>  2 0.22445472E+03</rscale>
<asrwt>0</asrwt>
<pdfrwt beam="1">  1       21 0.26294608E-01 0.22445472E+03</pdfrwt>
<pdfrwt beam="2">  1       21 0.80527136E-01 0.22445472E+03</pdfrwt>
<totfact> 0.18284709E+04</totfact>
</mgrwt>
</event>
<event>
 4    1  0.4102458E+000  0.1924215E+03  0.7546771E-02  0.1156295E+00
         21   -1    0    0  501  502  0.00000000000E+00  0.00000000000E+00  0.37417093068E+03  0.37417093068E+03  0.00000000000E+00 0. -1.
         21   -1    0    0  502  503 -0.00000000000E+00 -0.00000000000E+00 -0.15301543739E+03  0.15301543739E+03  0.00000000000E+00 0.  1.
          6    1    1    2  501    0 -0.24429444048E+02  0.80623956284E+02  0.26725538649E+03  0.32931969524E+03  0.17300000000E+03 0. -1.
         -6    1    1    2    0  503  0.24429444048E+02 -0.80623956284E+02 -0.46099893198E+02  0.19786667283E+03  0.17300000000E+03 0.  1.
<mgrwt>
<rscale>  2 0.19242146E+03</rscale>
<asrwt>0</asrwt>
<pdfrwt beam="1">  1       21 0.57564758E-01 0.19242146E+03</pdfrwt>
<pdfrwt beam="2">  1       21 0.23540837E-01 0.19242146E+03</pdfrwt>
<totfact> 0.48096324E+04</totfact>
</mgrwt>
</event>
<event>
 4    1  0.4102458E+000  0.2202507E+03  0.7546771E-02  0.1133696E+00
         21   -1    0    0  501  502  0.00000000000E+00  0.00000000000E+00  0.25489177917E+03  0.25489177917E+03  0.00000000000E+00 0.  1.
         21   -1    0    0  502  503 -0.00000000000E+00 -0.00000000000E+00 -0.19227386529E+03  0.19227386529E+03  0.00000000000E+00 0.  1.
          6    1    1    2  501    0 -0.11657641634E+03 -0.70649057411E+02  0.53862265218E+02  0.22674102799E+03  0.17300000000E+03 0.  1.
         -6    1    1    2    0  503  0.11657641634E+03  0.70649057411E+02  0.87556486597E+01  0.22042461646E+03  0.17300000000E+03 0.  1.
<mgrwt>
<rscale>  2 0.22025065E+03</rscale>
<asrwt>0</asrwt>
<pdfrwt beam="1">  1       21 0.39214120E-01 0.22025065E+03</pdfrwt>
<pdfrwt beam="2">  1       21 0.29580595E-01 0.22025065E+03</pdfrwt>
<totfact> 0.67843669E+04</totfact>
</mgrwt>
</event>
<event>
 4    1  0.4102458E+000  0.1906571E+03  0.7546771E-02  0.1157870E+00
         21   -1    0    0  503  502  0.00000000000E+00  0.00000000000E+00  0.32206983760E+03  0.32206983760E+03  0.00000000000E+00 0.  1.
         21   -1    0    0  501  503 -0.00000000000E+00 -0.00000000000E+00 -0.11348049875E+03  0.11348049875E+03  0.00000000000E+00 0.  1.
          6    1    1    2  501    0  0.75949168943E+02  0.25550696541E+02  0.88244213806E+02  0.21008844715E+03  0.17300000000E+03 0.  1.
         -6    1    1    2    0  502 -0.75949168943E+02 -0.25550696541E+02  0.12034512504E+03  0.22546188919E+03  0.17300000000E+03 0.  1.
<mgrwt>
<rscale>  2 0.19065706E+03</rscale>
<asrwt>0</asrwt>
<pdfrwt beam="1">  1       21 0.49549205E-01 0.19065706E+03</pdfrwt>
<pdfrwt beam="2">  1       21 0.17458538E-01 0.19065706E+03</pdfrwt>
<totfact> 0.11542986E+05</totfact>
</mgrwt>
</event>
<event>
 4    1  0.4102458E+000  0.1973851E+03  0.7546771E-02  0.1151964E+00
         21   -1    0    0  501  502  0.00000000000E+00  0.00000000000E+00  0.21176887130E+03  0.21176887130E+03  0.00000000000E+00 0.  1.
         21   -1    0    0  502  503 -0.00000000000E+00 -0.00000000000E+00 -0.18693105862E+03  0.18693105862E+03  0.00000000000E+00 0. -1.
          6    1    1    2  501    0 -0.16038812249E+02 -0.93673076701E+02  0.37473380036E+02  0.20091078370E+03  0.17300000000E+03 0. -1.
         -6    1    1    2    0  503  0.16038812249E+02  0.93673076701E+02 -0.12635567358E+02  0.19778914621E+03  0.17300000000E+03 0.  1.
<mgrwt>
<rscale>  2 0.19738513E+03</rscale>
<asrwt>0</asrwt>
<pdfrwt beam="1">  1       21 0.32579827E-01 0.19738513E+03</pdfrwt>
<pdfrwt beam="2">  1       21 0.28758624E-01 0.19738513E+03</pdfrwt>
<totfact> 0.10469393E+05</totfact>
</mgrwt>
</event>
<event>
 4    1  0.4102458E+000  0.1847899E+03  0.7546771E-02  0.1163246E+00
         21   -1    0    0  503  502  0.00000000000E+00  0.00000000000E+00  0.10963158973E+03  0.10963158973E+03  0.00000000000E+00 0. -1.
         21   -1    0    0  501  503 -0.00000000000E+00 -0.00000000000E+00 -0.38344500631E+03  0.38344500631E+03  0.00000000000E+00 0. -1.
          6    1    1    2  501    0  0.46202399628E+02  0.45647159634E+02 -0.24371707917E+03  0.30585182621E+03  0.17300000000E+03 0. -1.
         -6    1    1    2    0  502 -0.46202399628E+02 -0.45647159634E+02 -0.30096337399E+02  0.18722476983E+03  0.17300000000E+03 0. -1.
<mgrwt>
<rscale>  2 0.18478995E+03</rscale>
<asrwt>0</asrwt>
<pdfrwt beam="1">  1       21 0.16866399E-01 0.18478995E+03</pdfrwt>
<pdfrwt beam="2">  1       21 0.58991539E-01 0.18478995E+03</pdfrwt>
<totfact> 0.85323861E+04</totfact>
</mgrwt>
</event>
<event>
 4    1  0.4102458E+000  0.2046444E+03  0.7546771E-02  0.1145879E+00
         21   -1    0    0  503  502  0.00000000000E+00  0.00000000000E+00  0.89490386440E+02  0.89490386440E+02  0.00000000000E+00 0.  1.
         21   -1    0    0  501  503 -0.00000000000E+00 -0.00000000000E+00 -0.53263850361E+03  0.53263850361E+03  0.00000000000E+00 0.  1.
          6    1    1    2  501    0 -0.85339088525E+02  0.68319532569E+02 -0.32995717843E+03  0.38826673584E+03  0.17300000000E+03 0.  1.
         -6    1    1    2    0  502  0.85339088525E+02 -0.68319532569E+02 -0.11319093874E+03  0.23386215422E+03  0.17300000000E+03 0.  1.
<mgrwt>
<rscale>  2 0.20464437E+03</rscale>
<asrwt>0</asrwt>
<pdfrwt beam="1">  1       21 0.13767752E-01 0.20464437E+03</pdfrwt>
<pdfrwt beam="2">  1       21 0.81944386E-01 0.20464437E+03</pdfrwt>
<totfact> 0.59353563E+04</totfact>
</mgrwt>
</event>
<event>
 4    1  0.4102458E+000  0.2150202E+03  0.7546771E-02  0.1137651E+00
         21   -1    0    0  503  502  0.00000000000E+00  0.00000000000E+00  0.27629089522E+03  0.27629089522E+03  0.00000000000E+00 0. -1.
         21   -1    0    0  501  503 -0.00000000000E+00 -0.00000000000E+00 -0.22043426290E+03  0.22043426290E+03  0.00000000000E+00 0.  1.
          6    1    1    2  501    0  0.10997876098E+03  0.64879411766E+02 -0.93965879996E+02  0.23465560411E+03  0.17300000000E+03 0.  1.
         -6    1    1    2    0  502 -0.10997876098E+03 -0.64879411766E+02  0.14982251231E+03  0.26206955400E+03  0.17300000000E+03 0. -1.
<mgrwt>
<rscale>  2 0.21502015E+03</rscale>
<asrwt>0</asrwt>
<pdfrwt beam="1">  1       21 0.42506291E-01 0.21502015E+03</pdfrwt>
<pdfrwt beam="2">  1       21 0.33912964E-01 0.21502015E+03</pdfrwt>
<totfact> 0.44115966E+04</totfact>
</mgrwt>
</event>
<event>
 4    1  0.4102458E+000  0.2059978E+03  0.7546771E-02  0.1144775E+00
         21   -1    0    0  501  502  0.00000000000E+00  0.00000000000E+00  0.27503720507E+03  0.27503720507E+03  0.00000000000E+00 0. -1.
         21   -1    0    0  502  503 -0.00000000000E+00 -0.00000000000E+00 -0.42395748945E+03  0.42395748945E+03  0.00000000000E+00 0. -1.
          6    1    1    2  501    0  0.98940150963E+02  0.52124316523E+02  0.20427913727E+03  0.29011215723E+03  0.17300000000E+03 0. -1.
         -6    1    1    2    0  503 -0.98940150963E+02 -0.52124316523E+02 -0.35319942166E+03  0.40888253730E+03  0.17300000000E+03 0. -1.
<mgrwt>
<rscale>  2 0.20599781E+03</rscale>
<asrwt>0</asrwt>
<pdfrwt beam="1">  1       21 0.42313416E-01 0.20599781E+03</pdfrwt>
<pdfrwt beam="2">  1       21 0.65224229E-01 0.20599781E+03</pdfrwt>
<totfact> 0.11522473E+04</totfact>
</mgrwt>
</event>
<event>
 4    1  0.4102458E+000  0.2302528E+03  0.7546771E-02  0.1126462E+00
         21   -1    0    0  501  502  0.00000000000E+00  0.00000000000E+00  0.17965537392E+03  0.17965537392E+03  0.00000000000E+00 0.  1.
         21   -1    0    0  502  503 -0.00000000000E+00 -0.00000000000E+00 -0.78902438562E+03  0.78902438562E+03  0.00000000000E+00 0.  1.
          6    1    1    2  501    0  0.76603719695E+02  0.13122198451E+03  0.78524015037E+02  0.24327424859E+03  0.17300000000E+03 0.  1.
         -6    1    1    2    0  503 -0.76603719695E+02 -0.13122198451E+03 -0.68789302674E+03  0.72540551095E+03  0.17300000000E+03 0.  1.
<mgrwt>
<rscale>  2 0.23025277E+03</rscale>
<asrwt>0</asrwt>
<pdfrwt beam="1">  1       21 0.27639289E-01 0.23025277E+03</pdfrwt>
<pdfrwt beam="2">  1       21 0.12138837E+00 0.23025277E+03</pdfrwt>
<totfact> 0.62360795E+03</totfact>
</mgrwt>
</event>
<event>
 4    1  0.4102458E+000  0.2150299E+03  0.7546771E-02  0.1137644E+00
         21   -1    0    0  501  502  0.00000000000E+00  0.00000000000E+00  0.19208068821E+03  0.19208068821E+03  0.00000000000E+00 0.  1.
         21   -1    0    0  502  503 -0.00000000000E+00 -0.00000000000E+00 -0.29240665166E+03  0.29240665166E+03  0.00000000000E+00 0.  1.
          6    1    1    2  501    0  0.12718031823E+03 -0.11577016187E+02  0.51682952336E+02  0.22115376599E+03  0.17300000000E+03 0.  1.
         -6    1    1    2    0  503 -0.12718031823E+03  0.11577016187E+02 -0.15200891579E+03  0.26333357387E+03  0.17300000000E+03 0.  1.
<mgrwt>
<rscale>  2 0.21502991E+03</rscale>
<asrwt>0</asrwt>
<pdfrwt beam="1">  1       21 0.29550875E-01 0.21502991E+03</pdfrwt>
<pdfrwt beam="2">  1       21 0.44985638E-01 0.21502991E+03</pdfrwt>
<totfact> 0.51485200E+04</totfact>
</mgrwt>
</event>
<event>
 4    1  0.4102458E+000  0.2868505E+03  0.7546771E-02  0.1092005E+00
         21   -1    0    0  503  502  0.00000000000E+00  0.00000000000E+00  0.82839942628E+03  0.82839942628E+03  0.00000000000E+00 0.  1.
         21   -1    0    0  501  503 -0.00000000000E+00 -0.00000000000E+00 -0.12181208593E+03  0.12181208593E+03  0.00000000000E+00 0. -1.
          6    1    1    2  501    0 -0.80649444642E+02 -0.21412586981E+03  0.14917480102E+03  0.32332080400E+03  0.17300000000E+03 0.  1.
         -6    1    1    2    0  502  0.80649444642E+02  0.21412586981E+03  0.55741253933E+03  0.62689070821E+03  0.17300000000E+03 0.  1.
<mgrwt>
<rscale>  2 0.28685052E+03</rscale>
<asrwt>0</asrwt>
<pdfrwt beam="1">  1       21 0.12744606E+00 0.28685052E+03</pdfrwt>
<pdfrwt beam="2">  1       21 0.18740321E-01 0.28685052E+03</pdfrwt>
<totfact> 0.11189018E+04</totfact>
</mgrwt>
</event>
<event>
 4    1  0.4102458E+000  0.1938642E+03  0.7546771E-02  0.1155022E+00
         21   -1    0    0  501  502  0.00000000000E+00  0.00000000000E+00  0.28629447572E+03  0.28629447572E+03  0.00000000000E+00 0.  1.
         21   -1    0    0  502  503 -0.00000000000E+00 -0.00000000000E+00 -0.13181860899E+03  0.13181860899E+03  0.00000000000E+00 0. -1.
          6    1    1    2  501    0 -0.31710190260E+02 -0.81540069792E+02  0.90662558965E+02  0.21401639831E+03  0.17300000000E+03 0. -1.
         -6    1    1    2    0  503  0.31710190260E+02  0.81540069792E+02  0.63813307765E+02  0.20409668639E+03  0.17300000000E+03 0. -1.
<mgrwt>
<rscale>  2 0.19386418E+03</rscale>
<asrwt>0</asrwt>
<pdfrwt beam="1">  1       21 0.44045304E-01 0.19386418E+03</pdfrwt>
<pdfrwt beam="2">  1       21 0.20279786E-01 0.19386418E+03</pdfrwt>
<totfact> 0.11132481E+05</totfact>
</mgrwt>
</event>
<event>
 4    1  0.4102458E+000  0.1861035E+03  0.7546771E-02  0.1162023E+00
         21   -1    0    0  503  502  0.00000000000E+00  0.00000000000E+00  0.12690702168E+04  0.12690702168E+04  0.00000000000E+00 0. -1.
         21   -1    0    0  501  503 -0.00000000000E+00 -0.00000000000E+00 -0.10575633090E+03  0.10575633090E+03  0.00000000000E+00 0. -1.
          6    1    1    2  501    0  0.71123473461E+01  0.68226960660E+02 -0.10453825377E+02  0.18639685113E+03  0.17300000000E+03 0. -1.
         -6    1    1    2    0  502 -0.71123473461E+01 -0.68226960660E+02  0.11737677113E+04  0.11884296966E+04  0.17300000000E+03 0. -1.
<mgrwt>
<rscale>  2 0.18610348E+03</rscale>
<asrwt>0</asrwt>
<pdfrwt beam="1">  1       21 0.19524156E+00 0.18610348E+03</pdfrwt>
<pdfrwt beam="2">  1       21 0.16270206E-01 0.18610348E+03</pdfrwt>
<totfact> 0.49031724E+03</totfact>
</mgrwt>
</event>
<event>
 4    1  0.4102458E+000  0.1941349E+03  0.7546771E-02  0.1154784E+00
         21   -1    0    0  501  502  0.00000000000E+00  0.00000000000E+00  0.53928394095E+02  0.53928394095E+02  0.00000000000E+00 0. -1.
         21   -1    0    0  502  503 -0.00000000000E+00 -0.00000000000E+00 -0.10956111808E+04  0.10956111808E+04  0.00000000000E+00 0.  1.
          6    1    1    2  501    0  0.85868058575E+02 -0.19647307255E+02 -0.17496143376E+03  0.26134238744E+03  0.17300000000E+03 0. -1.
         -6    1    1    2    0  503 -0.85868058575E+02  0.19647307255E+02 -0.86672135290E+03  0.88819718742E+03  0.17300000000E+03 0.  1.
<mgrwt>
<rscale>  2 0.19413485E+03</rscale>
<asrwt>0</asrwt>
<pdfrwt beam="1">  1       21 0.82966765E-02 0.19413485E+03</pdfrwt>
<pdfrwt beam="2">  1       21 0.16855556E+00 0.19413485E+03</pdfrwt>
<totfact> 0.24577728E+04</totfact>
</mgrwt>
</event>
<event>
 4    1  0.4102458E+000  0.1963378E+03  0.7546771E-02  0.1152866E+00
         21   -1    0    0  501  502  0.00000000000E+00  0.00000000000E+00  0.21008020508E+03  0.21008020508E+03  0.00000000000E+00 0.  1.
         21   -1    0    0  502  503 -0.00000000000E+00 -0.00000000000E+00 -0.30065041281E+03  0.30065041281E+03  0.00000000000E+00 0. -1.
          6    1    1    2  501    0 -0.58140723983E+02 -0.72382119714E+02  0.11412414611E+03  0.22709653402E+03  0.17300000000E+03 0.  1.
         -6    1    1    2    0  503  0.58140723983E+02  0.72382119714E+02 -0.20469435384E+03  0.28363408387E+03  0.17300000000E+03 0. -1.
<mgrwt>
<rscale>  2 0.19633776E+03</rscale>
<asrwt>0</asrwt>
<pdfrwt beam="1">  1       21 0.32320032E-01 0.19633776E+03</pdfrwt>
<pdfrwt beam="2">  1       21 0.46253909E-01 0.19633776E+03</pdfrwt>
<totfact> 0.41168652E+04</totfact>
</mgrwt>
</event>
<event>
 4    1  0.4102458E+000  0.2167700E+03  0.7546771E-02  0.1136314E+00
         21   -1    0    0  503  502  0.00000000000E+00  0.00000000000E+00  0.19974405777E+04  0.19974405777E+04  0.00000000000E+00 0. -1.
         21   -1    0    0  501  503 -0.00000000000E+00 -0.00000000000E+00 -0.30976341171E+02  0.30976341171E+02  0.00000000000E+00 0. -1.
          6    1    1    2  501    0  0.37259259676E+02 -0.12518780206E+03  0.48579586018E+03  0.53196508907E+03  0.17300000000E+03 0. -1.
         -6    1    1    2    0  502 -0.37259259676E+02  0.12518780206E+03  0.14806683763E+04  0.14964518298E+04  0.17300000000E+03 0. -1.
<mgrwt>
<rscale>  2 0.21677001E+03</rscale>
<asrwt>0</asrwt>
<pdfrwt beam="1">  1       21 0.30729845E+00 0.21677001E+03</pdfrwt>
<pdfrwt beam="2">  1       21 0.47655925E-02 0.21677001E+03</pdfrwt>
<totfact> 0.88136399E+03</totfact>
</mgrwt>
</event>
<event>
 4    1  0.4102458E+000  0.1908689E+03  0.7546771E-02  0.1157680E+00
         21   -1    0    0  503  502  0.00000000000E+00  0.00000000000E+00  0.22459738607E+04  0.22459738607E+04  0.00000000000E+00 0.  1.
         21   -1    0    0  501  503 -0.00000000000E+00 -0.00000000000E+00 -0.18163180095E+02  0.18163180095E+02  0.00000000000E+00 0.  1.
          6    1    1    2  501    0  0.48688647808E+02 -0.64275629917E+02  0.74367556631E+03  0.76777880210E+03  0.17300000000E+03 0.  1.
         -6    1    1    2    0  502 -0.48688647808E+02  0.64275629917E+02  0.14841351143E+04  0.14963582387E+04  0.17300000000E+03 0.  1.
<mgrwt>
<rscale>  2 0.19086891E+03</rscale>
<asrwt>0</asrwt>
<pdfrwt beam="1">  1       21 0.34553422E+00 0.19086891E+03</pdfrwt>
<pdfrwt beam="2">  1       21 0.27943372E-02 0.19086891E+03</pdfrwt>
<totfact> 0.13246299E+04</totfact>
</mgrwt>
</event>
<event>
 4    1  0.4102458E+000  0.3198488E+03  0.7546771E-02  0.1075719E+00
         21   -1    0    0  501  502  0.00000000000E+00  0.00000000000E+00  0.30129938883E+03  0.30129938883E+03  0.00000000000E+00 0. -1.
         21   -1    0    0  502  503 -0.00000000000E+00 -0.00000000000E+00 -0.45319319250E+03  0.45319319250E+03  0.00000000000E+00 0. -1.
          6    1    1    2  501    0 -0.26797862457E+03  0.23700192720E+02  0.11297130099E+03  0.33921343902E+03  0.17300000000E+03 0. -1.
         -6    1    1    2    0  503  0.26797862457E+03 -0.23700192720E+02 -0.26486510467E+03  0.41527914230E+03  0.17300000000E+03 0. -1.
<mgrwt>
<rscale>  2 0.31984878E+03</rscale>
<asrwt>0</asrwt>
<pdfrwt beam="1">  1       21 0.46353752E-01 0.31984878E+03</pdfrwt>
<pdfrwt beam="2">  1       21 0.69722030E-01 0.31984878E+03</pdfrwt>
<totfact> 0.77531035E+03</totfact>
</mgrwt>
</event>
<event>
 4    1  0.4102458E+000  0.1842738E+03  0.7546771E-02  0.1163730E+00
         21   -1    0    0  503  502  0.00000000000E+00  0.00000000000E+00  0.13557468331E+03  0.13557468331E+03  0.00000000000E+00 0. -1.
         21   -1    0    0  501  503 -0.00000000000E+00 -0.00000000000E+00 -0.34239391136E+03  0.34239391136E+03  0.00000000000E+00 0. -1.
          6    1    1    2  501    0 -0.96511677808E+01 -0.62727094621E+02 -0.22724087937E+03  0.29256666026E+03  0.17300000000E+03 0. -1.
         -6    1    1    2    0  502  0.96511677808E+01  0.62727094621E+02  0.20421651330E+02  0.18540193441E+03  0.17300000000E+03 0. -1.
<mgrwt>
<rscale>  2 0.18427380E+03</rscale>
<asrwt>0</asrwt>
<pdfrwt beam="1">  1       21 0.20857644E-01 0.18427380E+03</pdfrwt>
<pdfrwt beam="2">  1       21 0.52675985E-01 0.18427380E+03</pdfrwt>
<totfact> 0.73158568E+04</totfact>
</mgrwt>
</event>
<event>
 4    1  0.4102458E+000  0.1961896E+03  0.7546771E-02  0.1152994E+00
         21   -1    0    0  501  502  0.00000000000E+00  0.00000000000E+00  0.21026777259E+03  0.21026777259E+03  0.00000000000E+00 0. -1.
         21   -1    0    0  502  503 -0.00000000000E+00 -0.00000000000E+00 -0.18358152678E+03  0.18358152678E+03  0.00000000000E+00 0. -1.
          6    1    1    2  501    0  0.58616517032E+01  0.92341850438E+02  0.23898402655E+02  0.19763984910E+03  0.17300000000E+03 0. -1.
         -6    1    1    2    0  503 -0.58616517032E+01 -0.92341850438E+02  0.27878431580E+01  0.19620945026E+03  0.17300000000E+03 0. -1.
<mgrwt>
<rscale>  2 0.19618964E+03</rscale>
<asrwt>0</asrwt>
<pdfrwt beam="1">  1       21 0.32348888E-01 0.19618964E+03</pdfrwt>
<pdfrwt beam="2">  1       21 0.28243312E-01 0.19618964E+03</pdfrwt>
<totfact> 0.11001080E+05</totfact>
</mgrwt>
</event>
<event>
 4    1  0.4102458E+000  0.2040425E+03  0.7546771E-02  0.1146372E+00
         21   -1    0    0  503  502  0.00000000000E+00  0.00000000000E+00  0.20261673425E+03  0.20261673425E+03  0.00000000000E+00 0. -1.
         21   -1    0    0  501  503 -0.00000000000E+00 -0.00000000000E+00 -0.20650720156E+03  0.20650720156E+03  0.00000000000E+00 0.  1.
          6    1    1    2  501    0  0.10409504131E+03 -0.29471345106E+02 -0.16384618212E+02  0.20469927582E+03  0.17300000000E+03 0. -1.
         -6    1    1    2    0  502 -0.10409504131E+03  0.29471345106E+02  0.12494150907E+02  0.20442465999E+03  0.17300000000E+03 0.  1.
<mgrwt>
<rscale>  2 0.20404249E+03</rscale>
<asrwt>0</asrwt>
<pdfrwt beam="1">  1       21 0.31171805E-01 0.20404249E+03</pdfrwt>
<pdfrwt beam="2">  1       21 0.31770339E-01 0.20404249E+03</pdfrwt>
<totfact> 0.93752018E+04</totfact>
</mgrwt>
</event>
<event>
 4    1  0.4102458E+000  0.2195144E+03  0.7546771E-02  0.1134246E+00
         21   -1    0    0  503  502  0.00000000000E+00  0.00000000000E+00  0.86874390263E+02  0.86874390263E+02  0.00000000000E+00 0.  1.
         21   -1    0    0  501  503 -0.00000000000E+00 -0.00000000000E+00 -0.56222255409E+03  0.56222255409E+03  0.00000000000E+00 0.  1.
          6    1    1    2  501    0  0.93856921169E+02 -0.97203242555E+02 -0.27529080627E+03  0.35209603808E+03  0.17300000000E+03 0.  1.
         -6    1    1    2    0  502 -0.93856921169E+02  0.97203242555E+02 -0.20005735756E+03  0.29700090627E+03  0.17300000000E+03 0.  1.
<mgrwt>
<rscale>  2 0.21951445E+03</rscale>
<asrwt>0</asrwt>
<pdfrwt beam="1">  1       21 0.13365291E-01 0.21951445E+03</pdfrwt>
<pdfrwt beam="2">  1       21 0.86495779E-01 0.21951445E+03</pdfrwt>
<totfact> 0.54958610E+04</totfact>
</mgrwt>
</event>
<event>
 4    1  0.4102458E+000  0.1774251E+03  0.7546771E-02  0.1170319E+00
         21   -1    0    0  501  502  0.00000000000E+00  0.00000000000E+00  0.93212843560E+02  0.93212843560E+02  0.00000000000E+00 0.  1.
         21   -1    0    0  502  503 -0.00000000000E+00 -0.00000000000E+00 -0.33918287009E+03  0.33918287009E+03  0.00000000000E+00 0.  1.
          6    1    1    2  501    0 -0.11985602713E+02  0.37510043490E+02 -0.10877713197E+03  0.20811564688E+03  0.17300000000E+03 0.  1.
         -6    1    1    2    0  503  0.11985602713E+02 -0.37510043490E+02 -0.13719289456E+03  0.22428006677E+03  0.17300000000E+03 0.  1.
<mgrwt>
<rscale>  2 0.17742508E+03</rscale>
<asrwt>0</asrwt>
<pdfrwt beam="1">  1       21 0.14340438E-01 0.17742508E+03</pdfrwt>
<pdfrwt beam="2">  1       21 0.52181978E-01 0.17742508E+03</pdfrwt>
<totfact> 0.14908672E+05</totfact>
</mgrwt>
</event>
<event>
 4    1  0.4102458E+000  0.3247119E+03  0.7546771E-02  0.1073501E+00
         21   -1    0    0  501  502  0.00000000000E+00  0.00000000000E+00  0.24917561449E+03  0.24917561449E+03  0.00000000000E+00 0. -1.
         21   -1    0    0  502  503 -0.00000000000E+00 -0.00000000000E+00 -0.44801755873E+03  0.44801755873E+03  0.00000000000E+00 0. -1.
          6    1    1    2  501    0  0.15944623229E+03 -0.22379836721E+03 -0.17287153773E+02  0.32517173284E+03  0.17300000000E+03 0. -1.
         -6    1    1    2    0  503 -0.15944623229E+03  0.22379836721E+03 -0.18155479047E+03  0.37202144038E+03  0.17300000000E+03 0. -1.
<mgrwt>
<rscale>  2 0.32471189E+03</rscale>
<asrwt>0</asrwt>
<pdfrwt beam="1">  1       21 0.38334710E-01 0.32471189E+03</pdfrwt>
<pdfrwt beam="2">  1       21 0.68925778E-01 0.32471189E+03</pdfrwt>
<totfact> 0.11739858E+04</totfact>
</mgrwt>
</event>
<event>
 4    1  0.4102458E+000  0.2165335E+03  0.7546771E-02  0.1136494E+00
         21   -1    0    0  503  502  0.00000000000E+00  0.00000000000E+00  0.10297529345E+03  0.10297529345E+03  0.00000000000E+00 0.  1.
         21   -1    0    0  501  503 -0.00000000000E+00 -0.00000000000E+00 -0.48970009532E+03  0.48970009532E+03  0.00000000000E+00 0.  1.
          6    1    1    2  501    0 -0.98755931851E+02  0.84882426805E+02 -0.27188095338E+03  0.34757159445E+03  0.17300000000E+03 0.  1.
         -6    1    1    2    0  502  0.98755931851E+02 -0.84882426805E+02 -0.11484384849E+03  0.24510379432E+03  0.17300000000E+03 0.  1.
<mgrwt>
<rscale>  2 0.21653351E+03</rscale>
<asrwt>0</asrwt>
<pdfrwt beam="1">  1       21 0.15842353E-01 0.21653351E+03</pdfrwt>
<pdfrwt beam="2">  1       21 0.75338476E-01 0.21653351E+03</pdfrwt>
<totfact> 0.55256023E+04</totfact>
</mgrwt>
</event>
<event>
 4    1  0.4102458E+000  0.2020713E+03  0.7546771E-02  0.1148003E+00
         21   -1    0    0  501  502  0.00000000000E+00  0.00000000000E+00  0.83321127725E+03  0.83321127725E+03  0.00000000000E+00 0. -1.
         21   -1    0    0  502  503 -0.00000000000E+00 -0.00000000000E+00 -0.12580757923E+03  0.12580757923E+03  0.00000000000E+00 0.  1.
          6    1    1    2  501    0  0.93732057452E+02 -0.46022872808E+02  0.72835318941E+03  0.75586451957E+03  0.17300000000E+03 0. -1.
         -6    1    1    2    0  503 -0.93732057452E+02  0.46022872808E+02 -0.20949491391E+02  0.20315433691E+03  0.17300000000E+03 0.  1.
<mgrwt>
<rscale>  2 0.20207128E+03</rscale>
<asrwt>0</asrwt>
<pdfrwt beam="1">  1       21 0.12818635E+00 0.20207128E+03</pdfrwt>
<pdfrwt beam="2">  1       21 0.19355013E-01 0.20207128E+03</pdfrwt>
<totfact> 0.10914730E+04</totfact>
</mgrwt>
</event>
<event>
 4    1  0.4102458E+000  0.2002519E+03  0.7546771E-02  0.1149527E+00
         21   -1    0    0  501  502  0.00000000000E+00  0.00000000000E+00  0.32082713982E+02  0.32082713982E+02  0.00000000000E+00 0. -1.
         21   -1    0    0  502  503 -0.00000000000E+00 -0.00000000000E+00 -0.18216447892E+04  0.18216447892E+04  0.00000000000E+00 0.  1.
          6    1    1    2  501    0  0.94863065105E+02 -0.34246396838E+02 -0.37552964680E+03  0.42558586965E+03  0.17300000000E+03 0. -1.
         -6    1    1    2    0  503 -0.94863065105E+02  0.34246396838E+02 -0.14140324284E+04  0.14281416335E+04  0.17300000000E+03 0.  1.
<mgrwt>
<rscale>  2 0.20025188E+03</rscale>
<asrwt>0</asrwt>
<pdfrwt beam="1">  1       21 0.49358015E-02 0.20025188E+03</pdfrwt>
<pdfrwt beam="2">  1       21 0.28025308E+00 0.20025188E+03</pdfrwt>
<totfact> 0.12102622E+04</totfact>
</mgrwt>
</event>
<event>
 4    1  0.4102458E+000  0.2037901E+03  0.7546771E-02  0.1146580E+00
         21   -1    0    0  503  502  0.00000000000E+00  0.00000000000E+00  0.30459049413E+03  0.30459049413E+03  0.00000000000E+00 0. -1.
         21   -1    0    0  501  503 -0.00000000000E+00 -0.00000000000E+00 -0.16047907365E+03  0.16047907365E+03  0.00000000000E+00 0.  1.
          6    1    1    2  501    0 -0.93828709144E+02 -0.52892256099E+02 -0.18114631227E+02  0.20459363939E+03  0.17300000000E+03 0.  1.
         -6    1    1    2    0  502  0.93828709144E+02  0.52892256099E+02  0.16222605171E+03  0.26047592839E+03  0.17300000000E+03 0. -1.
<mgrwt>
<rscale>  2 0.20379013E+03</rscale>
<asrwt>0</asrwt>
<pdfrwt beam="1">  1       21 0.46860076E-01 0.20379013E+03</pdfrwt>
<pdfrwt beam="2">  1       21 0.24689088E-01 0.20379013E+03</pdfrwt>
<totfact> 0.67286653E+04</totfact>
</mgrwt>
</event>
<event>
 4    1  0.4102458E+000  0.1820046E+03  0.7546771E-02  0.1165877E+00
         21   -1    0    0  501  502  0.00000000000E+00  0.00000000000E+00  0.97482345078E+03  0.97482345078E+03  0.00000000000E+00 0. -1.
         21   -1    0    0  502  503 -0.00000000000E+00 -0.00000000000E+00 -0.36293531799E+02  0.36293531799E+02  0.00000000000E+00 0. -1.
          6    1    1    2  501    0  0.56358496518E+02 -0.45150784260E+01  0.59687425474E+03  0.62400684454E+03  0.17300000000E+03 0.  1.
         -6    1    1    2    0  503 -0.56358496518E+02  0.45150784260E+01  0.34165566424E+03  0.38711013804E+03  0.17300000000E+03 0.  1.
<mgrwt>
<rscale>  2 0.18200458E+03</rscale>
<asrwt>0</asrwt>
<pdfrwt beam="1">  1       21 0.14997282E+00 0.18200458E+03</pdfrwt>
<pdfrwt beam="2">  1       21 0.55836210E-02 0.18200458E+03</pdfrwt>
<totfact> 0.67046769E+04</totfact>
</mgrwt>
</event>
<event>
 4    1  0.4102458E+000  0.1827017E+03  0.7546771E-02  0.1165214E+00
         21   -1    0    0  503  502  0.00000000000E+00  0.00000000000E+00  0.15719569773E+03  0.15719569773E+03  0.00000000000E+00 0. -1.
         21   -1    0    0  501  503 -0.00000000000E+00 -0.00000000000E+00 -0.37591534466E+03  0.37591534466E+03  0.00000000000E+00 0. -1.
          6    1    1    2  501    0  0.31563643917E+02  0.49544405151E+02 -0.28518996464E+03  0.33869341244E+03  0.17300000000E+03 0. -1.
         -6    1    1    2    0  502 -0.31563643917E+02 -0.49544405151E+02  0.66470317709E+02  0.19441762995E+03  0.17300000000E+03 0. -1.
<mgrwt>
<rscale>  2 0.18270170E+03</rscale>
<asrwt>0</asrwt>
<pdfrwt beam="1">  1       21 0.24183954E-01 0.18270170E+03</pdfrwt>
<pdfrwt beam="2">  1       21 0.57833130E-01 0.18270170E+03</pdfrwt>
<totfact> 0.45454767E+04</totfact>
</mgrwt>
</event>
<event>
 4    1  0.4102458E+000  0.2249979E+03  0.7546771E-02  0.1130211E+00
         21   -1    0    0  501  502  0.00000000000E+00  0.00000000000E+00  0.96884789341E+03  0.96884789341E+03  0.00000000000E+00 0. -1.
         21   -1    0    0  502  503 -0.00000000000E+00 -0.00000000000E+00 -0.12907813631E+03  0.12907813631E+03  0.00000000000E+00 0. -1.
          6    1    1    2  501    0 -0.95406732735E+02 -0.10766904022E+03  0.84340275306E+03  0.87289877462E+03  0.17300000000E+03 0. -1.
         -6    1    1    2    0  503  0.95406732735E+02  0.10766904022E+03 -0.36329959581E+01  0.22502725509E+03  0.17300000000E+03 0. -1.
<mgrwt>
<rscale>  2 0.22499793E+03</rscale>
<asrwt>0</asrwt>
<pdfrwt beam="1">  1       21 0.14905352E+00 0.22499793E+03</pdfrwt>
<pdfrwt beam="2">  1       21 0.19858175E-01 0.22499793E+03</pdfrwt>
<totfact> 0.69357484E+03</totfact>
</mgrwt>
</event>
<event>
 4    1  0.4102458E+000  0.1732265E+03  0.7546771E-02  0.1174524E+00
         21   -1    0    0  503  502  0.00000000000E+00  0.00000000000E+00  0.20901084779E+03  0.20901084779E+03  0.00000000000E+00 0. -1.
         21   -1    0    0  501  503 -0.00000000000E+00 -0.00000000000E+00 -0.24406096197E+03  0.24406096197E+03  0.00000000000E+00 0. -1.
          6    1    1    2  501    0 -0.83017123344E+01 -0.30815258805E+01 -0.16288816917E+03  0.23778134890E+03  0.17300000000E+03 0. -1.
         -6    1    1    2    0  502  0.83017123344E+01  0.30815258805E+01  0.12783805499E+03  0.21529046085E+03  0.17300000000E+03 0. -1.
<mgrwt>
<rscale>  2 0.17322648E+03</rscale>
<asrwt>0</asrwt>
<pdfrwt beam="1">  1       21 0.32155515E-01 0.17322648E+03</pdfrwt>
<pdfrwt beam="2">  1       21 0.37547840E-01 0.17322648E+03</pdfrwt>
<totfact> 0.64190127E+04</totfact>
</mgrwt>
</event>
<event>
 4    1  0.4102458E+000  0.1905161E+03  0.7546771E-02  0.1157997E+00
         21   -1    0    0  501  502  0.00000000000E+00  0.00000000000E+00  0.21075740108E+04  0.21075740108E+04  0.00000000000E+00 0.  1.
         21   -1    0    0  502  503 -0.00000000000E+00 -0.00000000000E+00 -0.22717586482E+02  0.22717586482E+02  0.00000000000E+00 0.  1.
          6    1    1    2  501    0  0.72877147740E+02  0.32500770973E+02  0.15663179328E+04  0.15778619221E+04  0.17300000000E+03 0.  1.
         -6    1    1    2    0  503 -0.72877147740E+02 -0.32500770973E+02  0.51853849154E+03  0.55242967515E+03  0.17300000000E+03 0.  1.
<mgrwt>
<rscale>  2 0.19051609E+03</rscale>
<asrwt>0</asrwt>
<pdfrwt beam="1">  1       21 0.32424200E+00 0.19051609E+03</pdfrwt>
<pdfrwt beam="2">  1       21 0.34950150E-02 0.19051609E+03</pdfrwt>
<totfact> 0.12172724E+04</totfact>
</mgrwt>
</event>
<event>
 4    1  0.4102458E+000  0.2050613E+03  0.7546771E-02  0.1145538E+00
         21   -1    0    0  501  502  0.00000000000E+00  0.00000000000E+00  0.41181667985E+03  0.41181667985E+03  0.00000000000E+00 0.  1.
         21   -1    0    0  502  503 -0.00000000000E+00 -0.00000000000E+00 -0.24190503136E+03  0.24190503136E+03  0.00000000000E+00 0. -1.
          6    1    1    2  501    0 -0.26988479540E+02  0.10673680912E+03  0.33343393059E+03  0.39144387914E+03  0.17300000000E+03 0.  1.
         -6    1    1    2    0  503  0.26988479540E+02 -0.10673680912E+03 -0.16352228210E+03  0.26227783206E+03  0.17300000000E+03 0. -1.
<mgrwt>
<rscale>  2 0.20506127E+03</rscale>
<asrwt>0</asrwt>
<pdfrwt beam="1">  1       21 0.63356412E-01 0.20506127E+03</pdfrwt>
<pdfrwt beam="2">  1       21 0.37216159E-01 0.20506127E+03</pdfrwt>
<totfact> 0.15919618E+04</totfact>
</mgrwt>
</event>
<event>
 4    1  0.4102458E+000  0.1828882E+03  0.7546771E-02  0.1165037E+00
         21   -1    0    0  503  502  0.00000000000E+00  0.00000000000E+00  0.19659686815E+03  0.19659686815E+03  0.00000000000E+00 0. -1.
         21   -1    0    0  501  503 -0.00000000000E+00 -0.00000000000E+00 -0.19054039270E+03  0.19054039270E+03  0.00000000000E+00 0. -1.
          6    1    1    2  501    0  0.28956630326E+02 -0.51774739037E+02 -0.60316189435E+02  0.19257765382E+03  0.17300000000E+03 0.  1.
         -6    1    1    2    0  502 -0.28956630326E+02  0.51774739037E+02  0.66372664882E+02  0.19455960702E+03  0.17300000000E+03 0.  1.
<mgrwt>
<rscale>  2 0.18288824E+03</rscale>
<asrwt>0</asrwt>
<pdfrwt beam="1">  1       21 0.30245672E-01 0.18288824E+03</pdfrwt>
<pdfrwt beam="2">  1       21 0.29313907E-01 0.18288824E+03</pdfrwt>
<totfact> 0.11731383E+05</totfact>
</mgrwt>
</event>
<event>
 4    1  0.4102458E+000  0.1941279E+03  0.7546771E-02  0.1154790E+00
         21   -1    0    0  503  502  0.00000000000E+00  0.00000000000E+00  0.44135056777E+02  0.44135056777E+02  0.00000000000E+00 0.  1.
         21   -1    0    0  501  503 -0.00000000000E+00 -0.00000000000E+00 -0.94622411073E+03  0.94622411073E+03  0.00000000000E+00 0. -1.
          6    1    1    2  501    0  0.40685764257E+02 -0.78110827744E+02 -0.60574517812E+03  0.63609185944E+03  0.17300000000E+03 0. -1.
         -6    1    1    2    0  502 -0.40685764257E+02  0.78110827744E+02 -0.29634387583E+03  0.35426730807E+03  0.17300000000E+03 0.  1.
<mgrwt>
<rscale>  2 0.19412788E+03</rscale>
<asrwt>0</asrwt>
<pdfrwt beam="1">  1       21 0.67900086E-02 0.19412788E+03</pdfrwt>
<pdfrwt beam="2">  1       21 0.14557294E+00 0.19412788E+03</pdfrwt>
<totfact> 0.51506520E+04</totfact>
</mgrwt>
</event>
<event>
 4    1  0.4102458E+000  0.2488039E+03  0.7546771E-02  0.1114063E+00
         21   -1    0    0  503  502  0.00000000000E+00  0.00000000000E+00  0.13605722373E+03  0.13605722373E+03  0.00000000000E+00 0. -1.
         21   -1    0    0  501  503 -0.00000000000E+00 -0.00000000000E+00 -0.86883819942E+03  0.86883819942E+03  0.00000000000E+00 0.  1.
          6    1    1    2  501    0 -0.14573588894E+02  0.17821887694E+03 -0.71316489612E+03  0.75531948648E+03  0.17300000000E+03 0.  1.
         -6    1    1    2    0  502  0.14573588894E+02 -0.17821887694E+03 -0.19616079573E+02  0.24957593668E+03  0.17300000000E+03 0. -1.
<mgrwt>
<rscale>  2 0.24880385E+03</rscale>
<asrwt>0</asrwt>
<pdfrwt beam="1">  1       21 0.20931880E-01 0.24880385E+03</pdfrwt>
<pdfrwt beam="2">  1       21 0.13366742E+00 0.24880385E+03</pdfrwt>
<totfact> 0.82159288E+03</totfact>
</mgrwt>
</event>
<event>
 4    1  0.4102458E+000  0.2347150E+03  0.7546771E-02  0.1123364E+00
         21   -1    0    0  501  502  0.00000000000E+00  0.00000000000E+00  0.30583847179E+03  0.30583847179E+03  0.00000000000E+00 0.  1.
         21   -1    0    0  502  503 -0.00000000000E+00 -0.00000000000E+00 -0.23756027748E+03  0.23756027748E+03  0.00000000000E+00 0.  1.
          6    1    1    2  501    0  0.14032822753E+03  0.73960209743E+02  0.16772688023E+03  0.28848471436E+03  0.17300000000E+03 0.  1.
         -6    1    1    2    0  503 -0.14032822753E+03 -0.73960209743E+02 -0.99448685919E+02  0.25491403492E+03  0.17300000000E+03 0.  1.
<mgrwt>
<rscale>  2 0.23471498E+03</rscale>
<asrwt>0</asrwt>
<pdfrwt beam="1">  1       21 0.47052073E-01 0.23471498E+03</pdfrwt>
<pdfrwt beam="2">  1       21 0.36547735E-01 0.23471498E+03</pdfrwt>
<totfact> 0.30541047E+04</totfact>
</mgrwt>
</event>
<event>
 4    1  0.4102458E+000  0.1855203E+03  0.7546771E-02  0.1162565E+00
         21   -1    0    0  503  502  0.00000000000E+00  0.00000000000E+00  0.92083346106E+02  0.92083346106E+02  0.00000000000E+00 0.  1.
         21   -1    0    0  501  503 -0.00000000000E+00 -0.00000000000E+00 -0.46580386213E+03  0.46580386213E+03  0.00000000000E+00 0. -1.
          6    1    1    2  501    0 -0.58479484370E+02  0.32694666891E+02 -0.31085230721E+03  0.36200407212E+03  0.17300000000E+03 0. -1.
         -6    1    1    2    0  502  0.58479484370E+02 -0.32694666891E+02 -0.62868208818E+02  0.19588313612E+03  0.17300000000E+03 0.  1.
<mgrwt>
<rscale>  2 0.18552033E+03</rscale>
<asrwt>0</asrwt>
<pdfrwt beam="1">  1       21 0.14166669E-01 0.18552033E+03</pdfrwt>
<pdfrwt beam="2">  1       21 0.71662133E-01 0.18552033E+03</pdfrwt>
<totfact> 0.76795742E+04</totfact>
</mgrwt>
</event>
<event>
 4    1  0.4102458E+000  0.1746224E+03  0.7546771E-02  0.1173111E+00
         21   -1    0    0  503  502  0.00000000000E+00  0.00000000000E+00  0.37817168285E+03  0.37817168285E+03  0.00000000000E+00 0. -1.
         21   -1    0    0  501  503 -0.00000000000E+00 -0.00000000000E+00 -0.22686180943E+03  0.22686180943E+03  0.00000000000E+00 0. -1.
          6    1    1    2  501    0 -0.22721379085E+02 -0.69081841332E+01 -0.16722168858E+03  0.24177691620E+03  0.17300000000E+03 0. -1.
         -6    1    1    2    0  502  0.22721379085E+02  0.69081841332E+01  0.31853156200E+03  0.36325657608E+03  0.17300000000E+03 0. -1.
<mgrwt>
<rscale>  2 0.17462240E+03</rscale>
<asrwt>0</asrwt>
<pdfrwt beam="1">  1       21 0.58180259E-01 0.17462240E+03</pdfrwt>
<pdfrwt beam="2">  1       21 0.34901817E-01 0.17462240E+03</pdfrwt>
<totfact> 0.22137887E+04</totfact>
</mgrwt>
</event>
<event>
 4    1  0.4102458E+000  0.2502611E+03  0.7546771E-02  0.1113140E+00
         21   -1    0    0  503  502  0.00000000000E+00  0.00000000000E+00  0.16443481065E+04  0.16443481065E+04  0.00000000000E+00 0. -1.
         21   -1    0    0  501  503 -0.00000000000E+00 -0.00000000000E+00 -0.40168363200E+02  0.40168363200E+02  0.00000000000E+00 0.  1.
          6    1    1    2  501    0 -0.36545664910E+02 -0.17710456103E+03  0.99374903148E+03  0.10247769263E+04  0.17300000000E+03 0. -1.
         -6    1    1    2    0  502  0.36545664910E+02  0.17710456103E+03  0.61043071184E+03  0.65973954339E+03  0.17300000000E+03 0.  1.
<mgrwt>
<rscale>  2 0.25026109E+03</rscale>
<asrwt>0</asrwt>
<pdfrwt beam="1">  1       21 0.25297658E+00 0.25026109E+03</pdfrwt>
<pdfrwt beam="2">  1       21 0.61797494E-02 0.25026109E+03</pdfrwt>
<totfact> 0.11405001E+04</totfact>
</mgrwt>
</event>
<event>
 4    1  0.4102458E+000  0.1742390E+03  0.7546771E-02  0.1173498E+00
         21   -1    0    0  501  502  0.00000000000E+00  0.00000000000E+00  0.16471961670E+03  0.16471961670E+03  0.00000000000E+00 0. -1.
         21   -1    0    0  502  503 -0.00000000000E+00 -0.00000000000E+00 -0.18500795874E+03  0.18500795874E+03  0.00000000000E+00 0. -1.
          6    1    1    2  501    0 -0.10807303009E+02 -0.17704216703E+02  0.60719973778E+00  0.17424008086E+03  0.17300000000E+03 0. -1.
         -6    1    1    2    0  503  0.10807303009E+02  0.17704216703E+02 -0.20895541780E+02  0.17548749458E+03  0.17300000000E+03 0. -1.
<mgrwt>
<rscale>  2 0.17423902E+03</rscale>
<asrwt>0</asrwt>
<pdfrwt beam="1">  1       21 0.25341480E-01 0.17423902E+03</pdfrwt>
<pdfrwt beam="2">  1       21 0.28462763E-01 0.17423902E+03</pdfrwt>
<totfact> 0.17517730E+05</totfact>
</mgrwt>
</event>
<event>
 4    1  0.4102458E+000  0.2343076E+03  0.7546771E-02  0.1123644E+00
         21   -1    0    0  501  502  0.00000000000E+00  0.00000000000E+00  0.27097453505E+03  0.27097453505E+03  0.00000000000E+00 0.  1.
         21   -1    0    0  502  503 -0.00000000000E+00 -0.00000000000E+00 -0.32214463734E+03  0.32214463734E+03  0.00000000000E+00 0. -1.
          6    1    1    2  501    0  0.95864019224E+02  0.12562306801E+03  0.15506886332E+03  0.28097405177E+03  0.17300000000E+03 0.  1.
         -6    1    1    2    0  503 -0.95864019224E+02 -0.12562306801E+03 -0.20623896560E+03  0.31214512063E+03  0.17300000000E+03 0. -1.
<mgrwt>
<rscale>  2 0.23430763E+03</rscale>
<asrwt>0</asrwt>
<pdfrwt beam="1">  1       21 0.41688390E-01 0.23430763E+03</pdfrwt>
<pdfrwt beam="2">  1       21 0.49560713E-01 0.23430763E+03</pdfrwt>
<totfact> 0.21004563E+04</totfact>
</mgrwt>
</event>
<event>
 4    1  0.4102458E+000  0.2011257E+03  0.7546771E-02  0.1148793E+00
         21   -1    0    0  501  502  0.00000000000E+00  0.00000000000E+00  0.87350045367E+02  0.87350045367E+02  0.00000000000E+00 0. -1.
         21   -1    0    0  502  503 -0.00000000000E+00 -0.00000000000E+00 -0.58403367084E+03  0.58403367084E+03  0.00000000000E+00 0. -1.
          6    1    1    2  501    0  0.54501039328E+01 -0.10243463370E+03 -0.95585001225E+02  0.22268374497E+03  0.17300000000E+03 0. -1.
         -6    1    1    2    0  503 -0.54501039328E+01  0.10243463370E+03 -0.40109862424E+03  0.44869997123E+03  0.17300000000E+03 0. -1.
<mgrwt>
<rscale>  2 0.20112573E+03</rscale>
<asrwt>0</asrwt>
<pdfrwt beam="1">  1       21 0.13438468E-01 0.20112573E+03</pdfrwt>
<pdfrwt beam="2">  1       21 0.89851336E-01 0.20112573E+03</pdfrwt>
<totfact> 0.50278878E+04</totfact>
</mgrwt>
</event>
<event>
 4    1  0.4102458E+000  0.2550449E+03  0.7546771E-02  0.1110157E+00
         21   -1    0    0  503  502  0.00000000000E+00  0.00000000000E+00  0.89369672180E+03  0.89369672180E+03  0.00000000000E+00 0. -1.
         21   -1    0    0  501  503 -0.00000000000E+00 -0.00000000000E+00 -0.10074680083E+03  0.10074680083E+03  0.00000000000E+00 0.  1.
          6    1    1    2  501    0  0.18245874945E+03  0.42751855379E+02  0.13452681854E+03  0.28834940835E+03  0.17300000000E+03 0.  1.
         -6    1    1    2    0  502 -0.18245874945E+03 -0.42751855379E+02  0.65842310243E+03  0.70609411427E+03  0.17300000000E+03 0. -1.
<mgrwt>
<rscale>  2 0.25504493E+03</rscale>
<asrwt>0</asrwt>
<pdfrwt beam="1">  1       21 0.13749180E+00 0.25504493E+03</pdfrwt>
<pdfrwt beam="2">  1       21 0.15499508E-01 0.25504493E+03</pdfrwt>
<totfact> 0.13318565E+04</totfact>
</mgrwt>
</event>
<event>
 4    1  0.4102458E+000  0.2236854E+03  0.7546771E-02  0.1131165E+00
         21   -1    0    0  501  502  0.00000000000E+00  0.00000000000E+00  0.30212084475E+03  0.30212084475E+03  0.00000000000E+00 0.  1.
         21   -1    0    0  502  503 -0.00000000000E+00 -0.00000000000E+00 -0.17656868043E+03  0.17656868043E+03  0.00000000000E+00 0.  1.
          6    1    1    2  501    0  0.13698537685E+03 -0.36621691467E+02  0.12239534751E+03  0.25498188729E+03  0.17300000000E+03 0.  1.
         -6    1    1    2    0  503 -0.13698537685E+03  0.36621691467E+02  0.31568168091E+01  0.22370763789E+03  0.17300000000E+03 0.  1.
<mgrwt>
<rscale>  2 0.22368536E+03</rscale>
<asrwt>0</asrwt>
<pdfrwt beam="1">  1       21 0.46480130E-01 0.22368536E+03</pdfrwt>
<pdfrwt beam="2">  1       21 0.27164412E-01 0.22368536E+03</pdfrwt>
<totfact> 0.56461604E+04</totfact>
</mgrwt>
</event>
<event>
 4    1  0.4102458E+000  0.2220452E+03  0.7546771E-02  0.1132367E+00
         21   -1    0    0  501  502  0.00000000000E+00  0.00000000000E+00  0.62925352470E+03  0.62925352470E+03  0.00000000000E+00 0.  1.
         21   -1    0    0  502  503 -0.00000000000E+00 -0.00000000000E+00 -0.98297690682E+02  0.98297690682E+02  0.00000000000E+00 0.  1.
          6    1    1    2  501    0  0.56761750013E+02  0.12709508698E+03  0.42933788709E+03  0.48335812675E+03  0.17300000000E+03 0.  1.
         -6    1    1    2    0  503 -0.56761750013E+02 -0.12709508698E+03  0.10161794693E+03  0.24419308863E+03  0.17300000000E+03 0.  1.
<mgrwt>
<rscale>  2 0.22204517E+03</rscale>
<asrwt>0</asrwt>
<pdfrwt beam="1">  1       21 0.96808232E-01 0.22204517E+03</pdfrwt>
<pdfrwt beam="2">  1       21 0.15122722E-01 0.22204517E+03</pdfrwt>
<totfact> 0.33716761E+04</totfact>
</mgrwt>
</event>
<event>
 4    1  0.4102458E+000  0.2087757E+03  0.7546771E-02  0.1142539E+00
         21   -1    0    0  501  502  0.00000000000E+00  0.00000000000E+00  0.10646139993E+04  0.10646139993E+04  0.00000000000E+00 0. -1.
         21   -1    0    0  502  503 -0.00000000000E+00 -0.00000000000E+00 -0.12660287020E+03  0.12660287020E+03  0.00000000000E+00 0. -1.
          6    1    1    2  501    0 -0.11439928676E+03 -0.23897755359E+02  0.95893169859E+03  0.98139558899E+03  0.17300000000E+03 0. -1.
         -6    1    1    2    0  503  0.11439928676E+03  0.23897755359E+02 -0.20920569493E+02  0.20982128050E+03  0.17300000000E+03 0. -1.
<mgrwt>
<rscale>  2 0.20877572E+03</rscale>
<asrwt>0</asrwt>
<pdfrwt beam="1">  1       21 0.16378676E+00 0.20877572E+03</pdfrwt>
<pdfrwt beam="2">  1       21 0.19477365E-01 0.20877572E+03</pdfrwt>
<totfact> 0.56530225E+03</totfact>
</mgrwt>
</event>
<event>
 4    1  0.4102458E+000  0.2020429E+03  0.7546771E-02  0.1148027E+00
         21   -1    0    0  501  502  0.00000000000E+00  0.00000000000E+00  0.25631274408E+03  0.25631274408E+03  0.00000000000E+00 0.  1.
         21   -1    0    0  502  503 -0.00000000000E+00 -0.00000000000E+00 -0.18319566331E+03  0.18319566331E+03  0.00000000000E+00 0.  1.
          6    1    1    2  501    0 -0.10408407413E+03 -0.76710730008E+01  0.11598549595E+03  0.23296775554E+03  0.17300000000E+03 0.  1.
         -6    1    1    2    0  503  0.10408407413E+03  0.76710730008E+01 -0.42868415177E+02  0.20654065186E+03  0.17300000000E+03 0.  1.
<mgrwt>
<rscale>  2 0.20204292E+03</rscale>
<asrwt>0</asrwt>
<pdfrwt beam="1">  1       21 0.39432730E-01 0.20204292E+03</pdfrwt>
<pdfrwt beam="2">  1       21 0.28183948E-01 0.20204292E+03</pdfrwt>
<totfact> 0.74276766E+04</totfact>
</mgrwt>
</event>
<event>
 4    1  0.4102458E+000  0.2553916E+03  0.7546771E-02  0.1109944E+00
         21   -1    0    0  503  502  0.00000000000E+00  0.00000000000E+00  0.82070268063E+02  0.82070268063E+02  0.00000000000E+00 0.  1.
         21   -1    0    0  501  503 -0.00000000000E+00 -0.00000000000E+00 -0.81968529764E+03  0.81968529764E+03  0.00000000000E+00 0. -1.
          6    1    1    2  501    0  0.17472829084E+01 -0.18786380806E+03 -0.44745660406E+03  0.51521090428E+03  0.17300000000E+03 0. -1.
         -6    1    1    2    0  502 -0.17472829084E+01  0.18786380806E+03 -0.29015842552E+03  0.38654466142E+03  0.17300000000E+03 0.  1.
<mgrwt>
<rscale>  2 0.25539159E+03</rscale>
<asrwt>0</asrwt>
<pdfrwt beam="1">  1       21 0.12626195E-01 0.25539159E+03</pdfrwt>
<pdfrwt beam="2">  1       21 0.12610544E+00 0.25539159E+03</pdfrwt>
<totfact> 0.24135054E+04</totfact>
</mgrwt>
</event>
<event>
 4    1  0.4102458E+000  0.1768960E+03  0.7546771E-02  0.1170841E+00
         21   -1    0    0  501  502  0.00000000000E+00  0.00000000000E+00  0.68276031167E+02  0.68276031167E+02  0.00000000000E+00 0. -1.
         21   -1    0    0  502  503 -0.00000000000E+00 -0.00000000000E+00 -0.46462468903E+03  0.46462468903E+03  0.00000000000E+00 0. -1.
          6    1    1    2  501    0  0.36370549925E+02 -0.63541383508E+01 -0.16713326016E+03  0.24336334692E+03  0.17300000000E+03 0. -1.
         -6    1    1    2    0  503 -0.36370549925E+02  0.63541383508E+01 -0.22921539771E+03  0.28953737327E+03  0.17300000000E+03 0. -1.
<mgrwt>
<rscale>  2 0.17689599E+03</rscale>
<asrwt>0</asrwt>
<pdfrwt beam="1">  1       21 0.10504005E-01 0.17689599E+03</pdfrwt>
<pdfrwt beam="2">  1       21 0.71480719E-01 0.17689599E+03</pdfrwt>
<totfact> 0.13233475E+05</totfact>
</mgrwt>
</event>
<event>
 4    1  0.4102458E+000  0.1848173E+03  0.7546771E-02  0.1163221E+00
         21   -1    0    0  503  502  0.00000000000E+00  0.00000000000E+00  0.83610430367E+03  0.83610430367E+03  0.00000000000E+00 0.  1.
         21   -1    0    0  501  503 -0.00000000000E+00 -0.00000000000E+00 -0.42753870618E+02  0.42753870618E+02  0.00000000000E+00 0.  1.
          6    1    1    2  501    0  0.11979424048E+02  0.63913487193E+02  0.30402048228E+03  0.35578911463E+03  0.17300000000E+03 0.  1.
         -6    1    1    2    0  502 -0.11979424048E+02 -0.63913487193E+02  0.48932995077E+03  0.52306905965E+03  0.17300000000E+03 0.  1.
<mgrwt>
<rscale>  2 0.18481732E+03</rscale>
<asrwt>0</asrwt>
<pdfrwt beam="1">  1       21 0.12863142E+00 0.18481732E+03</pdfrwt>
<pdfrwt beam="2">  1       21 0.65775192E-02 0.18481732E+03</pdfrwt>
<totfact> 0.75041068E+04</totfact>
</mgrwt>
</event>
<event>
 4    1  0.4102458E+000  0.2036596E+03  0.7546771E-02  0.1146688E+00
         21   -1    0    0  501  502  0.00000000000E+00  0.00000000000E+00  0.76253781006E+03  0.76253781006E+03  0.00000000000E+00 0. -1.
         21   -1    0    0  502  503 -0.00000000000E+00 -0.00000000000E+00 -0.99321765630E+02  0.99321765630E+02  0.00000000000E+00 0. -1.
          6    1    1    2  501    0 -0.89572239270E+02  0.59372213617E+02  0.62143793425E+03  0.65395898337E+03  0.17300000000E+03 0. -1.
         -6    1    1    2    0  503  0.89572239270E+02 -0.59372213617E+02  0.41778110176E+02  0.20790059232E+03  0.17300000000E+03 0. -1.
<mgrwt>
<rscale>  2 0.20365963E+03</rscale>
<asrwt>0</asrwt>
<pdfrwt beam="1">  1       21 0.11731351E+00 0.20365963E+03</pdfrwt>
<pdfrwt beam="2">  1       21 0.15280272E-01 0.20365963E+03</pdfrwt>
<totfact> 0.21033081E+04</totfact>
</mgrwt>
</event>
<event>
 4    1  0.4102458E+000  0.1977497E+03  0.7546771E-02  0.1151652E+00
         21   -1    0    0  501  502  0.00000000000E+00  0.00000000000E+00  0.14586157562E+04  0.14586157562E+04  0.00000000000E+00 0. -1.
         21   -1    0    0  502  503 -0.00000000000E+00 -0.00000000000E+00 -0.31621393642E+02  0.31621393642E+02  0.00000000000E+00 0.  1.
          6    1    1    2  501    0  0.58656719479E+02  0.75732004813E+02  0.10041583895E+04  0.10234446827E+04  0.17300000000E+03 0.  1.
         -6    1    1    2    0  503 -0.58656719479E+02 -0.75732004813E+02  0.42283597307E+03  0.46679246718E+03  0.17300000000E+03 0.  1.
<mgrwt>
<rscale>  2 0.19774971E+03</rscale>
<asrwt>0</asrwt>
<pdfrwt beam="1">  1       21 0.22440237E+00 0.19774971E+03</pdfrwt>
<pdfrwt beam="2">  1       21 0.48648309E-02 0.19774971E+03</pdfrwt>
<totfact> 0.26537479E+04</totfact>
</mgrwt>
</event>
<event>
 4    1  0.4102458E+000  0.1999734E+03  0.7546771E-02  0.1149761E+00
         21   -1    0    0  501  502  0.00000000000E+00  0.00000000000E+00  0.23091171338E+03  0.23091171338E+03  0.00000000000E+00 0.  1.
         21   -1    0    0  502  503 -0.00000000000E+00 -0.00000000000E+00 -0.20949268625E+03  0.20949268625E+03  0.00000000000E+00 0.  1.
          6    1    1    2  501    0 -0.90930950513E+02  0.42331184698E+02  0.10238736564E+03  0.22466094365E+03  0.17300000000E+03 0.  1.
         -6    1    1    2    0  503  0.90930950513E+02 -0.42331184698E+02 -0.80968338513E+02  0.21574345599E+03  0.17300000000E+03 0.  1.
<mgrwt>
<rscale>  2 0.19997342E+03</rscale>
<asrwt>0</asrwt>
<pdfrwt beam="1">  1       21 0.35524879E-01 0.19997342E+03</pdfrwt>
<pdfrwt beam="2">  1       21 0.32229644E-01 0.19997342E+03</pdfrwt>
<totfact> 0.70526676E+04</totfact>
</mgrwt>
</event>
<event>
 4    1  0.4102458E+000  0.1774050E+03  0.7546771E-02  0.1170338E+00
         21   -1    0    0  501  502  0.00000000000E+00  0.00000000000E+00  0.65498012722E+03  0.65498012722E+03  0.00000000000E+00 0. -1.
         21   -1    0    0  502  503 -0.00000000000E+00 -0.00000000000E+00 -0.48570553972E+02  0.48570553972E+02  0.00000000000E+00 0. -1.
          6    1    1    2  501    0  0.14169212593E+02 -0.36643814201E+02  0.33958284890E+03  0.38313058736E+03  0.17300000000E+03 0.  1.
         -6    1    1    2    0  503 -0.14169212593E+02  0.36643814201E+02  0.26682672435E+03  0.32042009383E+03  0.17300000000E+03 0.  1.
<mgrwt>
<rscale>  2 0.17740500E+03</rscale>
<asrwt>0</asrwt>
<pdfrwt beam="1">  1       21 0.10076617E+00 0.17740500E+03</pdfrwt>
<pdfrwt beam="2">  1       21 0.74723934E-02 0.17740500E+03</pdfrwt>
<totfact> 0.10958896E+05</totfact>
</mgrwt>
</event>
<event>
 4    1  0.4102458E+000  0.1911987E+03  0.7546771E-02  0.1157385E+00
         21   -1    0    0  503  502  0.00000000000E+00  0.00000000000E+00  0.76992704475E+03  0.76992704475E+03  0.00000000000E+00 0. -1.
         21   -1    0    0  501  503 -0.00000000000E+00 -0.00000000000E+00 -0.95423236484E+02  0.95423236484E+02  0.00000000000E+00 0.  1.
          6    1    1    2  501    0  0.31382951064E+02 -0.75120333236E+02  0.30566057260E+02  0.19362654245E+03  0.17300000000E+03 0.  1.
         -6    1    1    2    0  502 -0.31382951064E+02  0.75120333236E+02  0.64393775101E+03  0.67172373879E+03  0.17300000000E+03 0. -1.
<mgrwt>
<rscale>  2 0.19119873E+03</rscale>
<asrwt>0</asrwt>
<pdfrwt beam="1">  1       21 0.11845031E+00 0.19119873E+03</pdfrwt>
<pdfrwt beam="2">  1       21 0.14680498E-01 0.19119873E+03</pdfrwt>
<totfact> 0.22269552E+04</totfact>
</mgrwt>
</event>
<event>
 4    1  0.4102458E+000  0.1769223E+03  0.7546771E-02  0.1170815E+00
         21   -1    0    0  501  502  0.00000000000E+00  0.00000000000E+00  0.30829951348E+02  0.30829951348E+02  0.00000000000E+00 0.  1.
         21   -1    0    0  502  503 -0.00000000000E+00 -0.00000000000E+00 -0.10493078832E+04  0.10493078832E+04  0.00000000000E+00 0.  1.
          6    1    1    2  501    0 -0.36620067055E+02 -0.56108620124E+01 -0.41200540243E+03  0.44838595286E+03  0.17300000000E+03 0. -1.
         -6    1    1    2    0  503  0.36620067055E+02  0.56108620124E+01 -0.60647252943E+03  0.63175188170E+03  0.17300000000E+03 0. -1.
<mgrwt>
<rscale>  2 0.17692233E+03</rscale>
<asrwt>0</asrwt>
<pdfrwt beam="1">  1       21 0.47430696E-02 0.17692233E+03</pdfrwt>
<pdfrwt beam="2">  1       21 0.16143198E+00 0.17692233E+03</pdfrwt>
<totfact> 0.72883517E+04</totfact>
</mgrwt>
</event>
<event>
 4    1  0.4102458E+000  0.2340691E+03  0.7546771E-02  0.1123808E+00
         21   -1    0    0  501  502  0.00000000000E+00  0.00000000000E+00  0.25620843905E+03  0.25620843905E+03  0.00000000000E+00 0. -1.
         21   -1    0    0  502  503 -0.00000000000E+00 -0.00000000000E+00 -0.23931023408E+03  0.23931023408E+03  0.00000000000E+00 0.  1.
          6    1    1    2  501    0  0.57340527946E+02 -0.14687212911E+03  0.89273233065E+02  0.25051560550E+03  0.17300000000E+03 0.  1.
         -6    1    1    2    0  503 -0.57340527946E+02  0.14687212911E+03 -0.72375028090E+02  0.24500306763E+03  0.17300000000E+03 0.  1.
<mgrwt>
<rscale>  2 0.23406913E+03</rscale>
<asrwt>0</asrwt>
<pdfrwt beam="1">  1       21 0.39416683E-01 0.23406913E+03</pdfrwt>
<pdfrwt beam="2">  1       21 0.36816959E-01 0.23406913E+03</pdfrwt>
<totfact> 0.43286417E+04</totfact>
</mgrwt>
</event>
<event>
 4    1  0.4102458E+000  0.2170924E+03  0.7546771E-02  0.1136070E+00
         21   -1    0    0  503  502  0.00000000000E+00  0.00000000000E+00  0.90737969046E+03  0.90737969046E+03  0.00000000000E+00 0. -1.
         21   -1    0    0  501  503 -0.00000000000E+00 -0.00000000000E+00 -0.71631044560E+02  0.71631044560E+02  0.00000000000E+00 0. -1.
          6    1    1    2  501    0 -0.96753648117E+02  0.88537114478E+02  0.16122284423E+03  0.27041060365E+03  0.17300000000E+03 0. -1.
         -6    1    1    2    0  502  0.96753648117E+02 -0.88537114478E+02  0.67452580167E+03  0.70860013137E+03  0.17300000000E+03 0. -1.
<mgrwt>
<rscale>  2 0.21709235E+03</rscale>
<asrwt>0</asrwt>
<pdfrwt beam="1">  1       21 0.13959687E+00 0.21709235E+03</pdfrwt>
<pdfrwt beam="2">  1       21 0.11020161E-01 0.21709235E+03</pdfrwt>
<totfact> 0.24254980E+04</totfact>
</mgrwt>
</event>
<event>
 4    1  0.4102458E+000  0.1970278E+03  0.7546771E-02  0.1152271E+00
         21   -1    0    0  501  502  0.00000000000E+00  0.00000000000E+00  0.43907570669E+02  0.43907570669E+02  0.00000000000E+00 0. -1.
         21   -1    0    0  502  503 -0.00000000000E+00 -0.00000000000E+00 -0.11369447503E+04  0.11369447503E+04  0.00000000000E+00 0.  1.
          6    1    1    2  501    0 -0.90557969299E+02  0.26271767820E+02 -0.26810010098E+03  0.33271251213E+03  0.17300000000E+03 0. -1.
         -6    1    1    2    0  503  0.90557969299E+02 -0.26271767820E+02 -0.82493707866E+03  0.84813980884E+03  0.17300000000E+03 0.  1.
<mgrwt>
<rscale>  2 0.19702779E+03</rscale>
<asrwt>0</asrwt>
<pdfrwt beam="1">  1       21 0.67550124E-02 0.19702779E+03</pdfrwt>
<pdfrwt beam="2">  1       21 0.17491454E+00 0.19702779E+03</pdfrwt>
<totfact> 0.31627951E+04</totfact>
</mgrwt>
</event>
<event>
 4    1  0.4102458E+000  0.2724733E+03  0.7546771E-02  0.1099872E+00
         21   -1    0    0  503  502  0.00000000000E+00  0.00000000000E+00  0.51043446720E+03  0.51043446720E+03  0.00000000000E+00 0.  1.
         21   -1    0    0  501  503 -0.00000000000E+00 -0.00000000000E+00 -0.17373674320E+03  0.17373674320E+03  0.00000000000E+00 0.  1.
          6    1    1    2  501    0  0.21009521190E+03 -0.13141817989E+02  0.30311932254E+02  0.27415418779E+03  0.17300000000E+03 0.  1.
         -6    1    1    2    0  502 -0.21009521190E+03  0.13141817989E+02  0.30638579175E+03  0.41001702261E+03  0.17300000000E+03 0.  1.
<mgrwt>
<rscale>  2 0.27247331E+03</rscale>
<asrwt>0</asrwt>
<pdfrwt beam="1">  1       21 0.78528379E-01 0.27247331E+03</pdfrwt>
<pdfrwt beam="2">  1       21 0.26728730E-01 0.27247331E+03</pdfrwt>
<totfact> 0.18311259E+04</totfact>
</mgrwt>
</event>
<event>
 4    1  0.4102458E+000  0.1735073E+03  0.7546771E-02  0.1174239E+00
         21   -1    0    0  503  502  0.00000000000E+00  0.00000000000E+00  0.36318219985E+03  0.36318219985E+03  0.00000000000E+00 0.  1.
         21   -1    0    0  501  503 -0.00000000000E+00 -0.00000000000E+00 -0.16257371231E+03  0.16257371231E+03  0.00000000000E+00 0.  1.
          6    1    1    2  501    0  0.12227728786E+02  0.51236616097E+01 -0.83734521106E+02  0.19265575331E+03  0.17300000000E+03 0.  1.
         -6    1    1    2    0  502 -0.12227728786E+02 -0.51236616097E+01  0.28434300865E+03  0.33310015885E+03  0.17300000000E+03 0.  1.
<mgrwt>
<rscale>  2 0.17350726E+03</rscale>
<asrwt>0</asrwt>
<pdfrwt beam="1">  1       21 0.55874184E-01 0.17350726E+03</pdfrwt>
<pdfrwt beam="2">  1       21 0.25011340E-01 0.17350726E+03</pdfrwt>
<totfact> 0.46084831E+04</totfact>
</mgrwt>
</event>
<event>
 4    1  0.4102458E+000  0.2242310E+03  0.7546771E-02  0.1130767E+00
         21   -1    0    0  503  502  0.00000000000E+00  0.00000000000E+00  0.28390812204E+03  0.28390812204E+03  0.00000000000E+00 0. -1.
         21   -1    0    0  501  503 -0.00000000000E+00 -0.00000000000E+00 -0.17781258701E+03  0.17781258701E+03  0.00000000000E+00 0. -1.
          6    1    1    2  501    0  0.14229709812E+03 -0.10103661599E+02  0.38412218044E+02  0.22749735516E+03  0.17300000000E+03 0. -1.
         -6    1    1    2    0  502 -0.14229709812E+03  0.10103661599E+02  0.67683316980E+02  0.23422335389E+03  0.17300000000E+03 0. -1.
<mgrwt>
<rscale>  2 0.22423102E+03</rscale>
<asrwt>0</asrwt>
<pdfrwt beam="1">  1       21 0.43678173E-01 0.22423102E+03</pdfrwt>
<pdfrwt beam="2">  1       21 0.27355783E-01 0.22423102E+03</pdfrwt>
<totfact> 0.63303265E+04</totfact>
</mgrwt>
</event>
<event>
 4    1  0.4102458E+000  0.2692394E+03  0.7546771E-02  0.1101716E+00
         21   -1    0    0  501  502  0.00000000000E+00  0.00000000000E+00  0.37822959899E+03  0.37822959899E+03  0.00000000000E+00 0. -1.
         21   -1    0    0  502  503 -0.00000000000E+00 -0.00000000000E+00 -0.20727889261E+03  0.20727889261E+03  0.00000000000E+00 0. -1.
          6    1    1    2  501    0 -0.12683873946E+03  0.16270463195E+03  0.16584839212E+03  0.31622073344E+03  0.17300000000E+03 0. -1.
         -6    1    1    2    0  503  0.12683873946E+03 -0.16270463195E+03  0.51023142556E+01  0.26928775817E+03  0.17300000000E+03 0. -1.
<mgrwt>
<rscale>  2 0.26923942E+03</rscale>
<asrwt>0</asrwt>
<pdfrwt beam="1">  1       21 0.58189169E-01 0.26923942E+03</pdfrwt>
<pdfrwt beam="2">  1       21 0.31889061E-01 0.26923942E+03</pdfrwt>
<totfact> 0.25182339E+04</totfact>
</mgrwt>
</event>
<event>
 4    1  0.4102458E+000  0.1782012E+03  0.7546771E-02  0.1169555E+00
         21   -1    0    0  501  502  0.00000000000E+00  0.00000000000E+00  0.10489860498E+03  0.10489860498E+03  0.00000000000E+00 0.  1.
         21   -1    0    0  502  503 -0.00000000000E+00 -0.00000000000E+00 -0.62133415865E+03  0.62133415865E+03  0.00000000000E+00 0.  1.
          6    1    1    2  501    0 -0.42739182022E+02  0.21658745570E+00  0.18045870979E+01  0.17821038445E+03  0.17300000000E+03 0.  1.
         -6    1    1    2    0  503  0.42739182022E+02 -0.21658745570E+00 -0.51824014076E+03  0.54802237919E+03  0.17300000000E+03 0.  1.
<mgrwt>
<rscale>  2 0.17820125E+03</rscale>
<asrwt>0</asrwt>
<pdfrwt beam="1">  1       21 0.16138247E-01 0.17820125E+03</pdfrwt>
<pdfrwt beam="2">  1       21 0.95589869E-01 0.17820125E+03</pdfrwt>
<totfact> 0.31590925E+04</totfact>
</mgrwt>
</event>
<event>
 4    1  0.4102458E+000  0.1855944E+03  0.7546771E-02  0.1162496E+00
         21   -1    0    0  503  502  0.00000000000E+00  0.00000000000E+00  0.10533111818E+03  0.10533111818E+03  0.00000000000E+00 0.  1.
         21   -1    0    0  501  503 -0.00000000000E+00 -0.00000000000E+00 -0.44989027749E+03  0.44989027749E+03  0.00000000000E+00 0. -1.
          6    1    1    2  501    0  0.51331957392E+01  0.67006991283E+02 -0.31735970394E+03  0.36764448624E+03  0.17300000000E+03 0. -1.
         -6    1    1    2    0  502 -0.51331957392E+01 -0.67006991283E+02 -0.27199455364E+02  0.18757690943E+03  0.17300000000E+03 0.  1.
<mgrwt>
<rscale>  2 0.18559441E+03</rscale>
<asrwt>0</asrwt>
<pdfrwt beam="1">  1       21 0.16204788E-01 0.18559441E+03</pdfrwt>
<pdfrwt beam="2">  1       21 0.69213888E-01 0.18559441E+03</pdfrwt>
<totfact> 0.64911838E+04</totfact>
</mgrwt>
</event>
<event>
 4    1  0.4102458E+000  0.1926935E+03  0.7546771E-02  0.1156054E+00
         21   -1    0    0  501  502  0.00000000000E+00  0.00000000000E+00  0.18408247591E+03  0.18408247591E+03  0.00000000000E+00 0.  1.
         21   -1    0    0  502  503 -0.00000000000E+00 -0.00000000000E+00 -0.37326499341E+03  0.37326499341E+03  0.00000000000E+00 0. -1.
          6    1    1    2  501    0  0.46622512693E+02  0.70909375783E+02  0.94335022075E+02  0.21454578685E+03  0.17300000000E+03 0.  1.
         -6    1    1    2    0  503 -0.46622512693E+02 -0.70909375783E+02 -0.28351753957E+03  0.34280168247E+03  0.17300000000E+03 0. -1.
<mgrwt>
<rscale>  2 0.19269353E+03</rscale>
<asrwt>0</asrwt>
<pdfrwt beam="1">  1       21 0.28320381E-01 0.19269353E+03</pdfrwt>
<pdfrwt beam="2">  1       21 0.57425383E-01 0.19269353E+03</pdfrwt>
<totfact> 0.33922186E+04</totfact>
</mgrwt>
</event>
<event>
 4    1  0.4102458E+000  0.2216768E+03  0.7546771E-02  0.1132639E+00
         21   -1    0    0  501  502  0.00000000000E+00  0.00000000000E+00  0.13397165947E+04  0.13397165947E+04  0.00000000000E+00 0.  1.
         21   -1    0    0  502  503 -0.00000000000E+00 -0.00000000000E+00 -0.15437072503E+03  0.15437072503E+03  0.00000000000E+00 0. -1.
          6    1    1    2  501    0  0.11131222493E+03 -0.82590584400E+02  0.12449541795E+04  0.12645360909E+04  0.17300000000E+03 0.  1.
         -6    1    1    2    0  503 -0.11131222493E+03  0.82590584400E+02 -0.59608309864E+02  0.22955122883E+03  0.17300000000E+03 0. -1.
<mgrwt>
<rscale>  2 0.22167683E+03</rscale>
<asrwt>0</asrwt>
<pdfrwt beam="1">  1       21 0.20611024E+00 0.22167683E+03</pdfrwt>
<pdfrwt beam="2">  1       21 0.23749343E-01 0.22167683E+03</pdfrwt>
<totfact> 0.19916773E+03</totfact>
</mgrwt>
</event>
<event>
 4    1  0.4102458E+000  0.1983510E+03  0.7546771E-02  0.1151138E+00
         21   -1    0    0  501  502  0.00000000000E+00  0.00000000000E+00  0.51515527373E+03  0.51515527373E+03  0.00000000000E+00 0.  1.
         21   -1    0    0  502  503 -0.00000000000E+00 -0.00000000000E+00 -0.78520329993E+02  0.78520329993E+02  0.00000000000E+00 0.  1.
          6    1    1    2  501    0 -0.77761705961E+02  0.58027729966E+02  0.26742465162E+03  0.33295501896E+03  0.17300000000E+03 0.  1.
         -6    1    1    2    0  503  0.77761705961E+02 -0.58027729966E+02  0.16921029212E+03  0.26072058476E+03  0.17300000000E+03 0.  1.
<mgrwt>
<rscale>  2 0.19835095E+03</rscale>
<asrwt>0</asrwt>
<pdfrwt beam="1">  1       21 0.79254656E-01 0.19835095E+03</pdfrwt>
<pdfrwt beam="2">  1       21 0.12080051E-01 0.19835095E+03</pdfrwt>
<totfact> 0.81253335E+04</totfact>
</mgrwt>
</event>
<event>
 4    1  0.4102458E+000  0.2262130E+03  0.7546771E-02  0.1129334E+00
         21   -1    0    0  501  502  0.00000000000E+00  0.00000000000E+00  0.55078206995E+03  0.55078206995E+03  0.00000000000E+00 0.  1.
         21   -1    0    0  502  503 -0.00000000000E+00 -0.00000000000E+00 -0.41689186843E+03  0.41689186843E+03  0.00000000000E+00 0.  1.
          6    1    1    2  501    0 -0.14505551965E+03  0.14220030660E+02  0.49347425644E+03  0.54285279296E+03  0.17300000000E+03 0.  1.
         -6    1    1    2    0  503  0.14505551965E+03 -0.14220030660E+02 -0.35958405492E+03  0.42482114543E+03  0.17300000000E+03 0.  1.
<mgrwt>
<rscale>  2 0.22621298E+03</rscale>
<asrwt>0</asrwt>
<pdfrwt beam="1">  1       21 0.84735703E-01 0.22621298E+03</pdfrwt>
<pdfrwt beam="2">  1       21 0.64137211E-01 0.22621298E+03</pdfrwt>
<totfact> 0.26339495E+03</totfact>
</mgrwt>
</event>
<event>
 4    1  0.4102458E+000  0.1787173E+03  0.7546771E-02  0.1169050E+00
         21   -1    0    0  503  502  0.00000000000E+00  0.00000000000E+00  0.10528276536E+04  0.10528276536E+04  0.00000000000E+00 0. -1.
         21   -1    0    0  501  503 -0.00000000000E+00 -0.00000000000E+00 -0.30537243525E+02  0.30537243525E+02  0.00000000000E+00 0. -1.
          6    1    1    2  501    0 -0.26796958339E+02  0.35955721794E+02  0.55498240387E+03  0.58304833377E+03  0.17300000000E+03 0. -1.
         -6    1    1    2    0  502  0.26796958339E+02 -0.35955721794E+02  0.46730800623E+03  0.50031656338E+03  0.17300000000E+03 0. -1.
<mgrwt>
<rscale>  2 0.17871735E+03</rscale>
<asrwt>0</asrwt>
<pdfrwt beam="1">  1       21 0.16197346E+00 0.17871735E+03</pdfrwt>
<pdfrwt beam="2">  1       21 0.46980383E-02 0.17871735E+03</pdfrwt>
<totfact> 0.73327634E+04</totfact>
</mgrwt>
</event>
<event>
 4    1  0.4102458E+000  0.1974412E+03  0.7546771E-02  0.1151916E+00
         21   -1    0    0  503  502  0.00000000000E+00  0.00000000000E+00  0.53570296259E+03  0.53570296259E+03  0.00000000000E+00 0. -1.
         21   -1    0    0  501  503 -0.00000000000E+00 -0.00000000000E+00 -0.73391514045E+02  0.73391514045E+02  0.00000000000E+00 0. -1.
          6    1    1    2  501    0  0.40986170858E+02 -0.85873014552E+02  0.20312729280E+03  0.28327325661E+03  0.17300000000E+03 0. -1.
         -6    1    1    2    0  502 -0.40986170858E+02  0.85873014552E+02  0.25918415575E+03  0.32582122003E+03  0.17300000000E+03 0. -1.
<mgrwt>
<rscale>  2 0.19744123E+03</rscale>
<asrwt>0</asrwt>
<pdfrwt beam="1">  1       21 0.82415838E-01 0.19744123E+03</pdfrwt>
<pdfrwt beam="2">  1       21 0.11291003E-01 0.19744123E+03</pdfrwt>
<totfact> 0.83934077E+04</totfact>
</mgrwt>
</event>
<event>
 4    1  0.4102458E+000  0.2174143E+03  0.7546771E-02  0.1135826E+00
         21   -1    0    0  503  502  0.00000000000E+00  0.00000000000E+00  0.22576451465E+03  0.22576451465E+03  0.00000000000E+00 0. -1.
         21   -1    0    0  501  503 -0.00000000000E+00 -0.00000000000E+00 -0.26165303051E+03  0.26165303051E+03  0.00000000000E+00 0. -1.
          6    1    1    2  501    0 -0.42719989372E+02 -0.12455920838E+03 -0.12688145356E+03  0.25172980980E+03  0.17300000000E+03 0. -1.
         -6    1    1    2    0  502  0.42719989372E+02  0.12455920838E+03  0.90992937701E+02  0.23568773535E+03  0.17300000000E+03 0. -1.
<mgrwt>
<rscale>  2 0.21741434E+03</rscale>
<asrwt>0</asrwt>
<pdfrwt beam="1">  1       21 0.34733002E-01 0.21741434E+03</pdfrwt>
<pdfrwt beam="2">  1       21 0.40254313E-01 0.21741434E+03</pdfrwt>
<totfact> 0.46949505E+04</totfact>
</mgrwt>
</event>
<event>
 4    1  0.4102458E+000  0.1964075E+03  0.7546771E-02  0.1152806E+00
         21   -1    0    0  501  502  0.00000000000E+00  0.00000000000E+00  0.14835121022E+03  0.14835121022E+03  0.00000000000E+00 0. -1.
         21   -1    0    0  502  503 -0.00000000000E+00 -0.00000000000E+00 -0.47858423911E+03  0.47858423911E+03  0.00000000000E+00 0. -1.
          6    1    1    2  501    0 -0.22447978366E+02 -0.90238447529E+02  0.46715903066E+02  0.20188676218E+03  0.17300000000E+03 0. -1.
         -6    1    1    2    0  503  0.22447978366E+02  0.90238447529E+02 -0.37694893196E+03  0.42504868715E+03  0.17300000000E+03 0. -1.
<mgrwt>
<rscale>  2 0.19640746E+03</rscale>
<asrwt>0</asrwt>
<pdfrwt beam="1">  1       21 0.22823263E-01 0.19640746E+03</pdfrwt>
<pdfrwt beam="2">  1       21 0.73628344E-01 0.19640746E+03</pdfrwt>
<totfact> 0.29774295E+04</totfact>
</mgrwt>
</event>
<event>
 4    1  0.4102458E+000  0.1759491E+03  0.7546771E-02  0.1171782E+00
         21   -1    0    0  501  502  0.00000000000E+00  0.00000000000E+00  0.10097343592E+04  0.10097343592E+04  0.00000000000E+00 0. -1.
         21   -1    0    0  502  503 -0.00000000000E+00 -0.00000000000E+00 -0.30880770742E+02  0.30880770742E+02  0.00000000000E+00 0. -1.
          6    1    1    2  501    0  0.15137209241E+02 -0.28283590379E+02  0.53345552070E+03  0.56172314280E+03  0.17300000000E+03 0. -1.
         -6    1    1    2    0  503 -0.15137209241E+02  0.28283590379E+02  0.44539806775E+03  0.47889198713E+03  0.17300000000E+03 0. -1.
<mgrwt>
<rscale>  2 0.17594913E+03</rscale>
<asrwt>0</asrwt>
<pdfrwt beam="1">  1       21 0.15534372E+00 0.17594913E+03</pdfrwt>
<pdfrwt beam="2">  1       21 0.47508886E-02 0.17594913E+03</pdfrwt>
<totfact> 0.80606227E+04</totfact>
</mgrwt>
</event>
<event>
 4    1  0.4102458E+000  0.1831818E+03  0.7546771E-02  0.1164759E+00
         21   -1    0    0  501  502  0.00000000000E+00  0.00000000000E+00  0.15323464148E+03  0.15323464148E+03  0.00000000000E+00 0. -1.
         21   -1    0    0  502  503 -0.00000000000E+00 -0.00000000000E+00 -0.30583740694E+03  0.30583740694E+03  0.00000000000E+00 0. -1.
          6    1    1    2  501    0  0.40877246600E+02  0.44222310743E+02  0.46020755300E+02  0.18887422263E+03  0.17300000000E+03 0. -1.
         -6    1    1    2    0  503 -0.40877246600E+02 -0.44222310743E+02 -0.19862352077E+03  0.27019782579E+03  0.17300000000E+03 0. -1.
<mgrwt>
<rscale>  2 0.18318177E+03</rscale>
<asrwt>0</asrwt>
<pdfrwt beam="1">  1       21 0.23574560E-01 0.18318177E+03</pdfrwt>
<pdfrwt beam="2">  1       21 0.47051908E-01 0.18318177E+03</pdfrwt>
<totfact> 0.73506554E+04</totfact>
</mgrwt>
</event>
<event>
 4    1  0.4102458E+000  0.1770402E+03  0.7546771E-02  0.1170699E+00
         21   -1    0    0  501  502  0.00000000000E+00  0.00000000000E+00  0.29225557528E+03  0.29225557528E+03  0.00000000000E+00 0.  1.
         21   -1    0    0  502  503 -0.00000000000E+00 -0.00000000000E+00 -0.15438354722E+03  0.15438354722E+03  0.00000000000E+00 0.  1.
          6    1    1    2  501    0 -0.31994528752E+02 -0.19763343677E+02  0.19233448458E+03  0.26141115810E+03  0.17300000000E+03 0. -1.
         -6    1    1    2    0  503  0.31994528752E+02  0.19763343677E+02 -0.54462456512E+02  0.18522796439E+03  0.17300000000E+03 0. -1.
<mgrwt>
<rscale>  2 0.17704022E+03</rscale>
<asrwt>0</asrwt>
<pdfrwt beam="1">  1       21 0.44962396E-01 0.17704022E+03</pdfrwt>
<pdfrwt beam="2">  1       21 0.23751315E-01 0.17704022E+03</pdfrwt>
<totfact> 0.79775634E+04</totfact>
</mgrwt>
</event>
<event>
 4    1  0.4102458E+000  0.2432891E+03  0.7546771E-02  0.1117621E+00
         21   -1    0    0  501  502  0.00000000000E+00  0.00000000000E+00  0.22939517915E+03  0.22939517915E+03  0.00000000000E+00 0.  1.
         21   -1    0    0  502  503 -0.00000000000E+00 -0.00000000000E+00 -0.28012342708E+03  0.28012342708E+03  0.00000000000E+00 0.  1.
          6    1    1    2  501    0 -0.73073161454E+02  0.15466389423E+03  0.46190815096E+02  0.24763521256E+03  0.17300000000E+03 0.  1.
         -6    1    1    2    0  503  0.73073161454E+02 -0.15466389423E+03 -0.96919063022E+02  0.26188339367E+03  0.17300000000E+03 0.  1.
<mgrwt>
<rscale>  2 0.24328914E+03</rscale>
<asrwt>0</asrwt>
<pdfrwt beam="1">  1       21 0.35291566E-01 0.24328914E+03</pdfrwt>
<pdfrwt beam="2">  1       21 0.43095912E-01 0.24328914E+03</pdfrwt>
<totfact> 0.39118607E+04</totfact>
</mgrwt>
</event>
<event>
 4    1  0.4102458E+000  0.2586742E+03  0.7546771E-02  0.1107942E+00
         21   -1    0    0  501  502  0.00000000000E+00  0.00000000000E+00  0.96791027134E+02  0.96791027134E+02  0.00000000000E+00 0. -1.
         21   -1    0    0  502  503 -0.00000000000E+00 -0.00000000000E+00 -0.83880530052E+03  0.83880530052E+03  0.00000000000E+00 0. -1.
          6    1    1    2  501    0  0.96406626280E+02 -0.16640035976E+03 -0.17484219365E+03  0.31222125167E+03  0.17300000000E+03 0. -1.
         -6    1    1    2    0  503 -0.96406626280E+02  0.16640035976E+03 -0.56717207974E+03  0.62337507599E+03  0.17300000000E+03 0. -1.
<mgrwt>
<rscale>  2 0.25867415E+03</rscale>
<asrwt>0</asrwt>
<pdfrwt beam="1">  1       21 0.14890928E-01 0.25867415E+03</pdfrwt>
<pdfrwt beam="2">  1       21 0.12904696E+00 0.25867415E+03</pdfrwt>
<totfact> 0.16831191E+04</totfact>
</mgrwt>
</event>
<event>
 4    1  0.4102458E+000  0.1743897E+03  0.7546771E-02  0.1173346E+00
         21   -1    0    0  503  502  0.00000000000E+00  0.00000000000E+00  0.11623656721E+03  0.11623656721E+03  0.00000000000E+00 0.  1.
         21   -1    0    0  501  503 -0.00000000000E+00 -0.00000000000E+00 -0.27860477914E+03  0.27860477914E+03  0.00000000000E+00 0.  1.
          6    1    1    2  501    0 -0.20211430780E+02 -0.86168406621E+01 -0.12990493691E+03  0.21745584497E+03  0.17300000000E+03 0.  1.
         -6    1    1    2    0  502  0.20211430780E+02  0.86168406621E+01 -0.32463275013E+02  0.17738550139E+03  0.17300000000E+03 0.  1.
<mgrwt>
<rscale>  2 0.17438966E+03</rscale>
<asrwt>0</asrwt>
<pdfrwt beam="1">  1       21 0.17882549E-01 0.17438966E+03</pdfrwt>
<pdfrwt beam="2">  1       21 0.42862274E-01 0.17438966E+03</pdfrwt>
<totfact> 0.14965571E+05</totfact>
</mgrwt>
</event>
<event>
 4    1  0.4102458E+000  0.2251606E+03  0.7546771E-02  0.1130093E+00
         21   -1    0    0  503  502  0.00000000000E+00  0.00000000000E+00  0.45588487627E+02  0.45588487627E+02  0.00000000000E+00 0.  1.
         21   -1    0    0  501  503 -0.00000000000E+00 -0.00000000000E+00 -0.12400037242E+04  0.12400037242E+04  0.00000000000E+00 0. -1.
          6    1    1    2  501    0  0.11134200860E+03  0.91494626626E+02 -0.80368129097E+03  0.83462621996E+03  0.17300000000E+03 0. -1.
         -6    1    1    2    0  502 -0.11134200860E+03 -0.91494626626E+02 -0.39073394562E+03  0.45096599189E+03  0.17300000000E+03 0. -1.
<mgrwt>
<rscale>  2 0.22516063E+03</rscale>
<asrwt>0</asrwt>
<pdfrwt beam="1">  1       21 0.70136147E-02 0.22516063E+03</pdfrwt>
<pdfrwt beam="2">  1       21 0.19076977E+00 0.22516063E+03</pdfrwt>
<totfact> 0.22721522E+04</totfact>
</mgrwt>
</event>
<event>
 4    1  0.4102458E+000  0.2165482E+03  0.7546771E-02  0.1136483E+00
         21   -1    0    0  501  502  0.00000000000E+00  0.00000000000E+00  0.32083688311E+02  0.32083688311E+02  0.00000000000E+00 0.  1.
         21   -1    0    0  502  503 -0.00000000000E+00 -0.00000000000E+00 -0.33470093729E+04  0.33470093729E+04  0.00000000000E+00 0. -1.
          6    1    1    2  501    0 -0.74323890853E+02 -0.10695826668E+03 -0.38938479127E+03  0.44554868111E+03  0.17300000000E+03 0.  1.
         -6    1    1    2    0  503  0.74323890853E+02  0.10695826668E+03 -0.29255408933E+04  0.29335443801E+04  0.17300000000E+03 0. -1.
<mgrwt>
<rscale>  2 0.21654817E+03</rscale>
<asrwt>0</asrwt>
<pdfrwt beam="1">  1       21 0.49359541E-02 0.21654817E+03</pdfrwt>
<pdfrwt beam="2">  1       21 0.51492430E+00 0.21654817E+03</pdfrwt>
<totfact> 0.39240670E+02</totfact>
</mgrwt>
</event>
<event>
 4    1  0.4102458E+000  0.2099763E+03  0.7546771E-02  0.1141585E+00
         21   -1    0    0  501  502  0.00000000000E+00  0.00000000000E+00  0.96640361919E+02  0.96640361919E+02  0.00000000000E+00 0.  1.
         21   -1    0    0  502  503 -0.00000000000E+00 -0.00000000000E+00 -0.84792356950E+03  0.84792356950E+03  0.00000000000E+00 0.  1.
          6    1    1    2  501    0  0.44325398912E+02 -0.11043691211E+03 -0.54647348110E+02  0.21697093170E+03  0.17300000000E+03 0.  1.
         -6    1    1    2    0  503 -0.44325398912E+02  0.11043691211E+03 -0.69663585947E+03  0.72759299973E+03  0.17300000000E+03 0.  1.
<mgrwt>
<rscale>  2 0.20997631E+03</rscale>
<asrwt>0</asrwt>
<pdfrwt beam="1">  1       21 0.14867748E-01 0.20997631E+03</pdfrwt>
<pdfrwt beam="2">  1       21 0.13044978E+00 0.20997631E+03</pdfrwt>
<totfact> 0.16887891E+04</totfact>
</mgrwt>
</event>
<event>
 4    1  0.4102458E+000  0.1843863E+03  0.7546771E-02  0.1163624E+00
         21   -1    0    0  503  502  0.00000000000E+00  0.00000000000E+00  0.34320432861E+03  0.34320432861E+03  0.00000000000E+00 0. -1.
         21   -1    0    0  501  503 -0.00000000000E+00 -0.00000000000E+00 -0.13319174655E+03  0.13319174655E+03  0.00000000000E+00 0. -1.
          6    1    1    2  501    0  0.39291584221E+02 -0.50254096027E+02 -0.15572199778E+02  0.18504268741E+03  0.17300000000E+03 0. -1.
         -6    1    1    2    0  502 -0.39291584221E+02  0.50254096027E+02  0.22558478183E+03  0.29135338775E+03  0.17300000000E+03 0. -1.
<mgrwt>
<rscale>  2 0.18438629E+03</rscale>
<asrwt>0</asrwt>
<pdfrwt beam="1">  1       21 0.52800666E-01 0.18438629E+03</pdfrwt>
<pdfrwt beam="2">  1       21 0.20491038E-01 0.18438629E+03</pdfrwt>
<totfact> 0.75249455E+04</totfact>
</mgrwt>
</event>
<event>
 4    1  0.4102458E+000  0.1882253E+03  0.7546771E-02  0.1160072E+00
         21   -1    0    0  503  502  0.00000000000E+00  0.00000000000E+00  0.33697274736E+03  0.33697274736E+03  0.00000000000E+00 0. -1.
         21   -1    0    0  501  503 -0.00000000000E+00 -0.00000000000E+00 -0.18306354225E+03  0.18306354225E+03  0.00000000000E+00 0.  1.
          6    1    1    2  501    0 -0.72566116347E+02 -0.15293930674E+02 -0.92690674754E+02  0.20981016835E+03  0.17300000000E+03 0.  1.
         -6    1    1    2    0  502  0.72566116347E+02  0.15293930674E+02  0.24659987987E+03  0.31022612126E+03  0.17300000000E+03 0. -1.
<mgrwt>
<rscale>  2 0.18822525E+03</rscale>
<asrwt>0</asrwt>
<pdfrwt beam="1">  1       21 0.51841961E-01 0.18822525E+03</pdfrwt>
<pdfrwt beam="2">  1       21 0.28163622E-01 0.18822525E+03</pdfrwt>
<totfact> 0.42652819E+04</totfact>
</mgrwt>
</event>
<event>
 4    1  0.4102458E+000  0.1963281E+03  0.7546771E-02  0.1152874E+00
         21   -1    0    0  501  502  0.00000000000E+00  0.00000000000E+00  0.17971649494E+04  0.17971649494E+04  0.00000000000E+00 0. -1.
         21   -1    0    0  502  503 -0.00000000000E+00 -0.00000000000E+00 -0.39660906580E+02  0.39660906580E+02  0.00000000000E+00 0.  1.
          6    1    1    2  501    0  0.89260494126E+02  0.25461402469E+02  0.15011269718E+04  0.15139111283E+04  0.17300000000E+03 0. -1.
         -6    1    1    2    0  503 -0.89260494126E+02 -0.25461402469E+02  0.25637707100E+03  0.32291472770E+03  0.17300000000E+03 0.  1.
<mgrwt>
<rscale>  2 0.19632809E+03</rscale>
<asrwt>0</asrwt>
<pdfrwt beam="1">  1       21 0.27648685E+00 0.19632809E+03</pdfrwt>
<pdfrwt beam="2">  1       21 0.61016793E-02 0.19632809E+03</pdfrwt>
<totfact> 0.88993949E+03</totfact>
</mgrwt>
</event>
<event>
 4    1  0.4102458E+000  0.2447047E+03  0.7546771E-02  0.1116698E+00
         21   -1    0    0  503  502  0.00000000000E+00  0.00000000000E+00  0.68360183207E+03  0.68360183207E+03  0.00000000000E+00 0. -1.
         21   -1    0    0  501  503 -0.00000000000E+00 -0.00000000000E+00 -0.10510490993E+03  0.10510490993E+03  0.00000000000E+00 0.  1.
          6    1    1    2  501    0  0.25856696374E+02 -0.17112223945E+03  0.12829111484E+03  0.27629513157E+03  0.17300000000E+03 0.  1.
         -6    1    1    2    0  502 -0.25856696374E+02  0.17112223945E+03  0.45020580730E+03  0.51241161043E+03  0.17300000000E+03 0. -1.
<mgrwt>
<rscale>  2 0.24470470E+03</rscale>
<asrwt>0</asrwt>
<pdfrwt beam="1">  1       21 0.10516951E+00 0.24470470E+03</pdfrwt>
<pdfrwt beam="2">  1       21 0.16169987E-01 0.24470470E+03</pdfrwt>
<totfact> 0.24182807E+04</totfact>
</mgrwt>
</event>
<event>
 4    1  0.4102458E+000  0.2458759E+03  0.7546771E-02  0.1115939E+00
         21   -1    0    0  501  502  0.00000000000E+00  0.00000000000E+00  0.21151280998E+04  0.21151280998E+04  0.00000000000E+00 0.  1.
         21   -1    0    0  502  503 -0.00000000000E+00 -0.00000000000E+00 -0.31781168726E+02  0.31781168726E+02  0.00000000000E+00 0.  1.
          6    1    1    2  501    0  0.15733543115E+03 -0.75970444111E+02  0.13822431178E+04  0.14039412321E+04  0.17300000000E+03 0.  1.
         -6    1    1    2    0  503 -0.15733543115E+03  0.75970444111E+02  0.70110381321E+03  0.74296803643E+03  0.17300000000E+03 0.  1.
<mgrwt>
<rscale>  2 0.24587588E+03</rscale>
<asrwt>0</asrwt>
<pdfrwt beam="1">  1       21 0.32540421E+00 0.24587588E+03</pdfrwt>
<pdfrwt beam="2">  1       21 0.48894122E-02 0.24587588E+03</pdfrwt>
<totfact> 0.64310637E+03</totfact>
</mgrwt>
</event>
<event>
 4    1  0.4102458E+000  0.2366790E+03  0.7546771E-02  0.1122025E+00
         21   -1    0    0  503  502  0.00000000000E+00  0.00000000000E+00  0.35741608813E+03  0.35741608813E+03  0.00000000000E+00 0.  1.
         21   -1    0    0  501  503 -0.00000000000E+00 -0.00000000000E+00 -0.30411094157E+03  0.30411094157E+03  0.00000000000E+00 0.  1.
          6    1    1    2  501    0 -0.85238833925E+02  0.13719432434E+03 -0.20361133665E+03  0.31220909316E+03  0.17300000000E+03 0.  1.
         -6    1    1    2    0  502  0.85238833925E+02 -0.13719432434E+03  0.25691648321E+03  0.34931793654E+03  0.17300000000E+03 0.  1.
<mgrwt>
<rscale>  2 0.23667898E+03</rscale>
<asrwt>0</asrwt>
<pdfrwt beam="1">  1       21 0.54987090E-01 0.23667898E+03</pdfrwt>
<pdfrwt beam="2">  1       21 0.46786299E-01 0.23667898E+03</pdfrwt>
<totfact> 0.13287728E+04</totfact>
</mgrwt>
</event>
<event>
 4    1  0.4102458E+000  0.2325623E+03  0.7546771E-02  0.1124849E+00
         21   -1    0    0  503  502  0.00000000000E+00  0.00000000000E+00  0.48230757399E+02  0.48230757399E+02  0.00000000000E+00 0. -1.
         21   -1    0    0  501  503 -0.00000000000E+00 -0.00000000000E+00 -0.13065308013E+04  0.13065308013E+04  0.00000000000E+00 0. -1.
          6    1    1    2  501    0 -0.12883682985E+03  0.86932800120E+02 -0.88414413689E+03  0.91421884429E+03  0.17300000000E+03 0. -1.
         -6    1    1    2    0  502  0.12883682985E+03 -0.86932800120E+02 -0.37415590698E+03  0.44054271438E+03  0.17300000000E+03 0. -1.
<mgrwt>
<rscale>  2 0.23256234E+03</rscale>
<asrwt>0</asrwt>
<pdfrwt beam="1">  1       21 0.74201174E-02 0.23256234E+03</pdfrwt>
<pdfrwt beam="2">  1       21 0.20100472E+00 0.23256234E+03</pdfrwt>
<totfact> 0.17571139E+04</totfact>
</mgrwt>
</event>
<event>
 4    1  0.4102458E+000  0.2142826E+03  0.7546771E-02  0.1138219E+00
         21   -1    0    0  503  502  0.00000000000E+00  0.00000000000E+00  0.44129875542E+03  0.44129875542E+03  0.00000000000E+00 0.  1.
         21   -1    0    0  501  503 -0.00000000000E+00 -0.00000000000E+00 -0.12320451319E+03  0.12320451319E+03  0.00000000000E+00 0. -1.
          6    1    1    2  501    0  0.93810110720E+02 -0.84780290572E+02  0.47755796942E+02  0.21953963352E+03  0.17300000000E+03 0. -1.
         -6    1    1    2    0  502 -0.93810110720E+02  0.84780290572E+02  0.27033844528E+03  0.34496363510E+03  0.17300000000E+03 0.  1.
<mgrwt>
<rscale>  2 0.21428260E+03</rscale>
<asrwt>0</asrwt>
<pdfrwt beam="1">  1       21 0.67892115E-01 0.21428260E+03</pdfrwt>
<pdfrwt beam="2">  1       21 0.18954541E-01 0.21428260E+03</pdfrwt>
<totfact> 0.50030346E+04</totfact>
</mgrwt>
</event>
<event>
 4    1  0.4102458E+000  0.1979380E+03  0.7546771E-02  0.1151490E+00
         21   -1    0    0  501  502  0.00000000000E+00  0.00000000000E+00  0.61965649026E+03  0.61965649026E+03  0.00000000000E+00 0. -1.
         21   -1    0    0  502  503 -0.00000000000E+00 -0.00000000000E+00 -0.68328000833E+02  0.68328000833E+02  0.00000000000E+00 0.  1.
          6    1    1    2  501    0 -0.52755871622E+02 -0.80419393401E+02  0.36964669616E+03  0.41930673833E+03  0.17300000000E+03 0. -1.
         -6    1    1    2    0  503  0.52755871622E+02  0.80419393401E+02  0.18168179327E+03  0.26867775276E+03  0.17300000000E+03 0.  1.
<mgrwt>
<rscale>  2 0.19793802E+03</rscale>
<asrwt>0</asrwt>
<pdfrwt beam="1">  1       21 0.95331764E-01 0.19793802E+03</pdfrwt>
<pdfrwt beam="2">  1       21 0.10512001E-01 0.19793802E+03</pdfrwt>
<totfact> 0.68081962E+04</totfact>
</mgrwt>
</event>
<event>
 4    1  0.4102458E+000  0.2543448E+03  0.7546771E-02  0.1110589E+00
         21   -1    0    0  503  502  0.00000000000E+00  0.00000000000E+00  0.77744133587E+03  0.77744133587E+03  0.00000000000E+00 0.  1.
         21   -1    0    0  501  503 -0.00000000000E+00 -0.00000000000E+00 -0.23777888622E+03  0.23777888622E+03  0.00000000000E+00 0.  1.
          6    1    1    2  501    0  0.14051241950E+03 -0.12255020065E+03 -0.13943314711E+03  0.29005670864E+03  0.17300000000E+03 0.  1.
         -6    1    1    2    0  502 -0.14051241950E+03  0.12255020065E+03  0.67909559676E+03  0.72516351345E+03  0.17300000000E+03 0.  1.
<mgrwt>
<rscale>  2 0.25434483E+03</rscale>
<asrwt>0</asrwt>
<pdfrwt beam="1">  1       21 0.11960636E+00 0.25434483E+03</pdfrwt>
<pdfrwt beam="2">  1       21 0.36581367E-01 0.25434483E+03</pdfrwt>
<totfact> 0.36628375E+03</totfact>
</mgrwt>
</event>
<event>
 4    1  0.4102458E+000  0.1996991E+03  0.7546771E-02  0.1149993E+00
         21   -1    0    0  501  502  0.00000000000E+00  0.00000000000E+00  0.16507986168E+04  0.16507986168E+04  0.00000000000E+00 0.  1.
         21   -1    0    0  502  503 -0.00000000000E+00 -0.00000000000E+00 -0.46541549140E+02  0.46541549140E+02  0.00000000000E+00 0.  1.
          6    1    1    2  501    0  0.89986387673E+01  0.99346579599E+02  0.13906801600E+04  0.14049452038E+04  0.17300000000E+03 0.  1.
         -6    1    1    2    0  503 -0.89986387673E+01 -0.99346579599E+02  0.21357690768E+03  0.29239496212E+03  0.17300000000E+03 0.  1.
<mgrwt>
<rscale>  2 0.19969907E+03</rscale>
<asrwt>0</asrwt>
<pdfrwt beam="1">  1       21 0.25396897E+00 0.19969907E+03</pdfrwt>
<pdfrwt beam="2">  1       21 0.71602396E-02 0.19969907E+03</pdfrwt>
<totfact> 0.91048274E+03</totfact>
</mgrwt>
</event>
<event>
 4    1  0.4102458E+000  0.2123904E+03  0.7546771E-02  0.1139687E+00
         21   -1    0    0  501  502  0.00000000000E+00  0.00000000000E+00  0.12650383575E+04  0.12650383575E+04  0.00000000000E+00 0. -1.
         21   -1    0    0  502  503 -0.00000000000E+00 -0.00000000000E+00 -0.35820422176E+02  0.35820422176E+02  0.00000000000E+00 0.  1.
          6    1    1    2  501    0 -0.10814413246E+02  0.12273430507E+03  0.65830875946E+03  0.69172254840E+03  0.17300000000E+03 0. -1.
         -6    1    1    2    0  503  0.10814413246E+02 -0.12273430507E+03  0.57090917589E+03  0.60913623130E+03  0.17300000000E+03 0.  1.
<mgrwt>
<rscale>  2 0.21239035E+03</rscale>
<asrwt>0</asrwt>
<pdfrwt beam="1">  1       21 0.19462125E+00 0.21239035E+03</pdfrwt>
<pdfrwt beam="2">  1       21 0.55108352E-02 0.21239035E+03</pdfrwt>
<totfact> 0.32723977E+04</totfact>
</mgrwt>
</event>
<event>
 4    1  0.4102458E+000  0.1767802E+03  0.7546771E-02  0.1170956E+00
         21   -1    0    0  503  502  0.00000000000E+00  0.00000000000E+00  0.27693127285E+03  0.27693127285E+03  0.00000000000E+00 0.  1.
         21   -1    0    0  501  503 -0.00000000000E+00 -0.00000000000E+00 -0.11640500113E+03  0.11640500113E+03  0.00000000000E+00 0.  1.
          6    1    1    2  501    0 -0.36010731854E+02 -0.50453256821E+01  0.45885910543E+02  0.18263828981E+03  0.17300000000E+03 0.  1.
         -6    1    1    2    0  502  0.36010731854E+02  0.50453256821E+01  0.11464036117E+03  0.21069798416E+03  0.17300000000E+03 0.  1.
<mgrwt>
<rscale>  2 0.17678017E+03</rscale>
<asrwt>0</asrwt>
<pdfrwt beam="1">  1       21 0.42604811E-01 0.17678017E+03</pdfrwt>
<pdfrwt beam="2">  1       21 0.17908462E-01 0.17678017E+03</pdfrwt>
<totfact> 0.15097561E+05</totfact>
</mgrwt>
</event>
<event>
 4    1  0.4102458E+000  0.2154748E+03  0.7546771E-02  0.1137302E+00
         21   -1    0    0  503  502  0.00000000000E+00  0.00000000000E+00  0.12479703407E+03  0.12479703407E+03  0.00000000000E+00 0. -1.
         21   -1    0    0  501  503 -0.00000000000E+00 -0.00000000000E+00 -0.64364062455E+03  0.64364062455E+03  0.00000000000E+00 0.  1.
          6    1    1    2  501    0  0.72490304429E+01  0.12824909190E+03 -0.50900939867E+03  0.55273858735E+03  0.17300000000E+03 0.  1.
         -6    1    1    2    0  502 -0.72490304429E+01 -0.12824909190E+03 -0.98341918148E+01  0.21569907126E+03  0.17300000000E+03 0.  1.
<mgrwt>
<rscale>  2 0.21547477E+03</rscale>
<asrwt>0</asrwt>
<pdfrwt beam="1">  1       21 0.19199544E-01 0.21547477E+03</pdfrwt>
<pdfrwt beam="2">  1       21 0.99021633E-01 0.21547477E+03</pdfrwt>
<totfact> 0.20644836E+04</totfact>
</mgrwt>
</event>
<event>
 4    1  0.4102458E+000  0.2039649E+03  0.7546771E-02  0.1146436E+00
         21   -1    0    0  503  502  0.00000000000E+00  0.00000000000E+00  0.20534324021E+03  0.20534324021E+03  0.00000000000E+00 0.  1.
         21   -1    0    0  501  503 -0.00000000000E+00 -0.00000000000E+00 -0.32539454909E+03  0.32539454909E+03  0.00000000000E+00 0. -1.
          6    1    1    2  501    0  0.73763216645E+02  0.78940854933E+02 -0.22304603894E+03  0.30224362060E+03  0.17300000000E+03 0. -1.
         -6    1    1    2    0  502 -0.73763216645E+02 -0.78940854933E+02  0.10299473006E+03  0.22849416869E+03  0.17300000000E+03 0.  1.
<mgrwt>
<rscale>  2 0.20396488E+03</rscale>
<asrwt>0</asrwt>
<pdfrwt beam="1">  1       21 0.31591268E-01 0.20396488E+03</pdfrwt>
<pdfrwt beam="2">  1       21 0.50060700E-01 0.20396488E+03</pdfrwt>
<totfact> 0.36392416E+04</totfact>
</mgrwt>
</event>
<event>
 4    1  0.4102458E+000  0.2084189E+03  0.7546771E-02  0.1142824E+00
         21   -1    0    0  503  502  0.00000000000E+00  0.00000000000E+00  0.73436500057E+03  0.73436500057E+03  0.00000000000E+00 0.  1.
         21   -1    0    0  501  503 -0.00000000000E+00 -0.00000000000E+00 -0.60888423763E+02  0.60888423763E+02  0.00000000000E+00 0.  1.
          6    1    1    2  501    0 -0.71125073565E+02 -0.91927491779E+02  0.26957091036E+03  0.34074464860E+03  0.17300000000E+03 0.  1.
         -6    1    1    2    0  502  0.71125073565E+02  0.91927491779E+02  0.40390566645E+03  0.45450877574E+03  0.17300000000E+03 0.  1.
<mgrwt>
<rscale>  2 0.20841890E+03</rscale>
<asrwt>0</asrwt>
<pdfrwt beam="1">  1       21 0.11297922E+00 0.20841890E+03</pdfrwt>
<pdfrwt beam="2">  1       21 0.93674504E-02 0.20841890E+03</pdfrwt>
<totfact> 0.55288368E+04</totfact>
</mgrwt>
</event>
<event>
 4    1  0.4102458E+000  0.2429326E+03  0.7546771E-02  0.1117854E+00
         21   -1    0    0  501  502  0.00000000000E+00  0.00000000000E+00  0.13639941005E+04  0.13639941005E+04  0.00000000000E+00 0.  1.
         21   -1    0    0  502  503 -0.00000000000E+00 -0.00000000000E+00 -0.28003427995E+03  0.28003427995E+03  0.00000000000E+00 0. -1.
          6    1    1    2  501    0  0.62364097797E+02  0.15873871158E+03  0.12978276846E+04  0.13203684933E+04  0.17300000000E+03 0.  1.
         -6    1    1    2    0  503 -0.62364097797E+02 -0.15873871158E+03 -0.21386786407E+03  0.32365988712E+03  0.17300000000E+03 0. -1.
<mgrwt>
<rscale>  2 0.24293262E+03</rscale>
<asrwt>0</asrwt>
<pdfrwt beam="1">  1       21 0.20984524E+00 0.24293262E+03</pdfrwt>
<pdfrwt beam="2">  1       21 0.43082198E-01 0.24293262E+03</pdfrwt>
<totfact> 0.57016368E+02</totfact>
</mgrwt>
</event>
<event>
 4    1  0.4102458E+000  0.2148253E+03  0.7546771E-02  0.1137801E+00
         21   -1    0    0  503  502  0.00000000000E+00  0.00000000000E+00  0.58481776754E+03  0.58481776754E+03  0.00000000000E+00 0.  1.
         21   -1    0    0  501  503 -0.00000000000E+00 -0.00000000000E+00 -0.97202260756E+02  0.97202260756E+02  0.00000000000E+00 0.  1.
          6    1    1    2  501    0  0.12343175481E+03  0.31392904195E+02  0.95889010221E+02  0.23525436194E+03  0.17300000000E+03 0.  1.
         -6    1    1    2    0  502 -0.12343175481E+03 -0.31392904195E+02  0.39172649656E+03  0.44676566636E+03  0.17300000000E+03 0.  1.
<mgrwt>
<rscale>  2 0.21482531E+03</rscale>
<asrwt>0</asrwt>
<pdfrwt beam="1">  1       21 0.89971962E-01 0.21482531E+03</pdfrwt>
<pdfrwt beam="2">  1       21 0.14954194E-01 0.21482531E+03</pdfrwt>
<totfact> 0.40998051E+04</totfact>
</mgrwt>
</event>
<event>
 4    1  0.4102458E+000  0.1855020E+03  0.7546771E-02  0.1162582E+00
         21   -1    0    0  501  502  0.00000000000E+00  0.00000000000E+00  0.61800821446E+02  0.61800821446E+02  0.00000000000E+00 0.  1.
         21   -1    0    0  502  503 -0.00000000000E+00 -0.00000000000E+00 -0.70982309520E+03  0.70982309520E+03  0.00000000000E+00 0.  1.
          6    1    1    2  501    0  0.63741609582E+02 -0.20469494156E+02 -0.14487948731E+03  0.23537429517E+03  0.17300000000E+03 0.  1.
         -6    1    1    2    0  503 -0.63741609582E+02  0.20469494156E+02 -0.50314278645E+03  0.53624962148E+03  0.17300000000E+03 0.  1.
<mgrwt>
<rscale>  2 0.18550200E+03</rscale>
<asrwt>0</asrwt>
<pdfrwt beam="1">  1       21 0.95078186E-02 0.18550200E+03</pdfrwt>
<pdfrwt beam="2">  1       21 0.10920355E+00 0.18550200E+03</pdfrwt>
<totfact> 0.59161300E+04</totfact>
</mgrwt>
</event>
<event>
 4    1  0.4102458E+000  0.1965126E+03  0.7546771E-02  0.1152715E+00
         21   -1    0    0  503  502  0.00000000000E+00  0.00000000000E+00  0.57487218769E+03  0.57487218769E+03  0.00000000000E+00 0. -1.
         21   -1    0    0  501  503 -0.00000000000E+00 -0.00000000000E+00 -0.14614594813E+03  0.14614594813E+03  0.00000000000E+00 0.  1.
          6    1    1    2  501    0 -0.58049254870E+02 -0.72927905735E+02 -0.50642895751E+02  0.20293323610E+03  0.17300000000E+03 0.  1.
         -6    1    1    2    0  502  0.58049254870E+02  0.72927905735E+02  0.47936913531E+03  0.51808489972E+03  0.17300000000E+03 0. -1.
<mgrwt>
<rscale>  2 0.19651258E+03</rscale>
<asrwt>0</asrwt>
<pdfrwt beam="1">  1       21 0.88441874E-01 0.19651258E+03</pdfrwt>
<pdfrwt beam="2">  1       21 0.22483992E-01 0.19651258E+03</pdfrwt>
<totfact> 0.20217518E+04</totfact>
</mgrwt>
</event>
<event>
 4    1  0.4102458E+000  0.1769024E+03  0.7546771E-02  0.1170835E+00
         21   -1    0    0  503  502  0.00000000000E+00  0.00000000000E+00  0.19521566890E+03  0.19521566890E+03  0.00000000000E+00 0.  1.
         21   -1    0    0  501  503 -0.00000000000E+00 -0.00000000000E+00 -0.18994000111E+03  0.18994000111E+03  0.00000000000E+00 0.  1.
          6    1    1    2  501    0 -0.16807599163E+02  0.32908380733E+02 -0.73427223865E+02  0.19153593427E+03  0.17300000000E+03 0.  1.
         -6    1    1    2    0  502  0.16807599163E+02 -0.32908380733E+02  0.78702891662E+02  0.19361973574E+03  0.17300000000E+03 0.  1.
<mgrwt>
<rscale>  2 0.17690239E+03</rscale>
<asrwt>0</asrwt>
<pdfrwt beam="1">  1       21 0.30033180E-01 0.17690239E+03</pdfrwt>
<pdfrwt beam="2">  1       21 0.29221539E-01 0.17690239E+03</pdfrwt>
<totfact> 0.11992284E+05</totfact>
</mgrwt>
</event>
<event>
 4    1  0.4102458E+000  0.1895288E+03  0.7546771E-02  0.1158887E+00
         21   -1    0    0  503  502  0.00000000000E+00  0.00000000000E+00  0.15941922077E+03  0.15941922077E+03  0.00000000000E+00 0. -1.
         21   -1    0    0  501  503 -0.00000000000E+00 -0.00000000000E+00 -0.50818202242E+03  0.50818202242E+03  0.00000000000E+00 0. -1.
          6    1    1    2  501    0  0.70594026344E+02  0.31759090386E+02 -0.42341668087E+03  0.46389960338E+03  0.17300000000E+03 0. -1.
         -6    1    1    2    0  502 -0.70594026344E+02 -0.31759090386E+02  0.74653879225E+02  0.20370163981E+03  0.17300000000E+03 0. -1.
<mgrwt>
<rscale>  2 0.18952877E+03</rscale>
<asrwt>0</asrwt>
<pdfrwt beam="1">  1       21 0.24526034E-01 0.18952877E+03</pdfrwt>
<pdfrwt beam="2">  1       21 0.78181848E-01 0.18952877E+03</pdfrwt>
<totfact> 0.22798272E+04</totfact>
</mgrwt>
</event>
<event>
 4    1  0.4102458E+000  0.2227953E+03  0.7546771E-02  0.1131816E+00
         21   -1    0    0  501  502  0.00000000000E+00  0.00000000000E+00  0.17384684282E+03  0.17384684282E+03  0.00000000000E+00 0. -1.
         21   -1    0    0  502  503 -0.00000000000E+00 -0.00000000000E+00 -0.28659841117E+03  0.28659841117E+03  0.00000000000E+00 0. -1.
          6    1    1    2  501    0 -0.12464356441E+03  0.64596704722E+02 -0.70460231208E+02  0.23367155709E+03  0.17300000000E+03 0. -1.
         -6    1    1    2    0  503  0.12464356441E+03 -0.64596704722E+02 -0.42291337144E+02  0.22677369690E+03  0.17300000000E+03 0. -1.
<mgrwt>
<rscale>  2 0.22279532E+03</rscale>
<asrwt>0</asrwt>
<pdfrwt beam="1">  1       21 0.26745668E-01 0.22279532E+03</pdfrwt>
<pdfrwt beam="2">  1       21 0.44092063E-01 0.22279532E+03</pdfrwt>
<totfact> 0.64893362E+04</totfact>
</mgrwt>
</event>
<event>
 4    1  0.4102458E+000  0.1902497E+03  0.7546771E-02  0.1158236E+00
         21   -1    0    0  501  502  0.00000000000E+00  0.00000000000E+00  0.10977958137E+03  0.10977958137E+03  0.00000000000E+00 0.  1.
         21   -1    0    0  502  503 -0.00000000000E+00 -0.00000000000E+00 -0.73555239341E+03  0.73555239341E+03  0.00000000000E+00 0.  1.
          6    1    1    2  501    0 -0.23632238433E+02 -0.75547679939E+02  0.10716225597E+01  0.19025268201E+03  0.17300000000E+03 0.  1.
         -6    1    1    2    0  503  0.23632238433E+02  0.75547679939E+02 -0.62684443459E+03  0.65507929277E+03  0.17300000000E+03 0.  1.
<mgrwt>
<rscale>  2 0.19024966E+03</rscale>
<asrwt>0</asrwt>
<pdfrwt beam="1">  1       21 0.16889166E-01 0.19024966E+03</pdfrwt>
<pdfrwt beam="2">  1       21 0.11316191E+00 0.19024966E+03</pdfrwt>
<totfact> 0.19281125E+04</totfact>
</mgrwt>
</event>
<event>
 4    1  0.4102458E+000  0.1751966E+03  0.7546771E-02  0.1172534E+00
         21   -1    0    0  501  502  0.00000000000E+00  0.00000000000E+00  0.93989959293E+02  0.93989959293E+02  0.00000000000E+00 0.  1.
         21   -1    0    0  502  503 -0.00000000000E+00 -0.00000000000E+00 -0.34575495653E+03  0.34575495653E+03  0.00000000000E+00 0. -1.
          6    1    1    2  501    0 -0.12012575780E+01 -0.27630011005E+02 -0.74083654177E+02  0.19021631987E+03  0.17300000000E+03 0.  1.
         -6    1    1    2    0  503  0.12012575780E+01  0.27630011005E+02 -0.17768134306E+03  0.24952859596E+03  0.17300000000E+03 0. -1.
<mgrwt>
<rscale>  2 0.17519663E+03</rscale>
<asrwt>0</asrwt>
<pdfrwt beam="1">  1       21 0.14459994E-01 0.17519663E+03</pdfrwt>
<pdfrwt beam="2">  1       21 0.53193071E-01 0.17519663E+03</pdfrwt>
<totfact> 0.14117766E+05</totfact>
</mgrwt>
</event>
<event>
 4    1  0.4102458E+000  0.2541554E+03  0.7546771E-02  0.1110707E+00
         21   -1    0    0  501  502  0.00000000000E+00  0.00000000000E+00  0.51516888492E+02  0.51516888492E+02  0.00000000000E+00 0. -1.
         21   -1    0    0  502  503 -0.00000000000E+00 -0.00000000000E+00 -0.13384082116E+04  0.13384082116E+04  0.00000000000E+00 0. -1.
          6    1    1    2  501    0  0.72071134209E+02  0.17167322080E+03 -0.46877480532E+03  0.53323987213E+03  0.17300000000E+03 0. -1.
         -6    1    1    2    0  503 -0.72071134209E+02 -0.17167322080E+03 -0.81811651776E+03  0.85668522794E+03  0.17300000000E+03 0. -1.
<mgrwt>
<rscale>  2 0.25415535E+03</rscale>
<asrwt>0</asrwt>
<pdfrwt beam="1">  1       21 0.79256758E-02 0.25415535E+03</pdfrwt>
<pdfrwt beam="2">  1       21 0.20590894E+00 0.25415535E+03</pdfrwt>
<totfact> 0.14363829E+04</totfact>
</mgrwt>
</event>
<event>
 4    1  0.4102458E+000  0.2020554E+03  0.7546771E-02  0.1148016E+00
         21   -1    0    0  501  502  0.00000000000E+00  0.00000000000E+00  0.27336034078E+03  0.27336034078E+03  0.00000000000E+00 0.  1.
         21   -1    0    0  502  503 -0.00000000000E+00 -0.00000000000E+00 -0.15044986389E+03  0.15044986389E+03  0.00000000000E+00 0. -1.
          6    1    1    2  501    0 -0.10421675649E+03 -0.60209691267E+01  0.79572908350E+02  0.21715946248E+03  0.17300000000E+03 0.  1.
         -6    1    1    2    0  503  0.10421675649E+03  0.60209691267E+01  0.43337568544E+02  0.20665074219E+03  0.17300000000E+03 0. -1.
<mgrwt>
<rscale>  2 0.20205540E+03</rscale>
<asrwt>0</asrwt>
<pdfrwt beam="1">  1       21 0.42055437E-01 0.20205540E+03</pdfrwt>
<pdfrwt beam="2">  1       21 0.23146133E-01 0.20205540E+03</pdfrwt>
<totfact> 0.95061747E+04</totfact>
</mgrwt>
</event>
<event>
 4    1  0.4102458E+000  0.1824556E+03  0.7546771E-02  0.1165447E+00
         21   -1    0    0  503  502  0.00000000000E+00  0.00000000000E+00  0.10289199166E+03  0.10289199166E+03  0.00000000000E+00 0.  1.
         21   -1    0    0  501  503 -0.00000000000E+00 -0.00000000000E+00 -0.34955698879E+03  0.34955698879E+03  0.00000000000E+00 0.  1.
          6    1    1    2  501    0  0.12677356422E+02 -0.56571376693E+02 -0.18504595192E+03  0.25986927550E+03  0.17300000000E+03 0.  1.
         -6    1    1    2    0  502 -0.12677356422E+02  0.56571376693E+02 -0.61619045219E+02  0.19257970496E+03  0.17300000000E+03 0.  1.
<mgrwt>
<rscale>  2 0.18245557E+03</rscale>
<asrwt>0</asrwt>
<pdfrwt beam="1">  1       21 0.15829537E-01 0.18245557E+03</pdfrwt>
<pdfrwt beam="2">  1       21 0.53777997E-01 0.18245557E+03</pdfrwt>
<totfact> 0.11672867E+05</totfact>
</mgrwt>
</event>
<event>
 4    1  0.4102458E+000  0.1742265E+03  0.7546771E-02  0.1173511E+00
         21   -1    0    0  503  502  0.00000000000E+00  0.00000000000E+00  0.44599927351E+03  0.44599927351E+03  0.00000000000E+00 0. -1.
         21   -1    0    0  501  503 -0.00000000000E+00 -0.00000000000E+00 -0.14161032101E+03  0.14161032101E+03  0.00000000000E+00 0. -1.
          6    1    1    2  501    0  0.20558861667E+02  0.17862095294E+01 -0.59545443269E+02  0.18412093078E+03  0.17300000000E+03 0. -1.
         -6    1    1    2    0  502 -0.20558861667E+02 -0.17862095294E+01  0.36393439578E+03  0.40348866374E+03  0.17300000000E+03 0. -1.
<mgrwt>
<rscale>  2 0.17422645E+03</rscale>
<asrwt>0</asrwt>
<pdfrwt beam="1">  1       21 0.68615272E-01 0.17422645E+03</pdfrwt>
<pdfrwt beam="2">  1       21 0.21786204E-01 0.17422645E+03</pdfrwt>
<totfact> 0.38434976E+04</totfact>
</mgrwt>
</event>
<event>
 4    1  0.4102458E+000  0.3127551E+03  0.7546771E-02  0.1079033E+00
         21   -1    0    0  503  502  0.00000000000E+00  0.00000000000E+00  0.91092879655E+03  0.91092879655E+03  0.00000000000E+00 0.  1.
         21   -1    0    0  501  503 -0.00000000000E+00 -0.00000000000E+00 -0.12509565205E+03  0.12509565205E+03  0.00000000000E+00 0.  1.
          6    1    1    2  501    0 -0.26974406901E+02  0.25915078808E+03  0.19797943978E+03  0.37015079112E+03  0.17300000000E+03 0.  1.
         -6    1    1    2    0  502  0.26974406901E+02 -0.25915078808E+03  0.58785370471E+03  0.66587365749E+03  0.17300000000E+03 0.  1.
<mgrwt>
<rscale>  2 0.31275510E+03</rscale>
<asrwt>0</asrwt>
<pdfrwt beam="1">  1       21 0.14014289E+00 0.31275510E+03</pdfrwt>
<pdfrwt beam="2">  1       21 0.19245486E-01 0.31275510E+03</pdfrwt>
<totfact> 0.82248271E+03</totfact>
</mgrwt>
</event>
<event>
 4    1  0.4102458E+000  0.2524355E+03  0.7546771E-02  0.1111775E+00
         21   -1    0    0  503  502  0.00000000000E+00  0.00000000000E+00  0.70235818329E+02  0.70235818329E+02  0.00000000000E+00 0.  1.
         21   -1    0    0  501  503 -0.00000000000E+00 -0.00000000000E+00 -0.13061167315E+04  0.13061167315E+04  0.00000000000E+00 0. -1.
          6    1    1    2  501    0 -0.10593695348E+02  0.18352778667E+03 -0.99822207298E+03  0.10296460469E+04  0.17300000000E+03 0. -1.
         -6    1    1    2    0  502  0.10593695348E+02 -0.18352778667E+03 -0.23765884016E+03  0.34670650292E+03  0.17300000000E+03 0.  1.
<mgrwt>
<rscale>  2 0.25243549E+03</rscale>
<asrwt>0</asrwt>
<pdfrwt beam="1">  1       21 0.10805511E-01 0.25243549E+03</pdfrwt>
<pdfrwt beam="2">  1       21 0.20094102E+00 0.25243549E+03</pdfrwt>
<totfact> 0.89482721E+03</totfact>
</mgrwt>
</event>
<event>
 4    1  0.4102458E+000  0.1903932E+03  0.7546771E-02  0.1158107E+00
         21   -1    0    0  503  502  0.00000000000E+00  0.00000000000E+00  0.32365164051E+02  0.32365164051E+02  0.00000000000E+00 0.  1.
         21   -1    0    0  501  503 -0.00000000000E+00 -0.00000000000E+00 -0.11281532135E+04  0.11281532135E+04  0.00000000000E+00 0.  1.
          6    1    1    2  501    0  0.49159334544E+02 -0.62481323996E+02 -0.49861853519E+03  0.53373214224E+03  0.17300000000E+03 0.  1.
         -6    1    1    2    0  502 -0.49159334544E+02  0.62481323996E+02 -0.59716951428E+03  0.62678623534E+03  0.17300000000E+03 0.  1.
<mgrwt>
<rscale>  2 0.19039316E+03</rscale>
<asrwt>0</asrwt>
<pdfrwt beam="1">  1       21 0.49792555E-02 0.19039316E+03</pdfrwt>
<pdfrwt beam="2">  1       21 0.17356205E+00 0.19039316E+03</pdfrwt>
<totfact> 0.54658747E+04</totfact>
</mgrwt>
</event>
<event>
 4    1  0.4102458E+000  0.1887045E+03  0.7546771E-02  0.1159635E+00
         21   -1    0    0  503  502  0.00000000000E+00  0.00000000000E+00  0.34489498770E+03  0.34489498770E+03  0.00000000000E+00 0. -1.
         21   -1    0    0  501  503 -0.00000000000E+00 -0.00000000000E+00 -0.10570021113E+03  0.10570021113E+03  0.00000000000E+00 0. -1.
          6    1    1    2  501    0  0.70659939845E+02  0.26221570567E+02  0.85274828787E+02  0.20707774938E+03  0.17300000000E+03 0. -1.
         -6    1    1    2    0  502 -0.70659939845E+02 -0.26221570567E+02  0.15391994778E+03  0.24351744945E+03  0.17300000000E+03 0. -1.
<mgrwt>
<rscale>  2 0.18870453E+03</rscale>
<asrwt>0</asrwt>
<pdfrwt beam="1">  1       21 0.53060767E-01 0.18870453E+03</pdfrwt>
<pdfrwt beam="2">  1       21 0.16261571E-01 0.18870453E+03</pdfrwt>
<totfact> 0.11404729E+05</totfact>
</mgrwt>
</event>
<event>
 4    1  0.4102458E+000  0.1759566E+03  0.7546771E-02  0.1171775E+00
         21   -1    0    0  503  502  0.00000000000E+00  0.00000000000E+00  0.15412679871E+03  0.15412679871E+03  0.00000000000E+00 0. -1.
         21   -1    0    0  501  503 -0.00000000000E+00 -0.00000000000E+00 -0.39146755887E+03  0.39146755887E+03  0.00000000000E+00 0. -1.
          6    1    1    2  501    0 -0.57021006988E+01  0.31610096271E+02 -0.30901531440E+03  0.35559974223E+03  0.17300000000E+03 0. -1.
         -6    1    1    2    0  502  0.57021006988E+01 -0.31610096271E+02  0.71674554238E+02  0.18999461535E+03  0.17300000000E+03 0. -1.
<mgrwt>
<rscale>  2 0.17595656E+03</rscale>
<asrwt>0</asrwt>
<pdfrwt beam="1">  1       21 0.23711816E-01 0.17595656E+03</pdfrwt>
<pdfrwt beam="2">  1       21 0.60225777E-01 0.17595656E+03</pdfrwt>
<totfact> 0.43417836E+04</totfact>
</mgrwt>
</event>
<event>
 4    1  0.4102458E+000  0.2139554E+03  0.7546771E-02  0.1138471E+00
         21   -1    0    0  503  502  0.00000000000E+00  0.00000000000E+00  0.69353271164E+02  0.69353271164E+02  0.00000000000E+00 0. -1.
         21   -1    0    0  501  503 -0.00000000000E+00 -0.00000000000E+00 -0.70545205426E+03  0.70545205426E+03  0.00000000000E+00 0.  1.
          6    1    1    2  501    0 -0.12134482272E+03 -0.33516554098E+02 -0.41632505791E+03  0.46808490602E+03  0.17300000000E+03 0.  1.
         -6    1    1    2    0  502  0.12134482272E+03  0.33516554098E+02 -0.21977372519E+03  0.30672041941E+03  0.17300000000E+03 0. -1.
<mgrwt>
<rscale>  2 0.21395543E+03</rscale>
<asrwt>0</asrwt>
<pdfrwt beam="1">  1       21 0.10669733E-01 0.21395543E+03</pdfrwt>
<pdfrwt beam="2">  1       21 0.10853110E+00 0.21395543E+03</pdfrwt>
<totfact> 0.48277313E+04</totfact>
</mgrwt>
</event>
<event>
 4    1  0.4102458E+000  0.2593627E+03  0.7546771E-02  0.1107527E+00
         21   -1    0    0  503  502  0.00000000000E+00  0.00000000000E+00  0.36519787709E+02  0.36519787709E+02  0.00000000000E+00 0. -1.
         21   -1    0    0  501  503 -0.00000000000E+00 -0.00000000000E+00 -0.20339794964E+04  0.20339794964E+04  0.00000000000E+00 0. -1.
          6    1    1    2  501    0  0.42663808192E+02 -0.18846695919E+03 -0.13167929488E+04  0.13420926441E+04  0.17300000000E+03 0. -1.
         -6    1    1    2    0  502 -0.42663808192E+02  0.18846695919E+03 -0.68066675980E+03  0.72840663996E+03  0.17300000000E+03 0. -1.
<mgrwt>
<rscale>  2 0.25936267E+03</rscale>
<asrwt>0</asrwt>
<pdfrwt beam="1">  1       21 0.56184290E-02 0.25936267E+03</pdfrwt>
<pdfrwt beam="2">  1       21 0.31291992E+00 0.25936267E+03</pdfrwt>
<totfact> 0.59311416E+03</totfact>
</mgrwt>
</event>
<event>
 4    1  0.4102458E+000  0.2001016E+03  0.7546771E-02  0.1149653E+00
         21   -1    0    0  503  502  0.00000000000E+00  0.00000000000E+00  0.43583172954E+03  0.43583172954E+03  0.00000000000E+00 0.  1.
         21   -1    0    0  501  503 -0.00000000000E+00 -0.00000000000E+00 -0.91947809242E+02  0.91947809242E+02  0.00000000000E+00 0. -1.
          6    1    1    2  501    0  0.10041287018E+03  0.53772544526E+01  0.17952763296E+03  0.26883234619E+03  0.17300000000E+03 0. -1.
         -6    1    1    2    0  502 -0.10041287018E+03 -0.53772544526E+01  0.16435628734E+03  0.25894719259E+03  0.17300000000E+03 0.  1.
<mgrwt>
<rscale>  2 0.20010162E+03</rscale>
<asrwt>0</asrwt>
<pdfrwt beam="1">  1       21 0.67051034E-01 0.20010162E+03</pdfrwt>
<pdfrwt beam="2">  1       21 0.14145817E-01 0.20010162E+03</pdfrwt>
<totfact> 0.88591342E+04</totfact>
</mgrwt>
</event>
<event>
 4    1  0.4102458E+000  0.2078294E+03  0.7546771E-02  0.1143296E+00
         21   -1    0    0  501  502  0.00000000000E+00  0.00000000000E+00  0.99242292978E+02  0.99242292978E+02  0.00000000000E+00 0.  1.
         21   -1    0    0  502  503 -0.00000000000E+00 -0.00000000000E+00 -0.44605617510E+03  0.44605617510E+03  0.00000000000E+00 0.  1.
          6    1    1    2  501    0 -0.79762719325E+02  0.83078071721E+02 -0.13092733018E+03  0.24563188552E+03  0.17300000000E+03 0.  1.
         -6    1    1    2    0  503  0.79762719325E+02 -0.83078071721E+02 -0.21588655194E+03  0.29966658256E+03  0.17300000000E+03 0.  1.
<mgrwt>
<rscale>  2 0.20782939E+03</rscale>
<asrwt>0</asrwt>
<pdfrwt beam="1">  1       21 0.15268045E-01 0.20782939E+03</pdfrwt>
<pdfrwt beam="2">  1       21 0.68624027E-01 0.20782939E+03</pdfrwt>
<totfact> 0.73024327E+04</totfact>
</mgrwt>
</event>
<event>
 4    1  0.4102458E+000  0.1761088E+03  0.7546771E-02  0.1171623E+00
         21   -1    0    0  503  502  0.00000000000E+00  0.00000000000E+00  0.16334225473E+02  0.16334225473E+02  0.00000000000E+00 0.  1.
         21   -1    0    0  501  503 -0.00000000000E+00 -0.00000000000E+00 -0.18995176267E+04  0.18995176267E+04  0.00000000000E+00 0.  1.
          6    1    1    2  501    0 -0.31384080177E+02  0.10016988532E+02 -0.92209819901E+03  0.93876482101E+03  0.17300000000E+03 0.  1.
         -6    1    1    2    0  502  0.31384080177E+02 -0.10016988532E+02 -0.96108520226E+03  0.97708703121E+03  0.17300000000E+03 0.  1.
<mgrwt>
<rscale>  2 0.17610877E+03</rscale>
<asrwt>0</asrwt>
<pdfrwt beam="1">  1       21 0.25129570E-02 0.17610877E+03</pdfrwt>
<pdfrwt beam="2">  1       21 0.29223357E+00 0.17610877E+03</pdfrwt>
<totfact> 0.32572961E+04</totfact>
</mgrwt>
</event>
<event>
 4    1  0.4102458E+000  0.1841290E+03  0.7546771E-02  0.1163866E+00
         21   -1    0    0  503  502  0.00000000000E+00  0.00000000000E+00  0.94983994417E+03  0.94983994417E+03  0.00000000000E+00 0.  1.
         21   -1    0    0  501  503 -0.00000000000E+00 -0.00000000000E+00 -0.38434659341E+02  0.38434659341E+02  0.00000000000E+00 0.  1.
          6    1    1    2  501    0 -0.60650307511E+02 -0.17205147681E+02  0.32374856021E+03  0.37244678432E+03  0.17300000000E+03 0.  1.
         -6    1    1    2    0  502  0.60650307511E+02  0.17205147681E+02  0.58765672462E+03  0.61582781920E+03  0.17300000000E+03 0.  1.
<mgrwt>
<rscale>  2 0.18412897E+03</rscale>
<asrwt>0</asrwt>
<pdfrwt beam="1">  1       21 0.14612920E+00 0.18412897E+03</pdfrwt>
<pdfrwt beam="2">  1       21 0.59130253E-02 0.18412897E+03</pdfrwt>
<totfact> 0.65004592E+04</totfact>
</mgrwt>
</event>
<event>
 4    1  0.4102458E+000  0.2917389E+03  0.7546771E-02  0.1089445E+00
         21   -1    0    0  503  502  0.00000000000E+00  0.00000000000E+00  0.40614826158E+03  0.40614826158E+03  0.00000000000E+00 0. -1.
         21   -1    0    0  501  503 -0.00000000000E+00 -0.00000000000E+00 -0.50569450744E+03  0.50569450744E+03  0.00000000000E+00 0. -1.
          6    1    1    2  501    0  0.19362522498E+03 -0.13301065090E+03 -0.39866585405E+03  0.49401014583E+03  0.17300000000E+03 0. -1.
         -6    1    1    2    0  502 -0.19362522498E+03  0.13301065090E+03  0.29911960819E+03  0.41783262319E+03  0.17300000000E+03 0. -1.
<mgrwt>
<rscale>  2 0.29173886E+03</rscale>
<asrwt>0</asrwt>
<pdfrwt beam="1">  1       21 0.62484348E-01 0.29173886E+03</pdfrwt>
<pdfrwt beam="2">  1       21 0.77799155E-01 0.29173886E+03</pdfrwt>
<totfact> 0.32477264E+03</totfact>
</mgrwt>
</event>
<event>
 4    1  0.4102458E+000  0.3858807E+03  0.7546771E-02  0.1048781E+00
         21   -1    0    0  503  502  0.00000000000E+00  0.00000000000E+00  0.15364590429E+03  0.15364590429E+03  0.00000000000E+00 0.  1.
         21   -1    0    0  501  503 -0.00000000000E+00 -0.00000000000E+00 -0.14556891587E+04  0.14556891587E+04  0.00000000000E+00 0. -1.
          6    1    1    2  501    0 -0.34465588843E+03  0.13682844633E+02 -0.11162293764E+04  0.11810469603E+04  0.17300000000E+03 0. -1.
         -6    1    1    2    0  502  0.34465588843E+03 -0.13682844633E+02 -0.18581387806E+03  0.42828810274E+03  0.17300000000E+03 0.  1.
<mgrwt>
<rscale>  2 0.38588068E+03</rscale>
<asrwt>0</asrwt>
<pdfrwt beam="1">  1       21 0.23637830E-01 0.38588068E+03</pdfrwt>
<pdfrwt beam="2">  1       21 0.22395220E+00 0.38588068E+03</pdfrwt>
<totfact> 0.13795315E+03</totfact>
</mgrwt>
</event>
<event>
 4    1  0.4102458E+000  0.1804028E+03  0.7546771E-02  0.1167414E+00
         21   -1    0    0  501  502  0.00000000000E+00  0.00000000000E+00  0.14772686674E+03  0.14772686674E+03  0.00000000000E+00 0. -1.
         21   -1    0    0  502  503 -0.00000000000E+00 -0.00000000000E+00 -0.71096916313E+03  0.71096916313E+03  0.00000000000E+00 0. -1.
          6    1    1    2  501    0  0.51099388915E+02  0.22431186402E+01  0.75056268396E+02  0.19539350694E+03  0.17300000000E+03 0. -1.
         -6    1    1    2    0  503 -0.51099388915E+02 -0.22431186402E+01 -0.63829856478E+03  0.66330252293E+03  0.17300000000E+03 0. -1.
<mgrwt>
<rscale>  2 0.18040282E+03</rscale>
<asrwt>0</asrwt>
<pdfrwt beam="1">  1       21 0.22727210E-01 0.18040282E+03</pdfrwt>
<pdfrwt beam="2">  1       21 0.10937987E+00 0.18040282E+03</pdfrwt>
<totfact> 0.12122044E+04</totfact>
</mgrwt>
</event>
<event>
 4    1  0.4102458E+000  0.3288512E+03  0.7546771E-02  0.1071646E+00
         21   -1    0    0  503  502  0.00000000000E+00  0.00000000000E+00  0.71281254957E+03  0.71281254957E+03  0.00000000000E+00 0.  1.
         21   -1    0    0  501  503 -0.00000000000E+00 -0.00000000000E+00 -0.15263853831E+03  0.15263853831E+03  0.00000000000E+00 0. -1.
          6    1    1    2  501    0  0.21783221336E+02  0.27881823575E+03  0.24639583675E+03  0.41091851466E+03  0.17300000000E+03 0. -1.
         -6    1    1    2    0  502 -0.21783221336E+02 -0.27881823575E+03  0.31377817451E+03  0.45453257322E+03  0.17300000000E+03 0. -1.
<mgrwt>
<rscale>  2 0.32885121E+03</rscale>
<asrwt>0</asrwt>
<pdfrwt beam="1">  1       21 0.10966347E+00 0.32885121E+03</pdfrwt>
<pdfrwt beam="2">  1       21 0.23482852E-01 0.32885121E+03</pdfrwt>
<totfact> 0.10418706E+04</totfact>
</mgrwt>
</event>
<event>
 4    1  0.4102458E+000  0.3012115E+03  0.7546771E-02  0.1084637E+00
         21   -1    0    0  501  502  0.00000000000E+00  0.00000000000E+00  0.51444051938E+03  0.51444051938E+03  0.00000000000E+00 0.  1.
         21   -1    0    0  502  503 -0.00000000000E+00 -0.00000000000E+00 -0.19225099250E+04  0.19225099250E+04  0.00000000000E+00 0. -1.
          6    1    1    2  501    0 -0.72028632945E+02 -0.23582031101E+03  0.45720742215E+03  0.54750978979E+03  0.17300000000E+03 0.  1.
         -6    1    1    2    0  503  0.72028632945E+02  0.23582031101E+03 -0.18652768277E+04  0.18894406546E+04  0.17300000000E+03 0. -1.
<mgrwt>
<rscale>  2 0.30121146E+03</rscale>
<asrwt>0</asrwt>
<pdfrwt beam="1">  1       21 0.79144695E-01 0.30121146E+03</pdfrwt>
<pdfrwt beam="2">  1       21 0.29577076E+00 0.30121146E+03</pdfrwt>
<totfact> 0.43861444E+01</totfact>
</mgrwt>
</event>
<event>
 4    1  0.4102458E+000  0.2316874E+03  0.7546771E-02  0.1125458E+00
         21   -1    0    0  501  502  0.00000000000E+00  0.00000000000E+00  0.75327977383E+03  0.75327977383E+03  0.00000000000E+00 0. -1.
         21   -1    0    0  502  503 -0.00000000000E+00 -0.00000000000E+00 -0.85976670745E+02  0.85976670745E+02  0.00000000000E+00 0. -1.
          6    1    1    2  501    0 -0.98186520048E+02  0.11878316079E+03  0.50726085207E+03  0.55766710863E+03  0.17300000000E+03 0. -1.
         -6    1    1    2    0  503  0.98186520048E+02 -0.11878316079E+03  0.16004225102E+03  0.28158933594E+03  0.17300000000E+03 0. -1.
<mgrwt>
<rscale>  2 0.23168736E+03</rscale>
<asrwt>0</asrwt>
<pdfrwt beam="1">  1       21 0.11588919E+00 0.23168736E+03</pdfrwt>
<pdfrwt beam="2">  1       21 0.13227181E-01 0.23168736E+03</pdfrwt>
<totfact> 0.27728701E+04</totfact>
</mgrwt>
</event>
<event>
 4    1  0.4102458E+000  0.4950369E+03  0.7546771E-02  0.1015083E+00
         21   -1    0    0  501  502  0.00000000000E+00  0.00000000000E+00  0.57559675326E+03  0.57559675326E+03  0.00000000000E+00 0.  1.
         21   -1    0    0  502  503 -0.00000000000E+00 -0.00000000000E+00 -0.51739315422E+03  0.51739315422E+03  0.00000000000E+00 0. -1.
          6    1    1    2  501    0 -0.40233632418E+03 -0.23077691081E+03  0.25909815959E+03  0.55874265688E+03  0.17300000000E+03 0.  1.
         -6    1    1    2    0  503  0.40233632418E+03  0.23077691081E+03 -0.20089456054E+03  0.53424725060E+03  0.17300000000E+03 0. -1.
<mgrwt>
<rscale>  2 0.49503687E+03</rscale>
<asrwt>0</asrwt>
<pdfrwt beam="1">  1       21 0.88553347E-01 0.49503687E+03</pdfrwt>
<pdfrwt beam="2">  1       21 0.79598947E-01 0.49503687E+03</pdfrwt>
<totfact> 0.12756431E+03</totfact>
</mgrwt>
</event>
<event>
 4    1  0.4102458E+000  0.2158577E+03  0.7546771E-02  0.1137009E+00
         21   -1    0    0  503  502  0.00000000000E+00  0.00000000000E+00  0.17025022744E+03  0.17025022744E+03  0.00000000000E+00 0. -1.
         21   -1    0    0  501  503 -0.00000000000E+00 -0.00000000000E+00 -0.10280480567E+04  0.10280480567E+04  0.00000000000E+00 0.  1.
          6    1    1    2  501    0 -0.52633154060E+02  0.11787837929E+03 -0.94213722759E+03  0.96654907627E+03  0.17300000000E+03 0.  1.
         -6    1    1    2    0  502  0.52633154060E+02 -0.11787837929E+03  0.84339398378E+02  0.23174920783E+03  0.17300000000E+03 0. -1.
<mgrwt>
<rscale>  2 0.21585773E+03</rscale>
<asrwt>0</asrwt>
<pdfrwt beam="1">  1       21 0.26192342E-01 0.21585773E+03</pdfrwt>
<pdfrwt beam="2">  1       21 0.15816124E+00 0.21585773E+03</pdfrwt>
<totfact> 0.35255588E+03</totfact>
</mgrwt>
</event>
<event>
 4    1  0.4102458E+000  0.2539216E+03  0.7546771E-02  0.1110851E+00
         21   -1    0    0  501  502  0.00000000000E+00  0.00000000000E+00  0.73246252781E+03  0.73246252781E+03  0.00000000000E+00 0.  1.
         21   -1    0    0  502  503 -0.00000000000E+00 -0.00000000000E+00 -0.88271704283E+02  0.88271704283E+02  0.00000000000E+00 0. -1.
          6    1    1    2  501    0  0.11614281698E+03 -0.14511388547E+03  0.30047181762E+03  0.39339484856E+03  0.17300000000E+03 0. -1.
         -6    1    1    2    0  503 -0.11614281698E+03  0.14511388547E+03  0.34371900590E+03  0.42733938353E+03  0.17300000000E+03 0. -1.
<mgrwt>
<rscale>  2 0.25392163E+03</rscale>
<asrwt>0</asrwt>
<pdfrwt beam="1">  1       21 0.11268654E+00 0.25392163E+03</pdfrwt>
<pdfrwt beam="2">  1       21 0.13580263E-01 0.25392163E+03</pdfrwt>
<totfact> 0.28009254E+04</totfact>
</mgrwt>
</event>
<event>
 4    1  0.4102458E+000  0.1863665E+03  0.7546771E-02  0.1161780E+00
         21   -1    0    0  501  502  0.00000000000E+00  0.00000000000E+00  0.14049637983E+03  0.14049637983E+03  0.00000000000E+00 0. -1.
         21   -1    0    0  502  503 -0.00000000000E+00 -0.00000000000E+00 -0.25730083929E+03  0.25730083929E+03  0.00000000000E+00 0. -1.
          6    1    1    2  501    0  0.14323034454E+02 -0.67811014810E+02 -0.19018426381E+02  0.18733441645E+03  0.17300000000E+03 0. -1.
         -6    1    1    2    0  503 -0.14323034454E+02  0.67811014810E+02 -0.97786033079E+02  0.21046280268E+03  0.17300000000E+03 0. -1.
<mgrwt>
<rscale>  2 0.18636653E+03</rscale>
<asrwt>0</asrwt>
<pdfrwt beam="1">  1       21 0.21614828E-01 0.18636653E+03</pdfrwt>
<pdfrwt beam="2">  1       21 0.39584744E-01 0.18636653E+03</pdfrwt>
<totfact> 0.12303402E+05</totfact>
</mgrwt>
</event>
<event>
 4    1  0.4102458E+000  0.2108550E+03  0.7546771E-02  0.1140891E+00
         21   -1    0    0  501  502  0.00000000000E+00  0.00000000000E+00  0.16369697142E+03  0.16369697142E+03  0.00000000000E+00 0. -1.
         21   -1    0    0  502  503 -0.00000000000E+00 -0.00000000000E+00 -0.72423276794E+03  0.72423276794E+03  0.00000000000E+00 0. -1.
          6    1    1    2  501    0 -0.10418319503E+03 -0.60635768638E+02  0.70712843122E+02  0.22239635956E+03  0.17300000000E+03 0. -1.
         -6    1    1    2    0  503  0.10418319503E+03  0.60635768638E+02 -0.63124863965E+03  0.66553337979E+03  0.17300000000E+03 0. -1.
<mgrwt>
<rscale>  2 0.21085501E+03</rscale>
<asrwt>0</asrwt>
<pdfrwt beam="1">  1       21 0.25184150E-01 0.21085501E+03</pdfrwt>
<pdfrwt beam="2">  1       21 0.11142042E+00 0.21085501E+03</pdfrwt>
<totfact> 0.93344153E+03</totfact>
</mgrwt>
</event>
<event>
 4    1  0.4102458E+000  0.1798009E+03  0.7546771E-02  0.1167996E+00
         21   -1    0    0  503  502  0.00000000000E+00  0.00000000000E+00  0.39460982264E+03  0.39460982264E+03  0.00000000000E+00 0. -1.
         21   -1    0    0  501  503 -0.00000000000E+00 -0.00000000000E+00 -0.20693443784E+03  0.20693443784E+03  0.00000000000E+00 0. -1.
          6    1    1    2  501    0 -0.48651668582E+02 -0.56910165836E+01 -0.13993445746E+03  0.22783771617E+03  0.17300000000E+03 0. -1.
         -6    1    1    2    0  502  0.48651668582E+02  0.56910165836E+01  0.32760984225E+03  0.37370654432E+03  0.17300000000E+03 0. -1.
<mgrwt>
<rscale>  2 0.17980092E+03</rscale>
<asrwt>0</asrwt>
<pdfrwt beam="1">  1       21 0.60709203E-01 0.17980092E+03</pdfrwt>
<pdfrwt beam="2">  1       21 0.31836067E-01 0.17980092E+03</pdfrwt>
<totfact> 0.24147829E+04</totfact>
</mgrwt>
</event>
<event>
 4    1  0.4102458E+000  0.1848674E+03  0.7546771E-02  0.1163174E+00
         21   -1    0    0  501  502  0.00000000000E+00  0.00000000000E+00  0.53657366448E+03  0.53657366448E+03  0.00000000000E+00 0.  1.
         21   -1    0    0  502  503 -0.00000000000E+00 -0.00000000000E+00 -0.76605795587E+02  0.76605795587E+02  0.00000000000E+00 0.  1.
          6    1    1    2  501    0  0.65131069986E+02 -0.22144323395E+01  0.35585843360E+03  0.40101269899E+03  0.17300000000E+03 0.  1.
         -6    1    1    2    0  503 -0.65131069986E+02  0.22144323395E+01  0.10410943529E+03  0.21216676107E+03  0.17300000000E+03 0.  1.
<mgrwt>
<rscale>  2 0.18486741E+03</rscale>
<asrwt>0</asrwt>
<pdfrwt beam="1">  1       21 0.82549792E-01 0.18486741E+03</pdfrwt>
<pdfrwt beam="2">  1       21 0.11785507E-01 0.18486741E+03</pdfrwt>
<totfact> 0.77888333E+04</totfact>
</mgrwt>
</event>
<event>
 4    1  0.4102458E+000  0.2663916E+03  0.7546771E-02  0.1103363E+00
         21   -1    0    0  503  502  0.00000000000E+00  0.00000000000E+00  0.29612663581E+03  0.29612663581E+03  0.00000000000E+00 0. -1.
         21   -1    0    0  501  503 -0.00000000000E+00 -0.00000000000E+00 -0.38974527657E+03  0.38974527657E+03  0.00000000000E+00 0. -1.
          6    1    1    2  501    0 -0.19645280833E+03 -0.49414562237E+02 -0.25963158728E+03  0.37198530344E+03  0.17300000000E+03 0. -1.
         -6    1    1    2    0  502  0.19645280833E+03  0.49414562237E+02  0.16601294651E+03  0.31388660894E+03  0.17300000000E+03 0. -1.
<mgrwt>
<rscale>  2 0.26639164E+03</rscale>
<asrwt>0</asrwt>
<pdfrwt beam="1">  1       21 0.45557944E-01 0.26639164E+03</pdfrwt>
<pdfrwt beam="2">  1       21 0.59960812E-01 0.26639164E+03</pdfrwt>
<totfact> 0.11481049E+04</totfact>
</mgrwt>
</event>
<event>
 4    1  0.4102458E+000  0.2311468E+03  0.7546771E-02  0.1125835E+00
         21   -1    0    0  501  502  0.00000000000E+00  0.00000000000E+00  0.90329301282E+02  0.90329301282E+02  0.00000000000E+00 0.  1.
         21   -1    0    0  502  503 -0.00000000000E+00 -0.00000000000E+00 -0.61766548888E+03  0.61766548888E+03  0.00000000000E+00 0.  1.
          6    1    1    2  501    0  0.41931262452E+02 -0.14745034127E+03 -0.19079371159E+03  0.29971832492E+03  0.17300000000E+03 0. -1.
         -6    1    1    2    0  503 -0.41931262452E+02  0.14745034127E+03 -0.33654247601E+03  0.40827646525E+03  0.17300000000E+03 0. -1.
<mgrwt>
<rscale>  2 0.23114678E+03</rscale>
<asrwt>0</asrwt>
<pdfrwt beam="1">  1       21 0.13896816E-01 0.23114678E+03</pdfrwt>
<pdfrwt beam="2">  1       21 0.95025456E-01 0.23114678E+03</pdfrwt>
<totfact> 0.40913867E+04</totfact>
</mgrwt>
</event>
<event>
 4    1  0.4102458E+000  0.1785440E+03  0.7546771E-02  0.1169220E+00
         21   -1    0    0  503  502  0.00000000000E+00  0.00000000000E+00  0.49558157368E+03  0.49558157368E+03  0.00000000000E+00 0.  1.
         21   -1    0    0  501  503 -0.00000000000E+00 -0.00000000000E+00 -0.12338552966E+03  0.12338552966E+03  0.00000000000E+00 0.  1.
          6    1    1    2  501    0  0.31676492714E+02  0.30749979145E+02 -0.28021627964E+02  0.18072955774E+03  0.17300000000E+03 0.  1.
         -6    1    1    2    0  502 -0.31676492714E+02 -0.30749979145E+02  0.40021767199E+03  0.43823754561E+03  0.17300000000E+03 0.  1.
<mgrwt>
<rscale>  2 0.17854400E+03</rscale>
<asrwt>0</asrwt>
<pdfrwt beam="1">  1       21 0.76243318E-01 0.17854400E+03</pdfrwt>
<pdfrwt beam="2">  1       21 0.18982389E-01 0.17854400E+03</pdfrwt>
<totfact> 0.39275230E+04</totfact>
</mgrwt>
</event>
<event>
 4    1  0.4102458E+000  0.1813740E+03  0.7546771E-02  0.1166480E+00
         21   -1    0    0  503  502  0.00000000000E+00  0.00000000000E+00  0.15111468571E+03  0.15111468571E+03  0.00000000000E+00 0. -1.
         21   -1    0    0  501  503 -0.00000000000E+00 -0.00000000000E+00 -0.25164107730E+03  0.25164107730E+03  0.00000000000E+00 0. -1.
          6    1    1    2  501    0  0.54369448591E+02  0.33901117564E+01 -0.12422916549E+03  0.21983952183E+03  0.17300000000E+03 0. -1.
         -6    1    1    2    0  502 -0.54369448591E+02 -0.33901117564E+01  0.23702773896E+02  0.18291624118E+03  0.17300000000E+03 0. -1.
<mgrwt>
<rscale>  2 0.18137401E+03</rscale>
<asrwt>0</asrwt>
<pdfrwt beam="1">  1       21 0.23248414E-01 0.18137401E+03</pdfrwt>
<pdfrwt beam="2">  1       21 0.38714011E-01 0.18137401E+03</pdfrwt>
<totfact> 0.11234077E+05</totfact>
</mgrwt>
</event>
<event>
 4    1  0.4102458E+000  0.1801914E+03  0.7546771E-02  0.1167618E+00
         21   -1    0    0  503  502  0.00000000000E+00  0.00000000000E+00  0.30305999655E+03  0.30305999655E+03  0.00000000000E+00 0. -1.
         21   -1    0    0  501  503 -0.00000000000E+00 -0.00000000000E+00 -0.42075127210E+03  0.42075127210E+03  0.00000000000E+00 0. -1.
          6    1    1    2  501    0 -0.41980400269E+01 -0.50222762546E+02 -0.37129562464E+03  0.41270981366E+03  0.17300000000E+03 0. -1.
         -6    1    1    2    0  502  0.41980400269E+01  0.50222762546E+02  0.25360434909E+03  0.31110145499E+03  0.17300000000E+03 0. -1.
<mgrwt>
<rscale>  2 0.18019142E+03</rscale>
<asrwt>0</asrwt>
<pdfrwt beam="1">  1       21 0.46624615E-01 0.18019142E+03</pdfrwt>
<pdfrwt beam="2">  1       21 0.64730965E-01 0.18019142E+03</pdfrwt>
<totfact> 0.97721971E+03</totfact>
</mgrwt>
</event>
<event>
 4    1  0.4102458E+000  0.1734457E+03  0.7546771E-02  0.1174301E+00
         21   -1    0    0  501  502  0.00000000000E+00  0.00000000000E+00  0.41575840253E+02  0.41575840253E+02  0.00000000000E+00 0. -1.
         21   -1    0    0  502  503 -0.00000000000E+00 -0.00000000000E+00 -0.72989095949E+03  0.72989095949E+03  0.00000000000E+00 0. -1.
          6    1    1    2  501    0  0.61305530627E+01  0.10809214011E+02 -0.30828803973E+03  0.35373003581E+03  0.17300000000E+03 0.  1.
         -6    1    1    2    0  503 -0.61305530627E+01 -0.10809214011E+02 -0.38002707950E+03  0.41773676394E+03  0.17300000000E+03 0.  1.
<mgrwt>
<rscale>  2 0.17344573E+03</rscale>
<asrwt>0</asrwt>
<pdfrwt beam="1">  1       21 0.63962834E-02 0.17344573E+03</pdfrwt>
<pdfrwt beam="2">  1       21 0.11229091E+00 0.17344573E+03</pdfrwt>
<totfact> 0.11065726E+05</totfact>
</mgrwt>
</event>
<event>
 4    1  0.4102458E+000  0.1762960E+03  0.7546771E-02  0.1171437E+00
         21   -1    0    0  501  502  0.00000000000E+00  0.00000000000E+00  0.12497356550E+04  0.12497356550E+04  0.00000000000E+00 0.  1.
         21   -1    0    0  502  503 -0.00000000000E+00 -0.00000000000E+00 -0.33192200235E+03  0.33192200235E+03  0.00000000000E+00 0.  1.
          6    1    1    2  501    0  0.23982549669E+02  0.24002354091E+02  0.12195321957E+04  0.12322090132E+04  0.17300000000E+03 0.  1.
         -6    1    1    2    0  503 -0.23982549669E+02 -0.24002354091E+02 -0.30171854308E+03  0.34944864419E+03  0.17300000000E+03 0.  1.
<mgrwt>
<rscale>  2 0.17629599E+03</rscale>
<asrwt>0</asrwt>
<pdfrwt beam="1">  1       21 0.19226702E+00 0.17629599E+03</pdfrwt>
<pdfrwt beam="2">  1       21 0.51064924E-01 0.17629599E+03</pdfrwt>
<totfact> 0.56082062E+02</totfact>
</mgrwt>
</event>
<event>
 4    1  0.4102458E+000  0.2468234E+03  0.7546771E-02  0.1115329E+00
         21   -1    0    0  501  502  0.00000000000E+00  0.00000000000E+00  0.15626538240E+03  0.15626538240E+03  0.00000000000E+00 0.  1.
         21   -1    0    0  502  503 -0.00000000000E+00 -0.00000000000E+00 -0.98539117291E+03  0.98539117291E+03  0.00000000000E+00 0.  1.
          6    1    1    2  501    0 -0.21926627243E+02 -0.17467683136E+03  0.29202102487E+02  0.24854483537E+03  0.17300000000E+03 0.  1.
         -6    1    1    2    0  503  0.21926627243E+02  0.17467683136E+03 -0.85832789299E+03  0.89311171994E+03  0.17300000000E+03 0.  1.
<mgrwt>
<rscale>  2 0.24682336E+03</rscale>
<asrwt>0</asrwt>
<pdfrwt beam="1">  1       21 0.24040828E-01 0.24682336E+03</pdfrwt>
<pdfrwt beam="2">  1       21 0.15159864E+00 0.24682336E+03</pdfrwt>
<totfact> 0.45484080E+03</totfact>
</mgrwt>
</event>
<event>
 4    1  0.4102458E+000  0.1998889E+03  0.7546771E-02  0.1149833E+00
         21   -1    0    0  501  502  0.00000000000E+00  0.00000000000E+00  0.30286216975E+03  0.30286216975E+03  0.00000000000E+00 0.  1.
         21   -1    0    0  502  503 -0.00000000000E+00 -0.00000000000E+00 -0.18871702380E+03  0.18871702380E+03  0.00000000000E+00 0. -1.
          6    1    1    2  501    0 -0.40727929695E+02 -0.91475617528E+02  0.19190545226E+03  0.27709791675E+03  0.17300000000E+03 0.  1.
         -6    1    1    2    0  503  0.40727929695E+02  0.91475617528E+02 -0.77760306309E+02  0.21448127680E+03  0.17300000000E+03 0. -1.
<mgrwt>
<rscale>  2 0.19988885E+03</rscale>
<asrwt>0</asrwt>
<pdfrwt beam="1">  1       21 0.46594180E-01 0.19988885E+03</pdfrwt>
<pdfrwt beam="2">  1       21 0.29033388E-01 0.19988885E+03</pdfrwt>
<totfact> 0.49919002E+04</totfact>
</mgrwt>
</event>
<event>
 4    1  0.4102458E+000  0.1888676E+03  0.7546771E-02  0.1159487E+00
         21   -1    0    0  501  502  0.00000000000E+00  0.00000000000E+00  0.22618951479E+02  0.22618951479E+02  0.00000000000E+00 0. -1.
         21   -1    0    0  502  503 -0.00000000000E+00 -0.00000000000E+00 -0.18607029186E+04  0.18607029186E+04  0.00000000000E+00 0.  1.
          6    1    1    2  501    0 -0.46582248742E+02  0.59766663525E+02 -0.55137182996E+03  0.58282231842E+03  0.17300000000E+03 0. -1.
         -6    1    1    2    0  503  0.46582248742E+02 -0.59766663525E+02 -0.12867121371E+04  0.13004995516E+04  0.17300000000E+03 0.  1.
<mgrwt>
<rscale>  2 0.18886757E+03</rscale>
<asrwt>0</asrwt>
<pdfrwt beam="1">  1       21 0.34798378E-02 0.18886757E+03</pdfrwt>
<pdfrwt beam="2">  1       21 0.28626206E+00 0.18886757E+03</pdfrwt>
<totfact> 0.20328753E+04</totfact>
</mgrwt>
</event>
<event>
 4    1  0.4102458E+000  0.1830110E+03  0.7546771E-02  0.1164920E+00
         21   -1    0    0  501  502  0.00000000000E+00  0.00000000000E+00  0.19150332798E+03  0.19150332798E+03  0.00000000000E+00 0.  1.
         21   -1    0    0  502  503 -0.00000000000E+00 -0.00000000000E+00 -0.25088808259E+03  0.25088808259E+03  0.00000000000E+00 0.  1.
          6    1    1    2  501    0 -0.51172842395E+02 -0.30746631109E+02  0.92044764128E+02  0.20485422555E+03  0.17300000000E+03 0. -1.
         -6    1    1    2    0  503  0.51172842395E+02  0.30746631109E+02 -0.15142951873E+03  0.23753718502E+03  0.17300000000E+03 0. -1.
<mgrwt>
<rscale>  2 0.18301097E+03</rscale>
<asrwt>0</asrwt>
<pdfrwt beam="1">  1       21 0.29462051E-01 0.18301097E+03</pdfrwt>
<pdfrwt beam="2">  1       21 0.38598166E-01 0.18301097E+03</pdfrwt>
<totfact> 0.71733802E+04</totfact>
</mgrwt>
</event>
<event>
 4    1  0.4102458E+000  0.1882056E+03  0.7546771E-02  0.1160090E+00
         21   -1    0    0  501  502  0.00000000000E+00  0.00000000000E+00  0.28646749146E+03  0.28646749146E+03  0.00000000000E+00 0. -1.
         21   -1    0    0  502  503 -0.00000000000E+00 -0.00000000000E+00 -0.46191961777E+03  0.46191961777E+03  0.00000000000E+00 0. -1.
          6    1    1    2  501    0 -0.55679250179E+02  0.48909648969E+02  0.23249170808E+03  0.29912159232E+03  0.17300000000E+03 0. -1.
         -6    1    1    2    0  503  0.55679250179E+02 -0.48909648969E+02 -0.40794383439E+03  0.44926551691E+03  0.17300000000E+03 0. -1.
<mgrwt>
<rscale>  2 0.18820556E+03</rscale>
<asrwt>0</asrwt>
<pdfrwt beam="1">  1       21 0.44071923E-01 0.18820556E+03</pdfrwt>
<pdfrwt beam="2">  1       21 0.71064555E-01 0.18820556E+03</pdfrwt>
<totfact> 0.88912031E+03</totfact>
</mgrwt>
</event>
<event>
 4    1  0.4102458E+000  0.1759087E+03  0.7546771E-02  0.1171822E+00
         21   -1    0    0  503  502  0.00000000000E+00  0.00000000000E+00  0.21642381112E+03  0.21642381112E+03  0.00000000000E+00 0. -1.
         21   -1    0    0  501  503 -0.00000000000E+00 -0.00000000000E+00 -0.22109310900E+03  0.22109310900E+03  0.00000000000E+00 0.  1.
          6    1    1    2  501    0 -0.78878383453E+01  0.30864842443E+02 -0.13236496284E+03  0.22014617844E+03  0.17300000000E+03 0.  1.
         -6    1    1    2    0  502  0.78878383453E+01 -0.30864842443E+02  0.12769566496E+03  0.21737074169E+03  0.17300000000E+03 0. -1.
<mgrwt>
<rscale>  2 0.17590866E+03</rscale>
<asrwt>0</asrwt>
<pdfrwt beam="1">  1       21 0.33295971E-01 0.17590866E+03</pdfrwt>
<pdfrwt beam="2">  1       21 0.34014324E-01 0.17590866E+03</pdfrwt>
<totfact> 0.72849296E+04</totfact>
</mgrwt>
</event>
<event>
 4    1  0.4102458E+000  0.2867256E+03  0.7546771E-02  0.1092071E+00
         21   -1    0    0  503  502  0.00000000000E+00  0.00000000000E+00  0.10626301158E+03  0.10626301158E+03  0.00000000000E+00 0. -1.
         21   -1    0    0  501  503 -0.00000000000E+00 -0.00000000000E+00 -0.97564418881E+03  0.97564418881E+03  0.00000000000E+00 0.  1.
          6    1    1    2  501    0 -0.22863910218E+03  0.25927489209E+01 -0.68082467334E+03  0.73873797603E+03  0.17300000000E+03 0.  1.
         -6    1    1    2    0  502  0.22863910218E+03 -0.25927489209E+01 -0.18855650389E+03  0.34316922436E+03  0.17300000000E+03 0. -1.
<mgrwt>
<rscale>  2 0.28672559E+03</rscale>
<asrwt>0</asrwt>
<pdfrwt beam="1">  1       21 0.16348155E-01 0.28672559E+03</pdfrwt>
<pdfrwt beam="2">  1       21 0.15009911E+00 0.28672559E+03</pdfrwt>
<totfact> 0.94174739E+03</totfact>
</mgrwt>
</event>
<event>
 4    1  0.4102458E+000  0.2121597E+03  0.7546771E-02  0.1139867E+00
         21   -1    0    0  503  502  0.00000000000E+00  0.00000000000E+00  0.31659377136E+03  0.31659377136E+03  0.00000000000E+00 0.  1.
         21   -1    0    0  501  503 -0.00000000000E+00 -0.00000000000E+00 -0.20688906795E+03  0.20688906795E+03  0.00000000000E+00 0.  1.
          6    1    1    2  501    0  0.23230811265E+02  0.12059458539E+03 -0.91534805692E+02  0.23106350917E+03  0.17300000000E+03 0.  1.
         -6    1    1    2    0  502 -0.23230811265E+02 -0.12059458539E+03  0.20123950910E+03  0.29241933014E+03  0.17300000000E+03 0.  1.
<mgrwt>
<rscale>  2 0.21215967E+03</rscale>
<asrwt>0</asrwt>
<pdfrwt beam="1">  1       21 0.48706734E-01 0.21215967E+03</pdfrwt>
<pdfrwt beam="2">  1       21 0.31829087E-01 0.21215967E+03</pdfrwt>
<totfact> 0.37812148E+04</totfact>
</mgrwt>
</event>
<event>
 4    1  0.4102458E+000  0.2343813E+03  0.7546771E-02  0.1123593E+00
         21   -1    0    0  501  502  0.00000000000E+00  0.00000000000E+00  0.29107148998E+03  0.29107148998E+03  0.00000000000E+00 0.  1.
         21   -1    0    0  502  503 -0.00000000000E+00 -0.00000000000E+00 -0.46631962242E+03  0.46631962242E+03  0.00000000000E+00 0.  1.
          6    1    1    2  501    0  0.75902643501E+02  0.13872414482E+03  0.20455436728E+03  0.31109016188E+03  0.17300000000E+03 0.  1.
         -6    1    1    2    0  503 -0.75902643501E+02 -0.13872414482E+03 -0.37980249971E+03  0.44630095052E+03  0.17300000000E+03 0.  1.
<mgrwt>
<rscale>  2 0.23438131E+03</rscale>
<asrwt>0</asrwt>
<pdfrwt beam="1">  1       21 0.44780230E-01 0.23438131E+03</pdfrwt>
<pdfrwt beam="2">  1       21 0.71741480E-01 0.23438131E+03</pdfrwt>
<totfact> 0.81679965E+03</totfact>
</mgrwt>
</event>
<event>
 4    1  0.4102458E+000  0.2277837E+03  0.7546771E-02  0.1128209E+00
         21   -1    0    0  501  502  0.00000000000E+00  0.00000000000E+00  0.19342638531E+03  0.19342638531E+03  0.00000000000E+00 0.  1.
         21   -1    0    0  502  503 -0.00000000000E+00 -0.00000000000E+00 -0.28996449701E+03  0.28996449701E+03  0.00000000000E+00 0. -1.
          6    1    1    2  501    0  0.14508629641E+03 -0.30106050165E+02  0.17881577616E+02  0.22848448192E+03  0.17300000000E+03 0.  1.
         -6    1    1    2    0  503 -0.14508629641E+03  0.30106050165E+02 -0.11441968932E+03  0.25490640040E+03  0.17300000000E+03 0. -1.
<mgrwt>
<rscale>  2 0.22778369E+03</rscale>
<asrwt>0</asrwt>
<pdfrwt beam="1">  1       21 0.29757905E-01 0.22778369E+03</pdfrwt>
<pdfrwt beam="2">  1       21 0.44609923E-01 0.22778369E+03</pdfrwt>
<totfact> 0.51382120E+04</totfact>
</mgrwt>
</event>
<event>
 4    1  0.4102458E+000  0.2346529E+03  0.7546771E-02  0.1123407E+00
         21   -1    0    0  501  502  0.00000000000E+00  0.00000000000E+00  0.39868371758E+02  0.39868371758E+02  0.00000000000E+00 0. -1.
         21   -1    0    0  502  503 -0.00000000000E+00 -0.00000000000E+00 -0.13843121354E+04  0.13843121354E+04  0.00000000000E+00 0. -1.
          6    1    1    2  501    0 -0.15330234451E+03  0.40390245592E+02 -0.63788978679E+03  0.67968033727E+03  0.17300000000E+03 0. -1.
         -6    1    1    2    0  503  0.15330234451E+03 -0.40390245592E+02 -0.70655397685E+03  0.74450016990E+03  0.17300000000E+03 0. -1.
<mgrwt>
<rscale>  2 0.23465289E+03</rscale>
<asrwt>0</asrwt>
<pdfrwt beam="1">  1       21 0.61335969E-02 0.23465289E+03</pdfrwt>
<pdfrwt beam="2">  1       21 0.21297105E+00 0.23465289E+03</pdfrwt>
<totfact> 0.20470611E+04</totfact>
</mgrwt>
</event>
<event>
 4    1  0.4102458E+000  0.2248040E+03  0.7546771E-02  0.1130351E+00
         21   -1    0    0  503  502  0.00000000000E+00  0.00000000000E+00  0.15414098176E+04  0.15414098176E+04  0.00000000000E+00 0.  1.
         21   -1    0    0  501  503 -0.00000000000E+00 -0.00000000000E+00 -0.55435625985E+02  0.55435625985E+02  0.00000000000E+00 0.  1.
          6    1    1    2  501    0  0.47790185546E+02  0.13536591320E+03  0.23263738881E+03  0.32350732135E+03  0.17300000000E+03 0.  1.
         -6    1    1    2    0  502 -0.47790185546E+02 -0.13536591320E+03  0.12533368028E+04  0.12733381222E+04  0.17300000000E+03 0.  1.
<mgrwt>
<rscale>  2 0.22480399E+03</rscale>
<asrwt>0</asrwt>
<pdfrwt beam="1">  1       21 0.23713994E+00 0.22480399E+03</pdfrwt>
<pdfrwt beam="2">  1       21 0.85285590E-02 0.22480399E+03</pdfrwt>
<totfact> 0.82629914E+03</totfact>
</mgrwt>
</event>
<event>
 4    1  0.4102458E+000  0.2670635E+03  0.7546771E-02  0.1102972E+00
         21   -1    0    0  503  502  0.00000000000E+00  0.00000000000E+00  0.15359506561E+03  0.15359506561E+03  0.00000000000E+00 0. -1.
         21   -1    0    0  501  503 -0.00000000000E+00 -0.00000000000E+00 -0.46803436223E+03  0.46803436223E+03  0.00000000000E+00 0. -1.
          6    1    1    2  501    0 -0.18970478668E+03  0.73525680518E+02 -0.18477053346E+03  0.32475079957E+03  0.17300000000E+03 0. -1.
         -6    1    1    2    0  502  0.18970478668E+03 -0.73525680518E+02 -0.12966876315E+03  0.29687862827E+03  0.17300000000E+03 0. -1.
<mgrwt>
<rscale>  2 0.26706354E+03</rscale>
<asrwt>0</asrwt>
<pdfrwt beam="1">  1       21 0.23630010E-01 0.26706354E+03</pdfrwt>
<pdfrwt beam="2">  1       21 0.72005286E-01 0.26706354E+03</pdfrwt>
<totfact> 0.28292715E+04</totfact>
</mgrwt>
</event>
<event>
 4    1  0.4102458E+000  0.2105354E+03  0.7546771E-02  0.1141143E+00
         21   -1    0    0  503  502  0.00000000000E+00  0.00000000000E+00  0.69375254351E+02  0.69375254351E+02  0.00000000000E+00 0.  1.
         21   -1    0    0  501  503 -0.00000000000E+00 -0.00000000000E+00 -0.74206594782E+03  0.74206594782E+03  0.00000000000E+00 0. -1.
          6    1    1    2  501    0  0.30157314116E+02  0.11613221150E+03 -0.48760894392E+03  0.53111922987E+03  0.17300000000E+03 0.  1.
         -6    1    1    2    0  502 -0.30157314116E+02 -0.11613221150E+03 -0.18508174955E+03  0.28032197231E+03  0.17300000000E+03 0.  1.
<mgrwt>
<rscale>  2 0.21053540E+03</rscale>
<asrwt>0</asrwt>
<pdfrwt beam="1">  1       21 0.10673116E-01 0.21053540E+03</pdfrwt>
<pdfrwt beam="2">  1       21 0.11416399E+00 0.21053540E+03</pdfrwt>
<totfact> 0.42737343E+04</totfact>
</mgrwt>
</event>
<event>
 4    1  0.4102458E+000  0.2003060E+03  0.7546771E-02  0.1149481E+00
         21   -1    0    0  503  502  0.00000000000E+00  0.00000000000E+00  0.16653821116E+02  0.16653821116E+02  0.00000000000E+00 0. -1.
         21   -1    0    0  501  503 -0.00000000000E+00 -0.00000000000E+00 -0.24714624770E+04  0.24714624770E+04  0.00000000000E+00 0.  1.
          6    1    1    2  501    0  0.98301896694E+02 -0.23026355451E+02 -0.14248547179E+04  0.14388653318E+04  0.17300000000E+03 0.  1.
         -6    1    1    2    0  502 -0.98301896694E+02  0.23026355451E+02 -0.10299539379E+04  0.10492509662E+04  0.17300000000E+03 0.  1.
<mgrwt>
<rscale>  2 0.20030596E+03</rscale>
<asrwt>0</asrwt>
<pdfrwt beam="1">  1       21 0.25621264E-02 0.20030596E+03</pdfrwt>
<pdfrwt beam="2">  1       21 0.38022499E+00 0.20030596E+03</pdfrwt>
<totfact> 0.93730605E+03</totfact>
</mgrwt>
</event>
<event>
 4    1  0.4102458E+000  0.3395442E+03  0.7546771E-02  0.1066990E+00
         21   -1    0    0  503  502  0.00000000000E+00  0.00000000000E+00  0.37247529715E+03  0.37247529715E+03  0.00000000000E+00 0.  1.
         21   -1    0    0  501  503 -0.00000000000E+00 -0.00000000000E+00 -0.31079340263E+03  0.31079340263E+03  0.00000000000E+00 0. -1.
          6    1    1    2  501    0  0.74893855518E+02 -0.28240425360E+03  0.90121549651E+01  0.33966376165E+03  0.17300000000E+03 0.  1.
         -6    1    1    2    0  502 -0.74893855518E+02  0.28240425360E+03  0.52669739549E+02  0.34360493813E+03  0.17300000000E+03 0. -1.
<mgrwt>
<rscale>  2 0.33954418E+03</rscale>
<asrwt>0</asrwt>
<pdfrwt beam="1">  1       21 0.57303892E-01 0.33954418E+03</pdfrwt>
<pdfrwt beam="2">  1       21 0.47814370E-01 0.33954418E+03</pdfrwt>
<totfact> 0.11085385E+04</totfact>
</mgrwt>
</event>
<event>
 4    1  0.4102458E+000  0.1799591E+03  0.7546771E-02  0.1167843E+00
         21   -1    0    0  501  502  0.00000000000E+00  0.00000000000E+00  0.45150405253E+02  0.45150405253E+02  0.00000000000E+00 0.  1.
         21   -1    0    0  502  503 -0.00000000000E+00 -0.00000000000E+00 -0.99696816772E+03  0.99696816772E+03  0.00000000000E+00 0.  1.
          6    1    1    2  501    0 -0.49458899292E+02 -0.31791485949E+01 -0.19992300349E+03  0.26898791242E+03  0.17300000000E+03 0.  1.
         -6    1    1    2    0  503  0.49458899292E+02  0.31791485949E+01 -0.75189475898E+03  0.77313066055E+03  0.17300000000E+03 0.  1.
<mgrwt>
<rscale>  2 0.17995913E+03</rscale>
<asrwt>0</asrwt>
<pdfrwt beam="1">  1       21 0.69462159E-02 0.17995913E+03</pdfrwt>
<pdfrwt beam="2">  1       21 0.15337972E+00 0.17995913E+03</pdfrwt>
<totfact> 0.43524095E+04</totfact>
</mgrwt>
</event>
<event>
 4    1  0.4102458E+000  0.3677285E+03  0.7546771E-02  0.1055565E+00
         21   -1    0    0  503  502  0.00000000000E+00  0.00000000000E+00  0.42682849856E+03  0.42682849856E+03  0.00000000000E+00 0.  1.
         21   -1    0    0  501  503 -0.00000000000E+00 -0.00000000000E+00 -0.51224685139E+03  0.51224685139E+03  0.00000000000E+00 0.  1.
          6    1    1    2  501    0  0.16839956892E+03  0.27737496151E+03 -0.33273193509E+03  0.49591816332E+03  0.17300000000E+03 0.  1.
         -6    1    1    2    0  502 -0.16839956892E+03 -0.27737496151E+03  0.24731358226E+03  0.44315718662E+03  0.17300000000E+03 0.  1.
<mgrwt>
<rscale>  2 0.36772855E+03</rscale>
<asrwt>0</asrwt>
<pdfrwt beam="1">  1       21 0.65665924E-01 0.36772855E+03</pdfrwt>
<pdfrwt beam="2">  1       21 0.78807207E-01 0.36772855E+03</pdfrwt>
<totfact> 0.27221778E+03</totfact>
</mgrwt>
</event>
<event>
 4    1  0.4102458E+000  0.2767887E+03  0.7546771E-02  0.1097456E+00
         21   -1    0    0  501  502  0.00000000000E+00  0.00000000000E+00  0.16145505529E+04  0.16145505529E+04  0.00000000000E+00 0. -1.
         21   -1    0    0  502  503 -0.00000000000E+00 -0.00000000000E+00 -0.22722670306E+03  0.22722670306E+03  0.00000000000E+00 0.  1.
          6    1    1    2  501    0  0.20661281831E+03  0.63199306503E+02  0.15127732795E+04  0.15378865381E+04  0.17300000000E+03 0.  1.
         -6    1    1    2    0  503 -0.20661281831E+03 -0.63199306503E+02 -0.12544942958E+03  0.30389071788E+03  0.17300000000E+03 0. -1.
<mgrwt>
<rscale>  2 0.27678874E+03</rscale>
<asrwt>0</asrwt>
<pdfrwt beam="1">  1       21 0.24839239E+00 0.27678874E+03</pdfrwt>
<pdfrwt beam="2">  1       21 0.34957955E-01 0.27678874E+03</pdfrwt>
<totfact> 0.48867559E+02</totfact>
</mgrwt>
</event>
<event>
 4    1  0.4102458E+000  0.1780255E+03  0.7546771E-02  0.1169728E+00
         21   -1    0    0  501  502  0.00000000000E+00  0.00000000000E+00  0.13103988899E+03  0.13103988899E+03  0.00000000000E+00 0. -1.
         21   -1    0    0  502  503 -0.00000000000E+00 -0.00000000000E+00 -0.24270762814E+03  0.24270762814E+03  0.00000000000E+00 0. -1.
          6    1    1    2  501    0 -0.41997844380E+02  0.51039737365E+00 -0.44778970222E+02  0.18357079183E+03  0.17300000000E+03 0.  1.
         -6    1    1    2    0  503  0.41997844380E+02 -0.51039737365E+00 -0.66888768922E+02  0.19017672530E+03  0.17300000000E+03 0.  1.
<mgrwt>
<rscale>  2 0.17802550E+03</rscale>
<asrwt>0</asrwt>
<pdfrwt beam="1">  1       21 0.20159983E-01 0.17802550E+03</pdfrwt>
<pdfrwt beam="2">  1       21 0.37339635E-01 0.17802550E+03</pdfrwt>
<totfact> 0.15804122E+05</totfact>
</mgrwt>
</event>
<event>
 4    1  0.4102458E+000  0.2021760E+03  0.7546771E-02  0.1147916E+00
         21   -1    0    0  501  502  0.00000000000E+00  0.00000000000E+00  0.32754786349E+03  0.32754786349E+03  0.00000000000E+00 0.  1.
         21   -1    0    0  502  503 -0.00000000000E+00 -0.00000000000E+00 -0.11359360590E+04  0.11359360590E+04  0.00000000000E+00 0.  1.
          6    1    1    2  501    0  0.10095160268E+03  0.27475547648E+02  0.28618507210E+03  0.35039552979E+03  0.17300000000E+03 0.  1.
         -6    1    1    2    0  503 -0.10095160268E+03 -0.27475547648E+02 -0.10945732676E+04  0.11130883927E+04  0.17300000000E+03 0.  1.
<mgrwt>
<rscale>  2 0.20217599E+03</rscale>
<asrwt>0</asrwt>
<pdfrwt beam="1">  1       21 0.50391980E-01 0.20217599E+03</pdfrwt>
<pdfrwt beam="2">  1       21 0.17475939E+00 0.20217599E+03</pdfrwt>
<totfact> 0.73328250E+02</totfact>
</mgrwt>
</event>
<event>
 4    1  0.4102458E+000  0.1847199E+03  0.7546771E-02  0.1163312E+00
         21   -1    0    0  501  502  0.00000000000E+00  0.00000000000E+00  0.15506458881E+02  0.15506458881E+02  0.00000000000E+00 0.  1.
         21   -1    0    0  502  503 -0.00000000000E+00 -0.00000000000E+00 -0.26020603416E+04  0.26020603416E+04  0.00000000000E+00 0.  1.
          6    1    1    2  501    0  0.28715962179E+02 -0.58033080555E+02 -0.77911188018E+03  0.80071016402E+03  0.17300000000E+03 0. -1.
         -6    1    1    2    0  503 -0.28715962179E+02  0.58033080555E+02 -0.18074420026E+04  0.18168566365E+04  0.17300000000E+03 0. -1.
<mgrwt>
<rscale>  2 0.18471991E+03</rscale>
<asrwt>0</asrwt>
<pdfrwt beam="1">  1       21 0.23856076E-02 0.18471991E+03</pdfrwt>
<pdfrwt beam="2">  1       21 0.40031722E+00 0.18471991E+03</pdfrwt>
<totfact> 0.80899108E+03</totfact>
</mgrwt>
</event>
<event>
 4    1  0.4102458E+000  0.2922551E+03  0.7546771E-02  0.1089178E+00
         21   -1    0    0  503  502  0.00000000000E+00  0.00000000000E+00  0.13954370655E+04  0.13954370655E+04  0.00000000000E+00 0. -1.
         21   -1    0    0  501  503 -0.00000000000E+00 -0.00000000000E+00 -0.97001233704E+02  0.97001233704E+02  0.00000000000E+00 0. -1.
          6    1    1    2  501    0 -0.13019736115E+03  0.19629748302E+03  0.19593091945E+03  0.35185505523E+03  0.17300000000E+03 0. -1.
         -6    1    1    2    0  502  0.13019736115E+03 -0.19629748302E+03  0.11025049123E+04  0.11405832439E+04  0.17300000000E+03 0. -1.
<mgrwt>
<rscale>  2 0.29225512E+03</rscale>
<asrwt>0</asrwt>
<pdfrwt beam="1">  1       21 0.21468261E+00 0.29225512E+03</pdfrwt>
<pdfrwt beam="2">  1       21 0.14923268E-01 0.29225512E+03</pdfrwt>
<totfact> 0.39653216E+03</totfact>
</mgrwt>
</event>
<event>
 4    1  0.4102458E+000  0.4893553E+03  0.7546771E-02  0.1016595E+00
         21   -1    0    0  503  502  0.00000000000E+00  0.00000000000E+00  0.14288391487E+04  0.14288391487E+04  0.00000000000E+00 0. -1.
         21   -1    0    0  501  503 -0.00000000000E+00 -0.00000000000E+00 -0.58254586072E+03  0.58254586072E+03  0.00000000000E+00 0.  1.
          6    1    1    2  501    0  0.18936353132E+03 -0.41675057618E+03 -0.42563826276E+03  0.64856497012E+03  0.17300000000E+03 0.  1.
         -6    1    1    2    0  502 -0.18936353132E+03  0.41675057618E+03  0.12719315508E+04  0.13628200393E+04  0.17300000000E+03 0. -1.
<mgrwt>
<rscale>  2 0.48935528E+03</rscale>
<asrwt>0</asrwt>
<pdfrwt beam="1">  1       21 0.21982141E+00 0.48935528E+03</pdfrwt>
<pdfrwt beam="2">  1       21 0.89622441E-01 0.48935528E+03</pdfrwt>
<totfact> 0.82541327E+01</totfact>
</mgrwt>
</event>
<event>
 4    1  0.4102458E+000  0.1744590E+03  0.7546771E-02  0.1173276E+00
         21   -1    0    0  503  502  0.00000000000E+00  0.00000000000E+00  0.78724536351E+02  0.78724536351E+02  0.00000000000E+00 0. -1.
         21   -1    0    0  501  503 -0.00000000000E+00 -0.00000000000E+00 -0.46304399116E+03  0.46304399116E+03  0.00000000000E+00 0.  1.
          6    1    1    2  501    0 -0.54122755281E+00 -0.22509050560E+02 -0.30221393068E+03  0.34895445287E+03  0.17300000000E+03 0.  1.
         -6    1    1    2    0  502  0.54122755281E+00  0.22509050560E+02 -0.82105524127E+02  0.19281407463E+03  0.17300000000E+03 0. -1.
<mgrwt>
<rscale>  2 0.17445902E+03</rscale>
<asrwt>0</asrwt>
<pdfrwt beam="1">  1       21 0.12111467E-01 0.17445902E+03</pdfrwt>
<pdfrwt beam="2">  1       21 0.71237536E-01 0.17445902E+03</pdfrwt>
<totfact> 0.10361762E+05</totfact>
</mgrwt>
</event>
<event>
 4    1  0.4102458E+000  0.1821884E+03  0.7546771E-02  0.1165702E+00
         21   -1    0    0  503  502  0.00000000000E+00  0.00000000000E+00  0.21242998576E+03  0.21242998576E+03  0.00000000000E+00 0. -1.
         21   -1    0    0  501  503 -0.00000000000E+00 -0.00000000000E+00 -0.15728497771E+03  0.15728497771E+03  0.00000000000E+00 0. -1.
          6    1    1    2  501    0  0.22768592251E+02 -0.52394613528E+02  0.12591371690E+02  0.18262296395E+03  0.17300000000E+03 0. -1.
         -6    1    1    2    0  502 -0.22768592251E+02  0.52394613528E+02  0.42553636353E+02  0.18709199953E+03  0.17300000000E+03 0. -1.
<mgrwt>
<rscale>  2 0.18218838E+03</rscale>
<asrwt>0</asrwt>
<pdfrwt beam="1">  1       21 0.32681536E-01 0.18218838E+03</pdfrwt>
<pdfrwt beam="2">  1       21 0.24197689E-01 0.18218838E+03</pdfrwt>
<totfact> 0.14573620E+05</totfact>
</mgrwt>
</event>
<event>
 4    1  0.4102458E+000  0.2036610E+03  0.7546771E-02  0.1146686E+00
         21   -1    0    0  501  502  0.00000000000E+00  0.00000000000E+00  0.30794639097E+03  0.30794639097E+03  0.00000000000E+00 0.  1.
         21   -1    0    0  502  503 -0.00000000000E+00 -0.00000000000E+00 -0.14606476432E+03  0.14606476432E+03  0.00000000000E+00 0. -1.
          6    1    1    2  501    0 -0.10515174362E+03 -0.22179079313E+02  0.14428458497E+03  0.24959135042E+03  0.17300000000E+03 0.  1.
         -6    1    1    2    0  503  0.10515174362E+03  0.22179079313E+02  0.17597041684E+02  0.20441980487E+03  0.17300000000E+03 0.  1.
<mgrwt>
<rscale>  2 0.20366099E+03</rscale>
<asrwt>0</asrwt>
<pdfrwt beam="1">  1       21 0.47376368E-01 0.20366099E+03</pdfrwt>
<pdfrwt beam="2">  1       21 0.22471502E-01 0.20366099E+03</pdfrwt>
<totfact> 0.78662608E+04</totfact>
</mgrwt>
</event>
<event>
 4    1  0.4102458E+000  0.1837297E+03  0.7546771E-02  0.1164241E+00
         21   -1    0    0  501  502  0.00000000000E+00  0.00000000000E+00  0.35337469201E+03  0.35337469201E+03  0.00000000000E+00 0. -1.
         21   -1    0    0  502  503 -0.00000000000E+00 -0.00000000000E+00 -0.10597284594E+03  0.10597284594E+03  0.00000000000E+00 0. -1.
          6    1    1    2  501    0 -0.28683626429E+02  0.54816632995E+02  0.19581138719E+03  0.26851203517E+03  0.17300000000E+03 0. -1.
         -6    1    1    2    0  503  0.28683626429E+02 -0.54816632995E+02  0.51590458885E+02  0.19083550279E+03  0.17300000000E+03 0. -1.
<mgrwt>
<rscale>  2 0.18372973E+03</rscale>
<asrwt>0</asrwt>
<pdfrwt beam="1">  1       21 0.54365337E-01 0.18372973E+03</pdfrwt>
<pdfrwt beam="2">  1       21 0.16303515E-01 0.18372973E+03</pdfrwt>
<totfact> 0.10804433E+05</totfact>
</mgrwt>
</event>
<event>
 4    1  0.4102458E+000  0.1879746E+03  0.7546771E-02  0.1160301E+00
         21   -1    0    0  501  502  0.00000000000E+00  0.00000000000E+00  0.65667582984E+03  0.65667582984E+03  0.00000000000E+00 0.  1.
         21   -1    0    0  502  503 -0.00000000000E+00 -0.00000000000E+00 -0.20708722069E+03  0.20708722069E+03  0.00000000000E+00 0.  1.
          6    1    1    2  501    0 -0.59138047352E+02 -0.43682245949E+02  0.59635480985E+03  0.62527874303E+03  0.17300000000E+03 0.  1.
         -6    1    1    2    0  503  0.59138047352E+02  0.43682245949E+02 -0.14676620070E+03  0.23848430750E+03  0.17300000000E+03 0.  1.
<mgrwt>
<rscale>  2 0.18797459E+03</rscale>
<asrwt>0</asrwt>
<pdfrwt beam="1">  1       21 0.10102705E+00 0.18797459E+03</pdfrwt>
<pdfrwt beam="2">  1       21 0.31859573E-01 0.18797459E+03</pdfrwt>
<totfact> 0.76171464E+03</totfact>
</mgrwt>
</event>
<event>
 4    1  0.4102458E+000  0.1990535E+03  0.7546771E-02  0.1150540E+00
         21   -1    0    0  503  502  0.00000000000E+00  0.00000000000E+00  0.72353768891E+02  0.72353768891E+02  0.00000000000E+00 0.  1.
         21   -1    0    0  501  503 -0.00000000000E+00 -0.00000000000E+00 -0.61348941999E+03  0.61348941999E+03  0.00000000000E+00 0. -1.
          6    1    1    2  501    0  0.70249907193E+02 -0.68980178892E+02 -0.38293404881E+03  0.43157942522E+03  0.17300000000E+03 0.  1.
         -6    1    1    2    0  502 -0.70249907193E+02  0.68980178892E+02 -0.15820160229E+03  0.25426376365E+03  0.17300000000E+03 0.  1.
<mgrwt>
<rscale>  2 0.19905355E+03</rscale>
<asrwt>0</asrwt>
<pdfrwt beam="1">  1       21 0.11131348E-01 0.19905355E+03</pdfrwt>
<pdfrwt beam="2">  1       21 0.94382993E-01 0.19905355E+03</pdfrwt>
<totfact> 0.62919548E+04</totfact>
</mgrwt>
</event>
<event>
 4    1  0.4102458E+000  0.1850027E+03  0.7546771E-02  0.1163047E+00
         21   -1    0    0  503  502  0.00000000000E+00  0.00000000000E+00  0.33269032069E+03  0.33269032069E+03  0.00000000000E+00 0.  1.
         21   -1    0    0  501  503 -0.00000000000E+00 -0.00000000000E+00 -0.20675954170E+03  0.20675954170E+03  0.00000000000E+00 0. -1.
          6    1    1    2  501    0 -0.30096585156E+01  0.65482331489E+02 -0.12822267535E+03  0.22509342117E+03  0.17300000000E+03 0. -1.
         -6    1    1    2    0  502  0.30096585156E+01 -0.65482331489E+02  0.25415345434E+03  0.31435644122E+03  0.17300000000E+03 0.  1.
<mgrwt>
<rscale>  2 0.18500269E+03</rscale>
<asrwt>0</asrwt>
<pdfrwt beam="1">  1       21 0.51183126E-01 0.18500269E+03</pdfrwt>
<pdfrwt beam="2">  1       21 0.31809160E-01 0.18500269E+03</pdfrwt>
<totfact> 0.34621686E+04</totfact>
</mgrwt>
</event>
<event>
 4    1  0.4102458E+000  0.2248408E+03  0.7546771E-02  0.1130325E+00
         21   -1    0    0  501  502  0.00000000000E+00  0.00000000000E+00  0.20329123210E+03  0.20329123210E+03  0.00000000000E+00 0. -1.
         21   -1    0    0  502  503 -0.00000000000E+00 -0.00000000000E+00 -0.26469833686E+03  0.26469833686E+03  0.00000000000E+00 0. -1.
          6    1    1    2  501    0  0.85786870865E+02  0.11517372993E+03  0.26868517436E+02  0.22644048337E+03  0.17300000000E+03 0. -1.
         -6    1    1    2    0  503 -0.85786870865E+02 -0.11517372993E+03 -0.88275622193E+02  0.24154908560E+03  0.17300000000E+03 0. -1.
<mgrwt>
<rscale>  2 0.22484078E+03</rscale>
<asrwt>0</asrwt>
<pdfrwt beam="1">  1       21 0.31275574E-01 0.22484078E+03</pdfrwt>
<pdfrwt beam="2">  1       21 0.40722821E-01 0.22484078E+03</pdfrwt>
<totfact> 0.56238234E+04</totfact>
</mgrwt>
</event>
<event>
 4    1  0.4102458E+000  0.2051635E+03  0.7546771E-02  0.1145454E+00
         21   -1    0    0  503  502  0.00000000000E+00  0.00000000000E+00  0.40357453560E+03  0.40357453560E+03  0.00000000000E+00 0.  1.
         21   -1    0    0  501  503 -0.00000000000E+00 -0.00000000000E+00 -0.17075805282E+03  0.17075805282E+03  0.00000000000E+00 0.  1.
          6    1    1    2  501    0  0.10312919754E+03  0.39082095372E+02 -0.62744314472E+02  0.21454344679E+03  0.17300000000E+03 0.  1.
         -6    1    1    2    0  502 -0.10312919754E+03 -0.39082095372E+02  0.29556079725E+03  0.35978914163E+03  0.17300000000E+03 0.  1.
<mgrwt>
<rscale>  2 0.20516345E+03</rscale>
<asrwt>0</asrwt>
<pdfrwt beam="1">  1       21 0.62088390E-01 0.20516345E+03</pdfrwt>
<pdfrwt beam="2">  1       21 0.26270470E-01 0.20516345E+03</pdfrwt>
<totfact> 0.32936615E+04</totfact>
</mgrwt>
</event>
<event>
 4    1  0.4102458E+000  0.3277074E+03  0.7546771E-02  0.1072156E+00
         21   -1    0    0  503  502  0.00000000000E+00  0.00000000000E+00  0.64442551621E+02  0.64442551621E+02  0.00000000000E+00 0.  1.
         21   -1    0    0  501  503 -0.00000000000E+00 -0.00000000000E+00 -0.18732530082E+04  0.18732530082E+04  0.00000000000E+00 0.  1.
          6    1    1    2  501    0  0.27784743377E+03 -0.16245399993E+02 -0.12262942086E+04  0.12693264338E+04  0.17300000000E+03 0.  1.
         -6    1    1    2    0  502 -0.27784743377E+03  0.16245399993E+02 -0.58251624797E+03  0.66836912602E+03  0.17300000000E+03 0.  1.
<mgrwt>
<rscale>  2 0.32770735E+03</rscale>
<asrwt>0</asrwt>
<pdfrwt beam="1">  1       21 0.99142393E-02 0.32770735E+03</pdfrwt>
<pdfrwt beam="2">  1       21 0.28819275E+00 0.32770735E+03</pdfrwt>
<totfact> 0.29125398E+03</totfact>
</mgrwt>
</event>
<event>
 4    1  0.4102458E+000  0.3110887E+03  0.7546771E-02  0.1079825E+00
         21   -1    0    0  501  502  0.00000000000E+00  0.00000000000E+00  0.15730029415E+03  0.15730029415E+03  0.00000000000E+00 0. -1.
         21   -1    0    0  502  503 -0.00000000000E+00 -0.00000000000E+00 -0.69760086639E+03  0.69760086639E+03  0.00000000000E+00 0.  1.
          6    1    1    2  501    0  0.92781863155E+02  0.24132702993E+03 -0.12327004923E+03  0.33462174846E+03  0.17300000000E+03 0. -1.
         -6    1    1    2    0  503 -0.92781863155E+02 -0.24132702993E+03 -0.41703052301E+03  0.52027941207E+03  0.17300000000E+03 0.  1.
<mgrwt>
<rscale>  2 0.31108875E+03</rscale>
<asrwt>0</asrwt>
<pdfrwt beam="1">  1       21 0.24200045E-01 0.31108875E+03</pdfrwt>
<pdfrwt beam="2">  1       21 0.10732321E+00 0.31108875E+03</pdfrwt>
<totfact> 0.10447869E+04</totfact>
</mgrwt>
</event>
<event>
 4    1  0.4102458E+000  0.2566009E+03  0.7546771E-02  0.1109203E+00
         21   -1    0    0  501  502  0.00000000000E+00  0.00000000000E+00  0.60588614806E+03  0.60588614806E+03  0.00000000000E+00 0. -1.
         21   -1    0    0  502  503 -0.00000000000E+00 -0.00000000000E+00 -0.16361663396E+03  0.16361663396E+03  0.00000000000E+00 0. -1.
          6    1    1    2  501    0 -0.18555359431E+03  0.38534401057E+02  0.44409192374E+03  0.51289538227E+03  0.17300000000E+03 0. -1.
         -6    1    1    2    0  503  0.18555359431E+03 -0.38534401057E+02 -0.18224096475E+01  0.25660739975E+03  0.17300000000E+03 0. -1.
<mgrwt>
<rscale>  2 0.25660093E+03</rscale>
<asrwt>0</asrwt>
<pdfrwt beam="1">  1       21 0.93213252E-01 0.25660093E+03</pdfrwt>
<pdfrwt beam="2">  1       21 0.25171790E-01 0.25660093E+03</pdfrwt>
<totfact> 0.13941346E+04</totfact>
</mgrwt>
</event>
<event>
 4    1  0.4102458E+000  0.2368563E+03  0.7546771E-02  0.1121905E+00
         21   -1    0    0  501  502  0.00000000000E+00  0.00000000000E+00  0.14398497944E+04  0.14398497944E+04  0.00000000000E+00 0.  1.
         21   -1    0    0  502  503 -0.00000000000E+00 -0.00000000000E+00 -0.61859763447E+02  0.61859763447E+02  0.00000000000E+00 0. -1.
          6    1    1    2  501    0  0.75126452859E+02 -0.14327569009E+03  0.11458081776E+04  0.11700330282E+04  0.17300000000E+03 0.  1.
         -6    1    1    2    0  503 -0.75126452859E+02  0.14327569009E+03  0.23218185344E+03  0.33167652970E+03  0.17300000000E+03 0. -1.
<mgrwt>
<rscale>  2 0.23685630E+03</rscale>
<asrwt>0</asrwt>
<pdfrwt beam="1">  1       21 0.22151533E+00 0.23685630E+03</pdfrwt>
<pdfrwt beam="2">  1       21 0.95168878E-02 0.23685630E+03</pdfrwt>
<totfact> 0.84017248E+03</totfact>
</mgrwt>
</event>
<event>
 4    1  0.4102458E+000  0.2024969E+03  0.7546771E-02  0.1147649E+00
         21   -1    0    0  501  502  0.00000000000E+00  0.00000000000E+00  0.26804118574E+02  0.26804118574E+02  0.00000000000E+00 0.  1.
         21   -1    0    0  502  503 -0.00000000000E+00 -0.00000000000E+00 -0.22065905682E+04  0.22065905682E+04  0.00000000000E+00 0.  1.
          6    1    1    2  501    0  0.87194501831E+01 -0.10488064798E+03 -0.47144792709E+03  0.51309660600E+03  0.17300000000E+03 0.  1.
         -6    1    1    2    0  503 -0.87194501831E+01  0.10488064798E+03 -0.17083385225E+04  0.17202980808E+04  0.17300000000E+03 0.  1.
<mgrwt>
<rscale>  2 0.20249686E+03</rscale>
<asrwt>0</asrwt>
<pdfrwt beam="1">  1       21 0.41237086E-02 0.20249686E+03</pdfrwt>
<pdfrwt beam="2">  1       21 0.33947563E+00 0.20249686E+03</pdfrwt>
<totfact> 0.74212014E+03</totfact>
</mgrwt>
</event>
<event>
 4    1  0.4102458E+000  0.1866461E+03  0.7546771E-02  0.1161522E+00
         21   -1    0    0  503  502  0.00000000000E+00  0.00000000000E+00  0.27009352903E+02  0.27009352903E+02  0.00000000000E+00 0. -1.
         21   -1    0    0  501  503 -0.00000000000E+00 -0.00000000000E+00 -0.15567309414E+04  0.15567309414E+04  0.00000000000E+00 0. -1.
          6    1    1    2  501    0 -0.10357367854E+02 -0.69285520527E+02 -0.10927625849E+04  0.11085877617E+04  0.17300000000E+03 0. -1.
         -6    1    1    2    0  502  0.10357367854E+02  0.69285520527E+02 -0.43695900366E+03  0.47515253267E+03  0.17300000000E+03 0. -1.
<mgrwt>
<rscale>  2 0.18664608E+03</rscale>
<asrwt>0</asrwt>
<pdfrwt beam="1">  1       21 0.41552839E-02 0.18664608E+03</pdfrwt>
<pdfrwt beam="2">  1       21 0.23949713E+00 0.18664608E+03</pdfrwt>
<totfact> 0.28338053E+04</totfact>
</mgrwt>
</event>
<event>
 4    1  0.4102458E+000  0.3040867E+03  0.7546771E-02  0.1083215E+00
         21   -1    0    0  501  502  0.00000000000E+00  0.00000000000E+00  0.80433093730E+03  0.80433093730E+03  0.00000000000E+00 0.  1.
         21   -1    0    0  502  503 -0.00000000000E+00 -0.00000000000E+00 -0.12057838722E+03  0.12057838722E+03  0.00000000000E+00 0. -1.
          6    1    1    2  501    0  0.39800338237E+01  0.25004771761E+03  0.24208217925E+03  0.38868043848E+03  0.17300000000E+03 0. -1.
         -6    1    1    2    0  503 -0.39800338237E+01 -0.25004771761E+03  0.44167037083E+03  0.53622888604E+03  0.17300000000E+03 0.  1.
<mgrwt>
<rscale>  2 0.30408667E+03</rscale>
<asrwt>0</asrwt>
<pdfrwt beam="1">  1       21 0.12374322E+00 0.30408667E+03</pdfrwt>
<pdfrwt beam="2">  1       21 0.18550522E-01 0.30408667E+03</pdfrwt>
<totfact> 0.12192350E+04</totfact>
</mgrwt>
</event>
<event>
 4    1  0.4102458E+000  0.2542463E+03  0.7546771E-02  0.1110650E+00
         21   -1    0    0  503  502  0.00000000000E+00  0.00000000000E+00  0.35384366332E+03  0.35384366332E+03  0.00000000000E+00 0. -1.
         21   -1    0    0  501  503 -0.00000000000E+00 -0.00000000000E+00 -0.27308996058E+03  0.27308996058E+03  0.00000000000E+00 0.  1.
          6    1    1    2  501    0 -0.27390959009E+02 -0.18428761590E+03 -0.13998299255E+03  0.29023512574E+03  0.17300000000E+03 0.  1.
         -6    1    1    2    0  502  0.27390959009E+02  0.18428761590E+03  0.22073669530E+03  0.33669849816E+03  0.17300000000E+03 0. -1.
<mgrwt>
<rscale>  2 0.25424632E+03</rscale>
<asrwt>0</asrwt>
<pdfrwt beam="1">  1       21 0.54437487E-01 0.25424632E+03</pdfrwt>
<pdfrwt beam="2">  1       21 0.42013840E-01 0.25424632E+03</pdfrwt>
<totfact> 0.16792597E+04</totfact>
</mgrwt>
</event>
<event>
 4    1  0.4102458E+000  0.2377686E+03  0.7546771E-02  0.1121288E+00
         21   -1    0    0  501  502  0.00000000000E+00  0.00000000000E+00  0.10504177370E+03  0.10504177370E+03  0.00000000000E+00 0. -1.
         21   -1    0    0  502  503 -0.00000000000E+00 -0.00000000000E+00 -0.56363254531E+03  0.56363254531E+03  0.00000000000E+00 0. -1.
          6    1    1    2  501    0  0.10718781496E+03  0.12294578508E+03 -0.15828070994E+03  0.28563381607E+03  0.17300000000E+03 0. -1.
         -6    1    1    2    0  503 -0.10718781496E+03 -0.12294578508E+03 -0.30031006168E+03  0.38304050294E+03  0.17300000000E+03 0. -1.
<mgrwt>
<rscale>  2 0.23776857E+03</rscale>
<asrwt>0</asrwt>
<pdfrwt beam="1">  1       21 0.16160273E-01 0.23776857E+03</pdfrwt>
<pdfrwt beam="2">  1       21 0.86712698E-01 0.23776857E+03</pdfrwt>
<totfact> 0.38317004E+04</totfact>
</mgrwt>
</event>
<event>
 4    1  0.4102458E+000  0.2635313E+03  0.7546771E-02  0.1105040E+00
         21   -1    0    0  501  502  0.00000000000E+00  0.00000000000E+00  0.52922444593E+03  0.52922444593E+03  0.00000000000E+00 0. -1.
         21   -1    0    0  502  503 -0.00000000000E+00 -0.00000000000E+00 -0.22868426933E+03  0.22868426933E+03  0.00000000000E+00 0.  1.
          6    1    1    2  501    0  0.19704148995E+03 -0.26351040758E+02  0.39765606644E+03  0.47705248484E+03  0.17300000000E+03 0. -1.
         -6    1    1    2    0  503 -0.19704148995E+03  0.26351040758E+02 -0.97115889843E+02  0.28085623043E+03  0.17300000000E+03 0.  1.
<mgrwt>
<rscale>  2 0.26353126E+03</rscale>
<asrwt>0</asrwt>
<pdfrwt beam="1">  1       21 0.81419145E-01 0.26353126E+03</pdfrwt>
<pdfrwt beam="2">  1       21 0.35182195E-01 0.26353126E+03</pdfrwt>
<totfact> 0.98573196E+03</totfact>
</mgrwt>
</event>
<event>
 4    1  0.4102458E+000  0.2240305E+03  0.7546771E-02  0.1130913E+00
         21   -1    0    0  501  502  0.00000000000E+00  0.00000000000E+00  0.37524654348E+03  0.37524654348E+03  0.00000000000E+00 0.  1.
         21   -1    0    0  502  503 -0.00000000000E+00 -0.00000000000E+00 -0.15396776558E+03  0.15396776558E+03  0.00000000000E+00 0. -1.
          6    1    1    2  501    0  0.10559376330E+03 -0.95449598316E+02  0.20652215711E+03  0.30469832629E+03  0.17300000000E+03 0.  1.
         -6    1    1    2    0  503 -0.10559376330E+03  0.95449598316E+02  0.14756620791E+02  0.22451598278E+03  0.17300000000E+03 0. -1.
<mgrwt>
<rscale>  2 0.22403051E+03</rscale>
<asrwt>0</asrwt>
<pdfrwt beam="1">  1       21 0.57730237E-01 0.22403051E+03</pdfrwt>
<pdfrwt beam="2">  1       21 0.23687349E-01 0.22403051E+03</pdfrwt>
<totfact> 0.46528113E+04</totfact>
</mgrwt>
</event>
<event>
 4    1  0.4102458E+000  0.2032043E+03  0.7546771E-02  0.1147063E+00
         21   -1    0    0  503  502  0.00000000000E+00  0.00000000000E+00  0.15264283500E+03  0.15264283500E+03  0.00000000000E+00 0.  1.
         21   -1    0    0  501  503 -0.00000000000E+00 -0.00000000000E+00 -0.27061219674E+03  0.27061219674E+03  0.00000000000E+00 0. -1.
          6    1    1    2  501    0  0.39164591788E+02  0.99141932710E+02 -0.54948552567E+02  0.21050256887E+03  0.17300000000E+03 0. -1.
         -6    1    1    2    0  502 -0.39164591788E+02 -0.99141932710E+02 -0.63020809167E+02  0.21275246288E+03  0.17300000000E+03 0.  1.
<mgrwt>
<rscale>  2 0.20320430E+03</rscale>
<asrwt>0</asrwt>
<pdfrwt beam="1">  1       21 0.23483513E-01 0.20320430E+03</pdfrwt>
<pdfrwt beam="2">  1       21 0.41632645E-01 0.20320430E+03</pdfrwt>
<totfact> 0.94363919E+04</totfact>
</mgrwt>
</event>
<event>
 4    1  0.4102458E+000  0.1750221E+03  0.7546771E-02  0.1172710E+00
         21   -1    0    0  501  502  0.00000000000E+00  0.00000000000E+00  0.79950346917E+03  0.79950346917E+03  0.00000000000E+00 0. -1.
         21   -1    0    0  502  503 -0.00000000000E+00 -0.00000000000E+00 -0.84186211554E+02  0.84186211554E+02  0.00000000000E+00 0. -1.
          6    1    1    2  501    0 -0.23411076864E+02  0.12475641888E+02  0.68381128633E+03  0.70585451438E+03  0.17300000000E+03 0. -1.
         -6    1    1    2    0  503  0.23411076864E+02 -0.12475641888E+02  0.31505971283E+02  0.17783516634E+03  0.17300000000E+03 0. -1.
<mgrwt>
<rscale>  2 0.17502206E+03</rscale>
<asrwt>0</asrwt>
<pdfrwt beam="1">  1       21 0.12300053E+00 0.17502206E+03</pdfrwt>
<pdfrwt beam="2">  1       21 0.12951725E-01 0.17502206E+03</pdfrwt>
<totfact> 0.25691362E+04</totfact>
</mgrwt>
</event>
<event>
 4    1  0.4102458E+000  0.2597780E+03  0.7546771E-02  0.1107277E+00
         21   -1    0    0  501  502  0.00000000000E+00  0.00000000000E+00  0.18860424938E+04  0.18860424938E+04  0.00000000000E+00 0.  1.
         21   -1    0    0  502  503 -0.00000000000E+00 -0.00000000000E+00 -0.52889359652E+02  0.52889359652E+02  0.00000000000E+00 0.  1.
          6    1    1    2  501    0  0.19300032697E+03  0.17506845844E+02  0.14679574574E+04  0.14907661495E+04  0.17300000000E+03 0.  1.
         -6    1    1    2    0  503 -0.19300032697E+03 -0.17506845844E+02  0.36519567680E+03  0.44816570397E+03  0.17300000000E+03 0.  1.
<mgrwt>
<rscale>  2 0.25977801E+03</rscale>
<asrwt>0</asrwt>
<pdfrwt beam="1">  1       21 0.29016033E+00 0.25977801E+03</pdfrwt>
<pdfrwt beam="2">  1       21 0.81368260E-02 0.25977801E+03</pdfrwt>
<totfact> 0.42377574E+03</totfact>
</mgrwt>
</event>
<event>
 4    1  0.4102458E+000  0.2245267E+03  0.7546771E-02  0.1130553E+00
         21   -1    0    0  503  502  0.00000000000E+00  0.00000000000E+00  0.20956628914E+03  0.20956628914E+03  0.00000000000E+00 0. -1.
         21   -1    0    0  501  503 -0.00000000000E+00 -0.00000000000E+00 -0.24289186784E+03  0.24289186784E+03  0.00000000000E+00 0. -1.
          6    1    1    2  501    0 -0.53470222188E+02 -0.13275601797E+03  0.55271557730E+01  0.22459468921E+03  0.17300000000E+03 0. -1.
         -6    1    1    2    0  502  0.53470222188E+02  0.13275601797E+03 -0.38852734481E+02  0.22786346777E+03  0.17300000000E+03 0. -1.
<mgrwt>
<rscale>  2 0.22452667E+03</rscale>
<asrwt>0</asrwt>
<pdfrwt beam="1">  1       21 0.32240967E-01 0.22452667E+03</pdfrwt>
<pdfrwt beam="2">  1       21 0.37367980E-01 0.22452667E+03</pdfrwt>
<totfact> 0.63028398E+04</totfact>
</mgrwt>
</event>
<event>
 4    1  0.4102458E+000  0.1800116E+03  0.7546771E-02  0.1167792E+00
         21   -1    0    0  501  502  0.00000000000E+00  0.00000000000E+00  0.15912559825E+03  0.15912559825E+03  0.00000000000E+00 0. -1.
         21   -1    0    0  502  503 -0.00000000000E+00 -0.00000000000E+00 -0.35050862608E+03  0.35050862608E+03  0.00000000000E+00 0. -1.
          6    1    1    2  501    0 -0.40569544756E+02 -0.28797223470E+02  0.69255826957E+02  0.19287440890E+03  0.17300000000E+03 0. -1.
         -6    1    1    2    0  503  0.40569544756E+02  0.28797223470E+02 -0.26063885479E+03  0.31675981543E+03  0.17300000000E+03 0. -1.
<mgrwt>
<rscale>  2 0.18001158E+03</rscale>
<asrwt>0</asrwt>
<pdfrwt beam="1">  1       21 0.24480861E-01 0.18001158E+03</pdfrwt>
<pdfrwt beam="2">  1       21 0.53924404E-01 0.18001158E+03</pdfrwt>
<totfact> 0.51573715E+04</totfact>
</mgrwt>
</event>
<event>
 4    1  0.4102458E+000  0.1924504E+03  0.7546771E-02  0.1156270E+00
         21   -1    0    0  501  502  0.00000000000E+00  0.00000000000E+00  0.48473394319E+02  0.48473394319E+02  0.00000000000E+00 0. -1.
         21   -1    0    0  502  503 -0.00000000000E+00 -0.00000000000E+00 -0.77035933904E+03  0.77035933904E+03  0.00000000000E+00 0. -1.
          6    1    1    2  501    0 -0.84239573937E+02 -0.34437491531E+01 -0.39793010150E+03  0.44202435556E+03  0.17300000000E+03 0. -1.
         -6    1    1    2    0  503  0.84239573937E+02  0.34437491531E+01 -0.32395584322E+03  0.37680837780E+03  0.17300000000E+03 0. -1.
<mgrwt>
<rscale>  2 0.19245042E+03</rscale>
<asrwt>0</asrwt>
<pdfrwt beam="1">  1       21 0.74574455E-02 0.19245042E+03</pdfrwt>
<pdfrwt beam="2">  1       21 0.11851682E+00 0.19245042E+03</pdfrwt>
<totfact> 0.73846048E+04</totfact>
</mgrwt>
</event>
<event>
 4    1  0.4102458E+000  0.1987191E+03  0.7546771E-02  0.1150824E+00
         21   -1    0    0  503  502  0.00000000000E+00  0.00000000000E+00  0.37050778464E+03  0.37050778464E+03  0.00000000000E+00 0. -1.
         21   -1    0    0  501  503 -0.00000000000E+00 -0.00000000000E+00 -0.49188696672E+03  0.49188696672E+03  0.00000000000E+00 0. -1.
          6    1    1    2  501    0  0.31936010181E+02  0.92414232774E+02 -0.44232266075E+03  0.48491095613E+03  0.17300000000E+03 0. -1.
         -6    1    1    2    0  502 -0.31936010181E+02 -0.92414232774E+02  0.32094347866E+03  0.37748379523E+03  0.17300000000E+03 0. -1.
<mgrwt>
<rscale>  2 0.19871915E+03</rscale>
<asrwt>0</asrwt>
<pdfrwt beam="1">  1       21 0.57001198E-01 0.19871915E+03</pdfrwt>
<pdfrwt beam="2">  1       21 0.75674917E-01 0.19871915E+03</pdfrwt>
<totfact> 0.44843228E+03</totfact>
</mgrwt>
</event>
<event>
 4    1  0.4102458E+000  0.1735475E+03  0.7546771E-02  0.1174198E+00
         21   -1    0    0  503  502  0.00000000000E+00  0.00000000000E+00  0.10676123259E+03  0.10676123259E+03  0.00000000000E+00 0.  1.
         21   -1    0    0  501  503 -0.00000000000E+00 -0.00000000000E+00 -0.28557245545E+03  0.28557245545E+03  0.00000000000E+00 0.  1.
          6    1    1    2  501    0 -0.11153595893E+02  0.80820645899E+01 -0.11099680701E+03  0.20600731452E+03  0.17300000000E+03 0.  1.
         -6    1    1    2    0  502  0.11153595893E+02 -0.80820645899E+01 -0.67814415848E+02  0.18632637351E+03  0.17300000000E+03 0.  1.
<mgrwt>
<rscale>  2 0.17354746E+03</rscale>
<asrwt>0</asrwt>
<pdfrwt beam="1">  1       21 0.16424805E-01 0.17354746E+03</pdfrwt>
<pdfrwt beam="2">  1       21 0.43934224E-01 0.17354746E+03</pdfrwt>
<totfact> 0.16640780E+05</totfact>
</mgrwt>
</event>
<event>
 4    1  0.4102458E+000  0.1785090E+03  0.7546771E-02  0.1169254E+00
         21   -1    0    0  501  502  0.00000000000E+00  0.00000000000E+00  0.17872910851E+03  0.17872910851E+03  0.00000000000E+00 0.  1.
         21   -1    0    0  502  503 -0.00000000000E+00 -0.00000000000E+00 -0.32310635012E+03  0.32310635012E+03  0.00000000000E+00 0.  1.
          6    1    1    2  501    0  0.22744601451E+02 -0.37671342189E+02  0.95795717142E+02  0.20258890972E+03  0.17300000000E+03 0.  1.
         -6    1    1    2    0  503 -0.22744601451E+02  0.37671342189E+02 -0.24017295875E+03  0.29924654891E+03  0.17300000000E+03 0.  1.
<mgrwt>
<rscale>  2 0.17850895E+03</rscale>
<asrwt>0</asrwt>
<pdfrwt beam="1">  1       21 0.27496786E-01 0.17850895E+03</pdfrwt>
<pdfrwt beam="2">  1       21 0.49708669E-01 0.17850895E+03</pdfrwt>
<totfact> 0.48997217E+04</totfact>
</mgrwt>
</event>
<event>
 4    1  0.4102458E+000  0.2988715E+03  0.7546771E-02  0.1085806E+00
         21   -1    0    0  503  502  0.00000000000E+00  0.00000000000E+00  0.20764491954E+03  0.20764491954E+03  0.00000000000E+00 0.  1.
         21   -1    0    0  501  503 -0.00000000000E+00 -0.00000000000E+00 -0.66192513404E+03  0.66192513404E+03  0.00000000000E+00 0. -1.
          6    1    1    2  501    0  0.19137002486E+03 -0.15090623304E+03 -0.48440337061E+03  0.56918433134E+03  0.17300000000E+03 0. -1.
         -6    1    1    2    0  502 -0.19137002486E+03  0.15090623304E+03  0.30123156106E+02  0.30038572223E+03  0.17300000000E+03 0.  1.
<mgrwt>
<rscale>  2 0.29887151E+03</rscale>
<asrwt>0</asrwt>
<pdfrwt beam="1">  1       21 0.31945372E-01 0.29887151E+03</pdfrwt>
<pdfrwt beam="2">  1       21 0.10183464E+00 0.29887151E+03</pdfrwt>
<totfact> 0.69411725E+03</totfact>
</mgrwt>
</event>
<event>
 4    1  0.4102458E+000  0.1753245E+03  0.7546771E-02  0.1172406E+00
         21   -1    0    0  501  502  0.00000000000E+00  0.00000000000E+00  0.44426183143E+02  0.44426183143E+02  0.00000000000E+00 0.  1.
         21   -1    0    0  502  503 -0.00000000000E+00 -0.00000000000E+00 -0.71656636509E+03  0.71656636509E+03  0.00000000000E+00 0.  1.
          6    1    1    2  501    0  0.22310696449E+02 -0.17661364498E+02 -0.26548187639E+03  0.31814983524E+03  0.17300000000E+03 0. -1.
         -6    1    1    2    0  503 -0.22310696449E+02  0.17661364498E+02 -0.40665830556E+03  0.44284271300E+03  0.17300000000E+03 0. -1.
<mgrwt>
<rscale>  2 0.17532453E+03</rscale>
<asrwt>0</asrwt>
<pdfrwt beam="1">  1       21 0.68347978E-02 0.17532453E+03</pdfrwt>
<pdfrwt beam="2">  1       21 0.11024097E+00 0.17532453E+03</pdfrwt>
<totfact> 0.10315741E+05</totfact>
</mgrwt>
</event>
<event>
 4    1  0.4102458E+000  0.1919202E+03  0.7546771E-02  0.1156741E+00
         21   -1    0    0  503  502  0.00000000000E+00  0.00000000000E+00  0.20429579934E+02  0.20429579934E+02  0.00000000000E+00 0. -1.
         21   -1    0    0  501  503 -0.00000000000E+00 -0.00000000000E+00 -0.18497188862E+04  0.18497188862E+04  0.00000000000E+00 0. -1.
          6    1    1    2  501    0 -0.59580279934E+02 -0.57918638007E+02 -0.10633415506E+04  0.10805223883E+04  0.17300000000E+03 0. -1.
         -6    1    1    2    0  502  0.59580279934E+02  0.57918638007E+02 -0.76594775564E+03  0.78962607781E+03  0.17300000000E+03 0. -1.
<mgrwt>
<rscale>  2 0.19192024E+03</rscale>
<asrwt>0</asrwt>
<pdfrwt beam="1">  1       21 0.31430117E-02 0.19192024E+03</pdfrwt>
<pdfrwt beam="2">  1       21 0.28457219E+00 0.19192024E+03</pdfrwt>
<totfact> 0.24549121E+04</totfact>
</mgrwt>
</event>
<event>
 4    1  0.4102458E+000  0.1753979E+03  0.7546771E-02  0.1172333E+00
         21   -1    0    0  503  502  0.00000000000E+00  0.00000000000E+00  0.41653962848E+03  0.41653962848E+03  0.00000000000E+00 0.  1.
         21   -1    0    0  501  503 -0.00000000000E+00 -0.00000000000E+00 -0.14359236858E+03  0.14359236858E+03  0.00000000000E+00 0.  1.
          6    1    1    2  501    0 -0.26934267484E+02  0.10485762863E+02 -0.58699923031E+02  0.18495969007E+03  0.17300000000E+03 0.  1.
         -6    1    1    2    0  502  0.26934267484E+02 -0.10485762863E+02  0.33164718293E+03  0.37517230699E+03  0.17300000000E+03 0.  1.
<mgrwt>
<rscale>  2 0.17539785E+03</rscale>
<asrwt>0</asrwt>
<pdfrwt beam="1">  1       21 0.64083019E-01 0.17539785E+03</pdfrwt>
<pdfrwt beam="2">  1       21 0.22091134E-01 0.17539785E+03</pdfrwt>
<totfact> 0.43426516E+04</totfact>
</mgrwt>
</event>
<event>
 4    1  0.4102458E+000  0.2467904E+03  0.7546771E-02  0.1115350E+00
         21   -1    0    0  503  502  0.00000000000E+00  0.00000000000E+00  0.51957937169E+03  0.51957937169E+03  0.00000000000E+00 0. -1.
         21   -1    0    0  501  503 -0.00000000000E+00 -0.00000000000E+00 -0.20568063767E+03  0.20568063767E+03  0.00000000000E+00 0.  1.
          6    1    1    2  501    0  0.95315660278E+02 -0.14795748561E+03 -0.80866145429E+02  0.25970141724E+03  0.17300000000E+03 0.  1.
         -6    1    1    2    0  502 -0.95315660278E+02  0.14795748561E+03  0.39476487945E+03  0.46555859211E+03  0.17300000000E+03 0. -1.
<mgrwt>
<rscale>  2 0.24679038E+03</rscale>
<asrwt>0</asrwt>
<pdfrwt beam="1">  1       21 0.79935287E-01 0.24679038E+03</pdfrwt>
<pdfrwt beam="2">  1       21 0.31643175E-01 0.24679038E+03</pdfrwt>
<totfact> 0.12802971E+04</totfact>
</mgrwt>
</event>
<event>
 4    1  0.4102458E+000  0.2100671E+03  0.7546771E-02  0.1141513E+00
         21   -1    0    0  503  502  0.00000000000E+00  0.00000000000E+00  0.22815081032E+03  0.22815081032E+03  0.00000000000E+00 0. -1.
         21   -1    0    0  501  503 -0.00000000000E+00 -0.00000000000E+00 -0.32045064663E+03  0.32045064663E+03  0.00000000000E+00 0. -1.
          6    1    1    2  501    0  0.11556743635E+03 -0.29040271270E+02 -0.21885548389E+03  0.30335769733E+03  0.17300000000E+03 0. -1.
         -6    1    1    2    0  502 -0.11556743635E+03  0.29040271270E+02  0.12655564759E+03  0.24524375963E+03  0.17300000000E+03 0. -1.
<mgrwt>
<rscale>  2 0.21006706E+03</rscale>
<asrwt>0</asrwt>
<pdfrwt beam="1">  1       21 0.35100125E-01 0.21006706E+03</pdfrwt>
<pdfrwt beam="2">  1       21 0.49300099E-01 0.21006706E+03</pdfrwt>
<totfact> 0.30415446E+04</totfact>
</mgrwt>
</event>
<event>
 4    1  0.4102458E+000  0.1988082E+03  0.7546771E-02  0.1150748E+00
         21   -1    0    0  501  502  0.00000000000E+00  0.00000000000E+00  0.11364342802E+03  0.11364342802E+03  0.00000000000E+00 0. -1.
         21   -1    0    0  502  503 -0.00000000000E+00 -0.00000000000E+00 -0.42383994559E+03  0.42383994559E+03  0.00000000000E+00 0. -1.
          6    1    1    2  501    0  0.48089488541E+02 -0.85341058368E+02 -0.41265493721E+02  0.20304565034E+03  0.17300000000E+03 0. -1.
         -6    1    1    2    0  503 -0.48089488541E+02  0.85341058368E+02 -0.26893102386E+03  0.33443772327E+03  0.17300000000E+03 0. -1.
<mgrwt>
<rscale>  2 0.19880819E+03</rscale>
<asrwt>0</asrwt>
<pdfrwt beam="1">  1       21 0.17483604E-01 0.19880819E+03</pdfrwt>
<pdfrwt beam="2">  1       21 0.65206146E-01 0.19880819E+03</pdfrwt>
<totfact> 0.63943691E+04</totfact>
</mgrwt>
</event>
<event>
 4    1  0.4102458E+000  0.2565538E+03  0.7546771E-02  0.1109232E+00
         21   -1    0    0  501  502  0.00000000000E+00  0.00000000000E+00  0.38988568379E+03  0.38988568379E+03  0.00000000000E+00 0.  1.
         21   -1    0    0  502  503 -0.00000000000E+00 -0.00000000000E+00 -0.17704014399E+03  0.17704014399E+03  0.00000000000E+00 0.  1.
          6    1    1    2  501    0  0.29284081346E+02 -0.18717188807E+03  0.16750890249E+03  0.30639697374E+03  0.17300000000E+03 0.  1.
         -6    1    1    2    0  503 -0.29284081346E+02  0.18717188807E+03  0.45336637318E+02  0.26052885404E+03  0.17300000000E+03 0.  1.
<mgrwt>
<rscale>  2 0.25655384E+03</rscale>
<asrwt>0</asrwt>
<pdfrwt beam="1">  1       21 0.59982413E-01 0.25655384E+03</pdfrwt>
<pdfrwt beam="2">  1       21 0.27236945E-01 0.25655384E+03</pdfrwt>
<totfact> 0.32299216E+04</totfact>
</mgrwt>
</event>
<event>
 4    1  0.4102458E+000  0.1757818E+03  0.7546771E-02  0.1171949E+00
         21   -1    0    0  503  502  0.00000000000E+00  0.00000000000E+00  0.16582301484E+03  0.16582301484E+03  0.00000000000E+00 0.  1.
         21   -1    0    0  501  503 -0.00000000000E+00 -0.00000000000E+00 -0.18659197331E+03  0.18659197331E+03  0.00000000000E+00 0.  1.
          6    1    1    2  501    0 -0.15993322098E+02 -0.26729540637E+02 -0.16875642932E+02  0.17659003941E+03  0.17300000000E+03 0.  1.
         -6    1    1    2    0  502  0.15993322098E+02  0.26729540637E+02 -0.38933155444E+01  0.17582494874E+03  0.17300000000E+03 0.  1.
<mgrwt>
<rscale>  2 0.17578184E+03</rscale>
<asrwt>0</asrwt>
<pdfrwt beam="1">  1       21 0.25511233E-01 0.17578184E+03</pdfrwt>
<pdfrwt beam="2">  1       21 0.28706458E-01 0.17578184E+03</pdfrwt>
<totfact> 0.17004942E+05</totfact>
</mgrwt>
</event>
<event>
 4    1  0.4102458E+000  0.1749801E+03  0.7546771E-02  0.1172752E+00
         21   -1    0    0  503  502  0.00000000000E+00  0.00000000000E+00  0.13787043478E+03  0.13787043478E+03  0.00000000000E+00 0. -1.
         21   -1    0    0  501  503 -0.00000000000E+00 -0.00000000000E+00 -0.23349524677E+03  0.23349524677E+03  0.00000000000E+00 0. -1.
          6    1    1    2  501    0  0.26054412752E+02 -0.31967374737E+01 -0.88871088472E+02  0.19625524686E+03  0.17300000000E+03 0. -1.
         -6    1    1    2    0  502 -0.26054412752E+02  0.31967374737E+01 -0.67537235122E+01  0.17511043469E+03  0.17300000000E+03 0. -1.
<mgrwt>
<rscale>  2 0.17498015E+03</rscale>
<asrwt>0</asrwt>
<pdfrwt beam="1">  1       21 0.21210836E-01 0.17498015E+03</pdfrwt>
<pdfrwt beam="2">  1       21 0.35922345E-01 0.17498015E+03</pdfrwt>
<totfact> 0.15538686E+05</totfact>
</mgrwt>
</event>
<event>
 4    1  0.4102458E+000  0.1754684E+03  0.7546771E-02  0.1172262E+00
         21   -1    0    0  501  502  0.00000000000E+00  0.00000000000E+00  0.67953833865E+02  0.67953833865E+02  0.00000000000E+00 0. -1.
         21   -1    0    0  502  503 -0.00000000000E+00 -0.00000000000E+00 -0.61557580315E+03  0.61557580315E+03  0.00000000000E+00 0. -1.
          6    1    1    2  501    0 -0.78510389600E+01  0.28258358941E+02 -0.98222971970E+02  0.20108934802E+03  0.17300000000E+03 0. -1.
         -6    1    1    2    0  503  0.78510389600E+01 -0.28258358941E+02 -0.44939899731E+03  0.48244028900E+03  0.17300000000E+03 0. -1.
<mgrwt>
<rscale>  2 0.17546844E+03</rscale>
<asrwt>0</asrwt>
<pdfrwt beam="1">  1       21 0.10454436E-01 0.17546844E+03</pdfrwt>
<pdfrwt beam="2">  1       21 0.94703967E-01 0.17546844E+03</pdfrwt>
<totfact> 0.70542986E+04</totfact>
</mgrwt>
</event>
<event>
 4    1  0.4102458E+000  0.2197351E+03  0.7546771E-02  0.1134081E+00
         21   -1    0    0  503  502  0.00000000000E+00  0.00000000000E+00  0.33303137750E+02  0.33303137750E+02  0.00000000000E+00 0.  1.
         21   -1    0    0  501  503 -0.00000000000E+00 -0.00000000000E+00 -0.23877002702E+04  0.23877002702E+04  0.00000000000E+00 0. -1.
          6    1    1    2  501    0  0.13038772519E+03  0.36790736361E+02 -0.19358625463E+04  0.19482934366E+04  0.17300000000E+03 0. -1.
         -6    1    1    2    0  502 -0.13038772519E+03 -0.36790736361E+02 -0.41853458623E+03  0.47270997137E+03  0.17300000000E+03 0.  1.
<mgrwt>
<rscale>  2 0.21973511E+03</rscale>
<asrwt>0</asrwt>
<pdfrwt beam="1">  1       21 0.51235584E-02 0.21973511E+03</pdfrwt>
<pdfrwt beam="2">  1       21 0.36733860E+00 0.21973511E+03</pdfrwt>
<totfact> 0.34386097E+03</totfact>
</mgrwt>
</event>
<event>
 4    1  0.4102458E+000  0.2728108E+03  0.7546771E-02  0.1099682E+00
         21   -1    0    0  501  502  0.00000000000E+00  0.00000000000E+00  0.37822447467E+03  0.37822447467E+03  0.00000000000E+00 0.  1.
         21   -1    0    0  502  503 -0.00000000000E+00 -0.00000000000E+00 -0.60580622822E+03  0.60580622822E+03  0.00000000000E+00 0. -1.
          6    1    1    2  501    0  0.13179716037E+03  0.16470040913E+03  0.29049557163E+03  0.39851398142E+03  0.17300000000E+03 0.  1.
         -6    1    1    2    0  503 -0.13179716037E+03 -0.16470040913E+03 -0.51807732519E+03  0.58551672147E+03  0.17300000000E+03 0. -1.
<mgrwt>
<rscale>  2 0.27281077E+03</rscale>
<asrwt>0</asrwt>
<pdfrwt beam="1">  1       21 0.58188381E-01 0.27281077E+03</pdfrwt>
<pdfrwt beam="2">  1       21 0.93200957E-01 0.27281077E+03</pdfrwt>
<totfact> 0.25241800E+03</totfact>
</mgrwt>
</event>
<event>
 4    1  0.4102458E+000  0.2976105E+03  0.7546771E-02  0.1086441E+00
         21   -1    0    0  503  502  0.00000000000E+00  0.00000000000E+00  0.11063030211E+03  0.11063030211E+03  0.00000000000E+00 0.  1.
         21   -1    0    0  501  503 -0.00000000000E+00 -0.00000000000E+00 -0.82748028222E+03  0.82748028222E+03  0.00000000000E+00 0.  1.
          6    1    1    2  501    0 -0.11996703567E+03 -0.21035900281E+03 -0.44294535140E+03  0.53364087553E+03  0.17300000000E+03 0.  1.
         -6    1    1    2    0  502  0.11996703567E+03  0.21035900281E+03 -0.27390462871E+03  0.40446970880E+03  0.17300000000E+03 0.  1.
<mgrwt>
<rscale>  2 0.29761048E+03</rscale>
<asrwt>0</asrwt>
<pdfrwt beam="1">  1       21 0.17020046E-01 0.29761048E+03</pdfrwt>
<pdfrwt beam="2">  1       21 0.12730466E+00 0.29761048E+03</pdfrwt>
<totfact> 0.13360259E+04</totfact>
</mgrwt>
</event>
<event>
 4    1  0.4102458E+000  0.1786435E+03  0.7546771E-02  0.1169122E+00
         21   -1    0    0  501  502  0.00000000000E+00  0.00000000000E+00  0.94257470005E+03  0.94257470005E+03  0.00000000000E+00 0. -1.
         21   -1    0    0  502  503 -0.00000000000E+00 -0.00000000000E+00 -0.60803335161E+02  0.60803335161E+02  0.00000000000E+00 0. -1.
          6    1    1    2  501    0 -0.26989778332E+02 -0.35440780902E+02  0.77486100152E+03  0.79518744253E+03  0.17300000000E+03 0. -1.
         -6    1    1    2    0  503  0.26989778332E+02  0.35440780902E+02  0.10691036338E+03  0.20819059269E+03  0.17300000000E+03 0. -1.
<mgrwt>
<rscale>  2 0.17864349E+03</rscale>
<asrwt>0</asrwt>
<pdfrwt beam="1">  1       21 0.14501148E+00 0.17864349E+03</pdfrwt>
<pdfrwt beam="2">  1       21 0.93543600E-02 0.17864349E+03</pdfrwt>
<totfact> 0.30070662E+04</totfact>
</mgrwt>
</event>
<event>
 4    1  0.4102458E+000  0.1864094E+03  0.7546771E-02  0.1161740E+00
         21   -1    0    0  503  502  0.00000000000E+00  0.00000000000E+00  0.49181516822E+03  0.49181516822E+03  0.00000000000E+00 0. -1.
         21   -1    0    0  501  503 -0.00000000000E+00 -0.00000000000E+00 -0.70834801762E+02  0.70834801762E+02  0.00000000000E+00 0. -1.
          6    1    1    2  501    0 -0.57726854238E+02 -0.38562476937E+02  0.19625683535E+03  0.27067545095E+03  0.17300000000E+03 0.  1.
         -6    1    1    2    0  502  0.57726854238E+02  0.38562476937E+02  0.22472353111E+03  0.29197451903E+03  0.17300000000E+03 0.  1.
<mgrwt>
<rscale>  2 0.18640937E+03</rscale>
<asrwt>0</asrwt>
<pdfrwt beam="1">  1       21 0.75663870E-01 0.18640937E+03</pdfrwt>
<pdfrwt beam="2">  1       21 0.10897662E-01 0.18640937E+03</pdfrwt>
<totfact> 0.10888516E+05</totfact>
</mgrwt>
</event>
<event>
 4    1  0.4102458E+000  0.1968940E+03  0.7546771E-02  0.1152386E+00
         21   -1    0    0  503  502  0.00000000000E+00  0.00000000000E+00  0.64341453772E+03  0.64341453772E+03  0.00000000000E+00 0. -1.
         21   -1    0    0  501  503 -0.00000000000E+00 -0.00000000000E+00 -0.27813713330E+03  0.27813713330E+03  0.00000000000E+00 0. -1.
          6    1    1    2  501    0 -0.55844999056E+02  0.75627848331E+02 -0.22518612667E+03  0.29912543691E+03  0.17300000000E+03 0. -1.
         -6    1    1    2    0  502  0.55844999056E+02 -0.75627848331E+02  0.59046353108E+03  0.62242623411E+03  0.17300000000E+03 0. -1.
<mgrwt>
<rscale>  2 0.19689397E+03</rscale>
<asrwt>0</asrwt>
<pdfrwt beam="1">  1       21 0.98986851E-01 0.19689397E+03</pdfrwt>
<pdfrwt beam="2">  1       21 0.42790328E-01 0.19689397E+03</pdfrwt>
<totfact> 0.44025711E+03</totfact>
</mgrwt>
</event>
<event>
 4    1  0.4102458E+000  0.1740620E+03  0.7546771E-02  0.1173677E+00
         21   -1    0    0  501  502  0.00000000000E+00  0.00000000000E+00  0.10607118754E+04  0.10607118754E+04  0.00000000000E+00 0. -1.
         21   -1    0    0  502  503 -0.00000000000E+00 -0.00000000000E+00 -0.28995989072E+02  0.28995989072E+02  0.00000000000E+00 0. -1.
          6    1    1    2  501    0 -0.16505877067E+02 -0.98055935917E+01  0.44931188040E+03  0.48184931203E+03  0.17300000000E+03 0. -1.
         -6    1    1    2    0  503  0.16505877067E+02  0.98055935917E+01  0.58240400590E+03  0.60785855241E+03  0.17300000000E+03 0. -1.
<mgrwt>
<rscale>  2 0.17406204E+03</rscale>
<asrwt>0</asrwt>
<pdfrwt beam="1">  1       21 0.16318641E+00 0.17406204E+03</pdfrwt>
<pdfrwt beam="2">  1       21 0.44609222E-02 0.17406204E+03</pdfrwt>
<totfact> 0.78618309E+04</totfact>
</mgrwt>
</event>
<event>
 4    1  0.4102458E+000  0.3138057E+03  0.7546771E-02  0.1078536E+00
         21   -1    0    0  501  502  0.00000000000E+00  0.00000000000E+00  0.21540819641E+03  0.21540819641E+03  0.00000000000E+00 0.  1.
         21   -1    0    0  502  503 -0.00000000000E+00 -0.00000000000E+00 -0.47507369002E+03  0.47507369002E+03  0.00000000000E+00 0.  1.
          6    1    1    2  501    0  0.12847408217E+03  0.22812145157E+03 -0.62775111376E+02  0.32002296959E+03  0.17300000000E+03 0.  1.
         -6    1    1    2    0  503 -0.12847408217E+03 -0.22812145157E+03 -0.19689038223E+03  0.37045891684E+03  0.17300000000E+03 0.  1.
<mgrwt>
<rscale>  2 0.31380565E+03</rscale>
<asrwt>0</asrwt>
<pdfrwt beam="1">  1       21 0.33139723E-01 0.31380565E+03</pdfrwt>
<pdfrwt beam="2">  1       21 0.73088259E-01 0.31380565E+03</pdfrwt>
<totfact> 0.13864418E+04</totfact>
</mgrwt>
</event>
<event>
 4    1  0.4102458E+000  0.1761493E+03  0.7546771E-02  0.1171583E+00
         21   -1    0    0  501  502  0.00000000000E+00  0.00000000000E+00  0.28398473581E+03  0.28398473581E+03  0.00000000000E+00 0.  1.
         21   -1    0    0  502  503 -0.00000000000E+00 -0.00000000000E+00 -0.14115383925E+03  0.14115383925E+03  0.00000000000E+00 0.  1.
          6    1    1    2  501    0  0.33109730155E+02  0.18265979814E+01  0.17245642537E+03  0.24651533288E+03  0.17300000000E+03 0.  1.
         -6    1    1    2    0  503 -0.33109730155E+02 -0.18265979814E+01 -0.29625528810E+02  0.17862324218E+03  0.17300000000E+03 0.  1.
<mgrwt>
<rscale>  2 0.17614934E+03</rscale>
<asrwt>0</asrwt>
<pdfrwt beam="1">  1       21 0.43689959E-01 0.17614934E+03</pdfrwt>
<pdfrwt beam="2">  1       21 0.21715975E-01 0.17614934E+03</pdfrwt>
<totfact> 0.10021404E+05</totfact>
</mgrwt>
</event>
<event>
 4    1  0.4102458E+000  0.1766301E+03  0.7546771E-02  0.1171105E+00
         21   -1    0    0  501  502  0.00000000000E+00  0.00000000000E+00  0.13313048063E+03  0.13313048063E+03  0.00000000000E+00 0.  1.
         21   -1    0    0  502  503 -0.00000000000E+00 -0.00000000000E+00 -0.27197031192E+03  0.27197031192E+03  0.00000000000E+00 0.  1.
          6    1    1    2  501    0 -0.33671914665E+02  0.11635900256E+02  0.59198260471E+01  0.17672927418E+03  0.17300000000E+03 0.  1.
         -6    1    1    2    0  503  0.33671914665E+02 -0.11635900256E+02 -0.14475965734E+03  0.22837151837E+03  0.17300000000E+03 0.  1.
<mgrwt>
<rscale>  2 0.17663010E+03</rscale>
<asrwt>0</asrwt>
<pdfrwt beam="1">  1       21 0.20481613E-01 0.17663010E+03</pdfrwt>
<pdfrwt beam="2">  1       21 0.41841586E-01 0.17663010E+03</pdfrwt>
<totfact> 0.12208151E+05</totfact>
</mgrwt>
</event>
<event>
 4    1  0.4102458E+000  0.2659943E+03  0.7546771E-02  0.1103594E+00
         21   -1    0    0  501  502  0.00000000000E+00  0.00000000000E+00  0.49315668309E+03  0.49315668309E+03  0.00000000000E+00 0. -1.
         21   -1    0    0  502  503 -0.00000000000E+00 -0.00000000000E+00 -0.20957680582E+03  0.20957680582E+03  0.00000000000E+00 0. -1.
          6    1    1    2  501    0  0.12435687171E+03 -0.15924614083E+03  0.33912925876E+03  0.43100071817E+03  0.17300000000E+03 0. -1.
         -6    1    1    2    0  503 -0.12435687171E+03  0.15924614083E+03 -0.55549381498E+02  0.27173277074E+03  0.17300000000E+03 0. -1.
<mgrwt>
<rscale>  2 0.26599429E+03</rscale>
<asrwt>0</asrwt>
<pdfrwt beam="1">  1       21 0.75870259E-01 0.26599429E+03</pdfrwt>
<pdfrwt beam="2">  1       21 0.32242586E-01 0.26599429E+03</pdfrwt>
<totfact> 0.13749694E+04</totfact>
</mgrwt>
</event>
<event>
 4    1  0.4102458E+000  0.2098179E+03  0.7546771E-02  0.1141710E+00
         21   -1    0    0  501  502  0.00000000000E+00  0.00000000000E+00  0.10131073489E+04  0.10131073489E+04  0.00000000000E+00 0.  1.
         21   -1    0    0  502  503 -0.00000000000E+00 -0.00000000000E+00 -0.47537938868E+02  0.47537938868E+02  0.00000000000E+00 0. -1.
          6    1    1    2  501    0  0.94656848467E+02  0.71656240443E+02  0.63822415099E+03  0.67182855154E+03  0.17300000000E+03 0.  1.
         -6    1    1    2    0  503 -0.94656848467E+02 -0.71656240443E+02  0.32734525906E+03  0.38881673624E+03  0.17300000000E+03 0. -1.
<mgrwt>
<rscale>  2 0.20981786E+03</rscale>
<asrwt>0</asrwt>
<pdfrwt beam="1">  1       21 0.15586265E+00 0.20981786E+03</pdfrwt>
<pdfrwt beam="2">  1       21 0.73135298E-02 0.20981786E+03</pdfrwt>
<totfact> 0.37477579E+04</totfact>
</mgrwt>
</event>
<event>
 4    1  0.4102458E+000  0.1795098E+03  0.7546771E-02  0.1168278E+00
         21   -1    0    0  503  502  0.00000000000E+00  0.00000000000E+00  0.11171317632E+03  0.11171317632E+03  0.00000000000E+00 0. -1.
         21   -1    0    0  501  503 -0.00000000000E+00 -0.00000000000E+00 -0.28865132343E+03  0.28865132343E+03  0.00000000000E+00 0.  1.
          6    1    1    2  501    0  0.46946213171E+02 -0.95306550098E+01 -0.93742302133E+02  0.20251271448E+03  0.17300000000E+03 0.  1.
         -6    1    1    2    0  502 -0.46946213171E+02  0.95306550098E+01 -0.83195844972E+02  0.19785178528E+03  0.17300000000E+03 0.  1.
<mgrwt>
<rscale>  2 0.17950983E+03</rscale>
<asrwt>0</asrwt>
<pdfrwt beam="1">  1       21 0.17186643E-01 0.17950983E+03</pdfrwt>
<pdfrwt beam="2">  1       21 0.44407895E-01 0.17950983E+03</pdfrwt>
<totfact> 0.14951746E+05</totfact>
</mgrwt>
</event>
<event>
 4    1  0.4102458E+000  0.1856178E+03  0.7546771E-02  0.1162474E+00
         21   -1    0    0  503  502  0.00000000000E+00  0.00000000000E+00  0.71655959779E+03  0.71655959779E+03  0.00000000000E+00 0. -1.
         21   -1    0    0  501  503 -0.00000000000E+00 -0.00000000000E+00 -0.61691010247E+02  0.61691010247E+02  0.00000000000E+00 0. -1.
          6    1    1    2  501    0 -0.39918545544E+02 -0.54143139058E+02  0.14467310185E+03  0.23533864150E+03  0.17300000000E+03 0. -1.
         -6    1    1    2    0  502  0.39918545544E+02  0.54143139058E+02  0.51019548569E+03  0.54291196653E+03  0.17300000000E+03 0. -1.
<mgrwt>
<rscale>  2 0.18561781E+03</rscale>
<asrwt>0</asrwt>
<pdfrwt beam="1">  1       21 0.11023993E+00 0.18561781E+03</pdfrwt>
<pdfrwt beam="2">  1       21 0.94909251E-02 0.18561781E+03</pdfrwt>
<totfact> 0.58004327E+04</totfact>
</mgrwt>
</event>
<event>
 4    1  0.4102458E+000  0.2238077E+03  0.7546771E-02  0.1131076E+00
         21   -1    0    0  501  502  0.00000000000E+00  0.00000000000E+00  0.10994893329E+04  0.10994893329E+04  0.00000000000E+00 0.  1.
         21   -1    0    0  502  503 -0.00000000000E+00 -0.00000000000E+00 -0.47489414360E+02  0.47489414360E+02  0.00000000000E+00 0. -1.
          6    1    1    2  501    0  0.12581499333E+03  0.65813918485E+02  0.64167275048E+03  0.67958355125E+03  0.17300000000E+03 0.  1.
         -6    1    1    2    0  503 -0.12581499333E+03 -0.65813918485E+02  0.41032716807E+03  0.46739519603E+03  0.17300000000E+03 0.  1.
<mgrwt>
<rscale>  2 0.22380770E+03</rscale>
<asrwt>0</asrwt>
<pdfrwt beam="1">  1       21 0.16915219E+00 0.22380770E+03</pdfrwt>
<pdfrwt beam="2">  1       21 0.73060645E-02 0.22380770E+03</pdfrwt>
<totfact> 0.29796819E+04</totfact>
</mgrwt>
</event>
<event>
 4    1  0.4102458E+000  0.2026512E+03  0.7546771E-02  0.1147521E+00
         21   -1    0    0  501  502  0.00000000000E+00  0.00000000000E+00  0.16702943791E+03  0.16702943791E+03  0.00000000000E+00 0. -1.
         21   -1    0    0  502  503 -0.00000000000E+00 -0.00000000000E+00 -0.24862345294E+03  0.24862345294E+03  0.00000000000E+00 0.  1.
          6    1    1    2  501    0 -0.72944043885E+02 -0.76273673297E+02 -0.62668507322E+02  0.21211989201E+03  0.17300000000E+03 0.  1.
         -6    1    1    2    0  503  0.72944043885E+02  0.76273673297E+02 -0.18925507703E+02  0.20353299884E+03  0.17300000000E+03 0.  1.
<mgrwt>
<rscale>  2 0.20265119E+03</rscale>
<asrwt>0</asrwt>
<pdfrwt beam="1">  1       21 0.25696837E-01 0.20265119E+03</pdfrwt>
<pdfrwt beam="2">  1       21 0.38249762E-01 0.20265119E+03</pdfrwt>
<totfact> 0.94338571E+04</totfact>
</mgrwt>
</event>
<event>
 4    1  0.4102458E+000  0.2389242E+03  0.7546771E-02  0.1120512E+00
         21   -1    0    0  503  502  0.00000000000E+00  0.00000000000E+00  0.12327299864E+04  0.12327299864E+04  0.00000000000E+00 0.  1.
         21   -1    0    0  501  503 -0.00000000000E+00 -0.00000000000E+00 -0.48355160386E+02  0.48355160386E+02  0.00000000000E+00 0. -1.
          6    1    1    2  501    0  0.88060721272E+01  0.16455456320E+03  0.46037803307E+03  0.51868360733E+03  0.17300000000E+03 0. -1.
         -6    1    1    2    0  502 -0.88060721272E+01 -0.16455456320E+03  0.72399679291E+03  0.76240153942E+03  0.17300000000E+03 0. -1.
<mgrwt>
<rscale>  2 0.23892415E+03</rscale>
<asrwt>0</asrwt>
<pdfrwt beam="1">  1       21 0.18965074E+00 0.23892415E+03</pdfrwt>
<pdfrwt beam="2">  1       21 0.74392564E-02 0.23892415E+03</pdfrwt>
<totfact> 0.20683765E+04</totfact>
</mgrwt>
</event>
<event>
 4    1  0.4102458E+000  0.2750523E+03  0.7546771E-02  0.1098422E+00
         21   -1    0    0  503  502  0.00000000000E+00  0.00000000000E+00  0.11906322427E+04  0.11906322427E+04  0.00000000000E+00 0.  1.
         21   -1    0    0  501  503 -0.00000000000E+00 -0.00000000000E+00 -0.65590470979E+02  0.65590470979E+02  0.00000000000E+00 0.  1.
          6    1    1    2  501    0 -0.20904744274E+03  0.44988189392E+02  0.45148731246E+03  0.52867245419E+03  0.17300000000E+03 0.  1.
         -6    1    1    2    0  502  0.20904744274E+03 -0.44988189392E+02  0.67355445926E+03  0.72755025950E+03  0.17300000000E+03 0.  1.
<mgrwt>
<rscale>  2 0.27505231E+03</rscale>
<asrwt>0</asrwt>
<pdfrwt beam="1">  1       21 0.18317417E+00 0.27505231E+03</pdfrwt>
<pdfrwt beam="2">  1       21 0.10090843E-01 0.27505231E+03</pdfrwt>
<totfact> 0.13090842E+04</totfact>
</mgrwt>
</event>
<event>
 4    1  0.4102458E+000  0.2026119E+03  0.7546771E-02  0.1147554E+00
         21   -1    0    0  501  502  0.00000000000E+00  0.00000000000E+00  0.64968973010E+02  0.64968973010E+02  0.00000000000E+00 0.  1.
         21   -1    0    0  502  503 -0.00000000000E+00 -0.00000000000E+00 -0.10106300217E+04  0.10106300217E+04  0.00000000000E+00 0.  1.
          6    1    1    2  501    0 -0.47454176240E+02  0.94184401212E+02 -0.14359294307E+03  0.24833552620E+03  0.17300000000E+03 0.  1.
         -6    1    1    2    0  503  0.47454176240E+02 -0.94184401212E+02 -0.80206810562E+03  0.82726346851E+03  0.17300000000E+03 0.  1.
<mgrwt>
<rscale>  2 0.20261195E+03</rscale>
<asrwt>0</asrwt>
<pdfrwt beam="1">  1       21 0.99952270E-02 0.20261195E+03</pdfrwt>
<pdfrwt beam="2">  1       21 0.15548154E+00 0.20261195E+03</pdfrwt>
<totfact> 0.21928155E+04</totfact>
</mgrwt>
</event>
<event>
 4    1  0.4102458E+000  0.1926468E+03  0.7546771E-02  0.1156095E+00
         21   -1    0    0  501  502  0.00000000000E+00  0.00000000000E+00  0.31890458804E+03  0.31890458804E+03  0.00000000000E+00 0.  1.
         21   -1    0    0  502  503 -0.00000000000E+00 -0.00000000000E+00 -0.15245812372E+03  0.15245812372E+03  0.00000000000E+00 0.  1.
          6    1    1    2  501    0  0.73191122076E+02  0.42741810767E+02  0.19787920876E+03  0.27616839790E+03  0.17300000000E+03 0.  1.
         -6    1    1    2    0  503 -0.73191122076E+02 -0.42741810767E+02 -0.31432744438E+02  0.19519431385E+03  0.17300000000E+03 0.  1.
<mgrwt>
<rscale>  2 0.19264683E+03</rscale>
<asrwt>0</asrwt>
<pdfrwt beam="1">  1       21 0.49062244E-01 0.19264683E+03</pdfrwt>
<pdfrwt beam="2">  1       21 0.23455096E-01 0.19264683E+03</pdfrwt>
<totfact> 0.67789006E+04</totfact>
</mgrwt>
</event>
<event>
 4    1  0.4102458E+000  0.3638005E+03  0.7546771E-02  0.1057089E+00
         21   -1    0    0  503  502  0.00000000000E+00  0.00000000000E+00  0.12321797243E+04  0.12321797243E+04  0.00000000000E+00 0.  1.
         21   -1    0    0  501  503 -0.00000000000E+00 -0.00000000000E+00 -0.13224052388E+03  0.13224052388E+03  0.00000000000E+00 0. -1.
          6    1    1    2  501    0  0.24437841176E+03  0.20664218986E+03  0.25436448925E+03  0.44390550363E+03  0.17300000000E+03 0.  1.
         -6    1    1    2    0  502 -0.24437841176E+03 -0.20664218986E+03  0.84557471114E+03  0.92051474453E+03  0.17300000000E+03 0. -1.
<mgrwt>
<rscale>  2 0.36380050E+03</rscale>
<asrwt>0</asrwt>
<pdfrwt beam="1">  1       21 0.18956610E+00 0.36380050E+03</pdfrwt>
<pdfrwt beam="2">  1       21 0.20344697E-01 0.36380050E+03</pdfrwt>
<totfact> 0.31178311E+03</totfact>
</mgrwt>
</event>
<event>
 4    1  0.4102458E+000  0.1919564E+03  0.7546771E-02  0.1156709E+00
         21   -1    0    0  501  502  0.00000000000E+00  0.00000000000E+00  0.10275250117E+04  0.10275250117E+04  0.00000000000E+00 0.  1.
         21   -1    0    0  502  503 -0.00000000000E+00 -0.00000000000E+00 -0.64909367729E+02  0.64909367729E+02  0.00000000000E+00 0.  1.
          6    1    1    2  501    0  0.74009293995E+02  0.37958955450E+02  0.84671618385E+03  0.86820248438E+03  0.17300000000E+03 0.  1.
         -6    1    1    2    0  503 -0.74009293995E+02 -0.37958955450E+02  0.11589946011E+03  0.22423189503E+03  0.17300000000E+03 0.  1.
<mgrwt>
<rscale>  2 0.19195640E+03</rscale>
<asrwt>0</asrwt>
<pdfrwt beam="1">  1       21 0.15808076E+00 0.19195640E+03</pdfrwt>
<pdfrwt beam="2">  1       21 0.99860573E-02 0.19195640E+03</pdfrwt>
<totfact> 0.21160923E+04</totfact>
</mgrwt>
</event>
<event>
 4    1  0.4102458E+000  0.1743612E+03  0.7546771E-02  0.1173375E+00
         21   -1    0    0  501  502  0.00000000000E+00  0.00000000000E+00  0.63288219064E+02  0.63288219064E+02  0.00000000000E+00 0. -1.
         21   -1    0    0  502  503 -0.00000000000E+00 -0.00000000000E+00 -0.49414509181E+03  0.49414509181E+03  0.00000000000E+00 0. -1.
          6    1    1    2  501    0 -0.40504683330E+01 -0.21364094628E+02 -0.16889493493E+03  0.24274952086E+03  0.17300000000E+03 0. -1.
         -6    1    1    2    0  503  0.40504683330E+01  0.21364094628E+02 -0.26196193782E+03  0.31468379002E+03  0.17300000000E+03 0. -1.
<mgrwt>
<rscale>  2 0.17436121E+03</rscale>
<asrwt>0</asrwt>
<pdfrwt beam="1">  1       21 0.97366491E-02 0.17436121E+03</pdfrwt>
<pdfrwt beam="2">  1       21 0.76022322E-01 0.17436121E+03</pdfrwt>
<totfact> 0.13207143E+05</totfact>
</mgrwt>
</event>
<event>
 4    1  0.4102458E+000  0.1739498E+03  0.7546771E-02  0.1173790E+00
         21   -1    0    0  503  502  0.00000000000E+00  0.00000000000E+00  0.19240594334E+03  0.19240594334E+03  0.00000000000E+00 0. -1.
         21   -1    0    0  501  503 -0.00000000000E+00 -0.00000000000E+00 -0.16722315676E+03  0.16722315676E+03  0.00000000000E+00 0. -1.
          6    1    1    2  501    0  0.94916689344E+01  0.15474114521E+02 -0.31290623289E+02  0.17674174126E+03  0.17300000000E+03 0.  1.
         -6    1    1    2    0  502 -0.94916689344E+01 -0.15474114521E+02  0.56473409872E+02  0.18288735884E+03  0.17300000000E+03 0.  1.
<mgrwt>
<rscale>  2 0.17394982E+03</rscale>
<asrwt>0</asrwt>
<pdfrwt beam="1">  1       21 0.29600915E-01 0.17394982E+03</pdfrwt>
<pdfrwt beam="2">  1       21 0.25726639E-01 0.17394982E+03</pdfrwt>
<totfact> 0.15777428E+05</totfact>
</mgrwt>
</event>
<event>
 4    1  0.4102458E+000  0.2111301E+03  0.7546771E-02  0.1140674E+00
         21   -1    0    0  501  502  0.00000000000E+00  0.00000000000E+00  0.20962555006E+03  0.20962555006E+03  0.00000000000E+00 0. -1.
         21   -1    0    0  502  503 -0.00000000000E+00 -0.00000000000E+00 -0.31722473932E+03  0.31722473932E+03  0.00000000000E+00 0.  1.
          6    1    1    2  501    0 -0.43559831596E+02 -0.11291348110E+03  0.97450831884E+02  0.23253511085E+03  0.17300000000E+03 0. -1.
         -6    1    1    2    0  503  0.43559831596E+02  0.11291348110E+03 -0.20505002114E+03  0.29431517853E+03  0.17300000000E+03 0.  1.
<mgrwt>
<rscale>  2 0.21113009E+03</rscale>
<asrwt>0</asrwt>
<pdfrwt beam="1">  1       21 0.32250085E-01 0.21113009E+03</pdfrwt>
<pdfrwt beam="2">  1       21 0.48803806E-01 0.21113009E+03</pdfrwt>
<totfact> 0.36713126E+04</totfact>
</mgrwt>
</event>
<event>
 4    1  0.4102458E+000  0.1781704E+03  0.7546771E-02  0.1169586E+00
         21   -1    0    0  501  502  0.00000000000E+00  0.00000000000E+00  0.79057612119E+03  0.79057612119E+03  0.00000000000E+00 0. -1.
         21   -1    0    0  502  503 -0.00000000000E+00 -0.00000000000E+00 -0.47930532948E+02  0.47930532948E+02  0.00000000000E+00 0. -1.
          6    1    1    2  501    0 -0.42250410091E+02  0.55327082973E+01  0.54019820503E+03  0.56882229978E+03  0.17300000000E+03 0. -1.
         -6    1    1    2    0  503  0.42250410091E+02 -0.55327082973E+01  0.20244738322E+03  0.26968435436E+03  0.17300000000E+03 0. -1.
<mgrwt>
<rscale>  2 0.17817045E+03</rscale>
<asrwt>0</asrwt>
<pdfrwt beam="1">  1       21 0.12162709E+00 0.17817045E+03</pdfrwt>
<pdfrwt beam="2">  1       21 0.73739287E-02 0.17817045E+03</pdfrwt>
<totfact> 0.71096214E+04</totfact>
</mgrwt>
</event>
<event>
 4    1  0.4102458E+000  0.2566085E+03  0.7546771E-02  0.1109198E+00
         21   -1    0    0  501  502  0.00000000000E+00  0.00000000000E+00  0.77271148707E+03  0.77271148707E+03  0.00000000000E+00 0. -1.
         21   -1    0    0  502  503 -0.00000000000E+00 -0.00000000000E+00 -0.12052835093E+03  0.12052835093E+03  0.00000000000E+00 0.  1.
          6    1    1    2  501    0  0.13468146226E+03  0.13334110047E+03  0.56783368142E+03  0.62312361141E+03  0.17300000000E+03 0. -1.
         -6    1    1    2    0  503 -0.13468146226E+03 -0.13334110047E+03  0.84349454723E+02  0.27011622658E+03  0.17300000000E+03 0.  1.
<mgrwt>
<rscale>  2 0.25660854E+03</rscale>
<asrwt>0</asrwt>
<pdfrwt beam="1">  1       21 0.11887869E+00 0.25660854E+03</pdfrwt>
<pdfrwt beam="2">  1       21 0.18542824E-01 0.25660854E+03</pdfrwt>
<totfact> 0.13815487E+04</totfact>
</mgrwt>
</event>
<event>
 4    1  0.4102458E+000  0.1880982E+03  0.7546771E-02  0.1160188E+00
         21   -1    0    0  501  502  0.00000000000E+00  0.00000000000E+00  0.25286658020E+03  0.25286658020E+03  0.00000000000E+00 0.  1.
         21   -1    0    0  502  503 -0.00000000000E+00 -0.00000000000E+00 -0.73904718835E+03  0.73904718835E+03  0.00000000000E+00 0.  1.
          6    1    1    2  501    0 -0.51211893405E+02 -0.53190762420E+02  0.20345713784E+03  0.27708432321E+03  0.17300000000E+03 0.  1.
         -6    1    1    2    0  503  0.51211893405E+02  0.53190762420E+02 -0.68963774599E+03  0.71482944534E+03  0.17300000000E+03 0.  1.
<mgrwt>
<rscale>  2 0.18809815E+03</rscale>
<asrwt>0</asrwt>
<pdfrwt beam="1">  1       21 0.38902551E-01 0.18809815E+03</pdfrwt>
<pdfrwt beam="2">  1       21 0.11369957E+00 0.18809815E+03</pdfrwt>
<totfact> 0.38547683E+03</totfact>
</mgrwt>
</event>
<event>
 4    1  0.4102458E+000  0.2113354E+03  0.7546771E-02  0.1140513E+00
         21   -1    0    0  501  502  0.00000000000E+00  0.00000000000E+00  0.44255641605E+03  0.44255641605E+03  0.00000000000E+00 0.  1.
         21   -1    0    0  502  503 -0.00000000000E+00 -0.00000000000E+00 -0.10393004318E+03  0.10393004318E+03  0.00000000000E+00 0. -1.
          6    1    1    2  501    0 -0.86175689768E+02  0.85483324508E+02  0.21581703461E+03  0.30205900203E+03  0.17300000000E+03 0.  1.
         -6    1    1    2    0  503  0.86175689768E+02 -0.85483324508E+02  0.12280933826E+03  0.24442745721E+03  0.17300000000E+03 0. -1.
<mgrwt>
<rscale>  2 0.21133539E+03</rscale>
<asrwt>0</asrwt>
<pdfrwt beam="1">  1       21 0.68085601E-01 0.21133539E+03</pdfrwt>
<pdfrwt beam="2">  1       21 0.15989238E-01 0.21133539E+03</pdfrwt>
<totfact> 0.68176938E+04</totfact>
</mgrwt>
</event>
<event>
 4    1  0.4102458E+000  0.2202448E+03  0.7546771E-02  0.1133701E+00
         21   -1    0    0  503  502  0.00000000000E+00  0.00000000000E+00  0.27577627844E+04  0.27577627844E+04  0.00000000000E+00 0. -1.
         21   -1    0    0  501  503 -0.00000000000E+00 -0.00000000000E+00 -0.17679646881E+02  0.17679646881E+02  0.00000000000E+00 0. -1.
          6    1    1    2  501    0 -0.13618274140E+03 -0.57491035470E+01  0.12709735353E+04  0.12899153145E+04  0.17300000000E+03 0. -1.
         -6    1    1    2    0  502  0.13618274140E+03  0.57491035470E+01  0.14691096022E+04  0.14855271167E+04  0.17300000000E+03 0. -1.
<mgrwt>
<rscale>  2 0.22024484E+03</rscale>
<asrwt>0</asrwt>
<pdfrwt beam="1">  1       21 0.42427086E+00 0.22024484E+03</pdfrwt>
<pdfrwt beam="2">  1       21 0.27199479E-02 0.22024484E+03</pdfrwt>
<totfact> 0.43912079E+03</totfact>
</mgrwt>
</event>
<event>
 4    1  0.4102458E+000  0.2006842E+03  0.7546771E-02  0.1149163E+00
         21   -1    0    0  501  502  0.00000000000E+00  0.00000000000E+00  0.71140048415E+02  0.71140048415E+02  0.00000000000E+00 0.  1.
         21   -1    0    0  502  503 -0.00000000000E+00 -0.00000000000E+00 -0.59195668676E+03  0.59195668676E+03  0.00000000000E+00 0.  1.
          6    1    1    2  501    0 -0.10047695018E+03 -0.15795954236E+02 -0.19114841562E+03  0.27714950204E+03  0.17300000000E+03 0.  1.
         -6    1    1    2    0  503  0.10047695018E+03  0.15795954236E+02 -0.32966822272E+03  0.38594723313E+03  0.17300000000E+03 0.  1.
<mgrwt>
<rscale>  2 0.20068415E+03</rscale>
<asrwt>0</asrwt>
<pdfrwt beam="1">  1       21 0.10944623E-01 0.20068415E+03</pdfrwt>
<pdfrwt beam="2">  1       21 0.91070261E-01 0.20068415E+03</pdfrwt>
<totfact> 0.70421010E+04</totfact>
</mgrwt>
</event>
<event>
 4    1  0.4102458E+000  0.2333911E+03  0.7546771E-02  0.1124275E+00
         21   -1    0    0  503  502  0.00000000000E+00  0.00000000000E+00  0.62332169337E+03  0.62332169337E+03  0.00000000000E+00 0.  1.
         21   -1    0    0  501  503 -0.00000000000E+00 -0.00000000000E+00 -0.99495461902E+02  0.99495461902E+02  0.00000000000E+00 0.  1.
          6    1    1    2  501    0 -0.13163455214E+02 -0.15610613486E+03  0.13584446756E+03  0.27004651684E+03  0.17300000000E+03 0.  1.
         -6    1    1    2    0  502  0.13163455214E+02  0.15610613486E+03  0.38798176391E+03  0.45277063843E+03  0.17300000000E+03 0.  1.
<mgrwt>
<rscale>  2 0.23339109E+03</rscale>
<asrwt>0</asrwt>
<pdfrwt beam="1">  1       21 0.95895643E-01 0.23339109E+03</pdfrwt>
<pdfrwt beam="2">  1       21 0.15306995E-01 0.23339109E+03</pdfrwt>
<totfact> 0.33533828E+04</totfact>
</mgrwt>
</event>
<event>
 4    1  0.4102458E+000  0.2798566E+03  0.7546771E-02  0.1095767E+00
         21   -1    0    0  501  502  0.00000000000E+00  0.00000000000E+00  0.19232755585E+03  0.19232755585E+03  0.00000000000E+00 0. -1.
         21   -1    0    0  502  503 -0.00000000000E+00 -0.00000000000E+00 -0.41640682598E+03  0.41640682598E+03  0.00000000000E+00 0.  1.
          6    1    1    2  501    0  0.19380989460E+03  0.10405979047E+03 -0.66832097449E+02  0.28772598855E+03  0.17300000000E+03 0.  1.
         -6    1    1    2    0  503 -0.19380989460E+03 -0.10405979047E+03 -0.15724717269E+03  0.32100839328E+03  0.17300000000E+03 0. -1.
<mgrwt>
<rscale>  2 0.27985660E+03</rscale>
<asrwt>0</asrwt>
<pdfrwt beam="1">  1       21 0.29588855E-01 0.27985660E+03</pdfrwt>
<pdfrwt beam="2">  1       21 0.64062588E-01 0.27985660E+03</pdfrwt>
<totfact> 0.23576375E+04</totfact>
</mgrwt>
</event>
<event>
 4    1  0.4102458E+000  0.1864648E+03  0.7546771E-02  0.1161689E+00
         21   -1    0    0  501  502  0.00000000000E+00  0.00000000000E+00  0.12724648772E+03  0.12724648772E+03  0.00000000000E+00 0.  1.
         21   -1    0    0  502  503 -0.00000000000E+00 -0.00000000000E+00 -0.27485867609E+03  0.27485867609E+03  0.00000000000E+00 0.  1.
          6    1    1    2  501    0  0.53238432073E+02  0.44786144746E+02 -0.58388403071E+02  0.19539277117E+03  0.17300000000E+03 0.  1.
         -6    1    1    2    0  503 -0.53238432073E+02 -0.44786144746E+02 -0.89223785302E+02  0.20671239265E+03  0.17300000000E+03 0.  1.
<mgrwt>
<rscale>  2 0.18646482E+03</rscale>
<asrwt>0</asrwt>
<pdfrwt beam="1">  1       21 0.19576383E-01 0.18646482E+03</pdfrwt>
<pdfrwt beam="2">  1       21 0.42285950E-01 0.18646482E+03</pdfrwt>
<totfact> 0.12955595E+05</totfact>
</mgrwt>
</event>
<event>
 4    1  0.4102458E+000  0.2021935E+03  0.7546771E-02  0.1147901E+00
         21   -1    0    0  503  502  0.00000000000E+00  0.00000000000E+00  0.25027386330E+03  0.25027386330E+03  0.00000000000E+00 0.  1.
         21   -1    0    0  501  503 -0.00000000000E+00 -0.00000000000E+00 -0.19094192441E+03  0.19094192441E+03  0.00000000000E+00 0.  1.
          6    1    1    2  501    0  0.89900373069E+02 -0.53582857595E+02 -0.54195510889E+02  0.20933072662E+03  0.17300000000E+03 0.  1.
         -6    1    1    2    0  502 -0.89900373069E+02  0.53582857595E+02  0.11352744977E+03  0.23188506109E+03  0.17300000000E+03 0.  1.
<mgrwt>
<rscale>  2 0.20219347E+03</rscale>
<asrwt>0</asrwt>
<pdfrwt beam="1">  1       21 0.38503672E-01 0.20219347E+03</pdfrwt>
<pdfrwt beam="2">  1       21 0.29375680E-01 0.20219347E+03</pdfrwt>
<totfact> 0.71903963E+04</totfact>
</mgrwt>
</event>
<event>
 4    1  0.4102458E+000  0.2264050E+03  0.7546771E-02  0.1129196E+00
         21   -1    0    0  503  502  0.00000000000E+00  0.00000000000E+00  0.31603201413E+03  0.31603201413E+03  0.00000000000E+00 0.  1.
         21   -1    0    0  501  503 -0.00000000000E+00 -0.00000000000E+00 -0.19716016043E+03  0.19716016043E+03  0.00000000000E+00 0. -1.
          6    1    1    2  501    0 -0.18728170108E+01  0.14603669194E+03 -0.48620386890E+02  0.23156676113E+03  0.17300000000E+03 0.  1.
         -6    1    1    2    0  502  0.18728170108E+01 -0.14603669194E+03  0.16749224059E+03  0.28162541344E+03  0.17300000000E+03 0. -1.
<mgrwt>
<rscale>  2 0.22640500E+03</rscale>
<asrwt>0</asrwt>
<pdfrwt beam="1">  1       21 0.48620310E-01 0.22640500E+03</pdfrwt>
<pdfrwt beam="2">  1       21 0.30332332E-01 0.22640500E+03</pdfrwt>
<totfact> 0.41433883E+04</totfact>
</mgrwt>
</event>
<event>
 4    1  0.4102458E+000  0.2494736E+03  0.7546771E-02  0.1113638E+00
         21   -1    0    0  501  502  0.00000000000E+00  0.00000000000E+00  0.59182786603E+03  0.59182786603E+03  0.00000000000E+00 0. -1.
         21   -1    0    0  502  503 -0.00000000000E+00 -0.00000000000E+00 -0.25667208765E+03  0.25667208765E+03  0.00000000000E+00 0. -1.
          6    1    1    2  501    0  0.23119478076E+02 -0.17825144524E+03  0.49353090958E+03  0.55300076556E+03  0.17300000000E+03 0. -1.
         -6    1    1    2    0  503 -0.23119478076E+02  0.17825144524E+03 -0.15837513120E+03  0.29549918812E+03  0.17300000000E+03 0. -1.
<mgrwt>
<rscale>  2 0.24947362E+03</rscale>
<asrwt>0</asrwt>
<pdfrwt beam="1">  1       21 0.91050440E-01 0.24947362E+03</pdfrwt>
<pdfrwt beam="2">  1       21 0.39488014E-01 0.24947362E+03</pdfrwt>
<totfact> 0.60803085E+03</totfact>
</mgrwt>
</event>
<event>
 4    1  0.4102458E+000  0.2210871E+03  0.7546771E-02  0.1133075E+00
         21   -1    0    0  501  502  0.00000000000E+00  0.00000000000E+00  0.25261856562E+03  0.25261856562E+03  0.00000000000E+00 0.  1.
         21   -1    0    0  502  503 -0.00000000000E+00 -0.00000000000E+00 -0.24395621438E+03  0.24395621438E+03  0.00000000000E+00 0.  1.
          6    1    1    2  501    0 -0.11207162687E+03  0.79940227649E+02  0.11725708018E+03  0.25025729240E+03  0.17300000000E+03 0.  1.
         -6    1    1    2    0  503  0.11207162687E+03 -0.79940227649E+02 -0.10859472893E+03  0.24631748760E+03  0.17300000000E+03 0.  1.
<mgrwt>
<rscale>  2 0.22108706E+03</rscale>
<asrwt>0</asrwt>
<pdfrwt beam="1">  1       21 0.38864395E-01 0.22108706E+03</pdfrwt>
<pdfrwt beam="2">  1       21 0.37531725E-01 0.22108706E+03</pdfrwt>
<totfact> 0.43102268E+04</totfact>
</mgrwt>
</event>
<event>
 4    1  0.4102458E+000  0.2061844E+03  0.7546771E-02  0.1144624E+00
         21   -1    0    0  503  502  0.00000000000E+00  0.00000000000E+00  0.10822648013E+03  0.10822648013E+03  0.00000000000E+00 0.  1.
         21   -1    0    0  501  503 -0.00000000000E+00 -0.00000000000E+00 -0.40243733375E+03  0.40243733375E+03  0.00000000000E+00 0.  1.
          6    1    1    2  501    0  0.45399877103E+02 -0.10257605409E+03 -0.18660590074E+03  0.27808947824E+03  0.17300000000E+03 0. -1.
         -6    1    1    2    0  502 -0.45399877103E+02  0.10257605409E+03 -0.10760495288E+03  0.23257433564E+03  0.17300000000E+03 0. -1.
<mgrwt>
<rscale>  2 0.20618437E+03</rscale>
<asrwt>0</asrwt>
<pdfrwt beam="1">  1       21 0.16650228E-01 0.20618437E+03</pdfrwt>
<pdfrwt beam="2">  1       21 0.61913435E-01 0.20618437E+03</pdfrwt>
<totfact> 0.78034695E+04</totfact>
</mgrwt>
</event>
<event>
 4    1  0.4102458E+000  0.1887413E+03  0.7546771E-02  0.1159602E+00
         21   -1    0    0  503  502  0.00000000000E+00  0.00000000000E+00  0.35145509922E+02  0.35145509922E+02  0.00000000000E+00 0.  1.
         21   -1    0    0  501  503 -0.00000000000E+00 -0.00000000000E+00 -0.13503507100E+04  0.13503507100E+04  0.00000000000E+00 0.  1.
          6    1    1    2  501    0  0.16206828589E+02 -0.73699381692E+02 -0.10035503554E+04  0.10211447380E+04  0.17300000000E+03 0.  1.
         -6    1    1    2    0  502 -0.16206828589E+02  0.73699381692E+02 -0.31165484467E+03  0.36435148190E+03  0.17300000000E+03 0.  1.
<mgrwt>
<rscale>  2 0.18874125E+03</rscale>
<asrwt>0</asrwt>
<pdfrwt beam="1">  1       21 0.54070019E-02 0.18874125E+03</pdfrwt>
<pdfrwt beam="2">  1       21 0.20774625E+00 0.18874125E+03</pdfrwt>
<totfact> 0.28314334E+04</totfact>
</mgrwt>
</event>
<event>
 4    1  0.4102458E+000  0.1760087E+03  0.7546771E-02  0.1171723E+00
         21   -1    0    0  503  502  0.00000000000E+00  0.00000000000E+00  0.25170687829E+03  0.25170687829E+03  0.00000000000E+00 0. -1.
         21   -1    0    0  501  503 -0.00000000000E+00 -0.00000000000E+00 -0.18661510090E+03  0.18661510090E+03  0.00000000000E+00 0. -1.
          6    1    1    2  501    0 -0.25826976752E+02 -0.19571529131E+02 -0.95336391076E+02  0.20017018995E+03  0.17300000000E+03 0. -1.
         -6    1    1    2    0  502  0.25826976752E+02  0.19571529131E+02  0.16042816846E+03  0.23815178924E+03  0.17300000000E+03 0. -1.
<mgrwt>
<rscale>  2 0.17600874E+03</rscale>
<asrwt>0</asrwt>
<pdfrwt beam="1">  1       21 0.38724135E-01 0.17600874E+03</pdfrwt>
<pdfrwt beam="2">  1       21 0.28710016E-01 0.17600874E+03</pdfrwt>
<totfact> 0.75154374E+04</totfact>
</mgrwt>
</event>
