<event>
 5    1  0.4067226E+001  0.7367452E+02  0.7546771E-02  0.1348025E+00
          2   -1    0    0  501    0  0.00000000000E+00  0.00000000000E+00  0.30201546611E+02  0.30201546611E+02  0.00000000000E+00 0. -1.
         -2   -1    0    0    0  501 -0.00000000000E+00 -0.00000000000E+00 -0.44930934328E+02  0.44930934328E+02  0.00000000000E+00 0.  1.
         23    2    1    2    0    0  0.00000000000E+00  0.00000000000E+00 -0.14729387717E+02  0.75132480939E+02  0.73674519541E+02 0.  0.
          2    1    3    3  502    0 -0.30820202966E+02 -0.18396423008E+02  0.10860562575E+01  0.35909508609E+02  0.00000000000E+00 0. -1.
         -2    1    3    3    0  502  0.30820202966E+02  0.18396423008E+02 -0.15815443975E+02  0.39222972331E+02  0.00000000000E+00 0.  1.
<mgrwt>
<rscale>  0 0.73674520E+02</rscale>
<asrwt>0</asrwt>
<pdfrwt beam="1">  1        2 0.46463918E-02 0.73674520E+02</pdfrwt>
<pdfrwt beam="2">  1       -2 0.69124514E-02 0.73674520E+02</pdfrwt>
<totfact> 0.16410662E+05</totfact>
</mgrwt>
</event>
<event>
 5    1  0.4067226E+001  0.1159983E+03  0.7546771E-02  0.1249849E+00
          2   -1    0    0  501    0  0.00000000000E+00  0.00000000000E+00  0.18823504508E+04  0.18823504508E+04  0.00000000000E+00 0. -1.
         -2   -1    0    0    0  501 -0.00000000000E+00 -0.00000000000E+00 -0.17870744986E+01  0.17870744986E+01  0.00000000000E+00 0.  1.
         23    2    1    2    0    0  0.00000000000E+00  0.00000000000E+00  0.18805633763E+04  0.18841375253E+04  0.11599828427E+03 0.  0.
          2    1    3    3  502    0 -0.13759264143E+02 -0.51154874903E+02  0.13238877495E+04  0.13249471355E+04  0.00000000000E+00 0.  1.
         -2    1    3    3    0  502  0.13759264143E+02  0.51154874903E+02  0.55667562685E+03  0.55919038986E+03  0.00000000000E+00 0. -1.
<mgrwt>
<rscale>  0 0.11599828E+03</rscale>
<asrwt>0</asrwt>
<pdfrwt beam="1">  1        2 0.28959079E+00 0.11599828E+03</pdfrwt>
<pdfrwt beam="2">  1       -2 0.27493605E-03 0.11599828E+03</pdfrwt>
<totfact> 0.10899485E+05</totfact>
</mgrwt>
</event>
<event>
 5    1  0.4067226E+001  0.9143840E+02  0.7546771E-02  0.1299405E+00
         -2   -1    0    0    0  501 -0.00000000000E+00  0.00000000000E+00  0.45266590952E+01  0.45266590952E+01  0.00000000000E+00 0.  1.
          2   -1    0    0  501    0  0.00000000000E+00 -0.00000000000E+00 -0.46176329819E+03  0.46176329819E+03  0.00000000000E+00 0. -1.
         23    2    1    2    0    0  0.00000000000E+00  0.00000000000E+00 -0.45723663909E+03  0.46628995728E+03  0.91438395296E+02 0.  0.
          2    1    3    3  502    0 -0.11611619301E+02  0.44001132717E+02 -0.25103039802E+03  0.25512191226E+03  0.00000000000E+00 0. -1.
         -2    1    3    3    0  502  0.11611619301E+02 -0.44001132717E+02 -0.20620624107E+03  0.21116804502E+03  0.00000000000E+00 0.  1.
<mgrwt>
<rscale>  0 0.91438395E+02</rscale>
<asrwt>0</asrwt>
<pdfrwt beam="2">  1        2 0.71040459E-01 0.91438395E+02</pdfrwt>
<pdfrwt beam="1">  1       -2 0.69640957E-03 0.91438395E+02</pdfrwt>
<totfact> 0.20828991E+05</totfact>
</mgrwt>
</event>
<event>
 5    1  0.4067226E+001  0.9223711E+02  0.7546771E-02  0.1297523E+00
         -2   -1    0    0    0  501 -0.00000000000E+00  0.00000000000E+00  0.17601543422E+03  0.17601543422E+03  0.00000000000E+00 0. -1.
          2   -1    0    0  501    0  0.00000000000E+00 -0.00000000000E+00 -0.12083720663E+02  0.12083720663E+02  0.00000000000E+00 0.  1.
         23    2    1    2    0    0  0.00000000000E+00  0.00000000000E+00  0.16393171355E+03  0.18809915488E+03  0.92237114862E+02 0.  0.
          2    1    3    3  502    0  0.14297229438E+02 -0.20954521330E+02  0.16050985325E+03  0.16250204837E+03  0.00000000000E+00 0. -1.
         -2    1    3    3    0  502 -0.14297229438E+02  0.20954521330E+02  0.34218603020E+01  0.25597106510E+02  0.00000000000E+00 0.  1.
<mgrwt>
<rscale>  0 0.92237115E+02</rscale>
<asrwt>0</asrwt>
<pdfrwt beam="2">  1        2 0.18590341E-02 0.92237115E+02</pdfrwt>
<pdfrwt beam="1">  1       -2 0.27079296E-01 0.92237115E+02</pdfrwt>
<totfact> 0.63816539E+04</totfact>
</mgrwt>
</event>
<event>
 5    1  0.4067226E+001  0.9393929E+02  0.7546771E-02  0.1293583E+00
          3   -1    0    0  501    0  0.00000000000E+00  0.00000000000E+00  0.42181731221E+03  0.42181731221E+03  0.00000000000E+00 0. -1.
         -3   -1    0    0    0  501 -0.00000000000E+00 -0.00000000000E+00 -0.52301016446E+01  0.52301016446E+01  0.00000000000E+00 0.  1.
         23    2    1    2    0    0  0.00000000000E+00  0.00000000000E+00  0.41658721056E+03  0.42704741385E+03  0.93939287165E+02 0.  0.
          2    1    3    3  502    0  0.32362863210E+02 -0.33817927788E+02  0.22598229034E+03  0.23077912103E+03  0.00000000000E+00 0. -1.
         -2    1    3    3    0  502 -0.32362863210E+02  0.33817927788E+02  0.19060492023E+03  0.19626829283E+03  0.00000000000E+00 0.  1.
<mgrwt>
<rscale>  0 0.93939287E+02</rscale>
<asrwt>0</asrwt>
<pdfrwt beam="1">  1        3 0.64894944E-01 0.93939287E+02</pdfrwt>
<pdfrwt beam="2">  1       -3 0.80463135E-03 0.93939287E+02</pdfrwt>
<totfact> 0.18299252E+04</totfact>
</mgrwt>
</event>
<event>
 5    1  0.4067226E+001  0.9265135E+02  0.7546771E-02  0.1296555E+00
          2   -1    0    0  501    0  0.00000000000E+00  0.00000000000E+00  0.13882241851E+04  0.13882241851E+04  0.00000000000E+00 0. -1.
         -2   -1    0    0    0  501 -0.00000000000E+00 -0.00000000000E+00 -0.15459090474E+01  0.15459090474E+01  0.00000000000E+00 0.  1.
         23    2    1    2    0    0  0.00000000000E+00  0.00000000000E+00  0.13866782760E+04  0.13897700941E+04  0.92651353527E+02 0.  0.
          2    1    3    3  502    0  0.24372051323E+02  0.39370543872E+02  0.67195839396E+03  0.67355186869E+03  0.00000000000E+00 0. -1.
         -2    1    3    3    0  502 -0.24372051323E+02 -0.39370543872E+02  0.71471988208E+03  0.71621822544E+03  0.00000000000E+00 0.  1.
<mgrwt>
<rscale>  0 0.92651354E+02</rscale>
<asrwt>0</asrwt>
<pdfrwt beam="1">  1        2 0.21357195E+00 0.92651354E+02</pdfrwt>
<pdfrwt beam="2">  1       -2 0.23783327E-03 0.92651354E+02</pdfrwt>
<totfact> 0.23195049E+05</totfact>
</mgrwt>
</event>
<event>
 5    1  0.4067226E+001  0.9269720E+02  0.7546771E-02  0.1296448E+00
          2   -1    0    0  501    0  0.00000000000E+00  0.00000000000E+00  0.20259520188E+02  0.20259520188E+02  0.00000000000E+00 0. -1.
         -2   -1    0    0    0  501 -0.00000000000E+00 -0.00000000000E+00 -0.10603374275E+03  0.10603374275E+03  0.00000000000E+00 0.  1.
         23    2    1    2    0    0  0.00000000000E+00  0.00000000000E+00 -0.85774222566E+02  0.12629326294E+03  0.92697200647E+02 0.  0.
          2    1    3    3  502    0  0.44693984194E+02 -0.12161081747E+02 -0.45145875399E+02  0.64680709628E+02  0.00000000000E+00 0. -1.
         -2    1    3    3    0  502 -0.44693984194E+02  0.12161081747E+02 -0.40628347167E+02  0.61612553315E+02  0.00000000000E+00 0.  1.
<mgrwt>
<rscale>  0 0.92697201E+02</rscale>
<asrwt>0</asrwt>
<pdfrwt beam="1">  1        2 0.31168493E-02 0.92697201E+02</pdfrwt>
<pdfrwt beam="2">  1       -2 0.16312883E-01 0.92697201E+02</pdfrwt>
<totfact> 0.75234144E+04</totfact>
</mgrwt>
</event>
<event>
 5    1  0.4067226E+001  0.9060364E+02  0.7546771E-02  0.1301396E+00
         -2   -1    0    0    0  501 -0.00000000000E+00  0.00000000000E+00  0.83758620418E+01  0.83758620418E+01  0.00000000000E+00 0.  1.
          2   -1    0    0  501    0  0.00000000000E+00 -0.00000000000E+00 -0.24502016015E+03  0.24502016015E+03  0.00000000000E+00 0. -1.
         23    2    1    2    0    0  0.00000000000E+00  0.00000000000E+00 -0.23664429811E+03  0.25339602219E+03  0.90603643610E+02 0.  0.
          2    1    3    3  502    0  0.19804648483E+02  0.20794971338E+02 -0.21631233726E+03  0.21821017893E+03  0.00000000000E+00 0. -1.
         -2    1    3    3    0  502 -0.19804648483E+02 -0.20794971338E+02 -0.20331960842E+02  0.35185843264E+02  0.00000000000E+00 0.  1.
<mgrwt>
<rscale>  0 0.90603644E+02</rscale>
<asrwt>0</asrwt>
<pdfrwt beam="2">  1        2 0.37695409E-01 0.90603644E+02</pdfrwt>
<pdfrwt beam="1">  1       -2 0.12885942E-02 0.90603644E+02</pdfrwt>
<totfact> 0.16945299E+05</totfact>
</mgrwt>
</event>
<event>
 5    1  0.4067226E+001  0.9285328E+02  0.7546771E-02  0.1296086E+00
         -1   -1    0    0    0  501 -0.00000000000E+00  0.00000000000E+00  0.42243834247E+02  0.42243834247E+02  0.00000000000E+00 0.  1.
          1   -1    0    0  501    0  0.00000000000E+00 -0.00000000000E+00 -0.51023614634E+02  0.51023614634E+02  0.00000000000E+00 0. -1.
         23    2    1    2    0    0  0.00000000000E+00  0.00000000000E+00 -0.87797803864E+01  0.93267448881E+02  0.92853284687E+02 0.  0.
          2    1    3    3  502    0  0.33077106192E+02 -0.28181994233E+01 -0.36990719032E+02  0.49702620621E+02  0.00000000000E+00 0. -1.
         -2    1    3    3    0  502 -0.33077106192E+02  0.28181994233E+01  0.28210938646E+02  0.43564828260E+02  0.00000000000E+00 0.  1.
<mgrwt>
<rscale>  0 0.92853285E+02</rscale>
<asrwt>0</asrwt>
<pdfrwt beam="2">  1        1 0.78497868E-02 0.92853285E+02</pdfrwt>
<pdfrwt beam="1">  1       -1 0.64990514E-02 0.92853285E+02</pdfrwt>
<totfact> 0.89372782E+04</totfact>
</mgrwt>
</event>
<event>
 5    1  0.4067226E+001  0.9075392E+02  0.7546771E-02  0.1301036E+00
          1   -1    0    0  501    0  0.00000000000E+00  0.00000000000E+00  0.21562823461E+02  0.21562823461E+02  0.00000000000E+00 0. -1.
         -1   -1    0    0    0  501 -0.00000000000E+00 -0.00000000000E+00 -0.95491597934E+02  0.95491597934E+02  0.00000000000E+00 0.  1.
         23    2    1    2    0    0  0.00000000000E+00  0.00000000000E+00 -0.73928774473E+02  0.11705442139E+03  0.90753919325E+02 0.  0.
          2    1    3    3  502    0 -0.35965035029E+02  0.24612248225E+02 -0.20658641708E+02  0.48228891596E+02  0.00000000000E+00 0. -1.
         -2    1    3    3    0  502  0.35965035029E+02 -0.24612248225E+02 -0.53270132765E+02  0.68825529799E+02  0.00000000000E+00 0.  1.
<mgrwt>
<rscale>  0 0.90753919E+02</rscale>
<asrwt>0</asrwt>
<pdfrwt beam="1">  1        1 0.33173575E-02 0.90753919E+02</pdfrwt>
<pdfrwt beam="2">  1       -1 0.14691015E-01 0.90753919E+02</pdfrwt>
<totfact> 0.83051041E+04</totfact>
</mgrwt>
</event>
<event>
 5    1  0.4067226E+001  0.9200932E+02  0.7546771E-02  0.1298058E+00
          1   -1    0    0  501    0  0.00000000000E+00  0.00000000000E+00  0.75236579055E+03  0.75236579055E+03  0.00000000000E+00 0. -1.
         -1   -1    0    0    0  501 -0.00000000000E+00 -0.00000000000E+00 -0.28130314501E+01  0.28130314501E+01  0.00000000000E+00 0.  1.
         23    2    1    2    0    0  0.00000000000E+00  0.00000000000E+00  0.74955275910E+03  0.75517882200E+03  0.92009317589E+02 0.  0.
          2    1    3    3  502    0 -0.18054389737E+01  0.35210177644E+02  0.61734112033E+03  0.61834705067E+03  0.00000000000E+00 0. -1.
         -2    1    3    3    0  502  0.18054389737E+01 -0.35210177644E+02  0.13221163877E+03  0.13683177133E+03  0.00000000000E+00 0.  1.
<mgrwt>
<rscale>  0 0.92009318E+02</rscale>
<asrwt>0</asrwt>
<pdfrwt beam="1">  1        1 0.11574842E+00 0.92009318E+02</pdfrwt>
<pdfrwt beam="2">  1       -1 0.43277467E-03 0.92009318E+02</pdfrwt>
<totfact> 0.13851473E+05</totfact>
</mgrwt>
</event>
<event>
 5    1  0.4067226E+001  0.9051521E+02  0.7546771E-02  0.1301609E+00
         -1   -1    0    0    0  501 -0.00000000000E+00  0.00000000000E+00  0.22544979628E+02  0.22544979628E+02  0.00000000000E+00 0.  1.
          1   -1    0    0  501    0  0.00000000000E+00 -0.00000000000E+00 -0.90851757763E+02  0.90851757763E+02  0.00000000000E+00 0. -1.
         23    2    1    2    0    0  0.00000000000E+00  0.00000000000E+00 -0.68306778135E+02  0.11339673739E+03  0.90515214807E+02 0.  0.
          2    1    3    3  502    0 -0.25399126987E+02 -0.81039005696E+01 -0.79969658777E+02  0.84296709194E+02  0.00000000000E+00 0. -1.
         -2    1    3    3    0  502  0.25399126987E+02  0.81039005696E+01  0.11662880642E+02  0.29100028196E+02  0.00000000000E+00 0.  1.
<mgrwt>
<rscale>  0 0.90515215E+02</rscale>
<asrwt>0</asrwt>
<pdfrwt beam="2">  1        1 0.13977194E-01 0.90515215E+02</pdfrwt>
<pdfrwt beam="1">  1       -1 0.34684584E-02 0.90515215E+02</pdfrwt>
<totfact> 0.10488294E+05</totfact>
</mgrwt>
</event>
<event>
 5    1  0.4067226E+001  0.9150343E+02  0.7546771E-02  0.1299251E+00
         -1   -1    0    0    0  501 -0.00000000000E+00  0.00000000000E+00  0.10826374771E+01  0.10826374771E+01  0.00000000000E+00 0.  1.
          1   -1    0    0  501    0  0.00000000000E+00 -0.00000000000E+00 -0.19334445500E+04  0.19334445500E+04  0.00000000000E+00 0. -1.
         23    2    1    2    0    0  0.00000000000E+00  0.00000000000E+00 -0.19323619125E+04  0.19345271875E+04  0.91503432279E+02 0.  0.
          2    1    3    3  502    0  0.52034444501E+01  0.30697839711E+02 -0.16749085237E+04  0.16751978976E+04  0.00000000000E+00 0. -1.
         -2    1    3    3    0  502 -0.52034444501E+01 -0.30697839711E+02 -0.25745338882E+03  0.25932928993E+03  0.00000000000E+00 0.  1.
<mgrwt>
<rscale>  0 0.91503432E+02</rscale>
<asrwt>0</asrwt>
<pdfrwt beam="2">  1        1 0.29745119E+00 0.91503432E+02</pdfrwt>
<pdfrwt beam="1">  1       -1 0.16656063E-03 0.91503432E+02</pdfrwt>
<totfact> 0.82970833E+04</totfact>
</mgrwt>
</event>
<event>
 5    1  0.4067226E+001  0.8912618E+02  0.7546771E-02  0.1304982E+00
          1   -1    0    0  501    0  0.00000000000E+00  0.00000000000E+00  0.30638142176E+03  0.30638142176E+03  0.00000000000E+00 0. -1.
         -1   -1    0    0    0  501 -0.00000000000E+00 -0.00000000000E+00 -0.64816890535E+01  0.64816890535E+01  0.00000000000E+00 0.  1.
         23    2    1    2    0    0  0.00000000000E+00  0.00000000000E+00  0.29989973270E+03  0.31286311081E+03  0.89126182631E+02 0.  0.
          2    1    3    3  502    0  0.36923164850E+01  0.28928036466E+02  0.31666308087E+02  0.43049036722E+02  0.00000000000E+00 0.  1.
         -2    1    3    3    0  502 -0.36923164850E+01 -0.28928036466E+02  0.26823342462E+03  0.26981407409E+03  0.00000000000E+00 0. -1.
<mgrwt>
<rscale>  0 0.89126183E+02</rscale>
<asrwt>0</asrwt>
<pdfrwt beam="1">  1        1 0.47135592E-01 0.89126183E+02</pdfrwt>
<pdfrwt beam="2">  1       -1 0.99718317E-03 0.89126183E+02</pdfrwt>
<totfact> 0.13665709E+05</totfact>
</mgrwt>
</event>
<event>
 5    1  0.4067226E+001  0.9184223E+02  0.7546771E-02  0.1298451E+00
          2   -1    0    0  501    0  0.00000000000E+00  0.00000000000E+00  0.13234383805E+04  0.13234383805E+04  0.00000000000E+00 0. -1.
         -2   -1    0    0    0  501 -0.00000000000E+00 -0.00000000000E+00 -0.15933864626E+01  0.15933864626E+01  0.00000000000E+00 0.  1.
         23    2    1    2    0    0  0.00000000000E+00  0.00000000000E+00  0.13218449940E+04  0.13250317669E+04  0.91842229928E+02 0.  0.
          2    1    3    3  502    0 -0.33925582535E+01 -0.38503706479E+02  0.10186207897E+04  0.10193538925E+04  0.00000000000E+00 0. -1.
         -2    1    3    3    0  502  0.33925582535E+01  0.38503706479E+02  0.30322420427E+03  0.30567787443E+03  0.00000000000E+00 0.  1.
<mgrwt>
<rscale>  0 0.91842230E+02</rscale>
<asrwt>0</asrwt>
<pdfrwt beam="1">  1        2 0.20360503E+00 0.91842230E+02</pdfrwt>
<pdfrwt beam="2">  1       -2 0.24513744E-03 0.91842230E+02</pdfrwt>
<totfact> 0.24015476E+05</totfact>
</mgrwt>
</event>
<event>
 5    1  0.4067226E+001  0.1071960E+03  0.7546771E-02  0.1265852E+00
         -4   -1    0    0    0  501 -0.00000000000E+00  0.00000000000E+00  0.41824839587E+01  0.41824839587E+01  0.00000000000E+00 0.  1.
          4   -1    0    0  501    0  0.00000000000E+00 -0.00000000000E+00 -0.68685164847E+03  0.68685164847E+03  0.00000000000E+00 0. -1.
         23    2    1    2    0    0  0.00000000000E+00  0.00000000000E+00 -0.68266916451E+03  0.69103413243E+03  0.10719600742E+03 0.  0.
          2    1    3    3  502    0  0.40755111738E+02 -0.26019383246E+02 -0.19226131729E+03  0.19824833306E+03  0.00000000000E+00 0. -1.
         -2    1    3    3    0  502 -0.40755111738E+02  0.26019383246E+02 -0.49040784722E+03  0.49278579936E+03  0.00000000000E+00 0.  1.
<mgrwt>
<rscale>  0 0.10719601E+03</rscale>
<asrwt>0</asrwt>
<pdfrwt beam="2">  1        4 0.10566943E+00 0.10719601E+03</pdfrwt>
<pdfrwt beam="1">  1       -4 0.64345942E-03 0.10719601E+03</pdfrwt>
<totfact> 0.66070924E+03</totfact>
</mgrwt>
</event>
<event>
 5    1  0.4067226E+001  0.9211137E+02  0.7546771E-02  0.1297818E+00
         -2   -1    0    0    0  501 -0.00000000000E+00  0.00000000000E+00  0.21224644561E+01  0.21224644561E+01  0.00000000000E+00 0.  1.
          2   -1    0    0  501    0  0.00000000000E+00 -0.00000000000E+00 -0.99936939298E+03  0.99936939298E+03  0.00000000000E+00 0. -1.
         23    2    1    2    0    0  0.00000000000E+00  0.00000000000E+00 -0.99724692853E+03  0.10014918574E+04  0.92111367705E+02 0.  0.
          2    1    3    3  502    0  0.31661174448E+02 -0.12747127461E+02 -0.83483305901E+03  0.83553046362E+03  0.00000000000E+00 0. -1.
         -2    1    3    3    0  502 -0.31661174448E+02  0.12747127461E+02 -0.16241386952E+03  0.16596139382E+03  0.00000000000E+00 0.  1.
<mgrwt>
<rscale>  0 0.92111368E+02</rscale>
<asrwt>0</asrwt>
<pdfrwt beam="2">  1        2 0.15374908E+00 0.92111368E+02</pdfrwt>
<pdfrwt beam="1">  1       -2 0.32653312E-03 0.92111368E+02</pdfrwt>
<totfact> 0.24338015E+05</totfact>
</mgrwt>
</event>
<event>
 5    1  0.4067226E+001  0.8982291E+02  0.7546771E-02  0.1303281E+00
         -1   -1    0    0    0  501 -0.00000000000E+00  0.00000000000E+00  0.29759486274E+02  0.29759486274E+02  0.00000000000E+00 0.  1.
          1   -1    0    0  501    0  0.00000000000E+00 -0.00000000000E+00 -0.67778011968E+02  0.67778011968E+02  0.00000000000E+00 0. -1.
         23    2    1    2    0    0  0.00000000000E+00  0.00000000000E+00 -0.38018525694E+02  0.97537498242E+02  0.89822910593E+02 0.  0.
          2    1    3    3  502    0 -0.37876719851E+02 -0.34215589618E+01 -0.44950043326E+02  0.58880042182E+02  0.00000000000E+00 0. -1.
         -2    1    3    3    0  502  0.37876719851E+02  0.34215589618E+01  0.69315176321E+01  0.38657456060E+02  0.00000000000E+00 0.  1.
<mgrwt>
<rscale>  0 0.89822911E+02</rscale>
<asrwt>0</asrwt>
<pdfrwt beam="2">  1        1 0.10427386E-01 0.89822911E+02</pdfrwt>
<pdfrwt beam="1">  1       -1 0.45783825E-02 0.89822911E+02</pdfrwt>
<totfact> 0.10231077E+05</totfact>
</mgrwt>
</event>
<event>
 5    1  0.4067226E+001  0.9183572E+02  0.7546771E-02  0.1298466E+00
          2   -1    0    0  501    0  0.00000000000E+00  0.00000000000E+00  0.34947120393E+02  0.34947120393E+02  0.00000000000E+00 0.  1.
         -2   -1    0    0    0  501 -0.00000000000E+00 -0.00000000000E+00 -0.60332573006E+02  0.60332573006E+02  0.00000000000E+00 0. -1.
         23    2    1    2    0    0  0.00000000000E+00  0.00000000000E+00 -0.25385452613E+02  0.95279693400E+02  0.91835716200E+02 0.  0.
          2    1    3    3  502    0  0.33188298743E+02 -0.40943972660E+01 -0.45340615926E+02  0.56338252680E+02  0.00000000000E+00 0. -1.
         -2    1    3    3    0  502 -0.33188298743E+02  0.40943972660E+01  0.19955163314E+02  0.38941440720E+02  0.00000000000E+00 0.  1.
<mgrwt>
<rscale>  0 0.91835716E+02</rscale>
<asrwt>0</asrwt>
<pdfrwt beam="1">  1        2 0.53764801E-02 0.91835716E+02</pdfrwt>
<pdfrwt beam="2">  1       -2 0.92819343E-02 0.91835716E+02</pdfrwt>
<totfact> 0.90176131E+04</totfact>
</mgrwt>
</event>
<event>
 5    1  0.4067226E+001  0.9183779E+02  0.7546771E-02  0.1298461E+00
         -1   -1    0    0    0  501 -0.00000000000E+00  0.00000000000E+00  0.12791815975E+02  0.12791815975E+02  0.00000000000E+00 0.  1.
          1   -1    0    0  501    0  0.00000000000E+00 -0.00000000000E+00 -0.16483548142E+03  0.16483548142E+03  0.00000000000E+00 0. -1.
         23    2    1    2    0    0  0.00000000000E+00  0.00000000000E+00 -0.15204366544E+03  0.17762729739E+03  0.91837794932E+02 0.  0.
          2    1    3    3  502    0 -0.22540732455E+02  0.32525731401E+02 -0.12107269108E+03  0.12737583895E+03  0.00000000000E+00 0. -1.
         -2    1    3    3    0  502  0.22540732455E+02 -0.32525731401E+02 -0.30970974366E+02  0.50251458446E+02  0.00000000000E+00 0.  1.
<mgrwt>
<rscale>  0 0.91837795E+02</rscale>
<asrwt>0</asrwt>
<pdfrwt beam="2">  1        1 0.25359304E-01 0.91837795E+02</pdfrwt>
<pdfrwt beam="1">  1       -1 0.19679718E-02 0.91837795E+02</pdfrwt>
<totfact> 0.11191252E+05</totfact>
</mgrwt>
</event>
<event>
 5    1  0.4067226E+001  0.8730511E+02  0.7546771E-02  0.1309512E+00
          1   -1    0    0  501    0  0.00000000000E+00  0.00000000000E+00  0.32879896020E+02  0.32879896020E+02  0.00000000000E+00 0. -1.
         -1   -1    0    0    0  501 -0.00000000000E+00 -0.00000000000E+00 -0.57954736141E+02  0.57954736141E+02  0.00000000000E+00 0.  1.
         23    2    1    2    0    0  0.00000000000E+00  0.00000000000E+00 -0.25074840122E+02  0.90834632161E+02  0.87305113210E+02 0.  0.
          2    1    3    3  502    0  0.28372445761E+02  0.30572802243E+02 -0.25936484402E+02  0.49116118928E+02  0.00000000000E+00 0. -1.
         -2    1    3    3    0  502 -0.28372445761E+02 -0.30572802243E+02  0.86164428018E+00  0.41718513232E+02  0.00000000000E+00 0.  1.
<mgrwt>
<rscale>  0 0.87305113E+02</rscale>
<asrwt>0</asrwt>
<pdfrwt beam="1">  1        1 0.50584456E-02 0.87305113E+02</pdfrwt>
<pdfrwt beam="2">  1       -1 0.89161132E-02 0.87305113E+02</pdfrwt>
<totfact> 0.99502243E+04</totfact>
</mgrwt>
</event>
<event>
 5    1  0.4067226E+001  0.9125038E+02  0.7546771E-02  0.1299852E+00
         -2   -1    0    0    0  501 -0.00000000000E+00  0.00000000000E+00  0.10212531064E+03  0.10212531064E+03  0.00000000000E+00 0.  1.
          2   -1    0    0  501    0  0.00000000000E+00 -0.00000000000E+00 -0.20383369076E+02  0.20383369076E+02  0.00000000000E+00 0. -1.
         23    2    1    2    0    0  0.00000000000E+00  0.00000000000E+00  0.81741941563E+02  0.12250867971E+03  0.91250378601E+02 0.  0.
          2    1    3    3  502    0  0.45068445551E+02  0.51202560450E+01  0.34256096796E+02  0.56840671829E+02  0.00000000000E+00 0. -1.
         -2    1    3    3    0  502 -0.45068445551E+02 -0.51202560450E+01  0.47485844767E+02  0.65668007885E+02  0.00000000000E+00 0.  1.
<mgrwt>
<rscale>  0 0.91250379E+02</rscale>
<asrwt>0</asrwt>
<pdfrwt beam="2">  1        2 0.31359030E-02 0.91250379E+02</pdfrwt>
<pdfrwt beam="1">  1       -2 0.15711586E-01 0.91250379E+02</pdfrwt>
<totfact> 0.79145673E+04</totfact>
</mgrwt>
</event>
<event>
 5    1  0.4067226E+001  0.9685671E+02  0.7546771E-02  0.1287048E+00
          1   -1    0    0  501    0  0.00000000000E+00  0.00000000000E+00  0.11130492836E+04  0.11130492836E+04  0.00000000000E+00 0. -1.
         -1   -1    0    0    0  501 -0.00000000000E+00 -0.00000000000E+00 -0.21070992926E+01  0.21070992926E+01  0.00000000000E+00 0.  1.
         23    2    1    2    0    0  0.00000000000E+00  0.00000000000E+00  0.11109421843E+04  0.11151563828E+04  0.96856705663E+02 0.  0.
          2    1    3    3  502    0  0.62391430257E+01  0.47477077179E+02  0.47220270485E+03  0.47462447706E+03  0.00000000000E+00 0.  1.
         -2    1    3    3    0  502 -0.62391430257E+01 -0.47477077179E+02  0.63873947941E+03  0.64053190578E+03  0.00000000000E+00 0. -1.
<mgrwt>
<rscale>  0 0.96856706E+02</rscale>
<asrwt>0</asrwt>
<pdfrwt beam="1">  1        1 0.17123788E+00 0.96856706E+02</pdfrwt>
<pdfrwt beam="2">  1       -1 0.32417001E-03 0.96856706E+02</pdfrwt>
<totfact> 0.11196700E+05</totfact>
</mgrwt>
</event>
<event>
 5    1  0.4067226E+001  0.9147819E+02  0.7546771E-02  0.1299311E+00
         -2   -1    0    0    0  501 -0.00000000000E+00  0.00000000000E+00  0.63979051321E+01  0.63979051321E+01  0.00000000000E+00 0.  1.
          2   -1    0    0  501    0  0.00000000000E+00 -0.00000000000E+00 -0.32699215051E+03  0.32699215051E+03  0.00000000000E+00 0. -1.
         23    2    1    2    0    0  0.00000000000E+00  0.00000000000E+00 -0.32059424538E+03  0.33339005564E+03  0.91478188831E+02 0.  0.
          2    1    3    3  502    0  0.20481532254E+02 -0.39107348242E+02 -0.20390718825E+03  0.20863129983E+03  0.00000000000E+00 0. -1.
         -2    1    3    3    0  502 -0.20481532254E+02  0.39107348242E+02 -0.11668705713E+03  0.12475875581E+03  0.00000000000E+00 0.  1.
<mgrwt>
<rscale>  0 0.91478189E+02</rscale>
<asrwt>0</asrwt>
<pdfrwt beam="2">  1        2 0.50306493E-01 0.91478189E+02</pdfrwt>
<pdfrwt beam="1">  1       -2 0.98429293E-03 0.91478189E+02</pdfrwt>
<totfact> 0.18387328E+05</totfact>
</mgrwt>
</event>
<event>
 5    1  0.4067226E+001  0.8945277E+02  0.7546771E-02  0.1304182E+00
         -1   -1    0    0    0  501 -0.00000000000E+00  0.00000000000E+00  0.94340982265E+02  0.94340982265E+02  0.00000000000E+00 0.  1.
          1   -1    0    0  501    0  0.00000000000E+00 -0.00000000000E+00 -0.21204460625E+02  0.21204460625E+02  0.00000000000E+00 0. -1.
         23    2    1    2    0    0  0.00000000000E+00  0.00000000000E+00  0.73136521640E+02  0.11554544289E+03  0.89452772875E+02 0.  0.
          2    1    3    3  502    0 -0.26460896033E+02 -0.24250189639E+02  0.20968013042E+01  0.35953404458E+02  0.00000000000E+00 0. -1.
         -2    1    3    3    0  502  0.26460896033E+02  0.24250189639E+02  0.71039720336E+02  0.79592038432E+02  0.00000000000E+00 0.  1.
<mgrwt>
<rscale>  0 0.89452773E+02</rscale>
<asrwt>0</asrwt>
<pdfrwt beam="2">  1        1 0.32622248E-02 0.89452773E+02</pdfrwt>
<pdfrwt beam="1">  1       -1 0.14513997E-01 0.89452773E+02</pdfrwt>
<totfact> 0.86378189E+04</totfact>
</mgrwt>
</event>
<event>
 5    1  0.4067226E+001  0.9073826E+02  0.7546771E-02  0.1301074E+00
         -2   -1    0    0    0  501 -0.00000000000E+00  0.00000000000E+00  0.15355831357E+01  0.15355831357E+01  0.00000000000E+00 0.  1.
          2   -1    0    0  501    0  0.00000000000E+00 -0.00000000000E+00 -0.13404405463E+04  0.13404405463E+04  0.00000000000E+00 0. -1.
         23    2    1    2    0    0  0.00000000000E+00  0.00000000000E+00 -0.13389049631E+04  0.13419761294E+04  0.90738258683E+02 0.  0.
          2    1    3    3  502    0  0.20148106085E+02  0.37112545239E+02 -0.91474060452E+03  0.91571483593E+03  0.00000000000E+00 0. -1.
         -2    1    3    3    0  502 -0.20148106085E+02 -0.37112545239E+02 -0.42416435860E+03  0.42626129345E+03  0.00000000000E+00 0.  1.
<mgrwt>
<rscale>  0 0.90738259E+02</rscale>
<asrwt>0</asrwt>
<pdfrwt beam="2">  1        2 0.20622061E+00 0.90738259E+02</pdfrwt>
<pdfrwt beam="1">  1       -2 0.23624472E-03 0.90738259E+02</pdfrwt>
<totfact> 0.24722385E+05</totfact>
</mgrwt>
</event>
<event>
 5    1  0.4067226E+001  0.8753212E+02  0.7546771E-02  0.1308941E+00
         -1   -1    0    0    0  501 -0.00000000000E+00  0.00000000000E+00  0.11531634070E+03  0.11531634070E+03  0.00000000000E+00 0.  1.
          1   -1    0    0  501    0  0.00000000000E+00 -0.00000000000E+00 -0.16610550727E+02  0.16610550727E+02  0.00000000000E+00 0. -1.
         23    2    1    2    0    0  0.00000000000E+00  0.00000000000E+00  0.98705789975E+02  0.13192689143E+03  0.87532118149E+02 0.  0.
          2    1    3    3  502    0 -0.32125570536E+02 -0.18599437501E+02  0.14411063924E+02  0.39820473642E+02  0.00000000000E+00 0. -1.
         -2    1    3    3    0  502  0.32125570536E+02  0.18599437501E+02  0.84294726052E+02  0.92106417788E+02  0.00000000000E+00 0.  1.
<mgrwt>
<rscale>  0 0.87532118E+02</rscale>
<asrwt>0</asrwt>
<pdfrwt beam="2">  1        1 0.25554694E-02 0.87532118E+02</pdfrwt>
<pdfrwt beam="1">  1       -1 0.17740975E-01 0.87532118E+02</pdfrwt>
<totfact> 0.87947900E+04</totfact>
</mgrwt>
</event>
<event>
 5    1  0.4067226E+001  0.9162637E+02  0.7546771E-02  0.1298960E+00
         -1   -1    0    0    0  501 -0.00000000000E+00  0.00000000000E+00  0.57964994452E+02  0.57964994452E+02  0.00000000000E+00 0.  1.
          1   -1    0    0  501    0  0.00000000000E+00 -0.00000000000E+00 -0.36208888754E+02  0.36208888754E+02  0.00000000000E+00 0. -1.
         23    2    1    2    0    0  0.00000000000E+00  0.00000000000E+00  0.21756105699E+02  0.94173883206E+02  0.91626372530E+02 0.  0.
          2    1    3    3  502    0 -0.10665328409E+02  0.41043457128E+02 -0.69398415755E+01  0.42970641189E+02  0.00000000000E+00 0. -1.
         -2    1    3    3    0  502  0.10665328409E+02 -0.41043457128E+02  0.28695947274E+02  0.51203242017E+02  0.00000000000E+00 0.  1.
<mgrwt>
<rscale>  0 0.91626373E+02</rscale>
<asrwt>0</asrwt>
<pdfrwt beam="2">  1        1 0.55705983E-02 0.91626373E+02</pdfrwt>
<pdfrwt beam="1">  1       -1 0.89176915E-02 0.91626373E+02</pdfrwt>
<totfact> 0.88052224E+04</totfact>
</mgrwt>
</event>
<event>
 5    1  0.4067226E+001  0.9136437E+02  0.7546771E-02  0.1299581E+00
          1   -1    0    0  501    0  0.00000000000E+00  0.00000000000E+00  0.30022769153E+03  0.30022769153E+03  0.00000000000E+00 0. -1.
         -1   -1    0    0    0  501 -0.00000000000E+00 -0.00000000000E+00 -0.69509310131E+01  0.69509310131E+01  0.00000000000E+00 0.  1.
         23    2    1    2    0    0  0.00000000000E+00  0.00000000000E+00  0.29327676052E+03  0.30717862255E+03  0.91364368811E+02 0.  0.
          2    1    3    3  502    0  0.89096120012E+01  0.43255147812E+02  0.18591530332E+03  0.19108869408E+03  0.00000000000E+00 0. -1.
         -2    1    3    3    0  502 -0.89096120012E+01 -0.43255147812E+02  0.10736145720E+03  0.11608992847E+03  0.00000000000E+00 0.  1.
<mgrwt>
<rscale>  0 0.91364369E+02</rscale>
<asrwt>0</asrwt>
<pdfrwt beam="1">  1        1 0.46188866E-01 0.91364369E+02</pdfrwt>
<pdfrwt beam="2">  1       -1 0.10693742E-02 0.91364369E+02</pdfrwt>
<totfact> 0.12744029E+05</totfact>
</mgrwt>
</event>
<event>
 5    1  0.4067226E+001  0.9368132E+02  0.7546771E-02  0.1294174E+00
         -1   -1    0    0    0  501 -0.00000000000E+00  0.00000000000E+00  0.93961971695E+02  0.93961971695E+02  0.00000000000E+00 0.  1.
          1   -1    0    0  501    0  0.00000000000E+00 -0.00000000000E+00 -0.23350375921E+02  0.23350375921E+02  0.00000000000E+00 0. -1.
         23    2    1    2    0    0  0.00000000000E+00  0.00000000000E+00  0.70611595774E+02  0.11731234762E+03  0.93681318550E+02 0.  0.
          2    1    3    3  502    0  0.41897115548E+02 -0.16815737413E+02  0.19669721622E+02  0.49244647066E+02  0.00000000000E+00 0. -1.
         -2    1    3    3    0  502 -0.41897115548E+02  0.16815737413E+02  0.50941874152E+02  0.68067700549E+02  0.00000000000E+00 0.  1.
<mgrwt>
<rscale>  0 0.93681319E+02</rscale>
<asrwt>0</asrwt>
<pdfrwt beam="2">  1        1 0.35923656E-02 0.93681319E+02</pdfrwt>
<pdfrwt beam="1">  1       -1 0.14455688E-01 0.93681319E+02</pdfrwt>
<totfact> 0.76758410E+04</totfact>
</mgrwt>
</event>
<event>
 5    1  0.4067226E+001  0.9053420E+02  0.7546771E-02  0.1301563E+00
          2   -1    0    0  501    0  0.00000000000E+00  0.00000000000E+00  0.26445306735E+03  0.26445306735E+03  0.00000000000E+00 0. -1.
         -2   -1    0    0    0  501 -0.00000000000E+00 -0.00000000000E+00 -0.77484845688E+01  0.77484845688E+01  0.00000000000E+00 0.  1.
         23    2    1    2    0    0  0.00000000000E+00  0.00000000000E+00  0.25670458278E+03  0.27220155192E+03  0.90534203736E+02 0.  0.
          2    1    3    3  502    0  0.34783869330E+02  0.28946002854E+02  0.12489551402E+03  0.13284079971E+03  0.00000000000E+00 0. -1.
         -2    1    3    3    0  502 -0.34783869330E+02 -0.28946002854E+02  0.13180906876E+03  0.13936075220E+03  0.00000000000E+00 0.  1.
<mgrwt>
<rscale>  0 0.90534204E+02</rscale>
<asrwt>0</asrwt>
<pdfrwt beam="1">  1        2 0.40685080E-01 0.90534204E+02</pdfrwt>
<pdfrwt beam="2">  1       -2 0.11920748E-02 0.90534204E+02</pdfrwt>
<totfact> 0.17467507E+05</totfact>
</mgrwt>
</event>
<event>
 5    1  0.4067226E+001  0.9146802E+02  0.7546771E-02  0.1299335E+00
         -3   -1    0    0    0  501 -0.00000000000E+00  0.00000000000E+00  0.61447362880E+01  0.61447362880E+01  0.00000000000E+00 0.  1.
          3   -1    0    0  501    0  0.00000000000E+00 -0.00000000000E+00 -0.34038885802E+03  0.34038885802E+03  0.00000000000E+00 0. -1.
         23    2    1    2    0    0  0.00000000000E+00  0.00000000000E+00 -0.33424412173E+03  0.34653359431E+03  0.91468022126E+02 0.  0.
          2    1    3    3  502    0  0.39459268522E+02 -0.10976383903E+00 -0.25471554170E+03  0.25775386148E+03  0.00000000000E+00 0. -1.
         -2    1    3    3    0  502 -0.39459268522E+02  0.10976383903E+00 -0.79528580028E+02  0.88779732831E+02  0.00000000000E+00 0.  1.
<mgrwt>
<rscale>  0 0.91468022E+02</rscale>
<asrwt>0</asrwt>
<pdfrwt beam="2">  1        3 0.52367513E-01 0.91468022E+02</pdfrwt>
<pdfrwt beam="1">  1       -3 0.94534411E-03 0.91468022E+02</pdfrwt>
<totfact> 0.22145513E+04</totfact>
</mgrwt>
</event>
<event>
 5    1  0.4067226E+001  0.9492261E+02  0.7546771E-02  0.1291350E+00
          2   -1    0    0  501    0  0.00000000000E+00  0.00000000000E+00  0.45964414128E+03  0.45964414128E+03  0.00000000000E+00 0. -1.
         -2   -1    0    0    0  501 -0.00000000000E+00 -0.00000000000E+00 -0.49006946191E+01  0.49006946191E+01  0.00000000000E+00 0.  1.
         23    2    1    2    0    0  0.00000000000E+00  0.00000000000E+00  0.45474344666E+03  0.46454483590E+03  0.94922612055E+02 0.  0.
          2    1    3    3  502    0 -0.22286195043E+02 -0.41769501165E+02  0.21098629078E+03  0.21623270015E+03  0.00000000000E+00 0. -1.
         -2    1    3    3    0  502  0.22286195043E+02  0.41769501165E+02  0.24375715587E+03  0.24831213574E+03  0.00000000000E+00 0.  1.
<mgrwt>
<rscale>  0 0.94922612E+02</rscale>
<asrwt>0</asrwt>
<pdfrwt beam="1">  1        2 0.70714449E-01 0.94922612E+02</pdfrwt>
<pdfrwt beam="2">  1       -2 0.75395338E-03 0.94922612E+02</pdfrwt>
<totfact> 0.18829689E+05</totfact>
</mgrwt>
</event>
<event>
 5    1  0.4067226E+001  0.8833951E+02  0.7546771E-02  0.1306923E+00
          2   -1    0    0  501    0  0.00000000000E+00  0.00000000000E+00  0.71394184959E+03  0.71394184959E+03  0.00000000000E+00 0. -1.
         -2   -1    0    0    0  501 -0.00000000000E+00 -0.00000000000E+00 -0.27326695155E+01  0.27326695155E+01  0.00000000000E+00 0.  1.
         23    2    1    2    0    0  0.00000000000E+00  0.00000000000E+00  0.71120918008E+03  0.71667451911E+03  0.88339507091E+02 0.  0.
          2    1    3    3  502    0 -0.22315435545E+02  0.31158978527E+02  0.53373517549E+03  0.53510942634E+03  0.00000000000E+00 0. -1.
         -2    1    3    3    0  502  0.22315435545E+02 -0.31158978527E+02  0.17747400459E+03  0.18156509277E+03  0.00000000000E+00 0.  1.
<mgrwt>
<rscale>  0 0.88339507E+02</rscale>
<asrwt>0</asrwt>
<pdfrwt beam="1">  1        2 0.10983706E+00 0.88339507E+02</pdfrwt>
<pdfrwt beam="2">  1       -2 0.42041126E-03 0.88339507E+02</pdfrwt>
<totfact> 0.25889060E+05</totfact>
</mgrwt>
</event>
<event>
 5    1  0.4067226E+001  0.9179031E+02  0.7546771E-02  0.1298573E+00
          2   -1    0    0  501    0  0.00000000000E+00  0.00000000000E+00  0.95322326233E+03  0.95322326233E+03  0.00000000000E+00 0. -1.
         -2   -1    0    0    0  501 -0.00000000000E+00 -0.00000000000E+00 -0.22097294067E+01  0.22097294067E+01  0.00000000000E+00 0.  1.
         23    2    1    2    0    0  0.00000000000E+00  0.00000000000E+00  0.95101353292E+03  0.95543299173E+03  0.91790314824E+02 0.  0.
          2    1    3    3  502    0  0.84300628303E+01 -0.21163207805E+02  0.60792433730E+02  0.64920469212E+02  0.00000000000E+00 0.  1.
         -2    1    3    3    0  502 -0.84300628303E+01  0.21163207805E+02  0.89022109919E+03  0.89051252252E+03  0.00000000000E+00 0. -1.
<mgrwt>
<rscale>  0 0.91790315E+02</rscale>
<asrwt>0</asrwt>
<pdfrwt beam="1">  1        2 0.14664940E+00 0.91790315E+02</pdfrwt>
<pdfrwt beam="2">  1       -2 0.33995913E-03 0.91790315E+02</pdfrwt>
<totfact> 0.24492901E+05</totfact>
</mgrwt>
</event>
<event>
 5    1  0.4067226E+001  0.9051763E+02  0.7546771E-02  0.1301603E+00
         -2   -1    0    0    0  501 -0.00000000000E+00  0.00000000000E+00  0.21231746273E+02  0.21231746273E+02  0.00000000000E+00 0.  1.
          2   -1    0    0  501    0  0.00000000000E+00 -0.00000000000E+00 -0.96476307513E+02  0.96476307513E+02  0.00000000000E+00 0. -1.
         23    2    1    2    0    0  0.00000000000E+00  0.00000000000E+00 -0.75244561241E+02  0.11770805379E+03  0.90517633253E+02 0.  0.
          2    1    3    3  502    0  0.10984983515E+01  0.34108633279E+02 -0.76280238739E+02  0.83566024106E+02  0.00000000000E+00 0. -1.
         -2    1    3    3    0  502 -0.10984983515E+01 -0.34108633279E+02  0.10356774985E+01  0.34142029680E+02  0.00000000000E+00 0.  1.
<mgrwt>
<rscale>  0 0.90517633E+02</rscale>
<asrwt>0</asrwt>
<pdfrwt beam="2">  1        2 0.14842509E-01 0.90517633E+02</pdfrwt>
<pdfrwt beam="1">  1       -2 0.32664224E-02 0.90517633E+02</pdfrwt>
<totfact> 0.12379944E+05</totfact>
</mgrwt>
</event>
<event>
 5    1  0.4067226E+001  0.8989330E+02  0.7546771E-02  0.1303110E+00
          1   -1    0    0  501    0  0.00000000000E+00  0.00000000000E+00  0.16284081407E+04  0.16284081407E+04  0.00000000000E+00 0. -1.
         -1   -1    0    0    0  501 -0.00000000000E+00 -0.00000000000E+00 -0.12405988036E+01  0.12405988036E+01  0.00000000000E+00 0.  1.
         23    2    1    2    0    0  0.00000000000E+00  0.00000000000E+00  0.16271675419E+04  0.16296487395E+04  0.89893296550E+02 0.  0.
          2    1    3    3  502    0 -0.36245666686E+02 -0.74911515896E+01  0.12758960451E+04  0.12764327572E+04  0.00000000000E+00 0. -1.
         -2    1    3    3    0  502  0.36245666686E+02  0.74911515896E+01  0.35127149676E+03  0.35321598229E+03  0.00000000000E+00 0.  1.
<mgrwt>
<rscale>  0 0.89893297E+02</rscale>
<asrwt>0</asrwt>
<pdfrwt beam="1">  1        1 0.25052262E+00 0.89893297E+02</pdfrwt>
<pdfrwt beam="2">  1       -1 0.19086266E-03 0.89893297E+02</pdfrwt>
<totfact> 0.10657580E+05</totfact>
</mgrwt>
</event>
<event>
 5    1  0.4067226E+001  0.9174458E+02  0.7546771E-02  0.1298681E+00
          3   -1    0    0  501    0  0.00000000000E+00  0.00000000000E+00  0.20323794653E+02  0.20323794653E+02  0.00000000000E+00 0. -1.
         -3   -1    0    0    0  501 -0.00000000000E+00 -0.00000000000E+00 -0.10353710080E+03  0.10353710080E+03  0.00000000000E+00 0.  1.
         23    2    1    2    0    0  0.00000000000E+00  0.00000000000E+00 -0.83213306150E+02  0.12386089545E+03  0.91744575330E+02 0.  0.
          2    1    3    3  502    0  0.32940889657E+02  0.31923662184E+02 -0.41322315053E+02  0.61739421280E+02  0.00000000000E+00 0. -1.
         -2    1    3    3    0  502 -0.32940889657E+02 -0.31923662184E+02 -0.41890991097E+02  0.62121474175E+02  0.00000000000E+00 0.  1.
<mgrwt>
<rscale>  0 0.91744575E+02</rscale>
<asrwt>0</asrwt>
<pdfrwt beam="1">  1        3 0.31267376E-02 0.91744575E+02</pdfrwt>
<pdfrwt beam="2">  1       -3 0.15928785E-01 0.91744575E+02</pdfrwt>
<totfact> 0.32433639E+04</totfact>
</mgrwt>
</event>
<event>
 5    1  0.4067226E+001  0.9141409E+02  0.7546771E-02  0.1299463E+00
          1   -1    0    0  501    0  0.00000000000E+00  0.00000000000E+00  0.67327431357E+02  0.67327431357E+02  0.00000000000E+00 0. -1.
         -1   -1    0    0    0  501 -0.00000000000E+00 -0.00000000000E+00 -0.31029462991E+02  0.31029462991E+02  0.00000000000E+00 0.  1.
         23    2    1    2    0    0  0.00000000000E+00  0.00000000000E+00  0.36297968366E+02  0.98356894348E+02  0.91414091684E+02 0.  0.
          2    1    3    3  502    0  0.24962010508E+02 -0.85955448958E+01  0.58294262096E+02  0.63993799340E+02  0.00000000000E+00 0. -1.
         -2    1    3    3    0  502 -0.24962010508E+02  0.85955448958E+01 -0.21996293730E+02  0.34363095008E+02  0.00000000000E+00 0.  1.
<mgrwt>
<rscale>  0 0.91414092E+02</rscale>
<asrwt>0</asrwt>
<pdfrwt beam="1">  1        1 0.10358066E-01 0.91414092E+02</pdfrwt>
<pdfrwt beam="2">  1       -1 0.47737636E-02 0.91414092E+02</pdfrwt>
<totfact> 0.97375439E+04</totfact>
</mgrwt>
</event>
<event>
 5    1  0.4067226E+001  0.8761869E+02  0.7546771E-02  0.1308723E+00
         -1   -1    0    0    0  501 -0.00000000000E+00  0.00000000000E+00  0.20363694092E+01  0.20363694092E+01  0.00000000000E+00 0.  1.
          1   -1    0    0  501    0  0.00000000000E+00 -0.00000000000E+00 -0.94249052828E+03  0.94249052828E+03  0.00000000000E+00 0. -1.
         23    2    1    2    0    0  0.00000000000E+00  0.00000000000E+00 -0.94045415887E+03  0.94452689769E+03  0.87618693901E+02 0.  0.
          2    1    3    3  502    0  0.10777939965E+02 -0.30899906165E+02 -0.15625581272E+03  0.15964600590E+03  0.00000000000E+00 0.  1.
         -2    1    3    3    0  502 -0.10777939965E+02  0.30899906165E+02 -0.78419834615E+03  0.78488089179E+03  0.00000000000E+00 0. -1.
<mgrwt>
<rscale>  0 0.87618694E+02</rscale>
<asrwt>0</asrwt>
<pdfrwt beam="2">  1        1 0.14499851E+00 0.87618694E+02</pdfrwt>
<pdfrwt beam="1">  1       -1 0.31328766E-03 0.87618694E+02</pdfrwt>
<totfact> 0.15322523E+05</totfact>
</mgrwt>
</event>
<event>
 5    1  0.4067226E+001  0.9090305E+02  0.7546771E-02  0.1300679E+00
         -2   -1    0    0    0  501 -0.00000000000E+00  0.00000000000E+00  0.27462407590E+02  0.27462407590E+02  0.00000000000E+00 0.  1.
          2   -1    0    0  501    0  0.00000000000E+00 -0.00000000000E+00 -0.75224322843E+02  0.75224322843E+02  0.00000000000E+00 0. -1.
         23    2    1    2    0    0  0.00000000000E+00  0.00000000000E+00 -0.47761915254E+02  0.10268673043E+03  0.90903047574E+02 0.  0.
          2    1    3    3  502    0  0.29340259629E+02  0.30666383328E+02 -0.55070923052E+01  0.42797265884E+02  0.00000000000E+00 0. -1.
         -2    1    3    3    0  502 -0.29340259629E+02 -0.30666383328E+02 -0.42254822949E+02  0.59889464549E+02  0.00000000000E+00 0.  1.
<mgrwt>
<rscale>  0 0.90903048E+02</rscale>
<asrwt>0</asrwt>
<pdfrwt beam="2">  1        2 0.11572972E-01 0.90903048E+02</pdfrwt>
<pdfrwt beam="1">  1       -2 0.42249859E-02 0.90903048E+02</pdfrwt>
<totfact> 0.11381673E+05</totfact>
</mgrwt>
</event>
<event>
 5    1  0.4067226E+001  0.8939652E+02  0.7546771E-02  0.1304320E+00
         -4   -1    0    0    0  501 -0.00000000000E+00  0.00000000000E+00  0.41027504641E+03  0.41027504641E+03  0.00000000000E+00 0.  1.
          4   -1    0    0  501    0  0.00000000000E+00 -0.00000000000E+00 -0.48697438587E+01  0.48697438587E+01  0.00000000000E+00 0. -1.
         23    2    1    2    0    0  0.00000000000E+00  0.00000000000E+00  0.40540530256E+03  0.41514479027E+03  0.89396518671E+02 0.  0.
          2    1    3    3  502    0 -0.41518087659E+02 -0.98917773584E+01  0.14103620893E+03  0.14735267589E+03  0.00000000000E+00 0. -1.
         -2    1    3    3    0  502  0.41518087659E+02  0.98917773584E+01  0.26436909362E+03  0.26779211438E+03  0.00000000000E+00 0.  1.
<mgrwt>
<rscale>  0 0.89396519E+02</rscale>
<asrwt>0</asrwt>
<pdfrwt beam="2">  1        4 0.74919168E-03 0.89396519E+02</pdfrwt>
<pdfrwt beam="1">  1       -4 0.63119211E-01 0.89396519E+02</pdfrwt>
<totfact> 0.15592479E+04</totfact>
</mgrwt>
</event>
<event>
 5    1  0.4067226E+001  0.9178276E+02  0.7546771E-02  0.1298591E+00
         -3   -1    0    0    0  501 -0.00000000000E+00  0.00000000000E+00  0.75580486610E+02  0.75580486610E+02  0.00000000000E+00 0.  1.
          3   -1    0    0  501    0  0.00000000000E+00 -0.00000000000E+00 -0.27864583900E+02  0.27864583900E+02  0.00000000000E+00 0. -1.
         23    2    1    2    0    0  0.00000000000E+00  0.00000000000E+00  0.47715902710E+02  0.10344507051E+03  0.91782761134E+02 0.  0.
          2    1    3    3  502    0 -0.27136756912E+02 -0.31846904827E+02  0.45105127306E+02  0.61523178007E+02  0.00000000000E+00 0. -1.
         -2    1    3    3    0  502  0.27136756912E+02  0.31846904827E+02  0.26107754039E+01  0.41921892503E+02  0.00000000000E+00 0.  1.
<mgrwt>
<rscale>  0 0.91782761E+02</rscale>
<asrwt>0</asrwt>
<pdfrwt beam="2">  1        3 0.42868591E-02 0.91782761E+02</pdfrwt>
<pdfrwt beam="1">  1       -3 0.11627767E-01 0.91782761E+02</pdfrwt>
<totfact> 0.33803157E+04</totfact>
</mgrwt>
</event>
<event>
 5    1  0.4067226E+001  0.9128801E+02  0.7546771E-02  0.1299762E+00
         -1   -1    0    0    0  501 -0.00000000000E+00  0.00000000000E+00  0.13430629457E+03  0.13430629457E+03  0.00000000000E+00 0.  1.
          1   -1    0    0  501    0  0.00000000000E+00 -0.00000000000E+00 -0.15512119925E+02  0.15512119925E+02  0.00000000000E+00 0. -1.
         23    2    1    2    0    0  0.00000000000E+00  0.00000000000E+00  0.11879417465E+03  0.14981841450E+03  0.91288013411E+02 0.  0.
          2    1    3    3  502    0 -0.28237260008E+02 -0.34669902160E+01  0.81858273211E+00  0.28461077836E+02  0.00000000000E+00 0. -1.
         -2    1    3    3    0  502  0.28237260008E+02  0.34669902160E+01  0.11797559191E+03  0.12135733666E+03  0.00000000000E+00 0.  1.
<mgrwt>
<rscale>  0 0.91288013E+02</rscale>
<asrwt>0</asrwt>
<pdfrwt beam="2">  1        1 0.23864801E-02 0.91288013E+02</pdfrwt>
<pdfrwt beam="1">  1       -1 0.20662506E-01 0.91288013E+02</pdfrwt>
<totfact> 0.76439837E+04</totfact>
</mgrwt>
</event>
<event>
 5    1  0.4067226E+001  0.9105518E+02  0.7546771E-02  0.1300316E+00
         -2   -1    0    0    0  501 -0.00000000000E+00  0.00000000000E+00  0.15263827926E+01  0.15263827926E+01  0.00000000000E+00 0.  1.
          2   -1    0    0  501    0  0.00000000000E+00 -0.00000000000E+00 -0.13579565357E+04  0.13579565357E+04  0.00000000000E+00 0. -1.
         23    2    1    2    0    0  0.00000000000E+00  0.00000000000E+00 -0.13564301529E+04  0.13594829185E+04  0.91055180833E+02 0.  0.
          2    1    3    3  502    0 -0.40334486825E+02 -0.20371143757E+02 -0.76121900933E+03  0.76255900394E+03  0.00000000000E+00 0. -1.
         -2    1    3    3    0  502  0.40334486825E+02  0.20371143757E+02 -0.59521114355E+03  0.59692391453E+03  0.00000000000E+00 0.  1.
<mgrwt>
<rscale>  0 0.91055181E+02</rscale>
<asrwt>0</asrwt>
<pdfrwt beam="2">  1        2 0.20891618E+00 0.91055181E+02</pdfrwt>
<pdfrwt beam="1">  1       -2 0.23482835E-03 0.91055181E+02</pdfrwt>
<totfact> 0.24420946E+05</totfact>
</mgrwt>
</event>
<event>
 5    1  0.4067226E+001  0.9171815E+02  0.7546771E-02  0.1298743E+00
         -2   -1    0    0    0  501 -0.00000000000E+00  0.00000000000E+00  0.18812491548E+02  0.18812491548E+02  0.00000000000E+00 0. -1.
          2   -1    0    0  501    0  0.00000000000E+00 -0.00000000000E+00 -0.11179033874E+03  0.11179033874E+03  0.00000000000E+00 0.  1.
         23    2    1    2    0    0  0.00000000000E+00  0.00000000000E+00 -0.92977847192E+02  0.13060283029E+03  0.91718150933E+02 0.  0.
          2    1    3    3  502    0  0.12901889756E+02 -0.38572979729E+02 -0.16325152941E+02  0.43827435962E+02  0.00000000000E+00 0.  1.
         -2    1    3    3    0  502 -0.12901889756E+02  0.38572979729E+02 -0.76652694250E+02  0.86775394325E+02  0.00000000000E+00 0. -1.
<mgrwt>
<rscale>  0 0.91718151E+02</rscale>
<asrwt>0</asrwt>
<pdfrwt beam="2">  1        2 0.17198514E-01 0.91718151E+02</pdfrwt>
<pdfrwt beam="1">  1       -2 0.28942295E-02 0.91718151E+02</pdfrwt>
<totfact> 0.12493232E+05</totfact>
</mgrwt>
</event>
<event>
 4    1  0.4067226E+001  0.1324260E+03  0.7546771E-02  0.1223900E+00
         -1   -1    0    0    0  501 -0.00000000000E+00  0.00000000000E+00  0.51828513215E+03  0.51828513215E+03  0.00000000000E+00 0.  1.
          1   -1    0    0  501    0  0.00000000000E+00 -0.00000000000E+00 -0.84589696875E+01  0.84589696875E+01  0.00000000000E+00 0. -1.
          2    1    1    2  502    0 -0.64125504352E+02  0.16183129783E+02  0.26760684922E+03  0.27565812113E+03  0.00000000000E+00 0. -1.
         -2    1    1    2    0  502  0.64125504352E+02 -0.16183129783E+02  0.24221931325E+03  0.25108598071E+03  0.00000000000E+00 0.  1.
<mgrwt>
<rscale>  0 0.13242595E+03</rscale>
<asrwt>0</asrwt>
<pdfrwt beam="2">  1        1 0.13013804E-02 0.13242595E+03</pdfrwt>
<pdfrwt beam="1">  1       -1 0.79736149E-01 0.13242595E+03</pdfrwt>
<totfact> 0.17050481E+04</totfact>
</mgrwt>
</event>
<event>
 5    1  0.4067226E+001  0.8850405E+02  0.7546771E-02  0.1306515E+00
          3   -1    0    0  501    0  0.00000000000E+00  0.00000000000E+00  0.64228859657E+01  0.64228859657E+01  0.00000000000E+00 0. -1.
         -3   -1    0    0    0  501 -0.00000000000E+00 -0.00000000000E+00 -0.30488500988E+03  0.30488500988E+03  0.00000000000E+00 0.  1.
         23    2    1    2    0    0  0.00000000000E+00  0.00000000000E+00 -0.29846212392E+03  0.31130789585E+03  0.88504048520E+02 0.  0.
          2    1    3    3  502    0 -0.21522018143E+02 -0.32713333468E+01 -0.28474816166E+03  0.28557908617E+03  0.00000000000E+00 0.  1.
         -2    1    3    3    0  502  0.21522018143E+02  0.32713333468E+01 -0.13713962255E+02  0.25728809680E+02  0.00000000000E+00 0. -1.
<mgrwt>
<rscale>  0 0.88504049E+02</rscale>
<asrwt>0</asrwt>
<pdfrwt beam="1">  1        3 0.98813628E-03 0.88504049E+02</pdfrwt>
<pdfrwt beam="2">  1       -3 0.46905387E-01 0.88504049E+02</pdfrwt>
<totfact> 0.25546066E+04</totfact>
</mgrwt>
</event>
<event>
 5    1  0.4067226E+001  0.9072479E+02  0.7546771E-02  0.1301106E+00
         -1   -1    0    0    0  501 -0.00000000000E+00  0.00000000000E+00  0.16092740314E+02  0.16092740314E+02  0.00000000000E+00 0.  1.
          1   -1    0    0  501    0  0.00000000000E+00 -0.00000000000E+00 -0.12786802697E+03  0.12786802697E+03  0.00000000000E+00 0. -1.
         23    2    1    2    0    0  0.00000000000E+00  0.00000000000E+00 -0.11177528665E+03  0.14396076728E+03  0.90724791593E+02 0.  0.
          2    1    3    3  502    0 -0.30397855769E+02 -0.19028740155E+02 -0.99965568142E+02  0.10620375418E+03  0.00000000000E+00 0. -1.
         -2    1    3    3    0  502  0.30397855769E+02  0.19028740155E+02 -0.11809718512E+02  0.37757013104E+02  0.00000000000E+00 0.  1.
<mgrwt>
<rscale>  0 0.90724792E+02</rscale>
<asrwt>0</asrwt>
<pdfrwt beam="2">  1        1 0.19672004E-01 0.90724792E+02</pdfrwt>
<pdfrwt beam="1">  1       -1 0.24758062E-02 0.90724792E+02</pdfrwt>
<totfact> 0.11042216E+05</totfact>
</mgrwt>
</event>
<event>
 5    1  0.4067226E+001  0.9207790E+02  0.7546771E-02  0.1297896E+00
         -2   -1    0    0    0  501 -0.00000000000E+00  0.00000000000E+00  0.15016291224E+01  0.15016291224E+01  0.00000000000E+00 0.  1.
          2   -1    0    0  501    0  0.00000000000E+00 -0.00000000000E+00 -0.14115236902E+04  0.14115236902E+04  0.00000000000E+00 0. -1.
         23    2    1    2    0    0  0.00000000000E+00  0.00000000000E+00 -0.14100220610E+04  0.14130253193E+04  0.92077903542E+02 0.  0.
          2    1    3    3  502    0 -0.30584818936E+02  0.82975302562E+01 -0.12175080343E+04  0.12179203972E+04  0.00000000000E+00 0. -1.
         -2    1    3    3    0  502  0.30584818936E+02 -0.82975302562E+01 -0.19251402672E+03  0.19510492213E+03  0.00000000000E+00 0.  1.
<mgrwt>
<rscale>  0 0.92077904E+02</rscale>
<asrwt>0</asrwt>
<pdfrwt beam="2">  1        2 0.21715798E+00 0.92077904E+02</pdfrwt>
<pdfrwt beam="1">  1       -2 0.23101934E-03 0.92077904E+02</pdfrwt>
<totfact> 0.23466804E+05</totfact>
</mgrwt>
</event>
<event>
 5    1  0.4067226E+001  0.9050226E+02  0.7546771E-02  0.1301640E+00
         -1   -1    0    0    0  501 -0.00000000000E+00  0.00000000000E+00  0.11164080997E+01  0.11164080997E+01  0.00000000000E+00 0.  1.
          1   -1    0    0  501    0  0.00000000000E+00 -0.00000000000E+00 -0.18341545002E+04  0.18341545002E+04  0.00000000000E+00 0. -1.
         23    2    1    2    0    0  0.00000000000E+00  0.00000000000E+00 -0.18330380921E+04  0.18352709083E+04  0.90502263843E+02 0.  0.
          2    1    3    3  502    0 -0.36797164204E+02 -0.13888290017E+02 -0.13703047433E+04  0.13708690694E+04  0.00000000000E+00 0. -1.
         -2    1    3    3    0  502  0.36797164204E+02  0.13888290017E+02 -0.46273334878E+03  0.46440183890E+03  0.00000000000E+00 0.  1.
<mgrwt>
<rscale>  0 0.90502264E+02</rscale>
<asrwt>0</asrwt>
<pdfrwt beam="2">  1        1 0.28217566E+00 0.90502264E+02</pdfrwt>
<pdfrwt beam="1">  1       -1 0.17175628E-03 0.90502264E+02</pdfrwt>
<totfact> 0.91650085E+04</totfact>
</mgrwt>
</event>
<event>
 5    1  0.4067226E+001  0.6571472E+02  0.7546771E-02  0.1375303E+00
         -2   -1    0    0    0  501 -0.00000000000E+00  0.00000000000E+00  0.11695800773E+01  0.11695800773E+01  0.00000000000E+00 0.  1.
          2   -1    0    0  501    0  0.00000000000E+00 -0.00000000000E+00 -0.92307145246E+03  0.92307145246E+03  0.00000000000E+00 0. -1.
         23    2    1    2    0    0  0.00000000000E+00  0.00000000000E+00 -0.92190187238E+03  0.92424103254E+03  0.65714716183E+02 0.  0.
          2    1    3    3  502    0 -0.53219225243E+01 -0.31293631592E+02 -0.58028486904E+03  0.58115242705E+03  0.00000000000E+00 0. -1.
         -2    1    3    3    0  502  0.53219225243E+01  0.31293631592E+02 -0.34161700334E+03  0.34308860548E+03  0.00000000000E+00 0.  1.
<mgrwt>
<rscale>  0 0.65714716E+02</rscale>
<asrwt>0</asrwt>
<pdfrwt beam="2">  1        2 0.14201107E+00 0.65714716E+02</pdfrwt>
<pdfrwt beam="1">  1       -2 0.17993530E-03 0.65714716E+02</pdfrwt>
<totfact> 0.58049232E+05</totfact>
</mgrwt>
</event>
<event>
 5    1  0.4067226E+001  0.9163180E+02  0.7546771E-02  0.1298947E+00
         -4   -1    0    0    0  501 -0.00000000000E+00  0.00000000000E+00  0.10347207191E+02  0.10347207191E+02  0.00000000000E+00 0.  1.
          4   -1    0    0  501    0  0.00000000000E+00 -0.00000000000E+00 -0.20286599691E+03  0.20286599691E+03  0.00000000000E+00 0. -1.
         23    2    1    2    0    0  0.00000000000E+00  0.00000000000E+00 -0.19251878972E+03  0.21321320410E+03  0.91631795836E+02 0.  0.
          2    1    3    3  502    0  0.34074551905E+02  0.29115938071E+02 -0.74150234599E+02  0.86643350745E+02  0.00000000000E+00 0. -1.
         -2    1    3    3    0  502 -0.34074551905E+02 -0.29115938071E+02 -0.11836855512E+03  0.12656985336E+03  0.00000000000E+00 0.  1.
<mgrwt>
<rscale>  0 0.91631796E+02</rscale>
<asrwt>0</asrwt>
<pdfrwt beam="2">  1        4 0.31210152E-01 0.91631796E+02</pdfrwt>
<pdfrwt beam="1">  1       -4 0.15918781E-02 0.91631796E+02</pdfrwt>
<totfact> 0.20570443E+04</totfact>
</mgrwt>
</event>
<event>
 5    1  0.4067226E+001  0.9383538E+02  0.7546771E-02  0.1293821E+00
         -1   -1    0    0    0  501 -0.00000000000E+00  0.00000000000E+00  0.11708134528E+02  0.11708134528E+02  0.00000000000E+00 0.  1.
          1   -1    0    0  501    0  0.00000000000E+00 -0.00000000000E+00 -0.18801199638E+03  0.18801199638E+03  0.00000000000E+00 0. -1.
         23    2    1    2    0    0  0.00000000000E+00  0.00000000000E+00 -0.17630386185E+03  0.19972013090E+03  0.93835382378E+02 0.  0.
          2    1    3    3  502    0  0.16229801781E+01  0.46753586324E+02 -0.80555611125E+02  0.93154379299E+02  0.00000000000E+00 0. -1.
         -2    1    3    3    0  502 -0.16229801781E+01 -0.46753586324E+02 -0.95748250723E+02  0.10656575161E+03  0.00000000000E+00 0.  1.
<mgrwt>
<rscale>  0 0.93835382E+02</rscale>
<asrwt>0</asrwt>
<pdfrwt beam="2">  1        1 0.28924919E-01 0.93835382E+02</pdfrwt>
<pdfrwt beam="1">  1       -1 0.18012517E-02 0.93835382E+02</pdfrwt>
<totfact> 0.10829129E+05</totfact>
</mgrwt>
</event>
<event>
 5    1  0.4067226E+001  0.9201605E+02  0.7546771E-02  0.1298042E+00
         -2   -1    0    0    0  501 -0.00000000000E+00  0.00000000000E+00  0.25600841162E+03  0.25600841162E+03  0.00000000000E+00 0.  1.
          2   -1    0    0  501    0  0.00000000000E+00 -0.00000000000E+00 -0.82682367766E+01  0.82682367766E+01  0.00000000000E+00 0. -1.
         23    2    1    2    0    0  0.00000000000E+00  0.00000000000E+00  0.24774017484E+03  0.26427664839E+03  0.92016045645E+02 0.  0.
          2    1    3    3  502    0  0.45691170870E+02  0.31446492659E+01  0.13644380769E+03  0.14392527426E+03  0.00000000000E+00 0. -1.
         -2    1    3    3    0  502 -0.45691170870E+02 -0.31446492659E+01  0.11129636715E+03  0.12035137413E+03  0.00000000000E+00 0.  1.
<mgrwt>
<rscale>  0 0.92016046E+02</rscale>
<asrwt>0</asrwt>
<pdfrwt beam="2">  1        2 0.12720366E-02 0.92016046E+02</pdfrwt>
<pdfrwt beam="1">  1       -2 0.39385903E-01 0.92016046E+02</pdfrwt>
<totfact> 0.54218112E+04</totfact>
</mgrwt>
</event>
<event>
 5    1  0.4067226E+001  0.9152611E+02  0.7546771E-02  0.1299198E+00
         -1   -1    0    0    0  501 -0.00000000000E+00  0.00000000000E+00  0.14143306567E+01  0.14143306567E+01  0.00000000000E+00 0.  1.
          1   -1    0    0  501    0  0.00000000000E+00 -0.00000000000E+00 -0.14807409041E+04  0.14807409041E+04  0.00000000000E+00 0. -1.
         23    2    1    2    0    0  0.00000000000E+00  0.00000000000E+00 -0.14793265734E+04  0.14821552347E+04  0.91526111143E+02 0.  0.
          2    1    3    3  502    0 -0.19074151815E+01 -0.40630307118E+02 -0.10792689278E+04  0.10800351284E+04  0.00000000000E+00 0. -1.
         -2    1    3    3    0  502  0.19074151815E+01  0.40630307118E+02 -0.40005764568E+03  0.40212010638E+03  0.00000000000E+00 0.  1.
<mgrwt>
<rscale>  0 0.91526111E+02</rscale>
<asrwt>0</asrwt>
<pdfrwt beam="2">  1        1 0.22780701E+00 0.91526111E+02</pdfrwt>
<pdfrwt beam="1">  1       -1 0.21758864E-03 0.91526111E+02</pdfrwt>
<totfact> 0.11054315E+05</totfact>
</mgrwt>
</event>
<event>
 5    1  0.4067226E+001  0.9049607E+02  0.7546771E-02  0.1301655E+00
          1   -1    0    0  501    0  0.00000000000E+00  0.00000000000E+00  0.39988465529E+02  0.39988465529E+02  0.00000000000E+00 0. -1.
         -1   -1    0    0    0  501 -0.00000000000E+00 -0.00000000000E+00 -0.51199382198E+02  0.51199382198E+02  0.00000000000E+00 0.  1.
         23    2    1    2    0    0  0.00000000000E+00  0.00000000000E+00 -0.11210916669E+02  0.91187847727E+02  0.90496071299E+02 0.  0.
          2    1    3    3  502    0  0.14323757605E+02  0.39896991141E+02  0.10340963403E+02  0.43633421343E+02  0.00000000000E+00 0. -1.
         -2    1    3    3    0  502 -0.14323757605E+02 -0.39896991141E+02 -0.21551880072E+02  0.47554426384E+02  0.00000000000E+00 0.  1.
<mgrwt>
<rscale>  0 0.90496071E+02</rscale>
<asrwt>0</asrwt>
<pdfrwt beam="1">  1        1 0.61520716E-02 0.90496071E+02</pdfrwt>
<pdfrwt beam="2">  1       -1 0.78768281E-02 0.90496071E+02</pdfrwt>
<totfact> 0.92597110E+04</totfact>
</mgrwt>
</event>
<event>
 5    1  0.4067226E+001  0.8974264E+02  0.7546771E-02  0.1303476E+00
          2   -1    0    0  501    0  0.00000000000E+00  0.00000000000E+00  0.73630994697E+03  0.73630994697E+03  0.00000000000E+00 0. -1.
         -2   -1    0    0    0  501 -0.00000000000E+00 -0.00000000000E+00 -0.27344945902E+01  0.27344945902E+01  0.00000000000E+00 0.  1.
         23    2    1    2    0    0  0.00000000000E+00  0.00000000000E+00  0.73357545238E+03  0.73904444157E+03  0.89742644640E+02 0.  0.
          2    1    3    3  502    0 -0.29722262265E+02 -0.18885659241E+00  0.64361470934E+03  0.64430066166E+03  0.00000000000E+00 0. -1.
         -2    1    3    3    0  502  0.29722262265E+02  0.18885659241E+00  0.89960743047E+02  0.94743779904E+02  0.00000000000E+00 0.  1.
<mgrwt>
<rscale>  0 0.89742645E+02</rscale>
<asrwt>0</asrwt>
<pdfrwt beam="1">  1        2 0.11327829E+00 0.89742645E+02</pdfrwt>
<pdfrwt beam="2">  1       -2 0.42069206E-03 0.89742645E+02</pdfrwt>
<totfact> 0.25006145E+05</totfact>
</mgrwt>
</event>
<event>
 5    1  0.4067226E+001  0.9158920E+02  0.7546771E-02  0.1299048E+00
         -2   -1    0    0    0  501 -0.00000000000E+00  0.00000000000E+00  0.22044618523E+01  0.22044618523E+01  0.00000000000E+00 0. -1.
          2   -1    0    0  501    0  0.00000000000E+00 -0.00000000000E+00 -0.95131851463E+03  0.95131851463E+03  0.00000000000E+00 0.  1.
         23    2    1    2    0    0  0.00000000000E+00  0.00000000000E+00 -0.94911405277E+03  0.95352297648E+03  0.91589199688E+02 0.  0.
          2    1    3    3  502    0  0.32514360793E+02 -0.32247491450E+02 -0.47198547374E+03  0.47420182600E+03  0.00000000000E+00 0.  1.
         -2    1    3    3    0  502 -0.32514360793E+02  0.32247491450E+02 -0.47712857904E+03  0.47932115048E+03  0.00000000000E+00 0. -1.
<mgrwt>
<rscale>  0 0.91589200E+02</rscale>
<asrwt>0</asrwt>
<pdfrwt beam="2">  1        2 0.14635639E+00 0.91589200E+02</pdfrwt>
<pdfrwt beam="1">  1       -2 0.33914869E-03 0.91589200E+02</pdfrwt>
<totfact> 0.24631071E+05</totfact>
</mgrwt>
</event>
<event>
 5    1  0.4067226E+001  0.9028110E+02  0.7546771E-02  0.1302172E+00
          1   -1    0    0  501    0  0.00000000000E+00  0.00000000000E+00  0.68557800792E+01  0.68557800792E+01  0.00000000000E+00 0. -1.
         -1   -1    0    0    0  501 -0.00000000000E+00 -0.00000000000E+00 -0.29721915582E+03  0.29721915582E+03  0.00000000000E+00 0.  1.
         23    2    1    2    0    0  0.00000000000E+00  0.00000000000E+00 -0.29036337574E+03  0.30407493590E+03  0.90281098080E+02 0.  0.
          2    1    3    3  502    0 -0.28579478013E+02 -0.26182750506E+02 -0.67252321475E+02  0.77622147170E+02  0.00000000000E+00 0. -1.
         -2    1    3    3    0  502  0.28579478013E+02  0.26182750506E+02 -0.22311105426E+03  0.22645278873E+03  0.00000000000E+00 0.  1.
<mgrwt>
<rscale>  0 0.90281098E+02</rscale>
<asrwt>0</asrwt>
<pdfrwt beam="1">  1        1 0.10547358E-02 0.90281098E+02</pdfrwt>
<pdfrwt beam="2">  1       -1 0.45726008E-01 0.90281098E+02</pdfrwt>
<totfact> 0.62397128E+04</totfact>
</mgrwt>
</event>
<event>
 5    1  0.4067226E+001  0.8696503E+02  0.7546771E-02  0.1310372E+00
          2   -1    0    0  501    0  0.00000000000E+00  0.00000000000E+00  0.77352678048E+02  0.77352678048E+02  0.00000000000E+00 0.  1.
         -2   -1    0    0    0  501 -0.00000000000E+00 -0.00000000000E+00 -0.24442969357E+02  0.24442969357E+02  0.00000000000E+00 0. -1.
         23    2    1    2    0    0  0.00000000000E+00  0.00000000000E+00  0.52909708691E+02  0.10179564740E+03  0.86965030654E+02 0.  0.
          2    1    3    3  502    0 -0.29862068833E+02 -0.15068806503E+02 -0.60665935403E+01  0.33994347201E+02  0.00000000000E+00 0. -1.
         -2    1    3    3    0  502  0.29862068833E+02  0.15068806503E+02  0.58976302232E+02  0.67801300204E+02  0.00000000000E+00 0.  1.
<mgrwt>
<rscale>  0 0.86965031E+02</rscale>
<asrwt>0</asrwt>
<pdfrwt beam="1">  1        2 0.11900412E-01 0.86965031E+02</pdfrwt>
<pdfrwt beam="2">  1       -2 0.37604568E-02 0.86965031E+02</pdfrwt>
<totfact> 0.12968886E+05</totfact>
</mgrwt>
</event>
<event>
 5    1  0.4067226E+001  0.9223306E+02  0.7546771E-02  0.1297532E+00
         -2   -1    0    0    0  501 -0.00000000000E+00  0.00000000000E+00  0.12864101233E+02  0.12864101233E+02  0.00000000000E+00 0.  1.
          2   -1    0    0  501    0  0.00000000000E+00 -0.00000000000E+00 -0.16532318925E+03  0.16532318925E+03  0.00000000000E+00 0. -1.
         23    2    1    2    0    0  0.00000000000E+00  0.00000000000E+00 -0.15245908802E+03  0.17818729049E+03  0.92233057906E+02 0.  0.
          2    1    3    3  502    0  0.36994447967E+02 -0.26875939619E+02 -0.87793516430E+02  0.98987912585E+02  0.00000000000E+00 0.  1.
         -2    1    3    3    0  502 -0.36994447967E+02  0.26875939619E+02 -0.64665571590E+02  0.79199377901E+02  0.00000000000E+00 0. -1.
<mgrwt>
<rscale>  0 0.92233058E+02</rscale>
<asrwt>0</asrwt>
<pdfrwt beam="2">  1        2 0.25434335E-01 0.92233058E+02</pdfrwt>
<pdfrwt beam="1">  1       -2 0.19790927E-02 0.92233058E+02</pdfrwt>
<totfact> 0.14012269E+05</totfact>
</mgrwt>
</event>
<event>
 5    1  0.4067226E+001  0.9210044E+02  0.7546771E-02  0.1297843E+00
         -3   -1    0    0    0  501 -0.00000000000E+00  0.00000000000E+00  0.18783964298E+02  0.18783964298E+02  0.00000000000E+00 0.  1.
          3   -1    0    0  501    0  0.00000000000E+00 -0.00000000000E+00 -0.11289537608E+03  0.11289537608E+03  0.00000000000E+00 0. -1.
         23    2    1    2    0    0  0.00000000000E+00  0.00000000000E+00 -0.94111411779E+02  0.13167934037E+03  0.92100438948E+02 0.  0.
          2    1    3    3  502    0 -0.30558962550E+01  0.45707146713E+02 -0.53783211643E+02  0.70647828114E+02  0.00000000000E+00 0. -1.
         -2    1    3    3    0  502  0.30558962550E+01 -0.45707146713E+02 -0.40328200136E+02  0.61031512260E+02  0.00000000000E+00 0.  1.
<mgrwt>
<rscale>  0 0.92100439E+02</rscale>
<asrwt>0</asrwt>
<pdfrwt beam="2">  1        3 0.17368520E-01 0.92100439E+02</pdfrwt>
<pdfrwt beam="1">  1       -3 0.28898406E-02 0.92100439E+02</pdfrwt>
<totfact> 0.31588321E+04</totfact>
</mgrwt>
</event>
<event>
 5    1  0.4067226E+001  0.9144114E+02  0.7546771E-02  0.1299399E+00
         -2   -1    0    0    0  501 -0.00000000000E+00  0.00000000000E+00  0.27257951111E+01  0.27257951111E+01  0.00000000000E+00 0.  1.
          2   -1    0    0  501    0  0.00000000000E+00 -0.00000000000E+00 -0.76688475799E+03  0.76688475799E+03  0.00000000000E+00 0. -1.
         23    2    1    2    0    0  0.00000000000E+00  0.00000000000E+00 -0.76415896288E+03  0.76961055310E+03  0.91441144440E+02 0.  0.
          2    1    3    3  502    0 -0.19683710128E+02 -0.38513672747E+02 -0.50680766686E+03  0.50864994114E+03  0.00000000000E+00 0. -1.
         -2    1    3    3    0  502  0.19683710128E+02  0.38513672747E+02 -0.25735129602E+03  0.26096061196E+03  0.00000000000E+00 0.  1.
<mgrwt>
<rscale>  0 0.91441144E+02</rscale>
<asrwt>0</asrwt>
<pdfrwt beam="2">  1        2 0.11798233E+00 0.91441144E+02</pdfrwt>
<pdfrwt beam="1">  1       -2 0.41935288E-03 0.91441144E+02</pdfrwt>
<totfact> 0.23999591E+05</totfact>
</mgrwt>
</event>
<event>
 5    1  0.4067226E+001  0.9063254E+02  0.7546771E-02  0.1301327E+00
         -1   -1    0    0    0  501 -0.00000000000E+00  0.00000000000E+00  0.11141888315E+02  0.11141888315E+02  0.00000000000E+00 0. -1.
          1   -1    0    0  501    0  0.00000000000E+00 -0.00000000000E+00 -0.18431026263E+03  0.18431026263E+03  0.00000000000E+00 0.  1.
         23    2    1    2    0    0  0.00000000000E+00  0.00000000000E+00 -0.17316837432E+03  0.19545215095E+03  0.90632540770E+02 0.  0.
          2    1    3    3  502    0 -0.90432036475E+01 -0.33682674605E+02 -0.24183832627E+02  0.42440073766E+02  0.00000000000E+00 0. -1.
         -2    1    3    3    0  502  0.90432036475E+01  0.33682674605E+02 -0.14898454169E+03  0.15301207718E+03  0.00000000000E+00 0.  1.
<mgrwt>
<rscale>  0 0.90632541E+02</rscale>
<asrwt>0</asrwt>
<pdfrwt beam="2">  1        1 0.28355422E-01 0.90632541E+02</pdfrwt>
<pdfrwt beam="1">  1       -1 0.17141369E-02 0.90632541E+02</pdfrwt>
<totfact> 0.11844172E+05</totfact>
</mgrwt>
</event>
<event>
 5    1  0.4067226E+001  0.9243634E+02  0.7546771E-02  0.1297057E+00
          2   -1    0    0  501    0  0.00000000000E+00  0.00000000000E+00  0.13201781702E+04  0.13201781702E+04  0.00000000000E+00 0. -1.
         -2   -1    0    0    0  501 -0.00000000000E+00 -0.00000000000E+00 -0.16180537214E+01  0.16180537214E+01  0.00000000000E+00 0.  1.
         23    2    1    2    0    0  0.00000000000E+00  0.00000000000E+00  0.13185601165E+04  0.13217962239E+04  0.92436339200E+02 0.  0.
          2    1    3    3  502    0  0.15108257168E+02 -0.43571916117E+02  0.70299990418E+03  0.70451092013E+03  0.00000000000E+00 0. -1.
         -2    1    3    3    0  502 -0.15108257168E+02  0.43571916117E+02  0.61556021230E+03  0.61728530379E+03  0.00000000000E+00 0.  1.
<mgrwt>
<rscale>  0 0.92436339E+02</rscale>
<asrwt>0</asrwt>
<pdfrwt beam="1">  1        2 0.20310347E+00 0.92436339E+02</pdfrwt>
<pdfrwt beam="2">  1       -2 0.24893240E-03 0.92436339E+02</pdfrwt>
<totfact> 0.23623232E+05</totfact>
</mgrwt>
</event>
<event>
 5    1  0.4067226E+001  0.9129137E+02  0.7546771E-02  0.1299754E+00
         -1   -1    0    0    0  501 -0.00000000000E+00  0.00000000000E+00  0.13384662903E+02  0.13384662903E+02  0.00000000000E+00 0.  1.
          1   -1    0    0  501    0  0.00000000000E+00 -0.00000000000E+00 -0.15566538022E+03  0.15566538022E+03  0.00000000000E+00 0. -1.
         23    2    1    2    0    0  0.00000000000E+00  0.00000000000E+00 -0.14228071732E+03  0.16905004313E+03  0.91291371772E+02 0.  0.
          2    1    3    3  502    0 -0.40440797917E+01 -0.43183305464E+02 -0.97483360266E+02  0.10669656968E+03  0.00000000000E+00 0. -1.
         -2    1    3    3    0  502  0.40440797917E+01  0.43183305464E+02 -0.44797357056E+02  0.62353473450E+02  0.00000000000E+00 0.  1.
<mgrwt>
<rscale>  0 0.91291372E+02</rscale>
<asrwt>0</asrwt>
<pdfrwt beam="2">  1        1 0.23948519E-01 0.91291372E+02</pdfrwt>
<pdfrwt beam="1">  1       -1 0.20591790E-02 0.91291372E+02</pdfrwt>
<totfact> 0.11252084E+05</totfact>
</mgrwt>
</event>
<event>
 5    1  0.4067226E+001  0.1001093E+03  0.7546771E-02  0.1280066E+00
         -2   -1    0    0    0  501 -0.00000000000E+00  0.00000000000E+00  0.24790804175E+03  0.24790804175E+03  0.00000000000E+00 0.  1.
          2   -1    0    0  501    0  0.00000000000E+00 -0.00000000000E+00 -0.10106442085E+02  0.10106442085E+02  0.00000000000E+00 0. -1.
         23    2    1    2    0    0  0.00000000000E+00  0.00000000000E+00  0.23780159966E+03  0.25801448383E+03  0.10010930559E+03 0.  0.
          2    1    3    3  502    0  0.42871237004E+02  0.48583369817E+01  0.53499523535E+02  0.68729509084E+02  0.00000000000E+00 0. -1.
         -2    1    3    3    0  502 -0.42871237004E+02 -0.48583369817E+01  0.18430207613E+03  0.18928497475E+03  0.00000000000E+00 0.  1.
<mgrwt>
<rscale>  0 0.10010931E+03</rscale>
<asrwt>0</asrwt>
<pdfrwt beam="2">  1        2 0.15548374E-02 0.10010931E+03</pdfrwt>
<pdfrwt beam="1">  1       -2 0.38139694E-01 0.10010931E+03</pdfrwt>
<totfact> 0.44359164E+04</totfact>
</mgrwt>
</event>
<event>
 5    1  0.4067226E+001  0.9512547E+02  0.7546771E-02  0.1290894E+00
          2   -1    0    0  501    0  0.00000000000E+00  0.00000000000E+00  0.29559954675E+03  0.29559954675E+03  0.00000000000E+00 0.  1.
         -2   -1    0    0    0  501 -0.00000000000E+00 -0.00000000000E+00 -0.76529682908E+01  0.76529682908E+01  0.00000000000E+00 0. -1.
         23    2    1    2    0    0  0.00000000000E+00  0.00000000000E+00  0.28794657846E+03  0.30325251504E+03  0.95125474150E+02 0.  0.
          2    1    3    3  502    0  0.30145862845E+02 -0.46340779077E+01  0.27626558476E+02  0.41151846349E+02  0.00000000000E+00 0. -1.
         -2    1    3    3    0  502 -0.30145862845E+02  0.46340779077E+01  0.26032001998E+03  0.26210066869E+03  0.00000000000E+00 0.  1.
<mgrwt>
<rscale>  0 0.95125474E+02</rscale>
<asrwt>0</asrwt>
<pdfrwt beam="1">  1        2 0.45476844E-01 0.95125474E+02</pdfrwt>
<pdfrwt beam="2">  1       -2 0.11773800E-02 0.95125474E+02</pdfrwt>
<totfact> 0.15950558E+05</totfact>
</mgrwt>
</event>
<event>
 5    1  0.4067226E+001  0.9183783E+02  0.7546771E-02  0.1298461E+00
         -2   -1    0    0    0  501 -0.00000000000E+00  0.00000000000E+00  0.14292581454E+03  0.14292581454E+03  0.00000000000E+00 0.  1.
          2   -1    0    0  501    0  0.00000000000E+00 -0.00000000000E+00 -0.14752734295E+02  0.14752734295E+02  0.00000000000E+00 0. -1.
         23    2    1    2    0    0  0.00000000000E+00  0.00000000000E+00  0.12817308025E+03  0.15767854884E+03  0.91837825886E+02 0.  0.
          2    1    3    3  502    0 -0.39826229014E+02  0.22749928445E+02  0.67871102910E+02  0.81915654010E+02  0.00000000000E+00 0. -1.
         -2    1    3    3    0  502  0.39826229014E+02 -0.22749928445E+02  0.60301977338E+02  0.75762894827E+02  0.00000000000E+00 0.  1.
<mgrwt>
<rscale>  0 0.91837826E+02</rscale>
<asrwt>0</asrwt>
<pdfrwt beam="2">  1        2 0.22696515E-02 0.91837826E+02</pdfrwt>
<pdfrwt beam="1">  1       -2 0.21988586E-01 0.91837826E+02</pdfrwt>
<totfact> 0.69792458E+04</totfact>
</mgrwt>
</event>
<event>
 5    1  0.4067226E+001  0.9141207E+02  0.7546771E-02  0.1299468E+00
          1   -1    0    0  501    0  0.00000000000E+00  0.00000000000E+00  0.45459505214E+02  0.45459505214E+02  0.00000000000E+00 0.  1.
         -1   -1    0    0    0  501 -0.00000000000E+00 -0.00000000000E+00 -0.45953903261E+02  0.45953903261E+02  0.00000000000E+00 0. -1.
         23    2    1    2    0    0  0.00000000000E+00  0.00000000000E+00 -0.49439804743E+00  0.91413408475E+02  0.91412071521E+02 0.  0.
          2    1    3    3  502    0  0.43920526681E+02 -0.98891997144E+01  0.76416912927E+01  0.45664038156E+02  0.00000000000E+00 0. -1.
         -2    1    3    3    0  502 -0.43920526681E+02  0.98891997144E+01 -0.81360893401E+01  0.45749370320E+02  0.00000000000E+00 0.  1.
<mgrwt>
<rscale>  0 0.91412072E+02</rscale>
<asrwt>0</asrwt>
<pdfrwt beam="1">  1        1 0.69937700E-02 0.91412072E+02</pdfrwt>
<pdfrwt beam="2">  1       -1 0.70698313E-02 0.91412072E+02</pdfrwt>
<totfact> 0.91765920E+04</totfact>
</mgrwt>
</event>
<event>
 5    1  0.4067226E+001  0.9194832E+02  0.7546771E-02  0.1298201E+00
         -1   -1    0    0    0  501 -0.00000000000E+00  0.00000000000E+00  0.89517827737E+00  0.89517827737E+00  0.00000000000E+00 0.  1.
          1   -1    0    0  501    0  0.00000000000E+00 -0.00000000000E+00 -0.23611201115E+04  0.23611201115E+04  0.00000000000E+00 0. -1.
         23    2    1    2    0    0  0.00000000000E+00  0.00000000000E+00 -0.23602249333E+04  0.23620152898E+04  0.91948321009E+02 0.  0.
          2    1    3    3  502    0  0.66422649132E+01 -0.45216173134E+02 -0.13085587066E+04  0.13093565254E+04  0.00000000000E+00 0. -1.
         -2    1    3    3    0  502 -0.66422649132E+01  0.45216173134E+02 -0.10516662266E+04  0.10526587644E+04  0.00000000000E+00 0.  1.
<mgrwt>
<rscale>  0 0.91948321E+02</rscale>
<asrwt>0</asrwt>
<pdfrwt beam="2">  1        1 0.36325069E+00 0.91948321E+02</pdfrwt>
<pdfrwt beam="1">  1       -1 0.13771919E-03 0.91948321E+02</pdfrwt>
<totfact> 0.58013987E+04</totfact>
</mgrwt>
</event>
<event>
 5    1  0.4067226E+001  0.9289207E+02  0.7546771E-02  0.1295996E+00
          3   -1    0    0  501    0  0.00000000000E+00  0.00000000000E+00  0.10884808637E+01  0.10884808637E+01  0.00000000000E+00 0. -1.
         -3   -1    0    0    0  501 -0.00000000000E+00 -0.00000000000E+00 -0.19818759115E+04  0.19818759115E+04  0.00000000000E+00 0.  1.
         23    2    1    2    0    0  0.00000000000E+00  0.00000000000E+00 -0.19807874307E+04  0.19829643924E+04  0.92892066485E+02 0.  0.
          2    1    3    3  502    0  0.28407858109E+02 -0.36035303199E+02 -0.83692616675E+03  0.83818312920E+03  0.00000000000E+00 0. -1.
         -2    1    3    3    0  502 -0.28407858109E+02  0.36035303199E+02 -0.11438612639E+04  0.11447812632E+04  0.00000000000E+00 0.  1.
<mgrwt>
<rscale>  0 0.92892066E+02</rscale>
<asrwt>0</asrwt>
<pdfrwt beam="1">  1        3 0.16745936E-03 0.92892066E+02</pdfrwt>
<pdfrwt beam="2">  1       -3 0.30490259E+00 0.92892066E+02</pdfrwt>
<totfact> 0.34930360E+03</totfact>
</mgrwt>
</event>
<event>
 5    1  0.4067226E+001  0.9147099E+02  0.7546771E-02  0.1299328E+00
          1   -1    0    0  501    0  0.00000000000E+00  0.00000000000E+00  0.19575442735E+02  0.19575442735E+02  0.00000000000E+00 0. -1.
         -1   -1    0    0    0  501 -0.00000000000E+00 -0.00000000000E+00 -0.10685507202E+03  0.10685507202E+03  0.00000000000E+00 0.  1.
         23    2    1    2    0    0  0.00000000000E+00  0.00000000000E+00 -0.87279629281E+02  0.12643051475E+03  0.91470986508E+02 0.  0.
          2    1    3    3  502    0  0.73913875731E+00 -0.27308990633E+02  0.70587371398E+01  0.28216184460E+02  0.00000000000E+00 0. -1.
         -2    1    3    3    0  502 -0.73913875731E+00  0.27308990633E+02 -0.94338366420E+02  0.98214330290E+02  0.00000000000E+00 0.  1.
<mgrwt>
<rscale>  0 0.91470987E+02</rscale>
<asrwt>0</asrwt>
<pdfrwt beam="1">  1        1 0.30116066E-02 0.91470987E+02</pdfrwt>
<pdfrwt beam="2">  1       -1 0.16439242E-01 0.91470987E+02</pdfrwt>
<totfact> 0.79691798E+04</totfact>
</mgrwt>
</event>
<event>
 5    1  0.4067226E+001  0.1052609E+03  0.7546771E-02  0.1269606E+00
         -1   -1    0    0    0  501 -0.00000000000E+00  0.00000000000E+00  0.45003491257E+02  0.45003491257E+02  0.00000000000E+00 0.  1.
          1   -1    0    0  501    0  0.00000000000E+00 -0.00000000000E+00 -0.61549979477E+02  0.61549979477E+02  0.00000000000E+00 0. -1.
         23    2    1    2    0    0  0.00000000000E+00  0.00000000000E+00 -0.16546488220E+02  0.10655347073E+03  0.10526089422E+03 0.  0.
          2    1    3    3  502    0  0.64246908856E+00 -0.36066116658E+02 -0.47068611627E+02  0.59301195079E+02  0.00000000000E+00 0. -1.
         -2    1    3    3    0  502 -0.64246908856E+00  0.36066116658E+02  0.30522123407E+02  0.47252275655E+02  0.00000000000E+00 0.  1.
<mgrwt>
<rscale>  0 0.10526089E+03</rscale>
<asrwt>0</asrwt>
<pdfrwt beam="2">  1        1 0.94692277E-02 0.10526089E+03</pdfrwt>
<pdfrwt beam="1">  1       -1 0.69236140E-02 0.10526089E+03</pdfrwt>
<totfact> 0.64678692E+04</totfact>
</mgrwt>
</event>
<event>
 5    1  0.4067226E+001  0.8480405E+02  0.7546771E-02  0.1315946E+00
         -2   -1    0    0    0  501 -0.00000000000E+00  0.00000000000E+00  0.48398794571E+01  0.48398794571E+01  0.00000000000E+00 0.  1.
          2   -1    0    0  501    0  0.00000000000E+00 -0.00000000000E+00 -0.37148275317E+03  0.37148275317E+03  0.00000000000E+00 0. -1.
         23    2    1    2    0    0  0.00000000000E+00  0.00000000000E+00 -0.36664287371E+03  0.37632263262E+03  0.84804050510E+02 0.  0.
          2    1    3    3  502    0  0.32987433829E+02  0.16439870317E+02 -0.27635058432E+03  0.27879757098E+03  0.00000000000E+00 0. -1.
         -2    1    3    3    0  502 -0.32987433829E+02 -0.16439870317E+02 -0.90292289387E+02  0.97525061648E+02  0.00000000000E+00 0.  1.
<mgrwt>
<rscale>  0 0.84804051E+02</rscale>
<asrwt>0</asrwt>
<pdfrwt beam="2">  1        2 0.57151205E-01 0.84804051E+02</pdfrwt>
<pdfrwt beam="1">  1       -2 0.74459669E-03 0.84804051E+02</pdfrwt>
<totfact> 0.23545203E+05</totfact>
</mgrwt>
</event>
<event>
 5    1  0.4067226E+001  0.9068347E+02  0.7546771E-02  0.1301205E+00
          2   -1    0    0  501    0  0.00000000000E+00  0.00000000000E+00  0.73060762765E+03  0.73060762765E+03  0.00000000000E+00 0. -1.
         -2   -1    0    0    0  501 -0.00000000000E+00 -0.00000000000E+00 -0.28139223578E+01  0.28139223578E+01  0.00000000000E+00 0.  1.
         23    2    1    2    0    0  0.00000000000E+00  0.00000000000E+00  0.72779370529E+03  0.73342155001E+03  0.90683474531E+02 0.  0.
          2    1    3    3  502    0 -0.43129834978E+01  0.40573693946E+02  0.52383048890E+03  0.52541717480E+03  0.00000000000E+00 0. -1.
         -2    1    3    3    0  502  0.43129834978E+01 -0.40573693946E+02  0.20396321639E+03  0.20800437521E+03  0.00000000000E+00 0.  1.
<mgrwt>
<rscale>  0 0.90683475E+02</rscale>
<asrwt>0</asrwt>
<pdfrwt beam="1">  1        2 0.11240102E+00 0.90683475E+02</pdfrwt>
<pdfrwt beam="2">  1       -2 0.43291171E-03 0.90683475E+02</pdfrwt>
<totfact> 0.24288241E+05</totfact>
</mgrwt>
</event>
<event>
 5    1  0.4067226E+001  0.9102620E+02  0.7546771E-02  0.1300385E+00
         -3   -1    0    0    0  501 -0.00000000000E+00  0.00000000000E+00  0.83214577657E+01  0.83214577657E+01  0.00000000000E+00 0.  1.
          3   -1    0    0  501    0  0.00000000000E+00 -0.00000000000E+00 -0.24892779884E+03  0.24892779884E+03  0.00000000000E+00 0. -1.
         23    2    1    2    0    0  0.00000000000E+00  0.00000000000E+00 -0.24060634108E+03  0.25724925661E+03  0.91026197653E+02 0.  0.
          2    1    3    3  502    0 -0.21211492358E+02 -0.64597781752E+01 -0.79754721583E+01  0.23564046730E+02  0.00000000000E+00 0.  1.
         -2    1    3    3    0  502  0.21211492358E+02  0.64597781752E+01 -0.23263086892E+03  0.23368520988E+03  0.00000000000E+00 0. -1.
<mgrwt>
<rscale>  0 0.91026198E+02</rscale>
<asrwt>0</asrwt>
<pdfrwt beam="2">  1        3 0.38296583E-01 0.91026198E+02</pdfrwt>
<pdfrwt beam="1">  1       -3 0.12802243E-02 0.91026198E+02</pdfrwt>
<totfact> 0.25900245E+04</totfact>
</mgrwt>
</event>
<event>
 5    1  0.4067226E+001  0.8983472E+02  0.7546771E-02  0.1303252E+00
          2   -1    0    0  501    0  0.00000000000E+00  0.00000000000E+00  0.10315358242E+04  0.10315358242E+04  0.00000000000E+00 0. -1.
         -2   -1    0    0    0  501 -0.00000000000E+00 -0.00000000000E+00 -0.19558886173E+01  0.19558886173E+01  0.00000000000E+00 0.  1.
         23    2    1    2    0    0  0.00000000000E+00  0.00000000000E+00  0.10295799355E+04  0.10334917128E+04  0.89834718830E+02 0.  0.
          2    1    3    3  502    0  0.91646867617E+01 -0.31602146614E+02  0.86654570528E+03  0.86717019465E+03  0.00000000000E+00 0. -1.
         -2    1    3    3    0  502 -0.91646867617E+01  0.31602146614E+02  0.16303423026E+03  0.16632151812E+03  0.00000000000E+00 0.  1.
<mgrwt>
<rscale>  0 0.89834719E+02</rscale>
<asrwt>0</asrwt>
<pdfrwt beam="1">  1        2 0.15869738E+00 0.89834719E+02</pdfrwt>
<pdfrwt beam="2">  1       -2 0.30090677E-03 0.89834719E+02</pdfrwt>
<totfact> 0.26022060E+05</totfact>
</mgrwt>
</event>
<event>
 5    1  0.4067226E+001  0.9055483E+02  0.7546771E-02  0.1301514E+00
          2   -1    0    0  501    0  0.00000000000E+00  0.00000000000E+00  0.22785715394E+03  0.22785715394E+03  0.00000000000E+00 0.  1.
         -2   -1    0    0    0  501 -0.00000000000E+00 -0.00000000000E+00 -0.89970586581E+01  0.89970586581E+01  0.00000000000E+00 0. -1.
         23    2    1    2    0    0  0.00000000000E+00  0.00000000000E+00  0.21886009529E+03  0.23685421260E+03  0.90554827143E+02 0.  0.
          2    1    3    3  502    0 -0.18446872184E+02  0.37237440762E+02  0.62412690954E+02  0.74981718305E+02  0.00000000000E+00 0. -1.
         -2    1    3    3    0  502  0.18446872184E+02 -0.37237440762E+02  0.15644740433E+03  0.16187249430E+03  0.00000000000E+00 0.  1.
<mgrwt>
<rscale>  0 0.90554827E+02</rscale>
<asrwt>0</asrwt>
<pdfrwt beam="1">  1        2 0.35054943E-01 0.90554827E+02</pdfrwt>
<pdfrwt beam="2">  1       -2 0.13841630E-02 0.90554827E+02</pdfrwt>
<totfact> 0.16522061E+05</totfact>
</mgrwt>
</event>
<event>
 5    1  0.4067226E+001  0.9414781E+02  0.7546771E-02  0.1293107E+00
         -2   -1    0    0    0  501 -0.00000000000E+00  0.00000000000E+00  0.22003316078E+01  0.22003316078E+01  0.00000000000E+00 0.  1.
          2   -1    0    0  501    0  0.00000000000E+00 -0.00000000000E+00 -0.10070993310E+04  0.10070993310E+04  0.00000000000E+00 0. -1.
         23    2    1    2    0    0  0.00000000000E+00  0.00000000000E+00 -0.10048989994E+04  0.10092996626E+04  0.94147809110E+02 0.  0.
          2    1    3    3  502    0 -0.35262414299E+02 -0.47348766506E+01 -0.17200878199E+03  0.17564987333E+03  0.00000000000E+00 0. -1.
         -2    1    3    3    0  502  0.35262414299E+02  0.47348766506E+01 -0.83289021736E+03  0.83364978924E+03  0.00000000000E+00 0.  1.
<mgrwt>
<rscale>  0 0.94147809E+02</rscale>
<asrwt>0</asrwt>
<pdfrwt beam="2">  1        2 0.15493853E+00 0.94147809E+02</pdfrwt>
<pdfrwt beam="1">  1       -2 0.33851217E-03 0.94147809E+02</pdfrwt>
<totfact> 0.22980778E+05</totfact>
</mgrwt>
</event>
<event>
 5    1  0.4067226E+001  0.9190134E+02  0.7546771E-02  0.1298312E+00
          4   -1    0    0  501    0  0.00000000000E+00  0.00000000000E+00  0.43200774912E+01  0.43200774912E+01  0.00000000000E+00 0. -1.
         -4   -1    0    0    0  501 -0.00000000000E+00 -0.00000000000E+00 -0.48875609990E+03  0.48875609990E+03  0.00000000000E+00 0.  1.
         23    2    1    2    0    0  0.00000000000E+00  0.00000000000E+00 -0.48443602241E+03  0.49307617739E+03  0.91901343317E+02 0.  0.
          2    1    3    3  502    0  0.44265102698E+02 -0.12324999396E+02 -0.24435941512E+03  0.24864196887E+03  0.00000000000E+00 0. -1.
         -2    1    3    3    0  502 -0.44265102698E+02  0.12324999396E+02 -0.24007660729E+03  0.24443420852E+03  0.00000000000E+00 0.  1.
<mgrwt>
<rscale>  0 0.91901343E+02</rscale>
<asrwt>0</asrwt>
<pdfrwt beam="1">  1        4 0.66462720E-03 0.91901343E+02</pdfrwt>
<pdfrwt beam="2">  1       -4 0.75193258E-01 0.91901343E+02</pdfrwt>
<totfact> 0.12926224E+04</totfact>
</mgrwt>
</event>
<event>
 5    1  0.4067226E+001  0.9237711E+02  0.7546771E-02  0.1297195E+00
         -1   -1    0    0    0  501 -0.00000000000E+00  0.00000000000E+00  0.15309941154E+01  0.15309941154E+01  0.00000000000E+00 0.  1.
          1   -1    0    0  501    0  0.00000000000E+00 -0.00000000000E+00 -0.13934623765E+04  0.13934623765E+04  0.00000000000E+00 0. -1.
         23    2    1    2    0    0  0.00000000000E+00  0.00000000000E+00 -0.13919313824E+04  0.13949933706E+04  0.92377111851E+02 0.  0.
          2    1    3    3  502    0  0.33334138396E+02 -0.29230801540E+02 -0.89156867422E+03  0.89267032291E+03  0.00000000000E+00 0. -1.
         -2    1    3    3    0  502 -0.33334138396E+02  0.29230801540E+02 -0.50036270817E+03  0.50232304772E+03  0.00000000000E+00 0.  1.
<mgrwt>
<rscale>  0 0.92377112E+02</rscale>
<asrwt>0</asrwt>
<pdfrwt beam="2">  1        1 0.21437876E+00 0.92377112E+02</pdfrwt>
<pdfrwt beam="1">  1       -1 0.23553763E-03 0.92377112E+02</pdfrwt>
<totfact> 0.11283572E+05</totfact>
</mgrwt>
</event>
<event>
 5    1  0.4067226E+001  0.9154035E+02  0.7546771E-02  0.1299164E+00
         -2   -1    0    0    0  501 -0.00000000000E+00  0.00000000000E+00  0.19009329764E+01  0.19009329764E+01  0.00000000000E+00 0. -1.
          2   -1    0    0  501    0  0.00000000000E+00 -0.00000000000E+00 -0.11020423744E+04  0.11020423744E+04  0.00000000000E+00 0.  1.
         23    2    1    2    0    0  0.00000000000E+00  0.00000000000E+00 -0.11001414414E+04  0.11039433073E+04  0.91540345003E+02 0.  0.
          2    1    3    3  502    0  0.40200774202E+02 -0.15139948995E+02 -0.35954815789E+03  0.36210523076E+03  0.00000000000E+00 0. -1.
         -2    1    3    3    0  502 -0.40200774202E+02  0.15139948995E+02 -0.74059328349E+03  0.74183807657E+03  0.00000000000E+00 0.  1.
<mgrwt>
<rscale>  0 0.91540345E+02</rscale>
<asrwt>0</asrwt>
<pdfrwt beam="2">  1        2 0.16954452E+00 0.91540345E+02</pdfrwt>
<pdfrwt beam="1">  1       -2 0.29245203E-03 0.91540345E+02</pdfrwt>
<totfact> 0.24756795E+05</totfact>
</mgrwt>
</event>
<event>
 5    1  0.4067226E+001  0.9993570E+02  0.7546771E-02  0.1280431E+00
         -3   -1    0    0    0  501 -0.00000000000E+00  0.00000000000E+00  0.42397075007E+03  0.42397075007E+03  0.00000000000E+00 0.  1.
          3   -1    0    0  501    0  0.00000000000E+00 -0.00000000000E+00 -0.58890530216E+01  0.58890530216E+01  0.00000000000E+00 0. -1.
         23    2    1    2    0    0  0.00000000000E+00  0.00000000000E+00  0.41808169705E+03  0.42985980310E+03  0.99935703866E+02 0.  0.
          2    1    3    3  502    0  0.22897842017E+02  0.34859224834E+02  0.90670517345E+02  0.99802902967E+02  0.00000000000E+00 0. -1.
         -2    1    3    3    0  502 -0.22897842017E+02 -0.34859224834E+02  0.32741117971E+03  0.33005690013E+03  0.00000000000E+00 0.  1.
<mgrwt>
<rscale>  0 0.99935704E+02</rscale>
<asrwt>0</asrwt>
<pdfrwt beam="2">  1        3 0.90600849E-03 0.99935704E+02</pdfrwt>
<pdfrwt beam="1">  1       -3 0.65226245E-01 0.99935704E+02</pdfrwt>
<totfact> 0.15415609E+04</totfact>
</mgrwt>
</event>
<event>
 5    1  0.4067226E+001  0.9103900E+02  0.7546771E-02  0.1300355E+00
          2   -1    0    0  501    0  0.00000000000E+00  0.00000000000E+00  0.99346598441E+03  0.99346598441E+03  0.00000000000E+00 0. -1.
         -2   -1    0    0    0  501 -0.00000000000E+00 -0.00000000000E+00 -0.20856524604E+01  0.20856524604E+01  0.00000000000E+00 0.  1.
         23    2    1    2    0    0  0.00000000000E+00  0.00000000000E+00  0.99138033195E+03  0.99555163687E+03  0.91038997681E+02 0.  0.
          2    1    3    3  502    0 -0.33220677540E+02  0.29990777845E+02  0.40487686909E+03  0.40734302412E+03  0.00000000000E+00 0.  1.
         -2    1    3    3    0  502  0.33220677540E+02 -0.29990777845E+02  0.58650346286E+03  0.58820861275E+03  0.00000000000E+00 0. -1.
<mgrwt>
<rscale>  0 0.91038998E+02</rscale>
<asrwt>0</asrwt>
<pdfrwt beam="1">  1        2 0.15284054E+00 0.91038998E+02</pdfrwt>
<pdfrwt beam="2">  1       -2 0.32087040E-03 0.91038998E+02</pdfrwt>
<totfact> 0.25093640E+05</totfact>
</mgrwt>
</event>
<event>
 5    1  0.4067226E+001  0.8869239E+02  0.7546771E-02  0.1306050E+00
          2   -1    0    0  501    0  0.00000000000E+00  0.00000000000E+00  0.10156548816E+04  0.10156548816E+04  0.00000000000E+00 0. -1.
         -2   -1    0    0    0  501 -0.00000000000E+00 -0.00000000000E+00 -0.19362728730E+01  0.19362728730E+01  0.00000000000E+00 0.  1.
         23    2    1    2    0    0  0.00000000000E+00  0.00000000000E+00  0.10137186087E+04  0.10175911544E+04  0.88692389651E+02 0.  0.
          2    1    3    3  502    0  0.41291919135E+02  0.13901182798E+02  0.60169228275E+03  0.60326765916E+03  0.00000000000E+00 0. -1.
         -2    1    3    3    0  502 -0.41291919135E+02 -0.13901182798E+02  0.41202632594E+03  0.41432349528E+03  0.00000000000E+00 0.  1.
<mgrwt>
<rscale>  0 0.88692390E+02</rscale>
<asrwt>0</asrwt>
<pdfrwt beam="1">  1        2 0.15625417E+00 0.88692390E+02</pdfrwt>
<pdfrwt beam="2">  1       -2 0.29788895E-03 0.88692390E+02</pdfrwt>
<totfact> 0.26900849E+05</totfact>
</mgrwt>
</event>
<event>
 5    1  0.4067226E+001  0.9448239E+02  0.7546771E-02  0.1292346E+00
         -2   -1    0    0    0  501 -0.00000000000E+00  0.00000000000E+00  0.33975400850E+01  0.33975400850E+01  0.00000000000E+00 0.  1.
          2   -1    0    0  501    0  0.00000000000E+00 -0.00000000000E+00 -0.65686656562E+03  0.65686656562E+03  0.00000000000E+00 0. -1.
         23    2    1    2    0    0  0.00000000000E+00  0.00000000000E+00 -0.65346902553E+03  0.66026410570E+03  0.94482389622E+02 0.  0.
          2    1    3    3  502    0  0.12790349544E+02  0.45040084925E+02 -0.28279853310E+03  0.28664823846E+03  0.00000000000E+00 0. -1.
         -2    1    3    3    0  502 -0.12790349544E+02 -0.45040084925E+02 -0.37067049244E+03  0.37361586724E+03  0.00000000000E+00 0.  1.
<mgrwt>
<rscale>  0 0.94482390E+02</rscale>
<asrwt>0</asrwt>
<pdfrwt beam="2">  1        2 0.10105635E+00 0.94482390E+02</pdfrwt>
<pdfrwt beam="1">  1       -2 0.52269871E-03 0.94482390E+02</pdfrwt>
<totfact> 0.21249933E+05</totfact>
</mgrwt>
</event>
<event>
 5    1  0.4067226E+001  0.8822543E+02  0.7546771E-02  0.1307207E+00
          1   -1    0    0  501    0  0.00000000000E+00  0.00000000000E+00  0.22298855840E+03  0.22298855840E+03  0.00000000000E+00 0. -1.
         -1   -1    0    0    0  501 -0.00000000000E+00 -0.00000000000E+00 -0.87265979992E+01  0.87265979992E+01  0.00000000000E+00 0.  1.
         23    2    1    2    0    0  0.00000000000E+00  0.00000000000E+00  0.21426196040E+03  0.23171515640E+03  0.88225427345E+02 0.  0.
          2    1    3    3  502    0  0.12934899439E+02  0.26440393623E+02  0.19342428818E+03  0.19565112138E+03  0.00000000000E+00 0. -1.
         -2    1    3    3    0  502 -0.12934899439E+02 -0.26440393623E+02  0.20837672221E+02  0.36064035021E+02  0.00000000000E+00 0.  1.
<mgrwt>
<rscale>  0 0.88225427E+02</rscale>
<asrwt>0</asrwt>
<pdfrwt beam="1">  1        1 0.34305928E-01 0.88225427E+02</pdfrwt>
<pdfrwt beam="2">  1       -1 0.13425537E-02 0.88225427E+02</pdfrwt>
<totfact> 0.13204865E+05</totfact>
</mgrwt>
</event>
<event>
 5    1  0.4067226E+001  0.8622857E+02  0.7546771E-02  0.1312251E+00
         -1   -1    0    0    0  501 -0.00000000000E+00  0.00000000000E+00  0.61445271797E+00  0.61445271797E+00  0.00000000000E+00 0.  1.
          1   -1    0    0  501    0  0.00000000000E+00 -0.00000000000E+00 -0.30251986426E+04  0.30251986426E+04  0.00000000000E+00 0. -1.
         23    2    1    2    0    0  0.00000000000E+00  0.00000000000E+00 -0.30245841899E+04  0.30258130953E+04  0.86228569009E+02 0.  0.
          2    1    3    3  502    0  0.81951318789E+01 -0.36674415004E+02 -0.77066832071E+03  0.77158397693E+03  0.00000000000E+00 0.  1.
         -2    1    3    3    0  502 -0.81951318789E+01  0.36674415004E+02 -0.22539158692E+04  0.22542291184E+04  0.00000000000E+00 0. -1.
<mgrwt>
<rscale>  0 0.86228569E+02</rscale>
<asrwt>0</asrwt>
<pdfrwt beam="2">  1        1 0.46541874E+00 0.86228569E+02</pdfrwt>
<pdfrwt beam="1">  1       -1 0.94530463E-04 0.86228569E+02</pdfrwt>
<totfact> 0.35500744E+04</totfact>
</mgrwt>
</event>
<event>
 5    1  0.4067226E+001  0.9454980E+02  0.7546771E-02  0.1292193E+00
          1   -1    0    0  501    0  0.00000000000E+00  0.00000000000E+00  0.86306964715E+02  0.86306964715E+02  0.00000000000E+00 0. -1.
         -1   -1    0    0    0  501 -0.00000000000E+00 -0.00000000000E+00 -0.25894968828E+02  0.25894968828E+02  0.00000000000E+00 0.  1.
         23    2    1    2    0    0  0.00000000000E+00  0.00000000000E+00  0.60411995888E+02  0.11220193354E+03  0.94549799808E+02 0.  0.
          2    1    3    3  502    0  0.38731623469E+02 -0.59109890686E+01  0.61599401176E+02  0.73003867525E+02  0.00000000000E+00 0. -1.
         -2    1    3    3    0  502 -0.38731623469E+02  0.59109890686E+01 -0.11874052886E+01  0.39198066019E+02  0.00000000000E+00 0.  1.
<mgrwt>
<rscale>  0 0.94549800E+02</rscale>
<asrwt>0</asrwt>
<pdfrwt beam="1">  1        1 0.13277994E-01 0.94549800E+02</pdfrwt>
<pdfrwt beam="2">  1       -1 0.39838414E-02 0.94549800E+02</pdfrwt>
<totfact> 0.92283853E+04</totfact>
</mgrwt>
</event>
<event>
 5    1  0.4067226E+001  0.9190715E+02  0.7546771E-02  0.1298298E+00
          3   -1    0    0  501    0  0.00000000000E+00  0.00000000000E+00  0.35803396332E+03  0.35803396332E+03  0.00000000000E+00 0. -1.
         -3   -1    0    0    0  501 -0.00000000000E+00 -0.00000000000E+00 -0.58981305939E+01  0.58981305939E+01  0.00000000000E+00 0.  1.
         23    2    1    2    0    0  0.00000000000E+00  0.00000000000E+00  0.35213583273E+03  0.36393209391E+03  0.91907150379E+02 0.  0.
          2    1    3    3  502    0  0.25105795044E+02 -0.25508687949E+02  0.61937126295E+02  0.71534619028E+02  0.00000000000E+00 0. -1.
         -2    1    3    3    0  502 -0.25105795044E+02  0.25508687949E+02  0.29019870643E+03  0.29239747489E+03  0.00000000000E+00 0.  1.
<mgrwt>
<rscale>  0 0.91907150E+02</rscale>
<asrwt>0</asrwt>
<pdfrwt beam="1">  1        3 0.55082131E-01 0.91907150E+02</pdfrwt>
<pdfrwt beam="2">  1       -3 0.90740499E-03 0.91907150E+02</pdfrwt>
<totfact> 0.21290699E+04</totfact>
</mgrwt>
</event>
<event>
 5    1  0.4067226E+001  0.9254747E+02  0.7546771E-02  0.1296797E+00
          2   -1    0    0  501    0  0.00000000000E+00  0.00000000000E+00  0.11716785292E+04  0.11716785292E+04  0.00000000000E+00 0.  1.
         -2   -1    0    0    0  501 -0.00000000000E+00 -0.00000000000E+00 -0.18275137127E+01  0.18275137127E+01  0.00000000000E+00 0. -1.
         23    2    1    2    0    0  0.00000000000E+00  0.00000000000E+00  0.11698510155E+04  0.11735060429E+04  0.92547470608E+02 0.  0.
          2    1    3    3  502    0 -0.37219898941E+02 -0.63505999084E-01  0.23629722142E+03  0.23921058037E+03  0.00000000000E+00 0. -1.
         -2    1    3    3    0  502  0.37219898941E+02  0.63505999084E-01  0.93355379407E+03  0.93429546254E+03  0.00000000000E+00 0.  1.
<mgrwt>
<rscale>  0 0.92547471E+02</rscale>
<asrwt>0</asrwt>
<pdfrwt beam="1">  1        2 0.18025763E+00 0.92547471E+02</pdfrwt>
<pdfrwt beam="2">  1       -2 0.28115689E-03 0.92547471E+02</pdfrwt>
<totfact> 0.23966192E+05</totfact>
</mgrwt>
</event>
<event>
 5    1  0.4067226E+001  0.9587987E+02  0.7546771E-02  0.1289207E+00
         -2   -1    0    0    0  501 -0.00000000000E+00  0.00000000000E+00  0.12811095453E+01  0.12811095453E+01  0.00000000000E+00 0.  1.
          2   -1    0    0  501    0  0.00000000000E+00 -0.00000000000E+00 -0.17939429523E+04  0.17939429523E+04  0.00000000000E+00 0. -1.
         23    2    1    2    0    0  0.00000000000E+00  0.00000000000E+00 -0.17926618427E+04  0.17952240618E+04  0.95879871503E+02 0.  0.
          2    1    3    3  502    0  0.45449415213E+02 -0.57291377286E+01 -0.63169365526E+03  0.63335246621E+03  0.00000000000E+00 0. -1.
         -2    1    3    3    0  502 -0.45449415213E+02  0.57291377286E+01 -0.11609681875E+04  0.11618715956E+04  0.00000000000E+00 0.  1.
<mgrwt>
<rscale>  0 0.95879872E+02</rscale>
<asrwt>0</asrwt>
<pdfrwt beam="2">  1        2 0.27599236E+00 0.95879872E+02</pdfrwt>
<pdfrwt beam="1">  1       -2 0.19709297E-03 0.95879872E+02</pdfrwt>
<totfact> 0.18807445E+05</totfact>
</mgrwt>
</event>
<event>
 5    1  0.4067226E+001  0.8964241E+02  0.7546771E-02  0.1303720E+00
          2   -1    0    0  501    0  0.00000000000E+00  0.00000000000E+00  0.11110558915E+03  0.11110558915E+03  0.00000000000E+00 0. -1.
         -2   -1    0    0    0  501 -0.00000000000E+00 -0.00000000000E+00 -0.18081360576E+02  0.18081360576E+02  0.00000000000E+00 0.  1.
         23    2    1    2    0    0  0.00000000000E+00  0.00000000000E+00  0.93024228577E+02  0.12918694973E+03  0.89642405577E+02 0.  0.
          2    1    3    3  502    0 -0.37968728147E+02  0.17090621693E+02  0.70420502923E+02  0.81809295919E+02  0.00000000000E+00 0. -1.
         -2    1    3    3    0  502  0.37968728147E+02 -0.17090621693E+02  0.22603725654E+02  0.47377653808E+02  0.00000000000E+00 0.  1.
<mgrwt>
<rscale>  0 0.89642406E+02</rscale>
<asrwt>0</asrwt>
<pdfrwt beam="1">  1        2 0.17093167E-01 0.89642406E+02</pdfrwt>
<pdfrwt beam="2">  1       -2 0.27817478E-02 0.89642406E+02</pdfrwt>
<totfact> 0.13275841E+05</totfact>
</mgrwt>
</event>
<event>
 5    1  0.4067226E+001  0.8712781E+02  0.7546771E-02  0.1309960E+00
          4   -1    0    0  501    0  0.00000000000E+00  0.00000000000E+00  0.27521743865E+01  0.27521743865E+01  0.00000000000E+00 0.  1.
         -4   -1    0    0    0  501 -0.00000000000E+00 -0.00000000000E+00 -0.68956883237E+03  0.68956883237E+03  0.00000000000E+00 0. -1.
         23    2    1    2    0    0  0.00000000000E+00  0.00000000000E+00 -0.68681665799E+03  0.69232100676E+03  0.87127806770E+02 0.  0.
          2    1    3    3  502    0  0.55392172673E+01 -0.41375627411E+02 -0.44239576714E+03  0.44436093467E+03  0.00000000000E+00 0. -1.
         -2    1    3    3    0  502 -0.55392172673E+01  0.41375627411E+02 -0.24442089084E+03  0.24796007209E+03  0.00000000000E+00 0.  1.
<mgrwt>
<rscale>  0 0.87127807E+02</rscale>
<asrwt>0</asrwt>
<pdfrwt beam="1">  1        4 0.42341127E-03 0.87127807E+02</pdfrwt>
<pdfrwt beam="2">  1       -4 0.10608756E+00 0.87127807E+02</pdfrwt>
<totfact> 0.11416928E+04</totfact>
</mgrwt>
</event>
<event>
 5    1  0.4067226E+001  0.9351846E+02  0.7546771E-02  0.1294548E+00
          1   -1    0    0  501    0  0.00000000000E+00  0.00000000000E+00  0.20309314743E+03  0.20309314743E+03  0.00000000000E+00 0. -1.
         -1   -1    0    0    0  501 -0.00000000000E+00 -0.00000000000E+00 -0.10765630525E+02  0.10765630525E+02  0.00000000000E+00 0.  1.
         23    2    1    2    0    0  0.00000000000E+00  0.00000000000E+00  0.19232751691E+03  0.21385877796E+03  0.93518464220E+02 0.  0.
          2    1    3    3  502    0 -0.36837986147E+02 -0.21909746225E+02  0.13890637193E+03  0.14536868427E+03  0.00000000000E+00 0. -1.
         -2    1    3    3    0  502  0.36837986147E+02  0.21909746225E+02  0.53421144978E+02  0.68490093691E+02  0.00000000000E+00 0.  1.
<mgrwt>
<rscale>  0 0.93518464E+02</rscale>
<asrwt>0</asrwt>
<pdfrwt beam="1">  1        1 0.31245097E-01 0.93518464E+02</pdfrwt>
<pdfrwt beam="2">  1       -1 0.16562510E-02 0.93518464E+02</pdfrwt>
<totfact> 0.11093741E+05</totfact>
</mgrwt>
</event>
<event>
 5    1  0.4067226E+001  0.9145438E+02  0.7546771E-02  0.1299367E+00
          2   -1    0    0  501    0  0.00000000000E+00  0.00000000000E+00  0.12954604689E+02  0.12954604689E+02  0.00000000000E+00 0. -1.
         -2   -1    0    0    0  501 -0.00000000000E+00 -0.00000000000E+00 -0.16140792519E+03  0.16140792519E+03  0.00000000000E+00 0.  1.
         23    2    1    2    0    0  0.00000000000E+00  0.00000000000E+00 -0.14845332050E+03  0.17436252988E+03  0.91454379108E+02 0.  0.
          2    1    3    3  502    0 -0.36893004141E+02  0.33032386530E+01 -0.12534823925E+03  0.13070648883E+03  0.00000000000E+00 0. -1.
         -2    1    3    3    0  502  0.36893004141E+02 -0.33032386530E+01 -0.23105081249E+02  0.43656041044E+02  0.00000000000E+00 0.  1.
<mgrwt>
<rscale>  0 0.91454379E+02</rscale>
<asrwt>0</asrwt>
<pdfrwt beam="1">  1        2 0.19930162E-02 0.91454379E+02</pdfrwt>
<pdfrwt beam="2">  1       -2 0.24831987E-01 0.91454379E+02</pdfrwt>
<totfact> 0.67456230E+04</totfact>
</mgrwt>
</event>
<event>
 5    1  0.4067226E+001  0.9185858E+02  0.7546771E-02  0.1298412E+00
         -2   -1    0    0    0  501 -0.00000000000E+00  0.00000000000E+00  0.68876917654E+01  0.68876917654E+01  0.00000000000E+00 0.  1.
          2   -1    0    0  501    0  0.00000000000E+00 -0.00000000000E+00 -0.30627092321E+03  0.30627092321E+03  0.00000000000E+00 0. -1.
         23    2    1    2    0    0  0.00000000000E+00  0.00000000000E+00 -0.29938323144E+03  0.31315861497E+03  0.91858580781E+02 0.  0.
          2    1    3    3  502    0  0.17006664714E+02 -0.19279575363E+02 -0.27944375660E+03  0.28062384391E+03  0.00000000000E+00 0. -1.
         -2    1    3    3    0  502 -0.17006664714E+02  0.19279575363E+02 -0.19939474844E+02  0.32534771060E+02  0.00000000000E+00 0.  1.
<mgrwt>
<rscale>  0 0.91858581E+02</rscale>
<asrwt>0</asrwt>
<pdfrwt beam="2">  1        2 0.47118603E-01 0.91858581E+02</pdfrwt>
<pdfrwt beam="1">  1       -2 0.10596449E-02 0.91858581E+02</pdfrwt>
<totfact> 0.17748328E+05</totfact>
</mgrwt>
</event>
<event>
 5    1  0.4067226E+001  0.9100992E+02  0.7546771E-02  0.1300424E+00
          3   -1    0    0  501    0  0.00000000000E+00  0.00000000000E+00  0.47271143800E+02  0.47271143800E+02  0.00000000000E+00 0. -1.
         -3   -1    0    0    0  501 -0.00000000000E+00 -0.00000000000E+00 -0.43804763569E+02  0.43804763569E+02  0.00000000000E+00 0.  1.
         23    2    1    2    0    0  0.00000000000E+00  0.00000000000E+00  0.34663802305E+01  0.91075907369E+02  0.91009917653E+02 0.  0.
          2    1    3    3  502    0  0.35183353239E+02 -0.85108854545E+01  0.29328495219E+02  0.46588240449E+02  0.00000000000E+00 0. -1.
         -2    1    3    3    0  502 -0.35183353239E+02  0.85108854545E+01 -0.25862114988E+02  0.44487666920E+02  0.00000000000E+00 0.  1.
<mgrwt>
<rscale>  0 0.91009918E+02</rscale>
<asrwt>0</asrwt>
<pdfrwt beam="1">  1        3 0.72724837E-02 0.91009918E+02</pdfrwt>
<pdfrwt beam="2">  1       -3 0.67391944E-02 0.91009918E+02</pdfrwt>
<totfact> 0.35523464E+04</totfact>
</mgrwt>
</event>
<event>
 5    1  0.4067226E+001  0.9382489E+02  0.7546771E-02  0.1293845E+00
          2   -1    0    0  501    0  0.00000000000E+00  0.00000000000E+00  0.27013127882E+02  0.27013127882E+02  0.00000000000E+00 0.  1.
         -2   -1    0    0    0  501 -0.00000000000E+00 -0.00000000000E+00 -0.81470665864E+02  0.81470665864E+02  0.00000000000E+00 0. -1.
         23    2    1    2    0    0  0.00000000000E+00  0.00000000000E+00 -0.54457537981E+02  0.10848379375E+03  0.93824890421E+02 0.  0.
          2    1    3    3  502    0 -0.24481636784E+02  0.75692715176E+01 -0.72663625982E+02  0.77049639530E+02  0.00000000000E+00 0. -1.
         -2    1    3    3    0  502  0.24481636784E+02 -0.75692715176E+01  0.18206088000E+02  0.31434154215E+02  0.00000000000E+00 0.  1.
<mgrwt>
<rscale>  0 0.93824890E+02</rscale>
<asrwt>0</asrwt>
<pdfrwt beam="1">  1        2 0.41558659E-02 0.93824890E+02</pdfrwt>
<pdfrwt beam="2">  1       -2 0.12533948E-01 0.93824890E+02</pdfrwt>
<totfact> 0.78892667E+04</totfact>
</mgrwt>
</event>
<event>
 5    1  0.4067226E+001  0.9382048E+02  0.7546771E-02  0.1293855E+00
          2   -1    0    0  501    0  0.00000000000E+00  0.00000000000E+00  0.16854132473E+04  0.16854132473E+04  0.00000000000E+00 0. -1.
         -2   -1    0    0    0  501 -0.00000000000E+00 -0.00000000000E+00 -0.13056563143E+01  0.13056563143E+01  0.00000000000E+00 0.  1.
         23    2    1    2    0    0  0.00000000000E+00  0.00000000000E+00  0.16841075909E+04  0.16867189036E+04  0.93820476412E+02 0.  0.
          2    1    3    3  502    0 -0.42070530596E+02  0.18903464791E+02  0.68813316380E+03  0.68967711405E+03  0.00000000000E+00 0. -1.
         -2    1    3    3    0  502  0.42070530596E+02 -0.18903464791E+02  0.99597442714E+03  0.99704178952E+03  0.00000000000E+00 0.  1.
<mgrwt>
<rscale>  0 0.93820476E+02</rscale>
<asrwt>0</asrwt>
<pdfrwt beam="1">  1        2 0.25929261E+00 0.93820476E+02</pdfrwt>
<pdfrwt beam="2">  1       -2 0.20087155E-03 0.93820476E+02</pdfrwt>
<totfact> 0.20715903E+05</totfact>
</mgrwt>
</event>
<event>
 5    1  0.4067226E+001  0.9017186E+02  0.7546771E-02  0.1302436E+00
          2   -1    0    0  501    0  0.00000000000E+00  0.00000000000E+00  0.31502838152E+03  0.31502838152E+03  0.00000000000E+00 0.  1.
         -2   -1    0    0    0  501 -0.00000000000E+00 -0.00000000000E+00 -0.64525648960E+01  0.64525648960E+01  0.00000000000E+00 0. -1.
         23    2    1    2    0    0  0.00000000000E+00  0.00000000000E+00  0.30857581663E+03  0.32148094642E+03  0.90171859820E+02 0.  0.
          2    1    3    3  502    0  0.13773782598E+02 -0.35689568434E+02  0.69223736914E+02  0.79091011717E+02  0.00000000000E+00 0. -1.
         -2    1    3    3    0  502 -0.13773782598E+02  0.35689568434E+02  0.23935207971E+03  0.24238993470E+03  0.00000000000E+00 0.  1.
<mgrwt>
<rscale>  0 0.90171860E+02</rscale>
<asrwt>0</asrwt>
<pdfrwt beam="1">  1        2 0.48465893E-01 0.90171860E+02</pdfrwt>
<pdfrwt beam="2">  1       -2 0.99270254E-03 0.90171860E+02</pdfrwt>
<totfact> 0.18843498E+05</totfact>
</mgrwt>
</event>
<event>
 5    1  0.4067226E+001  0.9312334E+02  0.7546771E-02  0.1295460E+00
          2   -1    0    0  501    0  0.00000000000E+00  0.00000000000E+00  0.22838582376E+02  0.22838582376E+02  0.00000000000E+00 0. -1.
         -2   -1    0    0    0  501 -0.00000000000E+00 -0.00000000000E+00 -0.94926610434E+02  0.94926610434E+02  0.00000000000E+00 0.  1.
         23    2    1    2    0    0  0.00000000000E+00  0.00000000000E+00 -0.72088028058E+02  0.11776519281E+03  0.93123342124E+02 0.  0.
          2    1    3    3  502    0 -0.19514399397E+02 -0.64683765161E+01  0.16788114428E+02  0.26542276930E+02  0.00000000000E+00 0. -1.
         -2    1    3    3    0  502  0.19514399397E+02  0.64683765161E+01 -0.88876142486E+02  0.91222915881E+02  0.00000000000E+00 0.  1.
<mgrwt>
<rscale>  0 0.93123342E+02</rscale>
<asrwt>0</asrwt>
<pdfrwt beam="1">  1        2 0.35136281E-02 0.93123342E+02</pdfrwt>
<pdfrwt beam="2">  1       -2 0.14604094E-01 0.93123342E+02</pdfrwt>
<totfact> 0.76901561E+04</totfact>
</mgrwt>
</event>
<event>
 5    1  0.4067226E+001  0.9176079E+02  0.7546771E-02  0.1298643E+00
          2   -1    0    0  501    0  0.00000000000E+00  0.00000000000E+00  0.13960120942E+03  0.13960120942E+03  0.00000000000E+00 0. -1.
         -2   -1    0    0    0  501 -0.00000000000E+00 -0.00000000000E+00 -0.15078742407E+02  0.15078742407E+02  0.00000000000E+00 0.  1.
         23    2    1    2    0    0  0.00000000000E+00  0.00000000000E+00  0.12452246701E+03  0.15467995183E+03  0.91760790679E+02 0.  0.
          2    1    3    3  502    0 -0.25156688323E+02 -0.42303009824E+01  0.12654441348E+03  0.12909005770E+03  0.00000000000E+00 0. -1.
         -2    1    3    3    0  502  0.25156688323E+02  0.42303009824E+01 -0.20219464695E+01  0.25589894125E+02  0.00000000000E+00 0.  1.
<mgrwt>
<rscale>  0 0.91760791E+02</rscale>
<asrwt>0</asrwt>
<pdfrwt beam="1">  1        2 0.21477108E-01 0.91760791E+02</pdfrwt>
<pdfrwt beam="2">  1       -2 0.23198066E-02 0.91760791E+02</pdfrwt>
<totfact> 0.13411077E+05</totfact>
</mgrwt>
</event>
<event>
 5    1  0.4067226E+001  0.9163092E+02  0.7546771E-02  0.1298950E+00
         -1   -1    0    0    0  501 -0.00000000000E+00  0.00000000000E+00  0.10066735893E+03  0.10066735893E+03  0.00000000000E+00 0.  1.
          1   -1    0    0  501    0  0.00000000000E+00 -0.00000000000E+00 -0.20851409547E+02  0.20851409547E+02  0.00000000000E+00 0. -1.
         23    2    1    2    0    0  0.00000000000E+00  0.00000000000E+00  0.79815949383E+02  0.12151876848E+03  0.91630918997E+02 0.  0.
          2    1    3    3  502    0  0.25614452441E+02  0.19429519851E+02 -0.33800567671E+01  0.32326942311E+02  0.00000000000E+00 0. -1.
         -2    1    3    3    0  502 -0.25614452441E+02 -0.19429519851E+02  0.83196006150E+02  0.89191826165E+02  0.00000000000E+00 0.  1.
<mgrwt>
<rscale>  0 0.91630919E+02</rscale>
<asrwt>0</asrwt>
<pdfrwt beam="2">  1        1 0.32079092E-02 0.91630919E+02</pdfrwt>
<pdfrwt beam="1">  1       -1 0.15487286E-01 0.91630919E+02</pdfrwt>
<totfact> 0.80235462E+04</totfact>
</mgrwt>
</event>
<event>
 5    1  0.4067226E+001  0.9084248E+02  0.7546771E-02  0.1300824E+00
          1   -1    0    0  501    0  0.00000000000E+00  0.00000000000E+00  0.18758645801E+03  0.18758645801E+03  0.00000000000E+00 0. -1.
         -1   -1    0    0    0  501 -0.00000000000E+00 -0.00000000000E+00 -0.10998070512E+02  0.10998070512E+02  0.00000000000E+00 0.  1.
         23    2    1    2    0    0  0.00000000000E+00  0.00000000000E+00  0.17658838750E+03  0.19858452852E+03  0.90842481080E+02 0.  0.
          2    1    3    3  502    0 -0.32801628253E+02 -0.48505049698E-01  0.15697664417E+03  0.16036712875E+03  0.00000000000E+00 0. -1.
         -2    1    3    3    0  502  0.32801628253E+02  0.48505049698E-01  0.19611743326E+02  0.38217399768E+02  0.00000000000E+00 0.  1.
<mgrwt>
<rscale>  0 0.90842481E+02</rscale>
<asrwt>0</asrwt>
<pdfrwt beam="1">  1        1 0.28859453E-01 0.90842481E+02</pdfrwt>
<pdfrwt beam="2">  1       -1 0.16920110E-02 0.90842481E+02</pdfrwt>
<totfact> 0.11810790E+05</totfact>
</mgrwt>
</event>
<event>
 5    1  0.4067226E+001  0.9042454E+02  0.7546771E-02  0.1301827E+00
         -2   -1    0    0    0  501 -0.00000000000E+00  0.00000000000E+00  0.68207020054E+01  0.68207020054E+01  0.00000000000E+00 0. -1.
          2   -1    0    0  501    0  0.00000000000E+00 -0.00000000000E+00 -0.29969779368E+03  0.29969779368E+03  0.00000000000E+00 0.  1.
         23    2    1    2    0    0  0.00000000000E+00  0.00000000000E+00 -0.29287709167E+03  0.30651849568E+03  0.90424539641E+02 0.  0.
          2    1    3    3  502    0 -0.20147548397E+02 -0.66180001453E+01 -0.11084015637E+02  0.23928581967E+02  0.00000000000E+00 0. -1.
         -2    1    3    3    0  502  0.20147548397E+02  0.66180001453E+01 -0.28179307604E+03  0.28258991372E+03  0.00000000000E+00 0.  1.
<mgrwt>
<rscale>  0 0.90424540E+02</rscale>
<asrwt>0</asrwt>
<pdfrwt beam="2">  1        2 0.46107335E-01 0.90424540E+02</pdfrwt>
<pdfrwt beam="1">  1       -2 0.10493392E-02 0.90424540E+02</pdfrwt>
<totfact> 0.18360363E+05</totfact>
</mgrwt>
</event>
<event>
 5    1  0.4067226E+001  0.9314456E+02  0.7546771E-02  0.1295411E+00
         -1   -1    0    0    0  501 -0.00000000000E+00  0.00000000000E+00  0.30041276538E+01  0.30041276538E+01  0.00000000000E+00 0.  1.
          1   -1    0    0  501    0  0.00000000000E+00 -0.00000000000E+00 -0.72199897488E+03  0.72199897488E+03  0.00000000000E+00 0. -1.
         23    2    1    2    0    0  0.00000000000E+00  0.00000000000E+00 -0.71899484722E+03  0.72500310253E+03  0.93144556179E+02 0.  0.
          2    1    3    3  502    0 -0.16469146778E+02 -0.19314980329E+02 -0.66342572621E+03  0.66391113521E+03  0.00000000000E+00 0. -1.
         -2    1    3    3    0  502  0.16469146778E+02  0.19314980329E+02 -0.55569121009E+02  0.61091967315E+02  0.00000000000E+00 0.  1.
<mgrwt>
<rscale>  0 0.93144556E+02</rscale>
<asrwt>0</asrwt>
<pdfrwt beam="2">  1        1 0.11107672E+00 0.93144556E+02</pdfrwt>
<pdfrwt beam="1">  1       -1 0.46217366E-03 0.93144556E+02</pdfrwt>
<totfact> 0.13428954E+05</totfact>
</mgrwt>
</event>
<event>
 5    1  0.4067226E+001  0.9029042E+02  0.7546771E-02  0.1302150E+00
          1   -1    0    0  501    0  0.00000000000E+00  0.00000000000E+00  0.73171086254E+03  0.73171086254E+03  0.00000000000E+00 0. -1.
         -1   -1    0    0    0  501 -0.00000000000E+00 -0.00000000000E+00 -0.27853760533E+01  0.27853760533E+01  0.00000000000E+00 0.  1.
         23    2    1    2    0    0  0.00000000000E+00  0.00000000000E+00  0.72892548649E+03  0.73449623859E+03  0.90290418416E+02 0.  0.
          2    1    3    3  502    0  0.13893083208E+02 -0.40178482600E+02  0.24088798617E+03  0.24461060915E+03  0.00000000000E+00 0.  1.
         -2    1    3    3    0  502 -0.13893083208E+02  0.40178482600E+02  0.48803750032E+03  0.48988562945E+03  0.00000000000E+00 0. -1.
<mgrwt>
<rscale>  0 0.90290418E+02</rscale>
<asrwt>0</asrwt>
<pdfrwt beam="1">  1        1 0.11257075E+00 0.90290418E+02</pdfrwt>
<pdfrwt beam="2">  1       -1 0.42851998E-03 0.90290418E+02</pdfrwt>
<totfact> 0.14576045E+05</totfact>
</mgrwt>
</event>
<event>
 5    1  0.4067226E+001  0.9642187E+02  0.7546771E-02  0.1288005E+00
         -2   -1    0    0    0  501 -0.00000000000E+00  0.00000000000E+00  0.65567942451E+01  0.65567942451E+01  0.00000000000E+00 0.  1.
          2   -1    0    0  501    0  0.00000000000E+00 -0.00000000000E+00 -0.35448637143E+03  0.35448637143E+03  0.00000000000E+00 0. -1.
         23    2    1    2    0    0  0.00000000000E+00  0.00000000000E+00 -0.34792957718E+03  0.36104316567E+03  0.96421868892E+02 0.  0.
          2    1    3    3  502    0  0.41413680732E+01  0.47498071776E+02 -0.20072527038E+03  0.20631008681E+03  0.00000000000E+00 0. -1.
         -2    1    3    3    0  502 -0.41413680732E+01 -0.47498071776E+02 -0.14720430681E+03  0.15473307886E+03  0.00000000000E+00 0.  1.
<mgrwt>
<rscale>  0 0.96421869E+02</rscale>
<asrwt>0</asrwt>
<pdfrwt beam="2">  1        2 0.54536362E-01 0.96421869E+02</pdfrwt>
<pdfrwt beam="1">  1       -2 0.10087376E-02 0.96421869E+02</pdfrwt>
<totfact> 0.16458223E+05</totfact>
</mgrwt>
</event>
<event>
 5    1  0.4067226E+001  0.8851380E+02  0.7546771E-02  0.1306491E+00
         -1   -1    0    0    0  501 -0.00000000000E+00  0.00000000000E+00  0.91934906659E+01  0.91934906659E+01  0.00000000000E+00 0.  1.
          1   -1    0    0  501    0  0.00000000000E+00 -0.00000000000E+00 -0.21304997997E+03  0.21304997997E+03  0.00000000000E+00 0. -1.
         23    2    1    2    0    0  0.00000000000E+00  0.00000000000E+00 -0.20385648930E+03  0.22224347063E+03  0.88513795585E+02 0.  0.
          2    1    3    3  502    0  0.11546656570E+02 -0.40234687038E+02 -0.13801074865E+03  0.14421900729E+03  0.00000000000E+00 0. -1.
         -2    1    3    3    0  502 -0.11546656570E+02  0.40234687038E+02 -0.65845740648E+02  0.78024463346E+02  0.00000000000E+00 0.  1.
<mgrwt>
<rscale>  0 0.88513796E+02</rscale>
<asrwt>0</asrwt>
<pdfrwt beam="2">  1        1 0.32776915E-01 0.88513796E+02</pdfrwt>
<pdfrwt beam="1">  1       -1 0.14143834E-02 0.88513796E+02</pdfrwt>
<totfact> 0.12975393E+05</totfact>
</mgrwt>
</event>
<event>
 5    1  0.4067226E+001  0.9211916E+02  0.7546771E-02  0.1297799E+00
         -1   -1    0    0    0  501 -0.00000000000E+00  0.00000000000E+00  0.38335191440E+02  0.38335191440E+02  0.00000000000E+00 0.  1.
          1   -1    0    0  501    0  0.00000000000E+00 -0.00000000000E+00 -0.55340402242E+02  0.55340402242E+02  0.00000000000E+00 0. -1.
         23    2    1    2    0    0  0.00000000000E+00  0.00000000000E+00 -0.17005210803E+02  0.93675593682E+02  0.92119160098E+02 0.  0.
          2    1    3    3  502    0 -0.31432203989E+02 -0.23602715014E+02 -0.32916860894E+02  0.51269789689E+02  0.00000000000E+00 0. -1.
         -2    1    3    3    0  502  0.31432203989E+02  0.23602715014E+02  0.15911650091E+02  0.42405803993E+02  0.00000000000E+00 0.  1.
<mgrwt>
<rscale>  0 0.92119160E+02</rscale>
<asrwt>0</asrwt>
<pdfrwt beam="2">  1        1 0.85139080E-02 0.92119160E+02</pdfrwt>
<pdfrwt beam="1">  1       -1 0.58977218E-02 0.92119160E+02</pdfrwt>
<totfact> 0.92513304E+04</totfact>
</mgrwt>
</event>
<event>
 5    1  0.4067226E+001  0.9440153E+02  0.7546771E-02  0.1292530E+00
         -2   -1    0    0    0  501 -0.00000000000E+00  0.00000000000E+00  0.35191037980E+01  0.35191037980E+01  0.00000000000E+00 0.  1.
          2   -1    0    0  501    0  0.00000000000E+00 -0.00000000000E+00 -0.63309083676E+03  0.63309083676E+03  0.00000000000E+00 0. -1.
         23    2    1    2    0    0  0.00000000000E+00  0.00000000000E+00 -0.62957173296E+03  0.63660994056E+03  0.94401533211E+02 0.  0.
          2    1    3    3  502    0  0.15212124633E+02 -0.44600187411E+02 -0.33303973639E+03  0.33635702976E+03  0.00000000000E+00 0.  1.
         -2    1    3    3    0  502 -0.15212124633E+02  0.44600187411E+02 -0.29653199657E+03  0.30025291080E+03  0.00000000000E+00 0. -1.
<mgrwt>
<rscale>  0 0.94401533E+02</rscale>
<asrwt>0</asrwt>
<pdfrwt beam="2">  1        2 0.97398677E-01 0.94401533E+02</pdfrwt>
<pdfrwt beam="1">  1       -2 0.54140010E-03 0.94401533E+02</pdfrwt>
<totfact> 0.21093181E+05</totfact>
</mgrwt>
</event>
<event>
 5    1  0.4067226E+001  0.9128220E+02  0.7546771E-02  0.1299776E+00
          2   -1    0    0  501    0  0.00000000000E+00  0.00000000000E+00  0.65839964608E+01  0.65839964608E+01  0.00000000000E+00 0. -1.
         -2   -1    0    0    0  501 -0.00000000000E+00 -0.00000000000E+00 -0.31638989796E+03  0.31638989796E+03  0.00000000000E+00 0.  1.
         23    2    1    2    0    0  0.00000000000E+00  0.00000000000E+00 -0.30980590150E+03  0.32297389442E+03  0.91282199106E+02 0.  0.
          2    1    3    3  502    0  0.33311163245E+02 -0.30643267015E+02 -0.17567504504E+03  0.18141214088E+03  0.00000000000E+00 0. -1.
         -2    1    3    3    0  502 -0.33311163245E+02  0.30643267015E+02 -0.13413085646E+03  0.14156175353E+03  0.00000000000E+00 0.  1.
<mgrwt>
<rscale>  0 0.91282199E+02</rscale>
<asrwt>0</asrwt>
<pdfrwt beam="1">  1        2 0.10129225E-02 0.91282199E+02</pdfrwt>
<pdfrwt beam="2">  1       -2 0.48675371E-01 0.91282199E+02</pdfrwt>
<totfact> 0.49325221E+04</totfact>
</mgrwt>
</event>
<event>
 5    1  0.4067226E+001  0.6177116E+02  0.7546771E-02  0.1390546E+00
         -4   -1    0    0    0  501 -0.00000000000E+00  0.00000000000E+00  0.13406641333E+03  0.13406641333E+03  0.00000000000E+00 0.  1.
          4   -1    0    0  501    0  0.00000000000E+00 -0.00000000000E+00 -0.71152730123E+01  0.71152730123E+01  0.00000000000E+00 0. -1.
         23    2    1    2    0    0  0.00000000000E+00  0.00000000000E+00  0.12695114032E+03  0.14118168634E+03  0.61771162613E+02 0.  0.
          2    1    3    3  502    0 -0.28995545651E+02  0.41461951671E+01  0.41083320014E+02  0.50455641760E+02  0.00000000000E+00 0. -1.
         -2    1    3    3    0  502  0.28995545651E+02 -0.41461951671E+01  0.85867820306E+02  0.90726044585E+02  0.00000000000E+00 0.  1.
<mgrwt>
<rscale>  0 0.61771163E+02</rscale>
<asrwt>0</asrwt>
<pdfrwt beam="2">  1        4 0.10946575E-02 0.61771163E+02</pdfrwt>
<pdfrwt beam="1">  1       -4 0.20625600E-01 0.61771163E+02</pdfrwt>
<totfact> 0.66808597E+04</totfact>
</mgrwt>
</event>
<event>
 5    1  0.4067226E+001  0.9128581E+02  0.7546771E-02  0.1299767E+00
          2   -1    0    0  501    0  0.00000000000E+00  0.00000000000E+00  0.14570143086E+04  0.14570143086E+04  0.00000000000E+00 0. -1.
         -2   -1    0    0    0  501 -0.00000000000E+00 -0.00000000000E+00 -0.14298244496E+01  0.14298244496E+01  0.00000000000E+00 0.  1.
         23    2    1    2    0    0  0.00000000000E+00  0.00000000000E+00  0.14555844841E+04  0.14584441330E+04  0.91285807918E+02 0.  0.
          2    1    3    3  502    0  0.15255780139E+02  0.24996431798E+02  0.16844544958E+03  0.17097201501E+03  0.00000000000E+00 0.  1.
         -2    1    3    3    0  502 -0.15255780139E+02 -0.24996431798E+02  0.12871390346E+04  0.12874721180E+04  0.00000000000E+00 0. -1.
<mgrwt>
<rscale>  0 0.91285808E+02</rscale>
<asrwt>0</asrwt>
<pdfrwt beam="1">  1        2 0.22415486E+00 0.91285808E+02</pdfrwt>
<pdfrwt beam="2">  1       -2 0.21997416E-03 0.91285808E+02</pdfrwt>
<totfact> 0.23768184E+05</totfact>
</mgrwt>
</event>
<event>
 5    1  0.4067226E+001  0.8916445E+02  0.7546771E-02  0.1304888E+00
          2   -1    0    0  501    0  0.00000000000E+00  0.00000000000E+00  0.35247632533E+04  0.35247632533E+04  0.00000000000E+00 0. -1.
         -2   -1    0    0    0  501 -0.00000000000E+00 -0.00000000000E+00 -0.56388885144E+00  0.56388885144E+00  0.00000000000E+00 0.  1.
         23    2    1    2    0    0  0.00000000000E+00  0.00000000000E+00  0.35241993644E+04  0.35253271421E+04  0.89164448128E+02 0.  0.
          2    1    3    3  502    0 -0.41487063312E+02 -0.16272937465E+02  0.17122483119E+04  0.17128281485E+04  0.00000000000E+00 0.  1.
         -2    1    3    3    0  502  0.41487063312E+02  0.16272937465E+02  0.18119510526E+04  0.18124989936E+04  0.00000000000E+00 0. -1.
<mgrwt>
<rscale>  0 0.89164448E+02</rscale>
<asrwt>0</asrwt>
<pdfrwt beam="1">  1        2 0.54225363E+00 0.89164448E+02</pdfrwt>
<pdfrwt beam="2">  1       -2 0.86754953E-04 0.89164448E+02</pdfrwt>
<totfact> 0.65177065E+04</totfact>
</mgrwt>
</event>
<event>
 5    1  0.4067226E+001  0.9149417E+02  0.7546771E-02  0.1299273E+00
         -2   -1    0    0    0  501 -0.00000000000E+00  0.00000000000E+00  0.16147643742E+03  0.16147643742E+03  0.00000000000E+00 0.  1.
          2   -1    0    0  501    0  0.00000000000E+00 -0.00000000000E+00 -0.12960377945E+02  0.12960377945E+02  0.00000000000E+00 0. -1.
         23    2    1    2    0    0  0.00000000000E+00  0.00000000000E+00  0.14851605947E+03  0.17443681536E+03  0.91494167206E+02 0.  0.
          2    1    3    3  502    0 -0.43115470157E+02  0.32727817233E+01  0.10273765202E+03  0.11146604868E+03  0.00000000000E+00 0. -1.
         -2    1    3    3    0  502  0.43115470157E+02 -0.32727817233E+01  0.45778407455E+02  0.62970766679E+02  0.00000000000E+00 0.  1.
<mgrwt>
<rscale>  0 0.91494167E+02</rscale>
<asrwt>0</asrwt>
<pdfrwt beam="2">  1        2 0.19939044E-02 0.91494167E+02</pdfrwt>
<pdfrwt beam="1">  1       -2 0.24842527E-01 0.91494167E+02</pdfrwt>
<totfact> 0.67370876E+04</totfact>
</mgrwt>
</event>
<event>
 5    1  0.4067226E+001  0.8412392E+02  0.7546771E-02  0.1317740E+00
          1   -1    0    0  501    0  0.00000000000E+00  0.00000000000E+00  0.20201717883E+02  0.20201717883E+02  0.00000000000E+00 0. -1.
         -1   -1    0    0    0  501 -0.00000000000E+00 -0.00000000000E+00 -0.87577126268E+02  0.87577126268E+02  0.00000000000E+00 0.  1.
         23    2    1    2    0    0  0.00000000000E+00  0.00000000000E+00 -0.67375408385E+02  0.10777884415E+03  0.84123918070E+02 0.  0.
          2    1    3    3  502    0  0.21471959837E+02  0.32189048656E+02 -0.54818761199E+02  0.67099005149E+02  0.00000000000E+00 0. -1.
         -2    1    3    3    0  502 -0.21471959837E+02 -0.32189048656E+02 -0.12556647185E+02  0.40679839001E+02  0.00000000000E+00 0.  1.
<mgrwt>
<rscale>  0 0.84123918E+02</rscale>
<asrwt>0</asrwt>
<pdfrwt beam="1">  1        1 0.31079566E-02 0.84123918E+02</pdfrwt>
<pdfrwt beam="2">  1       -1 0.13473404E-01 0.84123918E+02</pdfrwt>
<totfact> 0.10243007E+05</totfact>
</mgrwt>
</event>
<event>
 5    1  0.4067226E+001  0.8943567E+02  0.7546771E-02  0.1304224E+00
         -3   -1    0    0    0  501 -0.00000000000E+00  0.00000000000E+00  0.17266307473E+02  0.17266307473E+02  0.00000000000E+00 0.  1.
          3   -1    0    0  501    0  0.00000000000E+00 -0.00000000000E+00 -0.11581427126E+03  0.11581427126E+03  0.00000000000E+00 0. -1.
         23    2    1    2    0    0  0.00000000000E+00  0.00000000000E+00 -0.98547963790E+02  0.13308057874E+03  0.89435671124E+02 0.  0.
          2    1    3    3  502    0  0.17788455317E+02  0.40225644679E+02 -0.61284776384E+02  0.75434444711E+02  0.00000000000E+00 0. -1.
         -2    1    3    3    0  502 -0.17788455317E+02 -0.40225644679E+02 -0.37263187406E+02  0.57646134025E+02  0.00000000000E+00 0.  1.
<mgrwt>
<rscale>  0 0.89435671E+02</rscale>
<asrwt>0</asrwt>
<pdfrwt beam="2">  1        3 0.17817581E-01 0.89435671E+02</pdfrwt>
<pdfrwt beam="1">  1       -3 0.26563549E-02 0.89435671E+02</pdfrwt>
<totfact> 0.34107726E+04</totfact>
</mgrwt>
</event>
<event>
 5    1  0.4067226E+001  0.9050577E+02  0.7546771E-02  0.1301632E+00
          2   -1    0    0  501    0  0.00000000000E+00  0.00000000000E+00  0.78747976783E+03  0.78747976783E+03  0.00000000000E+00 0. -1.
         -2   -1    0    0    0  501 -0.00000000000E+00 -0.00000000000E+00 -0.26004777326E+01  0.26004777326E+01  0.00000000000E+00 0.  1.
         23    2    1    2    0    0  0.00000000000E+00  0.00000000000E+00  0.78487929010E+03  0.79008024556E+03  0.90505770007E+02 0.  0.
          2    1    3    3  502    0 -0.25436055706E+02 -0.32507766531E+02  0.55436765971E+03  0.55590219459E+03  0.00000000000E+00 0. -1.
         -2    1    3    3    0  502  0.25436055706E+02  0.32507766531E+02  0.23051163039E+03  0.23417805098E+03  0.00000000000E+00 0.  1.
<mgrwt>
<rscale>  0 0.90505770E+02</rscale>
<asrwt>0</asrwt>
<pdfrwt beam="1">  1        2 0.12115054E+00 0.90505770E+02</pdfrwt>
<pdfrwt beam="2">  1       -2 0.40007413E-03 0.90505770E+02</pdfrwt>
<totfact> 0.24782682E+05</totfact>
</mgrwt>
</event>
<event>
 5    1  0.4067226E+001  0.6473347E+02  0.7546771E-02  0.1378977E+00
          1   -1    0    0  501    0  0.00000000000E+00  0.00000000000E+00  0.15325690809E+04  0.15325690809E+04  0.00000000000E+00 0. -1.
         -1   -1    0    0    0  501 -0.00000000000E+00 -0.00000000000E+00 -0.68356172001E+00  0.68356172001E+00  0.00000000000E+00 0.  1.
         23    2    1    2    0    0  0.00000000000E+00  0.00000000000E+00  0.15318855192E+04  0.15332526426E+04  0.64733470693E+02 0.  0.
          2    1    3    3  502    0  0.11237187468E+02 -0.30260786979E+02  0.70981259708E+03  0.71054620721E+03  0.00000000000E+00 0. -1.
         -2    1    3    3    0  502 -0.11237187468E+02  0.30260786979E+02  0.82207292210E+03  0.82270643541E+03  0.00000000000E+00 0.  1.
<mgrwt>
<rscale>  0 0.64733471E+02</rscale>
<asrwt>0</asrwt>
<pdfrwt beam="1">  1        1 0.23577711E+00 0.64733471E+02</pdfrwt>
<pdfrwt beam="2">  1       -1 0.10516457E-03 0.64733471E+02</pdfrwt>
<totfact> 0.26490334E+05</totfact>
</mgrwt>
</event>
<event>
 5    1  0.4067226E+001  0.9133594E+02  0.7546771E-02  0.1299648E+00
         -1   -1    0    0    0  501 -0.00000000000E+00  0.00000000000E+00  0.24585718736E+01  0.24585718736E+01  0.00000000000E+00 0.  1.
          1   -1    0    0  501    0  0.00000000000E+00 -0.00000000000E+00 -0.84828257368E+03  0.84828257368E+03  0.00000000000E+00 0. -1.
         23    2    1    2    0    0  0.00000000000E+00  0.00000000000E+00 -0.84582400181E+03  0.85074114556E+03  0.91335944217E+02 0.  0.
          2    1    3    3  502    0 -0.22555525015E+02 -0.10527980599E+02 -0.77954275217E+03  0.77994005702E+03  0.00000000000E+00 0. -1.
         -2    1    3    3    0  502  0.22555525015E+02  0.10527980599E+02 -0.66281249646E+02  0.70801088543E+02  0.00000000000E+00 0.  1.
<mgrwt>
<rscale>  0 0.91335944E+02</rscale>
<asrwt>0</asrwt>
<pdfrwt beam="2">  1        1 0.13050498E+00 0.91335944E+02</pdfrwt>
<pdfrwt beam="1">  1       -1 0.37824192E-03 0.91335944E+02</pdfrwt>
<totfact> 0.13976932E+05</totfact>
</mgrwt>
</event>
<event>
 5    1  0.4067226E+001  0.9557624E+02  0.7546771E-02  0.1289884E+00
         -2   -1    0    0    0  501 -0.00000000000E+00  0.00000000000E+00  0.61302477584E+02  0.61302477584E+02  0.00000000000E+00 0.  1.
          2   -1    0    0  501    0  0.00000000000E+00 -0.00000000000E+00 -0.37253048665E+02  0.37253048665E+02  0.00000000000E+00 0. -1.
         23    2    1    2    0    0  0.00000000000E+00  0.00000000000E+00  0.24049428919E+02  0.98555526249E+02  0.95576235137E+02 0.  0.
          2    1    3    3  502    0  0.47615954007E+02 -0.37044238507E+01  0.10329589368E+02  0.48864120258E+02  0.00000000000E+00 0. -1.
         -2    1    3    3    0  502 -0.47615954007E+02  0.37044238507E+01  0.13719839551E+02  0.49691405991E+02  0.00000000000E+00 0.  1.
<mgrwt>
<rscale>  0 0.95576235E+02</rscale>
<asrwt>0</asrwt>
<pdfrwt beam="2">  1        2 0.57312382E-02 0.95576235E+02</pdfrwt>
<pdfrwt beam="1">  1       -2 0.94311504E-02 0.95576235E+02</pdfrwt>
<totfact> 0.81564456E+04</totfact>
</mgrwt>
</event>
<event>
 5    1  0.4067226E+001  0.8714632E+02  0.7546771E-02  0.1309913E+00
          2   -1    0    0  501    0  0.00000000000E+00  0.00000000000E+00  0.81857658432E+01  0.81857658432E+01  0.00000000000E+00 0. -1.
         -2   -1    0    0    0  501 -0.00000000000E+00 -0.00000000000E+00 -0.23194165659E+03  0.23194165659E+03  0.00000000000E+00 0.  1.
         23    2    1    2    0    0  0.00000000000E+00  0.00000000000E+00 -0.22375589074E+03  0.24012742243E+03  0.87146315816E+02 0.  0.
          2    1    3    3  502    0 -0.39946061843E+02  0.27694648481E+01 -0.64530481097E+02  0.75944326865E+02  0.00000000000E+00 0. -1.
         -2    1    3    3    0  502  0.39946061843E+02 -0.27694648481E+01 -0.15922540965E+03  0.16418309556E+03  0.00000000000E+00 0.  1.
<mgrwt>
<rscale>  0 0.87146316E+02</rscale>
<asrwt>0</asrwt>
<pdfrwt beam="1">  1        2 0.12593484E-02 0.87146316E+02</pdfrwt>
<pdfrwt beam="2">  1       -2 0.35683337E-01 0.87146316E+02</pdfrwt>
<totfact> 0.65412404E+04</totfact>
</mgrwt>
</event>
<event>
 5    1  0.4067226E+001  0.9091666E+02  0.7546771E-02  0.1300647E+00
         -1   -1    0    0    0  501 -0.00000000000E+00  0.00000000000E+00  0.22923780751E+01  0.22923780751E+01  0.00000000000E+00 0.  1.
          1   -1    0    0  501    0  0.00000000000E+00 -0.00000000000E+00 -0.90144806204E+03  0.90144806204E+03  0.00000000000E+00 0. -1.
         23    2    1    2    0    0  0.00000000000E+00  0.00000000000E+00 -0.89915568397E+03  0.90374044012E+03  0.90916660152E+02 0.  0.
          2    1    3    3  502    0 -0.32793444629E+02 -0.19372497680E+01 -0.76191533010E+03  0.76262319214E+03  0.00000000000E+00 0. -1.
         -2    1    3    3    0  502  0.32793444629E+02  0.19372497680E+01 -0.13724035386E+03  0.14111724797E+03  0.00000000000E+00 0.  1.
<mgrwt>
<rscale>  0 0.90916660E+02</rscale>
<asrwt>0</asrwt>
<pdfrwt beam="2">  1        1 0.13868464E+00 0.90916660E+02</pdfrwt>
<pdfrwt beam="1">  1       -1 0.35267272E-03 0.90916660E+02</pdfrwt>
<totfact> 0.14019214E+05</totfact>
</mgrwt>
</event>
<event>
 5    1  0.4067226E+001  0.8935151E+02  0.7546771E-02  0.1304430E+00
         -1   -1    0    0    0  501 -0.00000000000E+00  0.00000000000E+00  0.59426949402E+02  0.59426949402E+02  0.00000000000E+00 0.  1.
          1   -1    0    0  501    0  0.00000000000E+00 -0.00000000000E+00 -0.33586157988E+02  0.33586157988E+02  0.00000000000E+00 0. -1.
         23    2    1    2    0    0  0.00000000000E+00  0.00000000000E+00  0.25840791413E+02  0.93013107390E+02  0.89351506117E+02 0.  0.
          2    1    3    3  502    0 -0.27171878692E+02 -0.95939719858E+01 -0.22619079736E+02  0.36633018688E+02  0.00000000000E+00 0. -1.
         -2    1    3    3    0  502  0.27171878692E+02  0.95939719858E+01  0.48459871150E+02  0.56380088701E+02  0.00000000000E+00 0.  1.
<mgrwt>
<rscale>  0 0.89351506E+02</rscale>
<asrwt>0</asrwt>
<pdfrwt beam="2">  1        1 0.51671012E-02 0.89351506E+02</pdfrwt>
<pdfrwt beam="1">  1       -1 0.91426076E-02 0.89351506E+02</pdfrwt>
<totfact> 0.93479107E+04</totfact>
</mgrwt>
</event>
<event>
 5    1  0.4067226E+001  0.9470560E+02  0.7546771E-02  0.1291841E+00
         -2   -1    0    0    0  501 -0.00000000000E+00  0.00000000000E+00  0.15961210691E+03  0.15961210691E+03  0.00000000000E+00 0.  1.
          2   -1    0    0  501    0  0.00000000000E+00 -0.00000000000E+00 -0.14048354993E+02  0.14048354993E+02  0.00000000000E+00 0. -1.
         23    2    1    2    0    0  0.00000000000E+00  0.00000000000E+00  0.14556375192E+03  0.17366046191E+03  0.94705597280E+02 0.  0.
          2    1    3    3  502    0 -0.19891066029E+01  0.45962174641E+02  0.52214351802E+02  0.69590348303E+02  0.00000000000E+00 0. -1.
         -2    1    3    3    0  502  0.19891066029E+01 -0.45962174641E+02  0.93349400118E+02  0.10407011360E+03  0.00000000000E+00 0.  1.
<mgrwt>
<rscale>  0 0.94705597E+02</rscale>
<asrwt>0</asrwt>
<pdfrwt beam="2">  1        2 0.21612855E-02 0.94705597E+02</pdfrwt>
<pdfrwt beam="1">  1       -2 0.24555707E-01 0.94705597E+02</pdfrwt>
<totfact> 0.61991287E+04</totfact>
</mgrwt>
</event>
<event>
 5    1  0.4067226E+001  0.9222852E+02  0.7546771E-02  0.1297543E+00
          1   -1    0    0  501    0  0.00000000000E+00  0.00000000000E+00  0.20268164443E+02  0.20268164443E+02  0.00000000000E+00 0. -1.
         -1   -1    0    0    0  501 -0.00000000000E+00 -0.00000000000E+00 -0.10491947033E+03  0.10491947033E+03  0.00000000000E+00 0.  1.
         23    2    1    2    0    0  0.00000000000E+00  0.00000000000E+00 -0.84651305887E+02  0.12518763477E+03  0.92228522223E+02 0.  0.
          2    1    3    3  502    0 -0.30156309663E+02  0.34629472767E+02 -0.48071916729E+02  0.66479414668E+02  0.00000000000E+00 0.  1.
         -2    1    3    3    0  502  0.30156309663E+02 -0.34629472767E+02 -0.36579389158E+02  0.58708220104E+02  0.00000000000E+00 0. -1.
<mgrwt>
<rscale>  0 0.92228522E+02</rscale>
<asrwt>0</asrwt>
<pdfrwt beam="1">  1        1 0.31181792E-02 0.92228522E+02</pdfrwt>
<pdfrwt beam="2">  1       -1 0.16141457E-01 0.92228522E+02</pdfrwt>
<totfact> 0.78286628E+04</totfact>
</mgrwt>
</event>
<event>
 5    1  0.4067226E+001  0.8953813E+02  0.7546771E-02  0.1303974E+00
          4   -1    0    0  501    0  0.00000000000E+00  0.00000000000E+00  0.79500031482E+01  0.79500031482E+01  0.00000000000E+00 0. -1.
         -4   -1    0    0    0  501 -0.00000000000E+00 -0.00000000000E+00 -0.25210920659E+03  0.25210920659E+03  0.00000000000E+00 0.  1.
         23    2    1    2    0    0  0.00000000000E+00  0.00000000000E+00 -0.24415920344E+03  0.26005920974E+03  0.89538125646E+02 0.  0.
          2    1    3    3  502    0 -0.24267370626E+02  0.32154939425E+02 -0.65355450194E+02  0.76773564959E+02  0.00000000000E+00 0. -1.
         -2    1    3    3    0  502  0.24267370626E+02 -0.32154939425E+02 -0.17880375325E+03  0.18328564478E+03  0.00000000000E+00 0.  1.
<mgrwt>
<rscale>  0 0.89538126E+02</rscale>
<asrwt>0</asrwt>
<pdfrwt beam="1">  1        4 0.12230776E-02 0.89538126E+02</pdfrwt>
<pdfrwt beam="2">  1       -4 0.38786027E-01 0.89538126E+02</pdfrwt>
<totfact> 0.20056454E+04</totfact>
</mgrwt>
</event>
<event>
 5    1  0.4067226E+001  0.9746862E+02  0.7546771E-02  0.1285711E+00
         -2   -1    0    0    0  501 -0.00000000000E+00  0.00000000000E+00  0.30955560278E+03  0.30955560278E+03  0.00000000000E+00 0. -1.
          2   -1    0    0  501    0  0.00000000000E+00 -0.00000000000E+00 -0.76723960611E+01  0.76723960611E+01  0.00000000000E+00 0.  1.
         23    2    1    2    0    0  0.00000000000E+00  0.00000000000E+00  0.30188320672E+03  0.31722799884E+03  0.97468624438E+02 0.  0.
          2    1    3    3  502    0 -0.40479407161E+02 -0.45580885960E+01  0.23801078852E+03  0.24147151805E+03  0.00000000000E+00 0. -1.
         -2    1    3    3    0  502  0.40479407161E+02  0.45580885960E+01  0.63872418197E+02  0.75756480793E+02  0.00000000000E+00 0.  1.
<mgrwt>
<rscale>  0 0.97468624E+02</rscale>
<asrwt>0</asrwt>
<pdfrwt beam="2">  1        2 0.11803689E-02 0.97468624E+02</pdfrwt>
<pdfrwt beam="1">  1       -2 0.47623929E-01 0.97468624E+02</pdfrwt>
<totfact> 0.42171898E+04</totfact>
</mgrwt>
</event>
<event>
 5    1  0.4067226E+001  0.9153331E+02  0.7546771E-02  0.1299180E+00
          1   -1    0    0  501    0  0.00000000000E+00  0.00000000000E+00  0.41620856595E+03  0.41620856595E+03  0.00000000000E+00 0. -1.
         -1   -1    0    0    0  501 -0.00000000000E+00 -0.00000000000E+00 -0.50325416257E+01  0.50325416257E+01  0.00000000000E+00 0.  1.
         23    2    1    2    0    0  0.00000000000E+00  0.00000000000E+00  0.41117602433E+03  0.42124110758E+03  0.91533314878E+02 0.  0.
          2    1    3    3  502    0  0.30083897448E+01  0.28865710695E+02  0.36844522815E+03  0.36958647947E+03  0.00000000000E+00 0. -1.
         -2    1    3    3    0  502 -0.30083897448E+01 -0.28865710695E+02  0.42730796178E+02  0.51654628107E+02  0.00000000000E+00 0.  1.
<mgrwt>
<rscale>  0 0.91533315E+02</rscale>
<asrwt>0</asrwt>
<pdfrwt beam="1">  1        1 0.64032060E-01 0.91533315E+02</pdfrwt>
<pdfrwt beam="2">  1       -1 0.77423750E-03 0.91533315E+02</pdfrwt>
<totfact> 0.13435523E+05</totfact>
</mgrwt>
</event>
<event>
 5    1  0.4067226E+001  0.9402406E+02  0.7546771E-02  0.1293389E+00
         -1   -1    0    0    0  501 -0.00000000000E+00  0.00000000000E+00  0.69244241050E+01  0.69244241050E+01  0.00000000000E+00 0.  1.
          1   -1    0    0  501    0  0.00000000000E+00 -0.00000000000E+00 -0.31917903166E+03  0.31917903166E+03  0.00000000000E+00 0. -1.
         23    2    1    2    0    0  0.00000000000E+00  0.00000000000E+00 -0.31225460756E+03  0.32610345577E+03  0.94024060339E+02 0.  0.
          2    1    3    3  502    0 -0.43181641034E+02  0.12753970291E+02 -0.20302160362E+03  0.20795453690E+03  0.00000000000E+00 0. -1.
         -2    1    3    3    0  502  0.43181641034E+02 -0.12753970291E+02 -0.10923300394E+03  0.11814891887E+03  0.00000000000E+00 0.  1.
<mgrwt>
<rscale>  0 0.94024060E+02</rscale>
<asrwt>0</asrwt>
<pdfrwt beam="2">  1        1 0.49104473E-01 0.94024060E+02</pdfrwt>
<pdfrwt beam="1">  1       -1 0.10652959E-02 0.94024060E+02</pdfrwt>
<totfact> 0.11941870E+05</totfact>
</mgrwt>
</event>
<event>
 5    1  0.4067226E+001  0.1033316E+03  0.7546771E-02  0.1273442E+00
          3   -1    0    0  501    0  0.00000000000E+00  0.00000000000E+00  0.76096806316E+02  0.76096806316E+02  0.00000000000E+00 0. -1.
         -3   -1    0    0    0  501 -0.00000000000E+00 -0.00000000000E+00 -0.35078395551E+02  0.35078395551E+02  0.00000000000E+00 0.  1.
         23    2    1    2    0    0  0.00000000000E+00  0.00000000000E+00  0.41018410765E+02  0.11117520187E+03  0.10333158031E+03 0.  0.
          2    1    3    3  502    0 -0.39543421412E+02 -0.26275838511E+02  0.42433757224E+02  0.63676727449E+02  0.00000000000E+00 0. -1.
         -2    1    3    3    0  502  0.39543421412E+02  0.26275838511E+02 -0.14153464599E+01  0.47498474418E+02  0.00000000000E+00 0.  1.
<mgrwt>
<rscale>  0 0.10333158E+03</rscale>
<asrwt>0</asrwt>
<pdfrwt beam="1">  1        3 0.11707201E-01 0.10333158E+03</pdfrwt>
<pdfrwt beam="2">  1       -3 0.53966763E-02 0.10333158E+03</pdfrwt>
<totfact> 0.24027902E+04</totfact>
</mgrwt>
</event>
<event>
 5    1  0.4067226E+001  0.9444482E+02  0.7546771E-02  0.1292431E+00
         -2   -1    0    0    0  501 -0.00000000000E+00  0.00000000000E+00  0.22218165133E+01  0.22218165133E+01  0.00000000000E+00 0.  1.
          2   -1    0    0  501    0  0.00000000000E+00 -0.00000000000E+00 -0.10036634735E+04  0.10036634735E+04  0.00000000000E+00 0. -1.
         23    2    1    2    0    0  0.00000000000E+00  0.00000000000E+00 -0.10014416570E+04  0.10058852900E+04  0.94444821546E+02 0.  0.
          2    1    3    3  502    0 -0.42111129322E+02 -0.12069495758E+02 -0.68852529087E+03  0.68991745601E+03  0.00000000000E+00 0. -1.
         -2    1    3    3    0  502  0.42111129322E+02  0.12069495758E+02 -0.31291636611E+03  0.31596783400E+03  0.00000000000E+00 0.  1.
<mgrwt>
<rscale>  0 0.94444822E+02</rscale>
<asrwt>0</asrwt>
<pdfrwt beam="2">  1        2 0.15440991E+00 0.94444822E+02</pdfrwt>
<pdfrwt beam="1">  1       -2 0.34181761E-03 0.94444822E+02</pdfrwt>
<totfact> 0.22787238E+05</totfact>
</mgrwt>
</event>
<event>
 5    1  0.4067226E+001  0.9025443E+02  0.7546771E-02  0.1302237E+00
         -2   -1    0    0    0  501 -0.00000000000E+00  0.00000000000E+00  0.49002383716E+00  0.49002383716E+00  0.00000000000E+00 0.  1.
          2   -1    0    0  501    0  0.00000000000E+00 -0.00000000000E+00 -0.41558502923E+04  0.41558502923E+04  0.00000000000E+00 0. -1.
         23    2    1    2    0    0  0.00000000000E+00  0.00000000000E+00 -0.41553602684E+04  0.41563403161E+04  0.90254433838E+02 0.  0.
          2    1    3    3  502    0  0.39623616436E+02 -0.19407869923E+02 -0.16413587454E+04  0.16419516520E+04  0.00000000000E+00 0.  1.
         -2    1    3    3    0  502 -0.39623616436E+02  0.19407869923E+02 -0.25140015231E+04  0.25143886641E+04  0.00000000000E+00 0. -1.
<mgrwt>
<rscale>  0 0.90254434E+02</rscale>
<asrwt>0</asrwt>
<pdfrwt beam="2">  1        2 0.63935684E+00 0.90254434E+02</pdfrwt>
<pdfrwt beam="1">  1       -2 0.75388842E-04 0.90254434E+02</pdfrwt>
<totfact> 0.28374085E+04</totfact>
</mgrwt>
</event>
<event>
 5    1  0.4067226E+001  0.9317177E+02  0.7546771E-02  0.1295348E+00
          1   -1    0    0  501    0  0.00000000000E+00  0.00000000000E+00  0.58679735472E+02  0.58679735472E+02  0.00000000000E+00 0. -1.
         -1   -1    0    0    0  501 -0.00000000000E+00 -0.00000000000E+00 -0.36984566829E+02  0.36984566829E+02  0.00000000000E+00 0.  1.
         23    2    1    2    0    0  0.00000000000E+00  0.00000000000E+00  0.21695168643E+02  0.95664302302E+02  0.93171768216E+02 0.  0.
          2    1    3    3  502    0  0.19979029093E+02  0.39175413617E+02  0.26633206866E+02  0.51412083634E+02  0.00000000000E+00 0. -1.
         -2    1    3    3    0  502 -0.19979029093E+02 -0.39175413617E+02 -0.49380382232E+01  0.44252218668E+02  0.00000000000E+00 0.  1.
<mgrwt>
<rscale>  0 0.93171768E+02</rscale>
<asrwt>0</asrwt>
<pdfrwt beam="1">  1        1 0.90276516E-02 0.93171768E+02</pdfrwt>
<pdfrwt beam="2">  1       -1 0.56899334E-02 0.93171768E+02</pdfrwt>
<totfact> 0.90432238E+04</totfact>
</mgrwt>
</event>
<event>
 5    1  0.4067226E+001  0.9062050E+02  0.7546771E-02  0.1301356E+00
         -4   -1    0    0    0  501 -0.00000000000E+00  0.00000000000E+00  0.17145787780E+03  0.17145787780E+03  0.00000000000E+00 0.  1.
          4   -1    0    0  501    0  0.00000000000E+00 -0.00000000000E+00 -0.11973894817E+02  0.11973894817E+02  0.00000000000E+00 0. -1.
         23    2    1    2    0    0  0.00000000000E+00  0.00000000000E+00  0.15948398298E+03  0.18343177262E+03  0.90620496454E+02 0.  0.
          2    1    3    3  502    0  0.34970270327E+02  0.17037302306E+02  0.32711850691E+02  0.50825728251E+02  0.00000000000E+00 0. -1.
         -2    1    3    3    0  502 -0.34970270327E+02 -0.17037302306E+02  0.12677213229E+03  0.13260604436E+03  0.00000000000E+00 0.  1.
<mgrwt>
<rscale>  0 0.90620496E+02</rscale>
<asrwt>0</asrwt>
<pdfrwt beam="2">  1        4 0.18421378E-02 0.90620496E+02</pdfrwt>
<pdfrwt beam="1">  1       -4 0.26378133E-01 0.90620496E+02</pdfrwt>
<totfact> 0.22463640E+04</totfact>
</mgrwt>
</event>
<event>
 5    1  0.4067226E+001  0.9371656E+02  0.7546771E-02  0.1294093E+00
          2   -1    0    0  501    0  0.00000000000E+00  0.00000000000E+00  0.99862765209E+03  0.99862765209E+03  0.00000000000E+00 0.  1.
         -2   -1    0    0    0  501 -0.00000000000E+00 -0.00000000000E+00 -0.21987158614E+01  0.21987158614E+01  0.00000000000E+00 0. -1.
         23    2    1    2    0    0  0.00000000000E+00  0.00000000000E+00  0.99642893623E+03  0.10008263680E+04  0.93716561147E+02 0.  0.
          2    1    3    3  502    0  0.22679680714E+02 -0.29823597059E+01  0.61480312880E+02  0.65597951634E+02  0.00000000000E+00 0. -1.
         -2    1    3    3    0  502 -0.22679680714E+02  0.29823597059E+01  0.93494862335E+03  0.93522841632E+03  0.00000000000E+00 0.  1.
<mgrwt>
<rscale>  0 0.93716561E+02</rscale>
<asrwt>0</asrwt>
<pdfrwt beam="1">  1        2 0.15363466E+00 0.93716561E+02</pdfrwt>
<pdfrwt beam="2">  1       -2 0.33826478E-03 0.93716561E+02</pdfrwt>
<totfact> 0.23252917E+05</totfact>
</mgrwt>
</event>
<event>
 5    1  0.4067226E+001  0.9056722E+02  0.7546771E-02  0.1301484E+00
          2   -1    0    0  501    0  0.00000000000E+00  0.00000000000E+00  0.19364979554E+04  0.19364979554E+04  0.00000000000E+00 0. -1.
         -2   -1    0    0    0  501 -0.00000000000E+00 -0.00000000000E+00 -0.10589246112E+01  0.10589246112E+01  0.00000000000E+00 0.  1.
         23    2    1    2    0    0  0.00000000000E+00  0.00000000000E+00  0.19354390308E+04  0.19375568800E+04  0.90567220218E+02 0.  0.
          2    1    3    3  502    0  0.35769065531E+02 -0.19875753205E+01  0.15602980046E+04  0.15607092104E+04  0.00000000000E+00 0. -1.
         -2    1    3    3    0  502 -0.35769065531E+02  0.19875753205E+01  0.37514102623E+03  0.37684766958E+03  0.00000000000E+00 0.  1.
<mgrwt>
<rscale>  0 0.90567220E+02</rscale>
<asrwt>0</asrwt>
<pdfrwt beam="1">  1        2 0.29791993E+00 0.90567220E+02</pdfrwt>
<pdfrwt beam="2">  1       -2 0.16291303E-03 0.90567220E+02</pdfrwt>
<totfact> 0.20618617E+05</totfact>
</mgrwt>
</event>
<event>
 5    1  0.4067226E+001  0.9121279E+02  0.7546771E-02  0.1299941E+00
         -1   -1    0    0    0  501 -0.00000000000E+00  0.00000000000E+00  0.34433233390E+02  0.34433233390E+02  0.00000000000E+00 0.  1.
          1   -1    0    0  501    0  0.00000000000E+00 -0.00000000000E+00 -0.60405106629E+02  0.60405106629E+02  0.00000000000E+00 0. -1.
         23    2    1    2    0    0  0.00000000000E+00  0.00000000000E+00 -0.25971873239E+02  0.94838340019E+02  0.91212787141E+02 0.  0.
          2    1    3    3  502    0  0.52918185440E+01 -0.30172269286E+02 -0.48116105993E+02  0.57039712774E+02  0.00000000000E+00 0. -1.
         -2    1    3    3    0  502 -0.52918185440E+01  0.30172269286E+02  0.22144232754E+02  0.37798627245E+02  0.00000000000E+00 0.  1.
<mgrwt>
<rscale>  0 0.91212787E+02</rscale>
<asrwt>0</asrwt>
<pdfrwt beam="2">  1        1 0.92930932E-02 0.91212787E+02</pdfrwt>
<pdfrwt beam="1">  1       -1 0.52974206E-02 0.91212787E+02</pdfrwt>
<totfact> 0.96363987E+04</totfact>
</mgrwt>
</event>
<event>
 5    1  0.4067226E+001  0.8970277E+02  0.7546771E-02  0.1303573E+00
          2   -1    0    0  501    0  0.00000000000E+00  0.00000000000E+00  0.69693944083E+03  0.69693944083E+03  0.00000000000E+00 0. -1.
         -2   -1    0    0    0  501 -0.00000000000E+00 -0.00000000000E+00 -0.28864012276E+01  0.28864012276E+01  0.00000000000E+00 0.  1.
         23    2    1    2    0    0  0.00000000000E+00  0.00000000000E+00  0.69405303961E+03  0.69982584206E+03  0.89702772701E+02 0.  0.
          2    1    3    3  502    0 -0.31730331875E+02  0.31677342487E+02  0.35618757937E+03  0.35899841182E+03  0.00000000000E+00 0. -1.
         -2    1    3    3    0  502  0.31730331875E+02 -0.31677342487E+02  0.33786546023E+03  0.34082743024E+03  0.00000000000E+00 0.  1.
<mgrwt>
<rscale>  0 0.89702773E+02</rscale>
<asrwt>0</asrwt>
<pdfrwt beam="1">  1        2 0.10722132E+00 0.89702773E+02</pdfrwt>
<pdfrwt beam="2">  1       -2 0.44406228E-03 0.89702773E+02</pdfrwt>
<totfact> 0.24729676E+05</totfact>
</mgrwt>
</event>
<event>
 5    1  0.4067226E+001  0.9414201E+02  0.7546771E-02  0.1293120E+00
         -2   -1    0    0    0  501 -0.00000000000E+00  0.00000000000E+00  0.61658052775E+01  0.61658052775E+01  0.00000000000E+00 0.  1.
          2   -1    0    0  501    0  0.00000000000E+00 -0.00000000000E+00 -0.35934960127E+03  0.35934960127E+03  0.00000000000E+00 0. -1.
         23    2    1    2    0    0  0.00000000000E+00  0.00000000000E+00 -0.35318379599E+03  0.36551540655E+03  0.94142013320E+02 0.  0.
          2    1    3    3  502    0  0.16608158076E+02  0.18696638318E+02 -0.33142350243E+03  0.33236566183E+03  0.00000000000E+00 0. -1.
         -2    1    3    3    0  502 -0.16608158076E+02 -0.18696638318E+02 -0.21760293563E+02  0.33149744721E+02  0.00000000000E+00 0.  1.
<mgrwt>
<rscale>  0 0.94142013E+02</rscale>
<asrwt>0</asrwt>
<pdfrwt beam="2">  1        2 0.55284557E-01 0.94142013E+02</pdfrwt>
<pdfrwt beam="1">  1       -2 0.94858537E-03 0.94142013E+02</pdfrwt>
<totfact> 0.17633499E+05</totfact>
</mgrwt>
</event>
<event>
 5    1  0.4067226E+001  0.9147353E+02  0.7546771E-02  0.1299322E+00
          4   -1    0    0  501    0  0.00000000000E+00  0.00000000000E+00  0.17380273816E+02  0.17380273816E+02  0.00000000000E+00 0. -1.
         -4   -1    0    0    0  501 -0.00000000000E+00 -0.00000000000E+00 -0.12035779618E+03  0.12035779618E+03  0.00000000000E+00 0.  1.
         23    2    1    2    0    0  0.00000000000E+00  0.00000000000E+00 -0.10297752237E+03  0.13773807000E+03  0.91473525209E+02 0.  0.
          2    1    3    3  502    0  0.26408477579E+02 -0.97121580219E+01  0.28049991087E+01  0.28277229735E+02  0.00000000000E+00 0. -1.
         -2    1    3    3    0  502 -0.26408477579E+02  0.97121580219E+01 -0.10578252148E+03  0.10946084027E+03  0.00000000000E+00 0.  1.
<mgrwt>
<rscale>  0 0.91473525E+02</rscale>
<asrwt>0</asrwt>
<pdfrwt beam="1">  1        4 0.26738882E-02 0.91473525E+02</pdfrwt>
<pdfrwt beam="2">  1       -4 0.18516584E-01 0.91473525E+02</pdfrwt>
<totfact> 0.24091611E+04</totfact>
</mgrwt>
</event>
<event>
 5    1  0.4067226E+001  0.9155877E+02  0.7546771E-02  0.1299120E+00
         -2   -1    0    0    0  501 -0.00000000000E+00  0.00000000000E+00  0.15294489611E+02  0.15294489611E+02  0.00000000000E+00 0. -1.
          2   -1    0    0  501    0  0.00000000000E+00 -0.00000000000E+00 -0.13702661785E+03  0.13702661785E+03  0.00000000000E+00 0.  1.
         23    2    1    2    0    0  0.00000000000E+00  0.00000000000E+00 -0.12173212824E+03  0.15232110746E+03  0.91558772013E+02 0.  0.
          2    1    3    3  502    0 -0.29898792999E+02 -0.23637953841E+01 -0.33264560862E+01  0.30175994789E+02  0.00000000000E+00 0. -1.
         -2    1    3    3    0  502  0.29898792999E+02  0.23637953841E+01 -0.11840567216E+03  0.12214511267E+03  0.00000000000E+00 0.  1.
<mgrwt>
<rscale>  0 0.91558772E+02</rscale>
<asrwt>0</asrwt>
<pdfrwt beam="2">  1        2 0.21081017E-01 0.91558772E+02</pdfrwt>
<pdfrwt beam="1">  1       -2 0.23529986E-02 0.91558772E+02</pdfrwt>
<totfact> 0.13408277E+05</totfact>
</mgrwt>
</event>
<event>
 5    1  0.4067226E+001  0.9105471E+02  0.7546771E-02  0.1300317E+00
         -2   -1    0    0    0  501 -0.00000000000E+00  0.00000000000E+00  0.83578595904E+01  0.83578595904E+01  0.00000000000E+00 0.  1.
          2   -1    0    0  501    0  0.00000000000E+00 -0.00000000000E+00 -0.24799892621E+03  0.24799892621E+03  0.00000000000E+00 0. -1.
         23    2    1    2    0    0  0.00000000000E+00  0.00000000000E+00 -0.23964106662E+03  0.25635678580E+03  0.91054713307E+02 0.  0.
          2    1    3    3  502    0 -0.14828511209E+01 -0.44410879781E+02 -0.91918776575E+02  0.10209596749E+03  0.00000000000E+00 0. -1.
         -2    1    3    3    0  502  0.14828511209E+01  0.44410879781E+02 -0.14772229005E+03  0.15426081832E+03  0.00000000000E+00 0.  1.
<mgrwt>
<rscale>  0 0.91054713E+02</rscale>
<asrwt>0</asrwt>
<pdfrwt beam="2">  1        2 0.38153681E-01 0.91054713E+02</pdfrwt>
<pdfrwt beam="1">  1       -2 0.12858245E-02 0.91054713E+02</pdfrwt>
<totfact> 0.16796438E+05</totfact>
</mgrwt>
</event>
<event>
 5    1  0.4067226E+001  0.9082211E+02  0.7546771E-02  0.1300873E+00
          2   -1    0    0  501    0  0.00000000000E+00  0.00000000000E+00  0.15288663171E+04  0.15288663171E+04  0.00000000000E+00 0. -1.
         -2   -1    0    0    0  501 -0.00000000000E+00 -0.00000000000E+00 -0.13488188810E+01  0.13488188810E+01  0.00000000000E+00 0.  1.
         23    2    1    2    0    0  0.00000000000E+00  0.00000000000E+00  0.15275174982E+04  0.15302151359E+04  0.90822106451E+02 0.  0.
          2    1    3    3  502    0 -0.27049294418E+02  0.31498165266E+02  0.45383586322E+03  0.45573104951E+03  0.00000000000E+00 0.  1.
         -2    1    3    3    0  502  0.27049294418E+02 -0.31498165266E+02  0.10736816350E+04  0.10744840864E+04  0.00000000000E+00 0. -1.
<mgrwt>
<rscale>  0 0.90822106E+02</rscale>
<asrwt>0</asrwt>
<pdfrwt beam="1">  1        2 0.23520882E+00 0.90822106E+02</pdfrwt>
<pdfrwt beam="2">  1       -2 0.20751182E-03 0.90822106E+02</pdfrwt>
<totfact> 0.23662506E+05</totfact>
</mgrwt>
</event>
<event>
 5    1  0.4067226E+001  0.8431028E+02  0.7546771E-02  0.1317246E+00
         -1   -1    0    0    0  501 -0.00000000000E+00  0.00000000000E+00  0.79430977820E+00  0.79430977820E+00  0.00000000000E+00 0.  1.
          1   -1    0    0  501    0  0.00000000000E+00 -0.00000000000E+00 -0.22372325147E+04  0.22372325147E+04  0.00000000000E+00 0. -1.
         23    2    1    2    0    0  0.00000000000E+00  0.00000000000E+00 -0.22364382049E+04  0.22380268244E+04  0.84310276064E+02 0.  0.
          2    1    3    3  502    0 -0.36918231995E+02  0.20331625902E+02 -0.10956199068E+04  0.10964302582E+04  0.00000000000E+00 0. -1.
         -2    1    3    3    0  502  0.36918231995E+02 -0.20331625902E+02 -0.11408182981E+04  0.11415965663E+04  0.00000000000E+00 0.  1.
<mgrwt>
<rscale>  0 0.84310276E+02</rscale>
<asrwt>0</asrwt>
<pdfrwt beam="2">  1        1 0.34418346E+00 0.84310276E+02</pdfrwt>
<pdfrwt beam="1">  1       -1 0.12220369E-03 0.84310276E+02</pdfrwt>
<totfact> 0.81259782E+04</totfact>
</mgrwt>
</event>
<event>
 5    1  0.4067226E+001  0.9005404E+02  0.7546771E-02  0.1302721E+00
          2   -1    0    0  501    0  0.00000000000E+00  0.00000000000E+00  0.53407597865E+03  0.53407597865E+03  0.00000000000E+00 0.  1.
         -2   -1    0    0    0  501 -0.00000000000E+00 -0.00000000000E+00 -0.37961498414E+01  0.37961498414E+01  0.00000000000E+00 0. -1.
         23    2    1    2    0    0  0.00000000000E+00  0.00000000000E+00  0.53027982880E+03  0.53787212849E+03  0.90054038036E+02 0.  0.
          2    1    3    3  502    0 -0.16986917586E+02 -0.20242328730E+02  0.47389597728E+02  0.54259388259E+02  0.00000000000E+00 0. -1.
         -2    1    3    3    0  502  0.16986917586E+02  0.20242328730E+02  0.48289023108E+03  0.48361274023E+03  0.00000000000E+00 0.  1.
<mgrwt>
<rscale>  0 0.90054038E+02</rscale>
<asrwt>0</asrwt>
<pdfrwt beam="1">  1        2 0.82165476E-01 0.90054038E+02</pdfrwt>
<pdfrwt beam="2">  1       -2 0.58402348E-03 0.90054038E+02</pdfrwt>
<totfact> 0.22739221E+05</totfact>
</mgrwt>
</event>
<event>
 5    1  0.4067226E+001  0.9378814E+02  0.7546771E-02  0.1293929E+00
         -1   -1    0    0    0  501 -0.00000000000E+00  0.00000000000E+00  0.28228775645E+01  0.28228775645E+01  0.00000000000E+00 0.  1.
          1   -1    0    0  501    0  0.00000000000E+00 -0.00000000000E+00 -0.77901138686E+03  0.77901138686E+03  0.00000000000E+00 0. -1.
         23    2    1    2    0    0  0.00000000000E+00  0.00000000000E+00 -0.77618850929E+03  0.78183426442E+03  0.93788139260E+02 0.  0.
          2    1    3    3  502    0  0.18533157989E+02  0.37513315500E+02 -0.56460218332E+03  0.56615046781E+03  0.00000000000E+00 0. -1.
         -2    1    3    3    0  502 -0.18533157989E+02 -0.37513315500E+02 -0.21158632597E+03  0.21568379661E+03  0.00000000000E+00 0.  1.
<mgrwt>
<rscale>  0 0.93788139E+02</rscale>
<asrwt>0</asrwt>
<pdfrwt beam="2">  1        1 0.11984784E+00 0.93788139E+02</pdfrwt>
<pdfrwt beam="1">  1       -1 0.43428909E-03 0.93788139E+02</pdfrwt>
<totfact> 0.13139435E+05</totfact>
</mgrwt>
</event>
<event>
 5    1  0.4067226E+001  0.9625093E+02  0.7546771E-02  0.1288383E+00
          2   -1    0    0  501    0  0.00000000000E+00  0.00000000000E+00  0.73139806674E+03  0.73139806674E+03  0.00000000000E+00 0. -1.
         -2   -1    0    0    0  501 -0.00000000000E+00 -0.00000000000E+00 -0.31666206728E+01  0.31666206728E+01  0.00000000000E+00 0.  1.
         23    2    1    2    0    0  0.00000000000E+00  0.00000000000E+00  0.72823144606E+03  0.73456468741E+03  0.96250927023E+02 0.  0.
          2    1    3    3  502    0  0.95375753076E+01 -0.26076527660E+02  0.66410433687E+03  0.66468452734E+03  0.00000000000E+00 0. -1.
         -2    1    3    3    0  502 -0.95375753076E+01  0.26076527660E+02  0.64127109193E+02  0.69880160068E+02  0.00000000000E+00 0.  1.
<mgrwt>
<rscale>  0 0.96250927E+02</rscale>
<asrwt>0</asrwt>
<pdfrwt beam="1">  1        2 0.11252265E+00 0.96250927E+02</pdfrwt>
<pdfrwt beam="2">  1       -2 0.48717299E-03 0.96250927E+02</pdfrwt>
<totfact> 0.20753220E+05</totfact>
</mgrwt>
</event>
<event>
 5    1  0.4067226E+001  0.9048696E+02  0.7546771E-02  0.1301677E+00
         -2   -1    0    0    0  501 -0.00000000000E+00  0.00000000000E+00  0.68524213406E+02  0.68524213406E+02  0.00000000000E+00 0.  1.
          2   -1    0    0  501    0  0.00000000000E+00 -0.00000000000E+00 -0.29872253470E+02  0.29872253470E+02  0.00000000000E+00 0. -1.
         23    2    1    2    0    0  0.00000000000E+00  0.00000000000E+00  0.38651959936E+02  0.98396466876E+02  0.90486964181E+02 0.  0.
          2    1    3    3  502    0 -0.36800948186E+02  0.25205448201E+02  0.27560790844E+02  0.52433020114E+02  0.00000000000E+00 0. -1.
         -2    1    3    3    0  502  0.36800948186E+02 -0.25205448201E+02  0.11091169092E+02  0.45963446761E+02  0.00000000000E+00 0.  1.
<mgrwt>
<rscale>  0 0.90486964E+02</rscale>
<asrwt>0</asrwt>
<pdfrwt beam="2">  1        2 0.45957313E-02 0.90486964E+02</pdfrwt>
<pdfrwt beam="1">  1       -2 0.10542187E-01 0.90486964E+02</pdfrwt>
<totfact> 0.90377378E+04</totfact>
</mgrwt>
</event>
<event>
 5    1  0.4067226E+001  0.9282518E+02  0.7546771E-02  0.1296151E+00
          3   -1    0    0  501    0  0.00000000000E+00  0.00000000000E+00  0.42109618258E+03  0.42109618258E+03  0.00000000000E+00 0. -1.
         -3   -1    0    0    0  501 -0.00000000000E+00 -0.00000000000E+00 -0.51155263110E+01  0.51155263110E+01  0.00000000000E+00 0.  1.
         23    2    1    2    0    0  0.00000000000E+00  0.00000000000E+00  0.41598065627E+03  0.42621170889E+03  0.92825181959E+02 0.  0.
          2    1    3    3  502    0  0.72046089119E+01  0.37136040833E+02  0.33146269227E+03  0.33361431067E+03  0.00000000000E+00 0. -1.
         -2    1    3    3    0  502 -0.72046089119E+01 -0.37136040833E+02  0.84517963998E+02  0.92597398218E+02  0.00000000000E+00 0.  1.
<mgrwt>
<rscale>  0 0.92825182E+02</rscale>
<asrwt>0</asrwt>
<pdfrwt beam="1">  1        3 0.64784001E-01 0.92825182E+02</pdfrwt>
<pdfrwt beam="2">  1       -3 0.78700438E-03 0.92825182E+02</pdfrwt>
<totfact> 0.18917026E+04</totfact>
</mgrwt>
</event>
<event>
 5    1  0.4067226E+001  0.9522767E+02  0.7546771E-02  0.1290664E+00
         -1   -1    0    0    0  501 -0.00000000000E+00  0.00000000000E+00  0.31654498480E+02  0.31654498480E+02  0.00000000000E+00 0.  1.
          1   -1    0    0  501    0  0.00000000000E+00 -0.00000000000E+00 -0.71619441924E+02  0.71619441924E+02  0.00000000000E+00 0. -1.
         23    2    1    2    0    0  0.00000000000E+00  0.00000000000E+00 -0.39964943444E+02  0.10327394040E+03  0.95227674875E+02 0.  0.
          2    1    3    3  502    0 -0.34536622569E+02 -0.12298264214E+02 -0.52931349774E+02  0.64387525112E+02  0.00000000000E+00 0. -1.
         -2    1    3    3    0  502  0.34536622569E+02  0.12298264214E+02  0.12966406330E+02  0.38886415292E+02  0.00000000000E+00 0.  1.
<mgrwt>
<rscale>  0 0.95227675E+02</rscale>
<asrwt>0</asrwt>
<pdfrwt beam="2">  1        1 0.11018376E-01 0.95227675E+02</pdfrwt>
<pdfrwt beam="1">  1       -1 0.48699229E-02 0.95227675E+02</pdfrwt>
<totfact> 0.87796706E+04</totfact>
</mgrwt>
</event>
<event>
 5    1  0.4067226E+001  0.9201106E+02  0.7546771E-02  0.1298053E+00
         -4   -1    0    0    0  501 -0.00000000000E+00  0.00000000000E+00  0.99337334484E+02  0.99337334484E+02  0.00000000000E+00 0.  1.
          4   -1    0    0  501    0  0.00000000000E+00 -0.00000000000E+00 -0.21306278398E+02  0.21306278398E+02  0.00000000000E+00 0. -1.
         23    2    1    2    0    0  0.00000000000E+00  0.00000000000E+00  0.78031056086E+02  0.12064361288E+03  0.92011062461E+02 0.  0.
          2    1    3    3  502    0 -0.36939522310E+02 -0.86078601706E+01  0.73153868823E+02  0.82402136435E+02  0.00000000000E+00 0.  1.
         -2    1    3    3    0  502  0.36939522310E+02  0.86078601706E+01  0.48771872631E+01  0.38241476447E+02  0.00000000000E+00 0. -1.
<mgrwt>
<rscale>  0 0.92011062E+02</rscale>
<asrwt>0</asrwt>
<pdfrwt beam="2">  1        4 0.32778890E-02 0.92011062E+02</pdfrwt>
<pdfrwt beam="1">  1       -4 0.15282667E-01 0.92011062E+02</pdfrwt>
<totfact> 0.24621353E+04</totfact>
</mgrwt>
</event>
<event>
 5    1  0.4067226E+001  0.9137147E+02  0.7546771E-02  0.1299564E+00
         -1   -1    0    0    0  501 -0.00000000000E+00  0.00000000000E+00  0.58726568303E+02  0.58726568303E+02  0.00000000000E+00 0.  1.
          1   -1    0    0  501    0  0.00000000000E+00 -0.00000000000E+00 -0.35540749269E+02  0.35540749269E+02  0.00000000000E+00 0. -1.
         23    2    1    2    0    0  0.00000000000E+00  0.00000000000E+00  0.23185819034E+02  0.94267317572E+02  0.91371466870E+02 0.  0.
          2    1    3    3  502    0 -0.31770672241E+02  0.26348262049E+02  0.31798817289E+02  0.52103467338E+02  0.00000000000E+00 0.  1.
         -2    1    3    3    0  502  0.31770672241E+02 -0.26348262049E+02 -0.86129982546E+01  0.42163850234E+02  0.00000000000E+00 0. -1.
<mgrwt>
<rscale>  0 0.91371467E+02</rscale>
<asrwt>0</asrwt>
<pdfrwt beam="2">  1        1 0.54678076E-02 0.91371467E+02</pdfrwt>
<pdfrwt beam="1">  1       -1 0.90348566E-02 0.91371467E+02</pdfrwt>
<totfact> 0.88496850E+04</totfact>
</mgrwt>
</event>
<event>
 5    1  0.4067226E+001  0.8055095E+02  0.7546771E-02  0.1327495E+00
         -1   -1    0    0    0  501 -0.00000000000E+00  0.00000000000E+00  0.63493919234E+03  0.63493919234E+03  0.00000000000E+00 0.  1.
          1   -1    0    0  501    0  0.00000000000E+00 -0.00000000000E+00 -0.25547546990E+01  0.25547546990E+01  0.00000000000E+00 0. -1.
         23    2    1    2    0    0  0.00000000000E+00  0.00000000000E+00  0.63238443764E+03  0.63749394704E+03  0.80550949968E+02 0.  0.
          2    1    3    3  502    0  0.88524858712E+00  0.29714173374E+02  0.10113665132E+03  0.10541507484E+03  0.00000000000E+00 0. -1.
         -2    1    3    3    0  502 -0.88524858712E+00 -0.29714173374E+02  0.53124778632E+03  0.53207887219E+03  0.00000000000E+00 0.  1.
<mgrwt>
<rscale>  0 0.80550950E+02</rscale>
<asrwt>0</asrwt>
<pdfrwt beam="2">  1        1 0.39303969E-03 0.80550950E+02</pdfrwt>
<pdfrwt beam="1">  1       -1 0.97682827E-01 0.80550950E+02</pdfrwt>
<totfact> 0.55125304E+04</totfact>
</mgrwt>
</event>
<event>
 5    1  0.4067226E+001  0.9451268E+02  0.7546771E-02  0.1292277E+00
          2   -1    0    0  501    0  0.00000000000E+00  0.00000000000E+00  0.14421881371E+04  0.14421881371E+04  0.00000000000E+00 0. -1.
         -2   -1    0    0    0  501 -0.00000000000E+00 -0.00000000000E+00 -0.15484536221E+01  0.15484536221E+01  0.00000000000E+00 0.  1.
         23    2    1    2    0    0  0.00000000000E+00  0.00000000000E+00  0.14406396835E+04  0.14437365908E+04  0.94512675229E+02 0.  0.
          2    1    3    3  502    0 -0.11468742609E+02  0.45365942182E+02  0.61950018350E+03  0.62126490173E+03  0.00000000000E+00 0. -1.
         -2    1    3    3    0  502  0.11468742609E+02 -0.45365942182E+02  0.82113950002E+03  0.82247168903E+03  0.00000000000E+00 0.  1.
<mgrwt>
<rscale>  0 0.94512675E+02</rscale>
<asrwt>0</asrwt>
<pdfrwt beam="1">  1        2 0.22187402E+00 0.94512675E+02</pdfrwt>
<pdfrwt beam="2">  1       -2 0.23822479E-03 0.94512675E+02</pdfrwt>
<totfact> 0.21759743E+05</totfact>
</mgrwt>
</event>
<event>
 5    1  0.4067226E+001  0.9104471E+02  0.7546771E-02  0.1300341E+00
         -1   -1    0    0    0  501 -0.00000000000E+00  0.00000000000E+00  0.73695352290E+02  0.73695352290E+02  0.00000000000E+00 0.  1.
          1   -1    0    0  501    0  0.00000000000E+00 -0.00000000000E+00 -0.28119613438E+02  0.28119613438E+02  0.00000000000E+00 0. -1.
         23    2    1    2    0    0  0.00000000000E+00  0.00000000000E+00  0.45575738852E+02  0.10181496573E+03  0.91044710305E+02 0.  0.
          2    1    3    3  502    0  0.34936553478E+02  0.10363370952E+01 -0.98282176389E+01  0.36307445868E+02  0.00000000000E+00 0. -1.
         -2    1    3    3    0  502 -0.34936553478E+02 -0.10363370952E+01  0.55403956491E+02  0.65507519861E+02  0.00000000000E+00 0.  1.
<mgrwt>
<rscale>  0 0.91044710E+02</rscale>
<asrwt>0</asrwt>
<pdfrwt beam="2">  1        1 0.43260944E-02 0.91044710E+02</pdfrwt>
<pdfrwt beam="1">  1       -1 0.11337746E-01 0.91044710E+02</pdfrwt>
<totfact> 0.86135361E+04</totfact>
</mgrwt>
</event>
<event>
 5    1  0.4067226E+001  0.8880678E+02  0.7546771E-02  0.1305767E+00
         -2   -1    0    0    0  501 -0.00000000000E+00  0.00000000000E+00  0.13976446078E+02  0.13976446078E+02  0.00000000000E+00 0.  1.
          2   -1    0    0  501    0  0.00000000000E+00 -0.00000000000E+00 -0.14107025974E+03  0.14107025974E+03  0.00000000000E+00 0. -1.
         23    2    1    2    0    0  0.00000000000E+00  0.00000000000E+00 -0.12709381366E+03  0.15504670581E+03  0.88806776281E+02 0.  0.
          2    1    3    3  502    0  0.36361495563E+02  0.19946117127E+02 -0.91243041348E+02  0.10022623680E+03  0.00000000000E+00 0. -1.
         -2    1    3    3    0  502 -0.36361495563E+02 -0.19946117127E+02 -0.35850772310E+02  0.54820469017E+02  0.00000000000E+00 0.  1.
<mgrwt>
<rscale>  0 0.88806776E+02</rscale>
<asrwt>0</asrwt>
<pdfrwt beam="2">  1        2 0.21703117E-01 0.88806776E+02</pdfrwt>
<pdfrwt beam="1">  1       -2 0.21502225E-02 0.88806776E+02</pdfrwt>
<totfact> 0.14708402E+05</totfact>
</mgrwt>
</event>
<event>
 5    1  0.4067226E+001  0.8970532E+02  0.7546771E-02  0.1303567E+00
         -1   -1    0    0    0  501 -0.00000000000E+00  0.00000000000E+00  0.30688211969E+03  0.30688211969E+03  0.00000000000E+00 0.  1.
          1   -1    0    0  501    0  0.00000000000E+00 -0.00000000000E+00 -0.65554846746E+01  0.65554846746E+01  0.00000000000E+00 0. -1.
         23    2    1    2    0    0  0.00000000000E+00  0.00000000000E+00  0.30032663501E+03  0.31343760436E+03  0.89705318293E+02 0.  0.
          2    1    3    3  502    0 -0.27941621331E+02  0.73505366036E+01  0.30290563607E+02  0.41860277527E+02  0.00000000000E+00 0. -1.
         -2    1    3    3    0  502  0.27941621331E+02 -0.73505366036E+01  0.27003607141E+03  0.27157732684E+03  0.00000000000E+00 0.  1.
<mgrwt>
<rscale>  0 0.89705318E+02</rscale>
<asrwt>0</asrwt>
<pdfrwt beam="2">  1        1 0.10085363E-02 0.89705318E+02</pdfrwt>
<pdfrwt beam="1">  1       -1 0.47212623E-01 0.89705318E+02</pdfrwt>
<totfact> 0.62650334E+04</totfact>
</mgrwt>
</event>
<event>
 5    1  0.4067226E+001  0.9748824E+02  0.7546771E-02  0.1285668E+00
         -1   -1    0    0    0  501 -0.00000000000E+00  0.00000000000E+00  0.30797422848E+01  0.30797422848E+01  0.00000000000E+00 0.  1.
          1   -1    0    0  501    0  0.00000000000E+00 -0.00000000000E+00 -0.77148962836E+03  0.77148962836E+03  0.00000000000E+00 0. -1.
         23    2    1    2    0    0  0.00000000000E+00  0.00000000000E+00 -0.76840988608E+03  0.77456937065E+03  0.97488239921E+02 0.  0.
          2    1    3    3  502    0 -0.46202155866E+02 -0.49520029244E+01 -0.26721043856E+03  0.27122053759E+03  0.00000000000E+00 0.  1.
         -2    1    3    3    0  502  0.46202155866E+02  0.49520029244E+01 -0.50119944752E+03  0.50334883305E+03  0.00000000000E+00 0. -1.
<mgrwt>
<rscale>  0 0.97488240E+02</rscale>
<asrwt>0</asrwt>
<pdfrwt beam="2">  1        1 0.11869073E+00 0.97488240E+02</pdfrwt>
<pdfrwt beam="1">  1       -1 0.47380645E-03 0.97488240E+02</pdfrwt>
<totfact> 0.11863735E+05</totfact>
</mgrwt>
</event>
<event>
 5    1  0.4067226E+001  0.9605396E+02  0.7546771E-02  0.1288820E+00
         -4   -1    0    0    0  501 -0.00000000000E+00  0.00000000000E+00  0.27322895589E+02  0.27322895589E+02  0.00000000000E+00 0.  1.
          4   -1    0    0  501    0  0.00000000000E+00 -0.00000000000E+00 -0.84419710848E+02  0.84419710848E+02  0.00000000000E+00 0. -1.
         23    2    1    2    0    0  0.00000000000E+00  0.00000000000E+00 -0.57096815259E+02  0.11174260644E+03  0.96053962857E+02 0.  0.
          2    1    3    3  502    0 -0.27335679276E+02  0.21284352990E+02 -0.67242569386E+02  0.75642753660E+02  0.00000000000E+00 0. -1.
         -2    1    3    3    0  502  0.27335679276E+02 -0.21284352990E+02  0.10145754127E+02  0.36099852776E+02  0.00000000000E+00 0.  1.
<mgrwt>
<rscale>  0 0.96053963E+02</rscale>
<asrwt>0</asrwt>
<pdfrwt beam="2">  1        4 0.12987648E-01 0.96053963E+02</pdfrwt>
<pdfrwt beam="1">  1       -4 0.42035224E-02 0.96053963E+02</pdfrwt>
<totfact> 0.22348375E+04</totfact>
</mgrwt>
</event>
<event>
 5    1  0.4067226E+001  0.9137548E+02  0.7546771E-02  0.1299555E+00
          1   -1    0    0  501    0  0.00000000000E+00  0.00000000000E+00  0.51325797804E+03  0.51325797804E+03  0.00000000000E+00 0. -1.
         -1   -1    0    0    0  501 -0.00000000000E+00 -0.00000000000E+00 -0.40669010425E+01  0.40669010425E+01  0.00000000000E+00 0.  1.
         23    2    1    2    0    0  0.00000000000E+00  0.00000000000E+00  0.50919107700E+03  0.51732487908E+03  0.91375476052E+02 0.  0.
          2    1    3    3  502    0 -0.32680601887E+02 -0.23707415121E+02  0.37566572905E+03  0.37782906619E+03  0.00000000000E+00 0. -1.
         -2    1    3    3    0  502  0.32680601887E+02  0.23707415121E+02  0.13352534794E+03  0.13949581289E+03  0.00000000000E+00 0.  1.
<mgrwt>
<rscale>  0 0.91375476E+02</rscale>
<asrwt>0</asrwt>
<pdfrwt beam="1">  1        1 0.78962715E-01 0.91375476E+02</pdfrwt>
<pdfrwt beam="2">  1       -1 0.62567749E-03 0.91375476E+02</pdfrwt>
<totfact> 0.13887965E+05</totfact>
</mgrwt>
</event>
<event>
 5    1  0.4067226E+001  0.8967023E+02  0.7546771E-02  0.1303652E+00
         -2   -1    0    0    0  501 -0.00000000000E+00  0.00000000000E+00  0.82365085649E+02  0.82365085649E+02  0.00000000000E+00 0.  1.
          2   -1    0    0  501    0  0.00000000000E+00 -0.00000000000E+00 -0.24405819299E+02  0.24405819299E+02  0.00000000000E+00 0. -1.
         23    2    1    2    0    0  0.00000000000E+00  0.00000000000E+00  0.57959266350E+02  0.10677090495E+03  0.89670226873E+02 0.  0.
          2    1    3    3  502    0 -0.34119995272E+02  0.18225573712E+02  0.55970657265E+02  0.68037196365E+02  0.00000000000E+00 0. -1.
         -2    1    3    3    0  502  0.34119995272E+02 -0.18225573712E+02  0.19886090857E+01  0.38733708583E+02  0.00000000000E+00 0.  1.
<mgrwt>
<rscale>  0 0.89670227E+02</rscale>
<asrwt>0</asrwt>
<pdfrwt beam="2">  1        2 0.37547415E-02 0.89670227E+02</pdfrwt>
<pdfrwt beam="1">  1       -2 0.12671551E-01 0.89670227E+02</pdfrwt>
<totfact> 0.87924973E+04</totfact>
</mgrwt>
</event>
<event>
 5    1  0.4067226E+001  0.9565900E+02  0.7546771E-02  0.1289699E+00
         -2   -1    0    0    0  501 -0.00000000000E+00  0.00000000000E+00  0.12665761575E+02  0.12665761575E+02  0.00000000000E+00 0.  1.
          2   -1    0    0  501    0  0.00000000000E+00 -0.00000000000E+00 -0.18061773876E+03  0.18061773876E+03  0.00000000000E+00 0. -1.
         23    2    1    2    0    0  0.00000000000E+00  0.00000000000E+00 -0.16795197718E+03  0.19328350033E+03  0.95659003035E+02 0.  0.
          2    1    3    3  502    0 -0.21166240518E+02  0.35753097229E+02 -0.13184920103E+03  0.13824075199E+03  0.00000000000E+00 0. -1.
         -2    1    3    3    0  502  0.21166240518E+02 -0.35753097229E+02 -0.36102776155E+02  0.55042748344E+02  0.00000000000E+00 0.  1.
<mgrwt>
<rscale>  0 0.95659003E+02</rscale>
<asrwt>0</asrwt>
<pdfrwt beam="2">  1        2 0.27787343E-01 0.95659003E+02</pdfrwt>
<pdfrwt beam="1">  1       -2 0.19485788E-02 0.95659003E+02</pdfrwt>
<totfact> 0.13094594E+05</totfact>
</mgrwt>
</event>
<event>
 5    1  0.4067226E+001  0.8863843E+02  0.7546771E-02  0.1306183E+00
         -1   -1    0    0    0  501 -0.00000000000E+00  0.00000000000E+00  0.29648440464E+01  0.29648440464E+01  0.00000000000E+00 0.  1.
          1   -1    0    0  501    0  0.00000000000E+00 -0.00000000000E+00 -0.66249447061E+03  0.66249447061E+03  0.00000000000E+00 0. -1.
         23    2    1    2    0    0  0.00000000000E+00  0.00000000000E+00 -0.65952962657E+03  0.66545931466E+03  0.88638429294E+02 0.  0.
          2    1    3    3  502    0  0.16751520048E+02 -0.20795811771E+02 -0.59531574231E+03  0.59591434976E+03  0.00000000000E+00 0. -1.
         -2    1    3    3    0  502 -0.16751520048E+02  0.20795811771E+02 -0.64213884258E+02  0.69544964898E+02  0.00000000000E+00 0.  1.
<mgrwt>
<rscale>  0 0.88638429E+02</rscale>
<asrwt>0</asrwt>
<pdfrwt beam="2">  1        1 0.10192222E+00 0.88638429E+02</pdfrwt>
<pdfrwt beam="1">  1       -1 0.45612989E-03 0.88638429E+02</pdfrwt>
<totfact> 0.15314744E+05</totfact>
</mgrwt>
</event>
<event>
 5    1  0.4067226E+001  0.9094837E+02  0.7546771E-02  0.1300571E+00
         -2   -1    0    0    0  501 -0.00000000000E+00  0.00000000000E+00  0.14490317526E+01  0.14490317526E+01  0.00000000000E+00 0.  1.
          2   -1    0    0  501    0  0.00000000000E+00 -0.00000000000E+00 -0.14270918454E+04  0.14270918454E+04  0.00000000000E+00 0. -1.
         23    2    1    2    0    0  0.00000000000E+00  0.00000000000E+00 -0.14256428137E+04  0.14285408772E+04  0.90948367724E+02 0.  0.
          2    1    3    3  502    0  0.74846741796E+01  0.44494497708E+02 -0.80184198819E+03  0.80311042498E+03  0.00000000000E+00 0. -1.
         -2    1    3    3    0  502 -0.74846741796E+01 -0.44494497708E+02 -0.62380082549E+03  0.62543045221E+03  0.00000000000E+00 0.  1.
<mgrwt>
<rscale>  0 0.90948368E+02</rscale>
<asrwt>0</asrwt>
<pdfrwt beam="2">  1        2 0.21955219E+00 0.90948368E+02</pdfrwt>
<pdfrwt beam="1">  1       -2 0.22292837E-03 0.90948368E+02</pdfrwt>
<totfact> 0.24162427E+05</totfact>
</mgrwt>
</event>
<event>
 5    1  0.4067226E+001  0.9090672E+02  0.7546771E-02  0.1300671E+00
          4   -1    0    0  501    0  0.00000000000E+00  0.00000000000E+00  0.53083106070E+02  0.53083106070E+02  0.00000000000E+00 0.  1.
         -4   -1    0    0    0  501 -0.00000000000E+00 -0.00000000000E+00 -0.38920251479E+02  0.38920251479E+02  0.00000000000E+00 0. -1.
         23    2    1    2    0    0  0.00000000000E+00  0.00000000000E+00  0.14162854590E+02  0.92003357549E+02  0.90906717850E+02 0.  0.
          2    1    3    3  502    0 -0.16803254115E+02 -0.20019052719E+02  0.44717340780E+02  0.51795293098E+02  0.00000000000E+00 0. -1.
         -2    1    3    3    0  502  0.16803254115E+02  0.20019052719E+02 -0.30554486190E+02  0.40208064452E+02  0.00000000000E+00 0.  1.
<mgrwt>
<rscale>  0 0.90906718E+02</rscale>
<asrwt>0</asrwt>
<pdfrwt beam="1">  1        4 0.81666318E-02 0.90906718E+02</pdfrwt>
<pdfrwt beam="2">  1       -4 0.59877309E-02 0.90906718E+02</pdfrwt>
<totfact> 0.27181356E+04</totfact>
</mgrwt>
</event>
<event>
 5    1  0.4067226E+001  0.9011279E+02  0.7546771E-02  0.1302579E+00
         -1   -1    0    0    0  501 -0.00000000000E+00  0.00000000000E+00  0.20395465417E+01  0.20395465417E+01  0.00000000000E+00 0.  1.
          1   -1    0    0  501    0  0.00000000000E+00 -0.00000000000E+00 -0.99535783591E+03  0.99535783591E+03  0.00000000000E+00 0. -1.
         23    2    1    2    0    0  0.00000000000E+00  0.00000000000E+00 -0.99331828937E+03  0.99739738245E+03  0.90112787815E+02 0.  0.
          2    1    3    3  502    0  0.62852126251E+00  0.42319898999E+02 -0.66766731878E+03  0.66900748684E+03  0.00000000000E+00 0.  1.
         -2    1    3    3    0  502 -0.62852126251E+00 -0.42319898999E+02 -0.32565097059E+03  0.32838989561E+03  0.00000000000E+00 0. -1.
<mgrwt>
<rscale>  0 0.90112788E+02</rscale>
<asrwt>0</asrwt>
<pdfrwt beam="2">  1        1 0.15313191E+00 0.90112788E+02</pdfrwt>
<pdfrwt beam="1">  1       -1 0.31377653E-03 0.90112788E+02</pdfrwt>
<totfact> 0.14047224E+05</totfact>
</mgrwt>
</event>
<event>
 5    1  0.4067226E+001  0.9146081E+02  0.7546771E-02  0.1299352E+00
         -1   -1    0    0    0  501 -0.00000000000E+00  0.00000000000E+00  0.25839424865E+02  0.25839424865E+02  0.00000000000E+00 0.  1.
          1   -1    0    0  501    0  0.00000000000E+00 -0.00000000000E+00 -0.80933308838E+02  0.80933308838E+02  0.00000000000E+00 0. -1.
         23    2    1    2    0    0  0.00000000000E+00  0.00000000000E+00 -0.55093883973E+02  0.10677273370E+03  0.91460814622E+02 0.  0.
          2    1    3    3  502    0  0.39130107949E+01 -0.38142066887E+02  0.15481997216E+01  0.38373504430E+02  0.00000000000E+00 0.  1.
         -2    1    3    3    0  502 -0.39130107949E+01  0.38142066887E+02 -0.56642083695E+02  0.68399229273E+02  0.00000000000E+00 0. -1.
<mgrwt>
<rscale>  0 0.91460815E+02</rscale>
<asrwt>0</asrwt>
<pdfrwt beam="2">  1        1 0.12451278E-01 0.91460815E+02</pdfrwt>
<pdfrwt beam="1">  1       -1 0.39752961E-02 0.91460815E+02</pdfrwt>
<totfact> 0.10007048E+05</totfact>
</mgrwt>
</event>
<event>
 5    1  0.4067226E+001  0.8728010E+02  0.7546771E-02  0.1309575E+00
          2   -1    0    0  501    0  0.00000000000E+00  0.00000000000E+00  0.11441441760E+04  0.11441441760E+04  0.00000000000E+00 0. -1.
         -2   -1    0    0    0  501 -0.00000000000E+00 -0.00000000000E+00 -0.16645227203E+01  0.16645227203E+01  0.00000000000E+00 0.  1.
         23    2    1    2    0    0  0.00000000000E+00  0.00000000000E+00  0.11424796533E+04  0.11458086988E+04  0.87280100281E+02 0.  0.
          2    1    3    3  502    0  0.23819384798E+02  0.33530555286E+02  0.76274269722E+03  0.76385082535E+03  0.00000000000E+00 0. -1.
         -2    1    3    3    0  502 -0.23819384798E+02 -0.33530555286E+02  0.37973695610E+03  0.38195787341E+03  0.00000000000E+00 0.  1.
<mgrwt>
<rscale>  0 0.87280100E+02</rscale>
<asrwt>0</asrwt>
<pdfrwt beam="1">  1        2 0.17602155E+00 0.87280100E+02</pdfrwt>
<pdfrwt beam="2">  1       -2 0.25608133E-03 0.87280100E+02</pdfrwt>
<totfact> 0.28008540E+05</totfact>
</mgrwt>
</event>
<event>
 4    1  0.4067226E+001  0.1278269E+03  0.7546771E-02  0.1230716E+00
         -1   -1    0    0    0  501 -0.00000000000E+00  0.00000000000E+00  0.42962042638E+03  0.42962042638E+03  0.00000000000E+00 0.  1.
          1   -1    0    0  501    0  0.00000000000E+00 -0.00000000000E+00 -0.95082299261E+01  0.95082299261E+01  0.00000000000E+00 0. -1.
          2    1    1    2  502    0 -0.34414272488E+02  0.30142654568E+02  0.56730373561E+02  0.72878371686E+02  0.00000000000E+00 0. -1.
         -2    1    1    2    0  502  0.34414272488E+02 -0.30142654568E+02  0.36338182289E+03  0.36625028462E+03  0.00000000000E+00 0.  1.
<mgrwt>
<rscale>  0 0.12782691E+03</rscale>
<asrwt>0</asrwt>
<pdfrwt beam="2">  1        1 0.14628049E-02 0.12782691E+03</pdfrwt>
<pdfrwt beam="1">  1       -1 0.66095435E-01 0.12782691E+03</pdfrwt>
<totfact> 0.20955218E+04</totfact>
</mgrwt>
</event>
<event>
 5    1  0.4067226E+001  0.8972933E+02  0.7546771E-02  0.1303508E+00
          1   -1    0    0  501    0  0.00000000000E+00  0.00000000000E+00  0.86278490597E+02  0.86278490597E+02  0.00000000000E+00 0. -1.
         -1   -1    0    0    0  501 -0.00000000000E+00 -0.00000000000E+00 -0.23329545670E+02  0.23329545670E+02  0.00000000000E+00 0.  1.
         23    2    1    2    0    0  0.00000000000E+00  0.00000000000E+00  0.62948944928E+02  0.10960803627E+03  0.89729326013E+02 0.  0.
          2    1    3    3  502    0  0.10984053905E+02 -0.20609614730E+02  0.78268134331E+02  0.81678066280E+02  0.00000000000E+00 0. -1.
         -2    1    3    3    0  502 -0.10984053905E+02  0.20609614730E+02 -0.15319189404E+02  0.27929969987E+02  0.00000000000E+00 0.  1.
<mgrwt>
<rscale>  0 0.89729326E+02</rscale>
<asrwt>0</asrwt>
<pdfrwt beam="1">  1        1 0.13273614E-01 0.89729326E+02</pdfrwt>
<pdfrwt beam="2">  1       -1 0.35891609E-02 0.89729326E+02</pdfrwt>
<totfact> 0.10652172E+05</totfact>
</mgrwt>
</event>
<event>
 5    1  0.4067226E+001  0.8938141E+02  0.7546771E-02  0.1304357E+00
          2   -1    0    0  501    0  0.00000000000E+00  0.00000000000E+00  0.17396316436E+04  0.17396316436E+04  0.00000000000E+00 0. -1.
         -2   -1    0    0    0  501 -0.00000000000E+00 -0.00000000000E+00 -0.11480932070E+01  0.11480932070E+01  0.00000000000E+00 0.  1.
         23    2    1    2    0    0  0.00000000000E+00  0.00000000000E+00  0.17384835504E+04  0.17407797368E+04  0.89381413564E+02 0.  0.
          2    1    3    3  502    0  0.30161481741E+02  0.20977163513E+02  0.13648259888E+04  0.13653203785E+04  0.00000000000E+00 0. -1.
         -2    1    3    3    0  502 -0.30161481741E+02 -0.20977163513E+02  0.37365756158E+03  0.37545935824E+03  0.00000000000E+00 0.  1.
<mgrwt>
<rscale>  0 0.89381414E+02</rscale>
<asrwt>0</asrwt>
<pdfrwt beam="1">  1        2 0.26763353E+00 0.89381414E+02</pdfrwt>
<pdfrwt beam="2">  1       -2 0.17663112E-03 0.89381414E+02</pdfrwt>
<totfact> 0.23101609E+05</totfact>
</mgrwt>
</event>
<event>
 5    1  0.4067226E+001  0.9078224E+02  0.7546771E-02  0.1300968E+00
         -1   -1    0    0    0  501 -0.00000000000E+00  0.00000000000E+00  0.10192107815E+01  0.10192107815E+01  0.00000000000E+00 0.  1.
          1   -1    0    0  501    0  0.00000000000E+00 -0.00000000000E+00 -0.20215187130E+04  0.20215187130E+04  0.00000000000E+00 0. -1.
         23    2    1    2    0    0  0.00000000000E+00  0.00000000000E+00 -0.20204995022E+04  0.20225379238E+04  0.90782237631E+02 0.  0.
          2    1    3    3  502    0 -0.30818839514E+02 -0.96555010475E+01 -0.17208501656E+04  0.17211531954E+04  0.00000000000E+00 0. -1.
         -2    1    3    3    0  502  0.30818839514E+02  0.96555010475E+01 -0.29964933666E+03  0.30138472843E+03  0.00000000000E+00 0.  1.
<mgrwt>
<rscale>  0 0.90782238E+02</rscale>
<asrwt>0</asrwt>
<pdfrwt beam="2">  1        1 0.31100427E+00 0.90782238E+02</pdfrwt>
<pdfrwt beam="1">  1       -1 0.15680096E-03 0.90782238E+02</pdfrwt>
<totfact> 0.79357599E+04</totfact>
</mgrwt>
</event>
<event>
 5    1  0.4067226E+001  0.8218298E+02  0.7546771E-02  0.1322968E+00
          3   -1    0    0  501    0  0.00000000000E+00  0.00000000000E+00  0.49891080532E+02  0.49891080532E+02  0.00000000000E+00 0. -1.
         -3   -1    0    0    0  501 -0.00000000000E+00 -0.00000000000E+00 -0.33843932966E+02  0.33843932966E+02  0.00000000000E+00 0.  1.
         23    2    1    2    0    0  0.00000000000E+00  0.00000000000E+00  0.16047147566E+02  0.83735013498E+02  0.82182975977E+02 0.  0.
          2    1    3    3  502    0 -0.38655490264E+02  0.27907128228E+01 -0.58899130332E+01  0.39201097958E+02  0.00000000000E+00 0. -1.
         -2    1    3    3    0  502  0.38655490264E+02 -0.27907128228E+01  0.21937060599E+02  0.44533915540E+02  0.00000000000E+00 0.  1.
<mgrwt>
<rscale>  0 0.82182976E+02</rscale>
<asrwt>0</asrwt>
<pdfrwt beam="1">  1        3 0.76755508E-02 0.82182976E+02</pdfrwt>
<pdfrwt beam="2">  1       -3 0.52067589E-02 0.82182976E+02</pdfrwt>
<totfact> 0.47581121E+04</totfact>
</mgrwt>
</event>
<event>
 5    1  0.4067226E+001  0.9102944E+02  0.7546771E-02  0.1300378E+00
          1   -1    0    0  501    0  0.00000000000E+00  0.00000000000E+00  0.18890209185E+03  0.18890209185E+03  0.00000000000E+00 0. -1.
         -1   -1    0    0    0  501 -0.00000000000E+00 -0.00000000000E+00 -0.10966474066E+02  0.10966474066E+02  0.00000000000E+00 0.  1.
         23    2    1    2    0    0  0.00000000000E+00  0.00000000000E+00  0.17793561778E+03  0.19986856592E+03  0.91029443398E+02 0.  0.
          2    1    3    3  502    0  0.23264576034E+02  0.69824678331E+01  0.44540743456E+01  0.24694819970E+02  0.00000000000E+00 0.  1.
         -2    1    3    3    0  502 -0.23264576034E+02 -0.69824678331E+01  0.17348154344E+03  0.17517374595E+03  0.00000000000E+00 0. -1.
<mgrwt>
<rscale>  0 0.91029443E+02</rscale>
<asrwt>0</asrwt>
<pdfrwt beam="1">  1        1 0.29061858E-01 0.91029443E+02</pdfrwt>
<pdfrwt beam="2">  1       -1 0.16871500E-02 0.91029443E+02</pdfrwt>
<totfact> 0.11761654E+05</totfact>
</mgrwt>
</event>
<event>
 5    1  0.4067226E+001  0.9066506E+02  0.7546771E-02  0.1301249E+00
          2   -1    0    0  501    0  0.00000000000E+00  0.00000000000E+00  0.60868133110E+03  0.60868133110E+03  0.00000000000E+00 0. -1.
         -2   -1    0    0    0  501 -0.00000000000E+00 -0.00000000000E+00 -0.33762140236E+01  0.33762140236E+01  0.00000000000E+00 0.  1.
         23    2    1    2    0    0  0.00000000000E+00  0.00000000000E+00  0.60530511708E+03  0.61205754513E+03  0.90665063744E+02 0.  0.
          2    1    3    3  502    0  0.24764256466E+02 -0.28086433728E+02  0.47515014851E+03  0.47662331016E+03  0.00000000000E+00 0. -1.
         -2    1    3    3    0  502 -0.24764256466E+02  0.28086433728E+02  0.13015496856E+03  0.13543423496E+03  0.00000000000E+00 0.  1.
<mgrwt>
<rscale>  0 0.90665064E+02</rscale>
<asrwt>0</asrwt>
<pdfrwt beam="1">  1        2 0.93643194E-01 0.90665064E+02</pdfrwt>
<pdfrwt beam="2">  1       -2 0.51941803E-03 0.90665064E+02</pdfrwt>
<totfact> 0.23219712E+05</totfact>
</mgrwt>
</event>
<event>
 5    1  0.4067226E+001  0.8757061E+02  0.7546771E-02  0.1308844E+00
         -1   -1    0    0    0  501 -0.00000000000E+00  0.00000000000E+00  0.18382106090E+02  0.18382106090E+02  0.00000000000E+00 0.  1.
          1   -1    0    0  501    0  0.00000000000E+00 -0.00000000000E+00 -0.10429452369E+03  0.10429452369E+03  0.00000000000E+00 0. -1.
         23    2    1    2    0    0  0.00000000000E+00  0.00000000000E+00 -0.85912417598E+02  0.12267662978E+03  0.87570611488E+02 0.  0.
          2    1    3    3  502    0  0.24985400158E+02 -0.30457629823E+02 -0.69728040883E+02  0.80087059634E+02  0.00000000000E+00 0. -1.
         -2    1    3    3    0  502 -0.24985400158E+02  0.30457629823E+02 -0.16184376715E+02  0.42589570145E+02  0.00000000000E+00 0.  1.
<mgrwt>
<rscale>  0 0.87570611E+02</rscale>
<asrwt>0</asrwt>
<pdfrwt beam="2">  1        1 0.16045311E-01 0.87570611E+02</pdfrwt>
<pdfrwt beam="1">  1       -1 0.28280164E-02 0.87570611E+02</pdfrwt>
<totfact> 0.11736106E+05</totfact>
</mgrwt>
</event>
<event>
 5    1  0.4067226E+001  0.9590331E+02  0.7546771E-02  0.1289154E+00
         -1   -1    0    0    0  501 -0.00000000000E+00  0.00000000000E+00  0.67942873744E+01  0.67942873744E+01  0.00000000000E+00 0.  1.
          1   -1    0    0  501    0  0.00000000000E+00 -0.00000000000E+00 -0.33842568714E+03  0.33842568714E+03  0.00000000000E+00 0. -1.
         23    2    1    2    0    0  0.00000000000E+00  0.00000000000E+00 -0.33163139977E+03  0.34521997452E+03  0.95903313255E+02 0.  0.
          2    1    3    3  502    0 -0.79472838120E+01  0.45718960389E+02 -0.20930746880E+03  0.21438982988E+03  0.00000000000E+00 0. -1.
         -2    1    3    3    0  502  0.79472838120E+01 -0.45718960389E+02 -0.12232393096E+03  0.13083014464E+03  0.00000000000E+00 0.  1.
<mgrwt>
<rscale>  0 0.95903313E+02</rscale>
<asrwt>0</asrwt>
<pdfrwt beam="2">  1        1 0.52065501E-01 0.95903313E+02</pdfrwt>
<pdfrwt beam="1">  1       -1 0.10452748E-02 0.95903313E+02</pdfrwt>
<totfact> 0.11450322E+05</totfact>
</mgrwt>
</event>
<event>
 5    1  0.4067226E+001  0.8960441E+02  0.7546771E-02  0.1303812E+00
          3   -1    0    0  501    0  0.00000000000E+00  0.00000000000E+00  0.16409651529E+03  0.16409651529E+03  0.00000000000E+00 0. -1.
         -3   -1    0    0    0  501 -0.00000000000E+00 -0.00000000000E+00 -0.12232056052E+02  0.12232056052E+02  0.00000000000E+00 0.  1.
         23    2    1    2    0    0  0.00000000000E+00  0.00000000000E+00  0.15186445924E+03  0.17632857134E+03  0.89604414467E+02 0.  0.
          2    1    3    3  502    0  0.48042269006E+01 -0.39492718686E+02  0.11647590349E+03  0.12308286444E+03  0.00000000000E+00 0. -1.
         -2    1    3    3    0  502 -0.48042269006E+01  0.39492718686E+02  0.35388555746E+02  0.53245706898E+02  0.00000000000E+00 0.  1.
<mgrwt>
<rscale>  0 0.89604414E+02</rscale>
<asrwt>0</asrwt>
<pdfrwt beam="1">  1        3 0.25245616E-01 0.89604414E+02</pdfrwt>
<pdfrwt beam="2">  1       -3 0.18818549E-02 0.89604414E+02</pdfrwt>
<totfact> 0.31199034E+04</totfact>
</mgrwt>
</event>
<event>
 5    1  0.4067226E+001  0.9155611E+02  0.7546771E-02  0.1299127E+00
         -1   -1    0    0    0  501 -0.00000000000E+00  0.00000000000E+00  0.22092528890E+01  0.22092528890E+01  0.00000000000E+00 0.  1.
          1   -1    0    0  501    0  0.00000000000E+00 -0.00000000000E+00 -0.94856976302E+03  0.94856976302E+03  0.00000000000E+00 0. -1.
         23    2    1    2    0    0  0.00000000000E+00  0.00000000000E+00 -0.94636051013E+03  0.95077901591E+03  0.91556113709E+02 0.  0.
          2    1    3    3  502    0  0.39843611830E+02  0.57598844009E+01 -0.69949454964E+03  0.70065206390E+03  0.00000000000E+00 0. -1.
         -2    1    3    3    0  502 -0.39843611830E+02 -0.57598844009E+01 -0.24686596049E+03  0.25012695201E+03  0.00000000000E+00 0.  1.
<mgrwt>
<rscale>  0 0.91556114E+02</rscale>
<asrwt>0</asrwt>
<pdfrwt beam="2">  1        1 0.14593398E+00 0.91556114E+02</pdfrwt>
<pdfrwt beam="1">  1       -1 0.33988467E-03 0.91556114E+02</pdfrwt>
<totfact> 0.13625438E+05</totfact>
</mgrwt>
</event>
<event>
 5    1  0.4067226E+001  0.9182854E+02  0.7546771E-02  0.1298483E+00
         -1   -1    0    0    0  501 -0.00000000000E+00  0.00000000000E+00  0.86033009371E+00  0.86033009371E+00  0.00000000000E+00 0.  1.
          1   -1    0    0  501    0  0.00000000000E+00 -0.00000000000E+00 -0.24503618446E+04  0.24503618446E+04  0.00000000000E+00 0. -1.
         23    2    1    2    0    0  0.00000000000E+00  0.00000000000E+00 -0.24495015145E+04  0.24512221747E+04  0.91828536641E+02 0.  0.
          2    1    3    3  502    0  0.37983141915E+02 -0.51899851329E+01 -0.18992377321E+04  0.18996245993E+04  0.00000000000E+00 0. -1.
         -2    1    3    3    0  502 -0.37983141915E+02  0.51899851329E+01 -0.55026378240E+03  0.55159757544E+03  0.00000000000E+00 0.  1.
<mgrwt>
<rscale>  0 0.91828537E+02</rscale>
<asrwt>0</asrwt>
<pdfrwt beam="2">  1        1 0.37697578E+00 0.91828537E+02</pdfrwt>
<pdfrwt beam="1">  1       -1 0.13235952E-03 0.91828537E+02</pdfrwt>
<totfact> 0.53729711E+04</totfact>
</mgrwt>
</event>
<event>
 5    1  0.4067226E+001  0.8868398E+02  0.7546771E-02  0.1306070E+00
         -2   -1    0    0    0  501 -0.00000000000E+00  0.00000000000E+00  0.24220077514E+02  0.24220077514E+02  0.00000000000E+00 0. -1.
          2   -1    0    0  501    0  0.00000000000E+00 -0.00000000000E+00 -0.81181077189E+02  0.81181077189E+02  0.00000000000E+00 0.  1.
         23    2    1    2    0    0  0.00000000000E+00  0.00000000000E+00 -0.56960999675E+02  0.10540115470E+03  0.88683977858E+02 0.  0.
          2    1    3    3  502    0  0.59827066388E+01 -0.19309853291E+02  0.18424704351E+02  0.27352018998E+02  0.00000000000E+00 0. -1.
         -2    1    3    3    0  502 -0.59827066388E+01  0.19309853291E+02 -0.75385704026E+02  0.78049135705E+02  0.00000000000E+00 0.  1.
<mgrwt>
<rscale>  0 0.88683978E+02</rscale>
<asrwt>0</asrwt>
<pdfrwt beam="2">  1        2 0.12489396E-01 0.88683978E+02</pdfrwt>
<pdfrwt beam="1">  1       -2 0.37261658E-02 0.88683978E+02</pdfrwt>
<totfact> 0.12454157E+05</totfact>
</mgrwt>
</event>
<event>
 5    1  0.4067226E+001  0.8585942E+02  0.7546771E-02  0.1313200E+00
          3   -1    0    0  501    0  0.00000000000E+00  0.00000000000E+00  0.12208515596E+02  0.12208515596E+02  0.00000000000E+00 0. -1.
         -3   -1    0    0    0  501 -0.00000000000E+00 -0.00000000000E+00 -0.15095694201E+03  0.15095694201E+03  0.00000000000E+00 0.  1.
         23    2    1    2    0    0  0.00000000000E+00  0.00000000000E+00 -0.13874842641E+03  0.16316545760E+03  0.85859424195E+02 0.  0.
          2    1    3    3  502    0 -0.41694246515E+02 -0.13811586571E+01 -0.50120981931E+02  0.65210663402E+02  0.00000000000E+00 0. -1.
         -2    1    3    3    0  502  0.41694246515E+02  0.13811586571E+01 -0.88627444480E+02  0.97954794200E+02  0.00000000000E+00 0.  1.
<mgrwt>
<rscale>  0 0.85859424E+02</rscale>
<asrwt>0</asrwt>
<pdfrwt beam="1">  1        3 0.18782331E-02 0.85859424E+02</pdfrwt>
<pdfrwt beam="2">  1       -3 0.23224146E-01 0.85859424E+02</pdfrwt>
<totfact> 0.35879849E+04</totfact>
</mgrwt>
</event>
<event>
 5    1  0.4067226E+001  0.9520555E+02  0.7546771E-02  0.1290714E+00
          2   -1    0    0  501    0  0.00000000000E+00  0.00000000000E+00  0.11146781846E+04  0.11146781846E+04  0.00000000000E+00 0. -1.
         -2   -1    0    0    0  501 -0.00000000000E+00 -0.00000000000E+00 -0.20328955244E+01  0.20328955244E+01  0.00000000000E+00 0.  1.
         23    2    1    2    0    0  0.00000000000E+00  0.00000000000E+00  0.11126452890E+04  0.11167110801E+04  0.95205552202E+02 0.  0.
          2    1    3    3  502    0 -0.33641649796E+01  0.44992469183E+02  0.37828776856E+03  0.38096886452E+03  0.00000000000E+00 0. -1.
         -2    1    3    3    0  502  0.33641649796E+01 -0.44992469183E+02  0.73435752048E+03  0.73574221557E+03  0.00000000000E+00 0.  1.
<mgrwt>
<rscale>  0 0.95205552E+02</rscale>
<asrwt>0</asrwt>
<pdfrwt beam="1">  1        2 0.17148846E+00 0.95205552E+02</pdfrwt>
<pdfrwt beam="2">  1       -2 0.31275405E-03 0.95205552E+02</pdfrwt>
<totfact> 0.22311174E+05</totfact>
</mgrwt>
</event>
<event>
 5    1  0.4067226E+001  0.8817410E+02  0.7546771E-02  0.1307335E+00
         -1   -1    0    0    0  501 -0.00000000000E+00  0.00000000000E+00  0.21276867304E+02  0.21276867304E+02  0.00000000000E+00 0.  1.
          1   -1    0    0  501    0  0.00000000000E+00 -0.00000000000E+00 -0.91351238852E+02  0.91351238852E+02  0.00000000000E+00 0. -1.
         23    2    1    2    0    0  0.00000000000E+00  0.00000000000E+00 -0.70074371548E+02  0.11262810616E+03  0.88174104751E+02 0.  0.
          2    1    3    3  502    0  0.42800612042E+02  0.51992744128E+01 -0.46795864243E+02  0.63630006725E+02  0.00000000000E+00 0.  1.
         -2    1    3    3    0  502 -0.42800612042E+02 -0.51992744128E+01 -0.23278507304E+02  0.48998099431E+02  0.00000000000E+00 0. -1.
<mgrwt>
<rscale>  0 0.88174105E+02</rscale>
<asrwt>0</asrwt>
<pdfrwt beam="2">  1        1 0.14054037E-01 0.88174105E+02</pdfrwt>
<pdfrwt beam="1">  1       -1 0.32733641E-02 0.88174105E+02</pdfrwt>
<totfact> 0.11274211E+05</totfact>
</mgrwt>
</event>
<event>
 5    1  0.4067226E+001  0.9088177E+02  0.7546771E-02  0.1300730E+00
          2   -1    0    0  501    0  0.00000000000E+00  0.00000000000E+00  0.13721601522E+03  0.13721601522E+03  0.00000000000E+00 0. -1.
         -2   -1    0    0    0  501 -0.00000000000E+00 -0.00000000000E+00 -0.15048344603E+02  0.15048344603E+02  0.00000000000E+00 0.  1.
         23    2    1    2    0    0  0.00000000000E+00  0.00000000000E+00  0.12216767062E+03  0.15226435983E+03  0.90881766754E+02 0.  0.
          2    1    3    3  502    0 -0.28510003711E+02  0.34237058507E+02  0.76057684230E+02  0.88146286463E+02  0.00000000000E+00 0. -1.
         -2    1    3    3    0  502  0.28510003711E+02 -0.34237058507E+02  0.46109986390E+02  0.64118073363E+02  0.00000000000E+00 0.  1.
<mgrwt>
<rscale>  0 0.90881767E+02</rscale>
<asrwt>0</asrwt>
<pdfrwt beam="1">  1        2 0.21110155E-01 0.90881767E+02</pdfrwt>
<pdfrwt beam="2">  1       -2 0.23151300E-02 0.90881767E+02</pdfrwt>
<totfact> 0.13688325E+05</totfact>
</mgrwt>
</event>
<event>
 5    1  0.4067226E+001  0.9230671E+02  0.7546771E-02  0.1297360E+00
          2   -1    0    0  501    0  0.00000000000E+00  0.00000000000E+00  0.83878453091E+02  0.83878453091E+02  0.00000000000E+00 0. -1.
         -2   -1    0    0    0  501 -0.00000000000E+00 -0.00000000000E+00 -0.25395461813E+02  0.25395461813E+02  0.00000000000E+00 0.  1.
         23    2    1    2    0    0  0.00000000000E+00  0.00000000000E+00  0.58482991278E+02  0.10927391490E+03  0.92306707284E+02 0.  0.
          2    1    3    3  502    0 -0.97630295504E-02  0.25242741139E+02  0.74982303972E+02  0.79117267296E+02  0.00000000000E+00 0. -1.
         -2    1    3    3    0  502  0.97630295504E-02 -0.25242741139E+02 -0.16499312694E+02  0.30156647607E+02  0.00000000000E+00 0.  1.
<mgrwt>
<rscale>  0 0.92306707E+02</rscale>
<asrwt>0</asrwt>
<pdfrwt beam="1">  1        2 0.12904377E-01 0.92306707E+02</pdfrwt>
<pdfrwt beam="2">  1       -2 0.39069942E-02 0.92306707E+02</pdfrwt>
<totfact> 0.11251456E+05</totfact>
</mgrwt>
</event>
<event>
 5    1  0.4067226E+001  0.9170360E+02  0.7546771E-02  0.1298778E+00
          3   -1    0    0  501    0  0.00000000000E+00  0.00000000000E+00  0.93587908483E+01  0.93587908483E+01  0.00000000000E+00 0. -1.
         -3   -1    0    0    0  501 -0.00000000000E+00 -0.00000000000E+00 -0.22464307372E+03  0.22464307372E+03  0.00000000000E+00 0.  1.
         23    2    1    2    0    0  0.00000000000E+00  0.00000000000E+00 -0.21528428288E+03  0.23400186457E+03  0.91703599548E+02 0.  0.
          2    1    3    3  502    0 -0.29261394305E+02  0.35156541174E+02 -0.11578207010E+03  0.12448975596E+03  0.00000000000E+00 0.  1.
         -2    1    3    3    0  502  0.29261394305E+02 -0.35156541174E+02 -0.99502212779E+02  0.10951210861E+03  0.00000000000E+00 0. -1.
<mgrwt>
<rscale>  0 0.91703600E+02</rscale>
<asrwt>0</asrwt>
<pdfrwt beam="1">  1        3 0.14398141E-02 0.91703600E+02</pdfrwt>
<pdfrwt beam="2">  1       -3 0.34560470E-01 0.91703600E+02</pdfrwt>
<totfact> 0.26414161E+04</totfact>
</mgrwt>
</event>
<event>
 5    1  0.4067226E+001  0.9027142E+02  0.7546771E-02  0.1302196E+00
         -1   -1    0    0    0  501 -0.00000000000E+00  0.00000000000E+00  0.23988012851E+01  0.23988012851E+01  0.00000000000E+00 0.  1.
          1   -1    0    0  501    0  0.00000000000E+00 -0.00000000000E+00 -0.84927090834E+03  0.84927090834E+03  0.00000000000E+00 0. -1.
         23    2    1    2    0    0  0.00000000000E+00  0.00000000000E+00 -0.84687210706E+03  0.85166970963E+03  0.90271416213E+02 0.  0.
          2    1    3    3  502    0 -0.15801786340E+02  0.39294654587E+02 -0.57064694459E+03  0.57221648150E+03  0.00000000000E+00 0. -1.
         -2    1    3    3    0  502  0.15801786340E+02 -0.39294654587E+02 -0.27622516246E+03  0.27945322812E+03  0.00000000000E+00 0.  1.
<mgrwt>
<rscale>  0 0.90271416E+02</rscale>
<asrwt>0</asrwt>
<pdfrwt beam="2">  1        1 0.13065706E+00 0.90271416E+02</pdfrwt>
<pdfrwt beam="1">  1       -1 0.36904635E-03 0.90271416E+02</pdfrwt>
<totfact> 0.14414558E+05</totfact>
</mgrwt>
</event>
<event>
 5    1  0.4067226E+001  0.9223421E+02  0.7546771E-02  0.1297530E+00
          1   -1    0    0  501    0  0.00000000000E+00  0.00000000000E+00  0.15639939796E+02  0.15639939796E+02  0.00000000000E+00 0. -1.
         -1   -1    0    0    0  501 -0.00000000000E+00 -0.00000000000E+00 -0.13598436780E+03  0.13598436780E+03  0.00000000000E+00 0.  1.
         23    2    1    2    0    0  0.00000000000E+00  0.00000000000E+00 -0.12034442800E+03  0.15162430759E+03  0.92234208958E+02 0.  0.
          2    1    3    3  502    0  0.27507724075E+02  0.20159575916E+01  0.58667720975E+00  0.27587735662E+02  0.00000000000E+00 0. -1.
         -2    1    3    3    0  502 -0.27507724075E+02 -0.20159575916E+01 -0.12093110521E+03  0.12403657193E+03  0.00000000000E+00 0.  1.
<mgrwt>
<rscale>  0 0.92234209E+02</rscale>
<asrwt>0</asrwt>
<pdfrwt beam="1">  1        1 0.24061446E-02 0.92234209E+02</pdfrwt>
<pdfrwt beam="2">  1       -1 0.20920671E-01 0.92234209E+02</pdfrwt>
<totfact> 0.74219385E+04</totfact>
</mgrwt>
</event>
<event>
 5    1  0.4067226E+001  0.9127948E+02  0.7546771E-02  0.1299783E+00
          1   -1    0    0  501    0  0.00000000000E+00  0.00000000000E+00  0.50617547937E+03  0.50617547937E+03  0.00000000000E+00 0. -1.
         -1   -1    0    0    0  501 -0.00000000000E+00 -0.00000000000E+00 -0.41151457920E+01  0.41151457920E+01  0.00000000000E+00 0.  1.
         23    2    1    2    0    0  0.00000000000E+00  0.00000000000E+00  0.50206033357E+03  0.51029062516E+03  0.91279480584E+02 0.  0.
          2    1    3    3  502    0  0.18591147729E+02 -0.41066556987E+02  0.29091185461E+03  0.29438376319E+03  0.00000000000E+00 0. -1.
         -2    1    3    3    0  502 -0.18591147729E+02  0.41066556987E+02  0.21114847897E+03  0.21590686197E+03  0.00000000000E+00 0.  1.
<mgrwt>
<rscale>  0 0.91279481E+02</rscale>
<asrwt>0</asrwt>
<pdfrwt beam="1">  1        1 0.77873101E-01 0.91279481E+02</pdfrwt>
<pdfrwt beam="2">  1       -1 0.63309975E-03 0.91279481E+02</pdfrwt>
<totfact> 0.13904889E+05</totfact>
</mgrwt>
</event>
<event>
 5    1  0.4067226E+001  0.9179773E+02  0.7546771E-02  0.1298556E+00
          1   -1    0    0  501    0  0.00000000000E+00  0.00000000000E+00  0.29930266093E+02  0.29930266093E+02  0.00000000000E+00 0. -1.
         -1   -1    0    0    0  501 -0.00000000000E+00 -0.00000000000E+00 -0.70387133072E+02  0.70387133072E+02  0.00000000000E+00 0.  1.
         23    2    1    2    0    0  0.00000000000E+00  0.00000000000E+00 -0.40456866980E+02  0.10031739917E+03  0.91797725949E+02 0.  0.
          2    1    3    3  502    0 -0.20281084546E+02 -0.38865107973E+02 -0.53691771107E+01  0.44166130360E+02  0.00000000000E+00 0. -1.
         -2    1    3    3    0  502  0.20281084546E+02  0.38865107973E+02 -0.35087689869E+02  0.56151268805E+02  0.00000000000E+00 0.  1.
<mgrwt>
<rscale>  0 0.91797726E+02</rscale>
<asrwt>0</asrwt>
<pdfrwt beam="1">  1        1 0.46046564E-02 0.91797726E+02</pdfrwt>
<pdfrwt beam="2">  1       -1 0.10828790E-01 0.91797726E+02</pdfrwt>
<totfact> 0.84977082E+04</totfact>
</mgrwt>
</event>
<event>
 5    1  0.4067226E+001  0.9085821E+02  0.7546771E-02  0.1300787E+00
         -1   -1    0    0    0  501 -0.00000000000E+00  0.00000000000E+00  0.32370299311E+02  0.32370299311E+02  0.00000000000E+00 0.  1.
          1   -1    0    0  501    0  0.00000000000E+00 -0.00000000000E+00 -0.63756091659E+02  0.63756091659E+02  0.00000000000E+00 0. -1.
         23    2    1    2    0    0  0.00000000000E+00  0.00000000000E+00 -0.31385792348E+02  0.96126390971E+02  0.90858214157E+02 0.  0.
          2    1    3    3  502    0  0.43808499161E+02 -0.98785102565E+01 -0.84370953811E+01  0.45694136846E+02  0.00000000000E+00 0.  1.
         -2    1    3    3    0  502 -0.43808499161E+02  0.98785102565E+01 -0.22948696967E+02  0.50432254125E+02  0.00000000000E+00 0. -1.
<mgrwt>
<rscale>  0 0.90858214E+02</rscale>
<asrwt>0</asrwt>
<pdfrwt beam="2">  1        1 0.98086295E-02 0.90858214E+02</pdfrwt>
<pdfrwt beam="1">  1       -1 0.49800460E-02 0.90858214E+02</pdfrwt>
<totfact> 0.98210318E+04</totfact>
</mgrwt>
</event>
<event>
 5    1  0.4067226E+001  0.9169246E+02  0.7546771E-02  0.1298804E+00
         -3   -1    0    0    0  501 -0.00000000000E+00  0.00000000000E+00  0.63152432122E+01  0.63152432122E+01  0.00000000000E+00 0.  1.
          3   -1    0    0  501    0  0.00000000000E+00 -0.00000000000E+00 -0.33282594870E+03  0.33282594870E+03  0.00000000000E+00 0. -1.
         23    2    1    2    0    0  0.00000000000E+00  0.00000000000E+00 -0.32651070549E+03  0.33914119192E+03  0.91692460179E+02 0.  0.
          2    1    3    3  502    0  0.35508533794E+02 -0.92569265893E+01 -0.26490721223E+03  0.26743667990E+03  0.00000000000E+00 0. -1.
         -2    1    3    3    0  502 -0.35508533794E+02  0.92569265893E+01 -0.61603493260E+02  0.71704512019E+02  0.00000000000E+00 0.  1.
<mgrwt>
<rscale>  0 0.91692460E+02</rscale>
<asrwt>0</asrwt>
<pdfrwt beam="2">  1        3 0.51204005E-01 0.91692460E+02</pdfrwt>
<pdfrwt beam="1">  1       -3 0.97157563E-03 0.91692460E+02</pdfrwt>
<totfact> 0.22252453E+04</totfact>
</mgrwt>
</event>
<event>
 5    1  0.4067226E+001  0.8647410E+02  0.7546771E-02  0.1311622E+00
          1   -1    0    0  501    0  0.00000000000E+00  0.00000000000E+00  0.17578717301E+02  0.17578717301E+02  0.00000000000E+00 0. -1.
         -1   -1    0    0    0  501 -0.00000000000E+00 -0.00000000000E+00 -0.10634693367E+03  0.10634693367E+03  0.00000000000E+00 0.  1.
         23    2    1    2    0    0  0.00000000000E+00  0.00000000000E+00 -0.88768216371E+02  0.12392565097E+03  0.86474104397E+02 0.  0.
          2    1    3    3  502    0 -0.11701693752E+02  0.41622011272E+02 -0.44883072079E+02  0.62320234421E+02  0.00000000000E+00 0.  1.
         -2    1    3    3    0  502  0.11701693752E+02 -0.41622011272E+02 -0.43885144292E+02  0.61605416552E+02  0.00000000000E+00 0. -1.
<mgrwt>
<rscale>  0 0.86474104E+02</rscale>
<asrwt>0</asrwt>
<pdfrwt beam="1">  1        1 0.27044180E-02 0.86474104E+02</pdfrwt>
<pdfrwt beam="2">  1       -1 0.16361067E-01 0.86474104E+02</pdfrwt>
<totfact> 0.92176452E+04</totfact>
</mgrwt>
</event>
<event>
 5    1  0.4067226E+001  0.8850035E+02  0.7546771E-02  0.1306524E+00
          2   -1    0    0  501    0  0.00000000000E+00  0.00000000000E+00  0.30234762513E+04  0.30234762513E+04  0.00000000000E+00 0. -1.
         -2   -1    0    0    0  501 -0.00000000000E+00 -0.00000000000E+00 -0.64762471089E+00  0.64762471089E+00  0.00000000000E+00 0.  1.
         23    2    1    2    0    0  0.00000000000E+00  0.00000000000E+00  0.30228286266E+04  0.30241238760E+04  0.88500348771E+02 0.  0.
          2    1    3    3  502    0  0.35863977540E+02 -0.76462945918E+01  0.23577096717E+04  0.23579948233E+04  0.00000000000E+00 0. -1.
         -2    1    3    3    0  502 -0.35863977540E+02  0.76462945918E+01  0.66511895492E+03  0.66612905274E+03  0.00000000000E+00 0.  1.
<mgrwt>
<rscale>  0 0.88500349E+02</rscale>
<asrwt>0</asrwt>
<pdfrwt beam="1">  1        2 0.46513889E+00 0.88500349E+02</pdfrwt>
<pdfrwt beam="2">  1       -2 0.99636992E-04 0.88500349E+02</pdfrwt>
<totfact> 0.10816184E+05</totfact>
</mgrwt>
</event>
<event>
 5    1  0.4067226E+001  0.9160466E+02  0.7546771E-02  0.1299012E+00
         -1   -1    0    0    0  501 -0.00000000000E+00  0.00000000000E+00  0.10957169673E+02  0.10957169673E+02  0.00000000000E+00 0.  1.
          1   -1    0    0  501    0  0.00000000000E+00 -0.00000000000E+00 -0.19145940796E+03  0.19145940796E+03  0.00000000000E+00 0. -1.
         23    2    1    2    0    0  0.00000000000E+00  0.00000000000E+00 -0.18050223828E+03  0.20241657763E+03  0.91604655308E+02 0.  0.
          2    1    3    3  502    0 -0.22466372751E+01  0.39925382527E+02 -0.13960014121E+03  0.14521461006E+03  0.00000000000E+00 0. -1.
         -2    1    3    3    0  502  0.22466372751E+01 -0.39925382527E+02 -0.40902097077E+02  0.57201967573E+02  0.00000000000E+00 0.  1.
<mgrwt>
<rscale>  0 0.91604655E+02</rscale>
<asrwt>0</asrwt>
<pdfrwt beam="2">  1        1 0.29455293E-01 0.91604655E+02</pdfrwt>
<pdfrwt beam="1">  1       -1 0.16857185E-02 0.91604655E+02</pdfrwt>
<totfact> 0.11594293E+05</totfact>
</mgrwt>
</event>
<event>
 5    1  0.4067226E+001  0.9112073E+02  0.7546771E-02  0.1300160E+00
         -1   -1    0    0    0  501 -0.00000000000E+00  0.00000000000E+00  0.90267651705E+01  0.90267651705E+01  0.00000000000E+00 0.  1.
          1   -1    0    0  501    0  0.00000000000E+00 -0.00000000000E+00 -0.22995467656E+03  0.22995467656E+03  0.00000000000E+00 0. -1.
         23    2    1    2    0    0  0.00000000000E+00  0.00000000000E+00 -0.22092791139E+03  0.23898144173E+03  0.91120730137E+02 0.  0.
          2    1    3    3  502    0  0.26782712808E+02 -0.32221051547E+02 -0.15739743362E+03  0.16287867257E+03  0.00000000000E+00 0. -1.
         -2    1    3    3    0  502 -0.26782712808E+02  0.32221051547E+02 -0.63530477767E+02  0.76102769158E+02  0.00000000000E+00 0.  1.
<mgrwt>
<rscale>  0 0.91120730E+02</rscale>
<asrwt>0</asrwt>
<pdfrwt beam="2">  1        1 0.35377640E-01 0.91120730E+02</pdfrwt>
<pdfrwt beam="1">  1       -1 0.13887332E-02 0.91120730E+02</pdfrwt>
<totfact> 0.12187095E+05</totfact>
</mgrwt>
</event>
<event>
 5    1  0.4067226E+001  0.7949871E+02  0.7546771E-02  0.1330480E+00
          2   -1    0    0  501    0  0.00000000000E+00  0.00000000000E+00  0.10966229008E+03  0.10966229008E+03  0.00000000000E+00 0. -1.
         -2   -1    0    0    0  501 -0.00000000000E+00 -0.00000000000E+00 -0.14407971263E+02  0.14407971263E+02  0.00000000000E+00 0.  1.
         23    2    1    2    0    0  0.00000000000E+00  0.00000000000E+00  0.95254318815E+02  0.12407026134E+03  0.79498707515E+02 0.  0.
          2    1    3    3  502    0  0.24632416588E+02  0.20813510632E+02  0.83895342653E+02  0.89879845854E+02  0.00000000000E+00 0. -1.
         -2    1    3    3    0  502 -0.24632416588E+02 -0.20813510632E+02  0.11358976162E+02  0.34190415488E+02  0.00000000000E+00 0.  1.
<mgrwt>
<rscale>  0 0.79498708E+02</rscale>
<asrwt>0</asrwt>
<pdfrwt beam="1">  1        2 0.16871121E-01 0.79498708E+02</pdfrwt>
<pdfrwt beam="2">  1       -2 0.22166110E-02 0.79498708E+02</pdfrwt>
<totfact> 0.18312434E+05</totfact>
</mgrwt>
</event>
<event>
 5    1  0.4067226E+001  0.9758583E+02  0.7546771E-02  0.1285456E+00
         -2   -1    0    0    0  501 -0.00000000000E+00  0.00000000000E+00  0.66889045348E+02  0.66889045348E+02  0.00000000000E+00 0.  1.
          2   -1    0    0  501    0  0.00000000000E+00 -0.00000000000E+00 -0.35592499808E+02  0.35592499808E+02  0.00000000000E+00 0. -1.
         23    2    1    2    0    0  0.00000000000E+00  0.00000000000E+00  0.31296545541E+02  0.10248154516E+03  0.97585825481E+02 0.  0.
          2    1    3    3  502    0 -0.28467697478E+02 -0.10495284776E+02  0.55777726003E+02  0.63495791359E+02  0.00000000000E+00 0. -1.
         -2    1    3    3    0  502  0.28467697478E+02  0.10495284776E+02 -0.24481180463E+02  0.38985753797E+02  0.00000000000E+00 0.  1.
<mgrwt>
<rscale>  0 0.97585825E+02</rscale>
<asrwt>0</asrwt>
<pdfrwt beam="2">  1        2 0.54757692E-02 0.97585825E+02</pdfrwt>
<pdfrwt beam="1">  1       -2 0.10290622E-01 0.97585825E+02</pdfrwt>
<totfact> 0.75738280E+04</totfact>
</mgrwt>
</event>
<event>
 5    1  0.4067226E+001  0.9459112E+02  0.7546771E-02  0.1292100E+00
          3   -1    0    0  501    0  0.00000000000E+00  0.00000000000E+00  0.29251050428E+01  0.29251050428E+01  0.00000000000E+00 0.  1.
         -3   -1    0    0    0  501 -0.00000000000E+00 -0.00000000000E+00 -0.76471437495E+03  0.76471437495E+03  0.00000000000E+00 0. -1.
         23    2    1    2    0    0  0.00000000000E+00  0.00000000000E+00 -0.76178926991E+03  0.76763947999E+03  0.94591117436E+02 0.  0.
          2    1    3    3  502    0 -0.19367400699E+02 -0.42127717573E+02 -0.45660217497E+03  0.45895030993E+03  0.00000000000E+00 0. -1.
         -2    1    3    3    0  502  0.19367400699E+02  0.42127717573E+02 -0.30518709494E+03  0.30868917006E+03  0.00000000000E+00 0.  1.
<mgrwt>
<rscale>  0 0.94591117E+02</rscale>
<asrwt>0</asrwt>
<pdfrwt beam="1">  1        3 0.45001584E-03 0.94591117E+02</pdfrwt>
<pdfrwt beam="2">  1       -3 0.11764845E+00 0.94591117E+02</pdfrwt>
<totfact> 0.11641017E+04</totfact>
</mgrwt>
</event>
<event>
 5    1  0.4067226E+001  0.9156881E+02  0.7546771E-02  0.1299096E+00
         -2   -1    0    0    0  501 -0.00000000000E+00  0.00000000000E+00  0.19402096070E+03  0.19402096070E+03  0.00000000000E+00 0.  1.
          2   -1    0    0  501    0  0.00000000000E+00 -0.00000000000E+00 -0.10804047347E+02  0.10804047347E+02  0.00000000000E+00 0. -1.
         23    2    1    2    0    0  0.00000000000E+00  0.00000000000E+00  0.18321691335E+03  0.20482500805E+03  0.91568807915E+02 0.  0.
          2    1    3    3  502    0 -0.44442135837E+01  0.45183350656E+02  0.10482769193E+03  0.11423717086E+03  0.00000000000E+00 0. -1.
         -2    1    3    3    0  502  0.44442135837E+01 -0.45183350656E+02  0.78389221427E+02  0.90587837190E+02  0.00000000000E+00 0.  1.
<mgrwt>
<rscale>  0 0.91568808E+02</rscale>
<asrwt>0</asrwt>
<pdfrwt beam="2">  1        2 0.16621613E-02 0.91568808E+02</pdfrwt>
<pdfrwt beam="1">  1       -2 0.29849376E-01 0.91568808E+02</pdfrwt>
<totfact> 0.62447902E+04</totfact>
</mgrwt>
</event>
<event>
 5    1  0.4067226E+001  0.9781987E+02  0.7546771E-02  0.1284948E+00
          2   -1    0    0  501    0  0.00000000000E+00  0.00000000000E+00  0.24002704041E+04  0.24002704041E+04  0.00000000000E+00 0. -1.
         -2   -1    0    0    0  501 -0.00000000000E+00 -0.00000000000E+00 -0.99663009727E+00  0.99663009727E+00  0.00000000000E+00 0.  1.
         23    2    1    2    0    0  0.00000000000E+00  0.00000000000E+00  0.23992737740E+04  0.24012670342E+04  0.97819869685E+02 0.  0.
          2    1    3    3  502    0 -0.36053243109E+02  0.10291842346E+02  0.19706203359E+04  0.19709769827E+04  0.00000000000E+00 0. -1.
         -2    1    3    3    0  502  0.36053243109E+02 -0.10291842346E+02  0.42865343810E+03  0.43029005142E+03  0.00000000000E+00 0.  1.
<mgrwt>
<rscale>  0 0.97819870E+02</rscale>
<asrwt>0</asrwt>
<pdfrwt beam="1">  1        2 0.36926774E+00 0.97819870E+02</pdfrwt>
<pdfrwt beam="2">  1       -2 0.15332963E-03 0.97819870E+02</pdfrwt>
<totfact> 0.13131622E+05</totfact>
</mgrwt>
</event>
<event>
 5    1  0.4067226E+001  0.9082031E+02  0.7546771E-02  0.1300877E+00
          4   -1    0    0  501    0  0.00000000000E+00  0.00000000000E+00  0.36709997892E+02  0.36709997892E+02  0.00000000000E+00 0. -1.
         -4   -1    0    0    0  501 -0.00000000000E+00 -0.00000000000E+00 -0.56172225511E+02  0.56172225511E+02  0.00000000000E+00 0.  1.
         23    2    1    2    0    0  0.00000000000E+00  0.00000000000E+00 -0.19462227619E+02  0.92882223403E+02  0.90820312267E+02 0.  0.
          2    1    3    3  502    0  0.47660735956E+01  0.23451836315E+02  0.29737521293E+02  0.38170987107E+02  0.00000000000E+00 0. -1.
         -2    1    3    3    0  502 -0.47660735956E+01 -0.23451836315E+02 -0.49199748912E+02  0.54711236296E+02  0.00000000000E+00 0.  1.
<mgrwt>
<rscale>  0 0.90820312E+02</rscale>
<asrwt>0</asrwt>
<pdfrwt beam="1">  1        4 0.56476920E-02 0.90820312E+02</pdfrwt>
<pdfrwt beam="2">  1       -4 0.86418808E-02 0.90820312E+02</pdfrwt>
<totfact> 0.27194368E+04</totfact>
</mgrwt>
</event>
<event>
 5    1  0.4067226E+001  0.9070044E+02  0.7546771E-02  0.1301164E+00
          1   -1    0    0  501    0  0.00000000000E+00  0.00000000000E+00  0.16839402485E+04  0.16839402485E+04  0.00000000000E+00 0. -1.
         -1   -1    0    0    0  501 -0.00000000000E+00 -0.00000000000E+00 -0.12213275187E+01  0.12213275187E+01  0.00000000000E+00 0.  1.
         23    2    1    2    0    0  0.00000000000E+00  0.00000000000E+00  0.16827189210E+04  0.16851615760E+04  0.90700442455E+02 0.  0.
          2    1    3    3  502    0 -0.29215926144E+02  0.15777092941E+02  0.26745217780E+03  0.26950538847E+03  0.00000000000E+00 0.  1.
         -2    1    3    3    0  502  0.29215926144E+02 -0.15777092941E+02  0.14152667432E+04  0.14156561876E+04  0.00000000000E+00 0. -1.
<mgrwt>
<rscale>  0 0.90700442E+02</rscale>
<asrwt>0</asrwt>
<pdfrwt beam="1">  1        1 0.25906587E+00 0.90700442E+02</pdfrwt>
<pdfrwt beam="2">  1       -1 0.18789789E-03 0.90700442E+02</pdfrwt>
<totfact> 0.10058613E+05</totfact>
</mgrwt>
</event>
<event>
 5    1  0.4067226E+001  0.9898516E+02  0.7546771E-02  0.1282445E+00
          1   -1    0    0  501    0  0.00000000000E+00  0.00000000000E+00  0.46873197606E+03  0.46873197606E+03  0.00000000000E+00 0. -1.
         -1   -1    0    0    0  501 -0.00000000000E+00 -0.00000000000E+00 -0.52258335364E+01  0.52258335364E+01  0.00000000000E+00 0.  1.
         23    2    1    2    0    0  0.00000000000E+00  0.00000000000E+00  0.46350614252E+03  0.47395780960E+03  0.98985156061E+02 0.  0.
          2    1    3    3  502    0  0.32839557846E+02 -0.36792780798E+02  0.25170888960E+03  0.25649465956E+03  0.00000000000E+00 0. -1.
         -2    1    3    3    0  502 -0.32839557846E+02  0.36792780798E+02  0.21179725292E+03  0.21746315004E+03  0.00000000000E+00 0.  1.
<mgrwt>
<rscale>  0 0.98985156E+02</rscale>
<asrwt>0</asrwt>
<pdfrwt beam="1">  1        1 0.72112578E-01 0.98985156E+02</pdfrwt>
<pdfrwt beam="2">  1       -1 0.80397476E-03 0.98985156E+02</pdfrwt>
<totfact> 0.11098760E+05</totfact>
</mgrwt>
</event>
<event>
 5    1  0.4067226E+001  0.9245159E+02  0.7546771E-02  0.1297021E+00
         -2   -1    0    0    0  501 -0.00000000000E+00  0.00000000000E+00  0.10556436636E+01  0.10556436636E+01  0.00000000000E+00 0.  1.
          2   -1    0    0  501    0  0.00000000000E+00 -0.00000000000E+00 -0.20241907687E+04  0.20241907687E+04  0.00000000000E+00 0. -1.
         23    2    1    2    0    0  0.00000000000E+00  0.00000000000E+00 -0.20231351251E+04  0.20252464124E+04  0.92451590769E+02 0.  0.
          2    1    3    3  502    0  0.22213120677E+02 -0.22694932519E+02 -0.17474081817E+04  0.17476967232E+04  0.00000000000E+00 0. -1.
         -2    1    3    3    0  502 -0.22213120677E+02  0.22694932519E+02 -0.27572694336E+03  0.27754968922E+03  0.00000000000E+00 0.  1.
<mgrwt>
<rscale>  0 0.92451591E+02</rscale>
<asrwt>0</asrwt>
<pdfrwt beam="2">  1        2 0.31141412E+00 0.92451591E+02</pdfrwt>
<pdfrwt beam="1">  1       -2 0.16240663E-03 0.92451591E+02</pdfrwt>
<totfact> 0.18756300E+05</totfact>
</mgrwt>
</event>
<event>
 4    1  0.4067226E+001  0.1499123E+03  0.7546771E-02  0.1200581E+00
          3   -1    0    0  501    0  0.00000000000E+00  0.00000000000E+00  0.39599591078E+02  0.39599591078E+02  0.00000000000E+00 0. -1.
         -3   -1    0    0    0  501 -0.00000000000E+00 -0.00000000000E+00 -0.14188092188E+03  0.14188092188E+03  0.00000000000E+00 0.  1.
          2    1    1    2  502    0  0.74397445837E+02  0.90648390391E+01 -0.49773605149E+02  0.89969789504E+02  0.00000000000E+00 0. -1.
         -2    1    1    2    0  502 -0.74397445837E+02 -0.90648390391E+01 -0.52507725656E+02  0.91510723456E+02  0.00000000000E+00 0.  1.
<mgrwt>
<rscale>  0 0.14991233E+03</rscale>
<asrwt>0</asrwt>
<pdfrwt beam="1">  1        3 0.60922447E-02 0.14991233E+03</pdfrwt>
<pdfrwt beam="2">  1       -3 0.21827835E-01 0.14991233E+03</pdfrwt>
<totfact> 0.73780604E+03</totfact>
</mgrwt>
</event>
<event>
 5    1  0.4067226E+001  0.9270775E+02  0.7546771E-02  0.1296424E+00
          3   -1    0    0  501    0  0.00000000000E+00  0.00000000000E+00  0.81296792194E+02  0.81296792194E+02  0.00000000000E+00 0. -1.
         -3   -1    0    0    0  501 -0.00000000000E+00 -0.00000000000E+00 -0.26430093601E+02  0.26430093601E+02  0.00000000000E+00 0.  1.
         23    2    1    2    0    0  0.00000000000E+00  0.00000000000E+00  0.54866698593E+02  0.10772688580E+03  0.92707752150E+02 0.  0.
          2    1    3    3  502    0  0.21153597452E+02  0.34971164635E+02  0.52844486146E+02  0.66805664110E+02  0.00000000000E+00 0. -1.
         -2    1    3    3    0  502 -0.21153597452E+02 -0.34971164635E+02  0.20222124471E+01  0.40921221686E+02  0.00000000000E+00 0.  1.
<mgrwt>
<rscale>  0 0.92707752E+02</rscale>
<asrwt>0</asrwt>
<pdfrwt beam="1">  1        3 0.12507199E-01 0.92707752E+02</pdfrwt>
<pdfrwt beam="2">  1       -3 0.40661683E-02 0.92707752E+02</pdfrwt>
<totfact> 0.32593787E+04</totfact>
</mgrwt>
</event>
<event>
 5    1  0.4067226E+001  0.9541451E+02  0.7546771E-02  0.1290245E+00
          3   -1    0    0  501    0  0.00000000000E+00  0.00000000000E+00  0.65323092501E+03  0.65323092501E+03  0.00000000000E+00 0. -1.
         -3   -1    0    0    0  501 -0.00000000000E+00 -0.00000000000E+00 -0.34841919966E+01  0.34841919966E+01  0.00000000000E+00 0.  1.
         23    2    1    2    0    0  0.00000000000E+00  0.00000000000E+00  0.64974673301E+03  0.65671511701E+03  0.95414505414E+02 0.  0.
          2    1    3    3  502    0  0.42976011108E+02 -0.95053276496E+01  0.45154105156E+03  0.45368117663E+03  0.00000000000E+00 0. -1.
         -2    1    3    3    0  502 -0.42976011108E+02  0.95053276496E+01  0.19820568145E+03  0.20303394038E+03  0.00000000000E+00 0.  1.
<mgrwt>
<rscale>  0 0.95414505E+02</rscale>
<asrwt>0</asrwt>
<pdfrwt beam="1">  1        3 0.10049697E+00 0.95414505E+02</pdfrwt>
<pdfrwt beam="2">  1       -3 0.53603006E-03 0.95414505E+02</pdfrwt>
<totfact> 0.12988991E+04</totfact>
</mgrwt>
</event>
<event>
 5    1  0.4067226E+001  0.8934933E+02  0.7546771E-02  0.1304435E+00
          1   -1    0    0  501    0  0.00000000000E+00  0.00000000000E+00  0.42311744724E+02  0.42311744724E+02  0.00000000000E+00 0. -1.
         -1   -1    0    0    0  501 -0.00000000000E+00 -0.00000000000E+00 -0.47169547433E+02  0.47169547433E+02  0.00000000000E+00 0.  1.
         23    2    1    2    0    0  0.00000000000E+00  0.00000000000E+00 -0.48578027093E+01  0.89481292157E+02  0.89349333511E+02 0.  0.
          2    1    3    3  502    0  0.21574246058E+02  0.37986608688E+02 -0.11791254336E+02  0.45248913925E+02  0.00000000000E+00 0. -1.
         -2    1    3    3    0  502 -0.21574246058E+02 -0.37986608688E+02  0.69334516271E+01  0.44232378232E+02  0.00000000000E+00 0.  1.
<mgrwt>
<rscale>  0 0.89349334E+02</rscale>
<asrwt>0</asrwt>
<pdfrwt beam="1">  1        1 0.65094992E-02 0.89349334E+02</pdfrwt>
<pdfrwt beam="2">  1       -1 0.72568534E-02 0.89349334E+02</pdfrwt>
<totfact> 0.96791512E+04</totfact>
</mgrwt>
</event>
<event>
 5    1  0.4067226E+001  0.9110878E+02  0.7546771E-02  0.1300189E+00
         -2   -1    0    0    0  501 -0.00000000000E+00  0.00000000000E+00  0.47667327030E+02  0.47667327030E+02  0.00000000000E+00 0.  1.
          2   -1    0    0  501    0  0.00000000000E+00 -0.00000000000E+00 -0.43535114443E+02  0.43535114443E+02  0.00000000000E+00 0. -1.
         23    2    1    2    0    0  0.00000000000E+00  0.00000000000E+00  0.41322125863E+01  0.91202441473E+02  0.91108781957E+02 0.  0.
          2    1    3    3  502    0 -0.91692787399E+01 -0.23466151771E+02 -0.35926388986E+02  0.43879851608E+02  0.00000000000E+00 0. -1.
         -2    1    3    3    0  502  0.91692787399E+01  0.23466151771E+02  0.40058601573E+02  0.47322589865E+02  0.00000000000E+00 0.  1.
<mgrwt>
<rscale>  0 0.91108782E+02</rscale>
<asrwt>0</asrwt>
<pdfrwt beam="2">  1        2 0.66977099E-02 0.91108782E+02</pdfrwt>
<pdfrwt beam="1">  1       -2 0.73334349E-02 0.91108782E+02</pdfrwt>
<totfact> 0.97712589E+04</totfact>
</mgrwt>
</event>
<event>
 5    1  0.4067226E+001  0.9166522E+02  0.7546771E-02  0.1298869E+00
         -1   -1    0    0    0  501 -0.00000000000E+00  0.00000000000E+00  0.29653791058E+03  0.29653791058E+03  0.00000000000E+00 0.  1.
          1   -1    0    0  501    0  0.00000000000E+00 -0.00000000000E+00 -0.70838436680E+01  0.70838436680E+01  0.00000000000E+00 0. -1.
         23    2    1    2    0    0  0.00000000000E+00  0.00000000000E+00  0.28945406691E+03  0.30362175424E+03  0.91665221326E+02 0.  0.
          2    1    3    3  502    0  0.19654858750E+02  0.28472554533E+02  0.45158245264E+02  0.56888196925E+02  0.00000000000E+00 0. -1.
         -2    1    3    3    0  502 -0.19654858750E+02 -0.28472554533E+02  0.24429582164E+03  0.24673355732E+03  0.00000000000E+00 0.  1.
<mgrwt>
<rscale>  0 0.91665221E+02</rscale>
<asrwt>0</asrwt>
<pdfrwt beam="2">  1        1 0.10898223E-02 0.91665221E+02</pdfrwt>
<pdfrwt beam="1">  1       -1 0.45621207E-01 0.91665221E+02</pdfrwt>
<totfact> 0.60017494E+04</totfact>
</mgrwt>
</event>
<event>
 5    1  0.4067226E+001  0.9032980E+02  0.7546771E-02  0.1302055E+00
          1   -1    0    0  501    0  0.00000000000E+00  0.00000000000E+00  0.83573588128E+01  0.83573588128E+01  0.00000000000E+00 0. -1.
         -1   -1    0    0    0  501 -0.00000000000E+00 -0.00000000000E+00 -0.24408048670E+03  0.24408048670E+03  0.00000000000E+00 0.  1.
         23    2    1    2    0    0  0.00000000000E+00  0.00000000000E+00 -0.23572312789E+03  0.25243784552E+03  0.90329800323E+02 0.  0.
          2    1    3    3  502    0 -0.27538247870E+02 -0.20013880291E+02 -0.34914514087E+02  0.48764062525E+02  0.00000000000E+00 0. -1.
         -2    1    3    3    0  502  0.27538247870E+02  0.20013880291E+02 -0.20080861380E+03  0.20367378299E+03  0.00000000000E+00 0.  1.
<mgrwt>
<rscale>  0 0.90329800E+02</rscale>
<asrwt>0</asrwt>
<pdfrwt beam="1">  1        1 0.12857475E-02 0.90329800E+02</pdfrwt>
<pdfrwt beam="2">  1       -1 0.37550844E-01 0.90329800E+02</pdfrwt>
<totfact> 0.66897074E+04</totfact>
</mgrwt>
</event>
<event>
 5    1  0.4067226E+001  0.9086837E+02  0.7546771E-02  0.1300762E+00
          1   -1    0    0  501    0  0.00000000000E+00  0.00000000000E+00  0.10241120535E+04  0.10241120535E+04  0.00000000000E+00 0. -1.
         -1   -1    0    0    0  501 -0.00000000000E+00 -0.00000000000E+00 -0.20156633151E+01  0.20156633151E+01  0.00000000000E+00 0.  1.
         23    2    1    2    0    0  0.00000000000E+00  0.00000000000E+00  0.10220963902E+04  0.10261277168E+04  0.90868368464E+02 0.  0.
          2    1    3    3  502    0 -0.17266093952E+02 -0.21914007215E+02  0.91599337616E+03  0.91641813976E+03  0.00000000000E+00 0. -1.
         -2    1    3    3    0  502  0.17266093952E+02  0.21914007215E+02  0.10610301405E+03  0.10970957708E+03  0.00000000000E+00 0.  1.
<mgrwt>
<rscale>  0 0.90868368E+02</rscale>
<asrwt>0</asrwt>
<pdfrwt beam="1">  1        1 0.15755529E+00 0.90868368E+02</pdfrwt>
<pdfrwt beam="2">  1       -1 0.31010287E-03 0.90868368E+02</pdfrwt>
<totfact> 0.13633463E+05</totfact>
</mgrwt>
</event>
<event>
 5    1  0.4067226E+001  0.8991499E+02  0.7546771E-02  0.1303058E+00
          2   -1    0    0  501    0  0.00000000000E+00  0.00000000000E+00  0.36516167372E+02  0.36516167372E+02  0.00000000000E+00 0. -1.
         -2   -1    0    0    0  501 -0.00000000000E+00 -0.00000000000E+00 -0.55350180228E+02  0.55350180228E+02  0.00000000000E+00 0.  1.
         23    2    1    2    0    0  0.00000000000E+00  0.00000000000E+00 -0.18834012856E+02  0.91866347600E+02  0.89914991971E+02 0.  0.
          2    1    3    3  502    0 -0.27600313582E+02 -0.16064776287E+02  0.22913405695E+02  0.39304942533E+02  0.00000000000E+00 0. -1.
         -2    1    3    3    0  502  0.27600313582E+02  0.16064776287E+02 -0.41747418551E+02  0.52561405067E+02  0.00000000000E+00 0.  1.
<mgrwt>
<rscale>  0 0.89914992E+02</rscale>
<asrwt>0</asrwt>
<pdfrwt beam="1">  1        2 0.56178719E-02 0.89914992E+02</pdfrwt>
<pdfrwt beam="2">  1       -2 0.85154123E-02 0.89914992E+02</pdfrwt>
<totfact> 0.97017745E+04</totfact>
</mgrwt>
</event>
<event>
 5    1  0.4067226E+001  0.1195908E+03  0.7546771E-02  0.1243774E+00
          2   -1    0    0  501    0  0.00000000000E+00  0.00000000000E+00  0.14144014179E+04  0.14144014179E+04  0.00000000000E+00 0. -1.
         -2   -1    0    0    0  501 -0.00000000000E+00 -0.00000000000E+00 -0.25279164542E+01  0.25279164542E+01  0.00000000000E+00 0.  1.
         23    2    1    2    0    0  0.00000000000E+00  0.00000000000E+00  0.14118735014E+04  0.14169293343E+04  0.11959077919E+03 0.  0.
          2    1    3    3  502    0  0.47605422866E+02 -0.36182466750E+02  0.70834838440E+03  0.71086769576E+03  0.00000000000E+00 0. -1.
         -2    1    3    3    0  502 -0.47605422866E+02  0.36182466750E+02  0.70352511701E+03  0.70606163856E+03  0.00000000000E+00 0.  1.
<mgrwt>
<rscale>  0 0.11959078E+03</rscale>
<asrwt>0</asrwt>
<pdfrwt beam="1">  1        2 0.21759959E+00 0.11959078E+03</pdfrwt>
<pdfrwt beam="2">  1       -2 0.38891135E-03 0.11959078E+03</pdfrwt>
<totfact> 0.11669518E+05</totfact>
</mgrwt>
</event>
<event>
 5    1  0.4067226E+001  0.9006757E+02  0.7546771E-02  0.1302688E+00
         -2   -1    0    0    0  501 -0.00000000000E+00  0.00000000000E+00  0.36121457745E+02  0.36121457745E+02  0.00000000000E+00 0.  1.
          2   -1    0    0  501    0  0.00000000000E+00 -0.00000000000E+00 -0.56145070887E+02  0.56145070887E+02  0.00000000000E+00 0. -1.
         23    2    1    2    0    0  0.00000000000E+00  0.00000000000E+00 -0.20023613142E+02  0.92266528632E+02  0.90067570316E+02 0.  0.
          2    1    3    3  502    0 -0.23960501843E+02 -0.30010181741E+02 -0.34108970876E+02  0.51362812919E+02  0.00000000000E+00 0. -1.
         -2    1    3    3    0  502  0.23960501843E+02  0.30010181741E+02  0.14085357735E+02  0.40903715714E+02  0.00000000000E+00 0.  1.
<mgrwt>
<rscale>  0 0.90067570E+02</rscale>
<asrwt>0</asrwt>
<pdfrwt beam="2">  1        2 0.86377032E-02 0.90067570E+02</pdfrwt>
<pdfrwt beam="1">  1       -2 0.55571473E-02 0.90067570E+02</pdfrwt>
<totfact> 0.10787550E+05</totfact>
</mgrwt>
</event>
<event>
 5    1  0.4067226E+001  0.9182025E+02  0.7546771E-02  0.1298503E+00
          2   -1    0    0  501    0  0.00000000000E+00  0.00000000000E+00  0.47910086842E+03  0.47910086842E+03  0.00000000000E+00 0. -1.
         -2   -1    0    0    0  501 -0.00000000000E+00 -0.00000000000E+00 -0.43993645641E+01  0.43993645641E+01  0.00000000000E+00 0.  1.
         23    2    1    2    0    0  0.00000000000E+00  0.00000000000E+00  0.47470150386E+03  0.48350023299E+03  0.91820245767E+02 0.  0.
          2    1    3    3  502    0 -0.33262368004E+02  0.34882746095E+01  0.71736670211E+02  0.79149877055E+02  0.00000000000E+00 0.  1.
         -2    1    3    3    0  502  0.33262368004E+02 -0.34882746095E+01  0.40296483365E+03  0.40435035593E+03  0.00000000000E+00 0. -1.
<mgrwt>
<rscale>  0 0.91820246E+02</rscale>
<asrwt>0</asrwt>
<pdfrwt beam="1">  1        2 0.73707785E-01 0.91820246E+02</pdfrwt>
<pdfrwt beam="2">  1       -2 0.67682570E-03 0.91820246E+02</pdfrwt>
<totfact> 0.20856827E+05</totfact>
</mgrwt>
</event>
<event>
 5    1  0.4067226E+001  0.9147323E+02  0.7546771E-02  0.1299323E+00
         -3   -1    0    0    0  501 -0.00000000000E+00  0.00000000000E+00  0.23337584336E+01  0.23337584336E+01  0.00000000000E+00 0.  1.
          3   -1    0    0  501    0  0.00000000000E+00 -0.00000000000E+00 -0.89633876954E+03  0.89633876954E+03  0.00000000000E+00 0. -1.
         23    2    1    2    0    0  0.00000000000E+00  0.00000000000E+00 -0.89400501111E+03  0.89867252797E+03  0.91473234616E+02 0.  0.
          2    1    3    3  502    0  0.87164843121E+01 -0.40974578360E+02 -0.62734037403E+03  0.62873749535E+03  0.00000000000E+00 0. -1.
         -2    1    3    3    0  502 -0.87164843121E+01  0.40974578360E+02 -0.26666463708E+03  0.26993503262E+03  0.00000000000E+00 0.  1.
<mgrwt>
<rscale>  0 0.91473235E+02</rscale>
<asrwt>0</asrwt>
<pdfrwt beam="2">  1        3 0.13789821E+00 0.91473235E+02</pdfrwt>
<pdfrwt beam="1">  1       -3 0.35903993E-03 0.91473235E+02</pdfrwt>
<totfact> 0.11047933E+04</totfact>
</mgrwt>
</event>
<event>
 5    1  0.4067226E+001  0.9135118E+02  0.7546771E-02  0.1299612E+00
         -2   -1    0    0    0  501 -0.00000000000E+00  0.00000000000E+00  0.19469341031E+01  0.19469341031E+01  0.00000000000E+00 0.  1.
          2   -1    0    0  501    0  0.00000000000E+00 -0.00000000000E+00 -0.10715614503E+04  0.10715614503E+04  0.00000000000E+00 0. -1.
         23    2    1    2    0    0  0.00000000000E+00  0.00000000000E+00 -0.10696145162E+04  0.10735083844E+04  0.91351180204E+02 0.  0.
          2    1    3    3  502    0  0.12265966211E+02 -0.43997063502E+02 -0.53183418280E+03  0.53379190094E+03  0.00000000000E+00 0. -1.
         -2    1    3    3    0  502 -0.12265966211E+02  0.43997063502E+02 -0.53778033338E+03  0.53971648343E+03  0.00000000000E+00 0.  1.
<mgrwt>
<rscale>  0 0.91351180E+02</rscale>
<asrwt>0</asrwt>
<pdfrwt beam="2">  1        2 0.16485568E+00 0.91351180E+02</pdfrwt>
<pdfrwt beam="1">  1       -2 0.29952819E-03 0.91351180E+02</pdfrwt>
<totfact> 0.24906430E+05</totfact>
</mgrwt>
</event>
<event>
 5    1  0.4067226E+001  0.9380782E+02  0.7546771E-02  0.1293884E+00
         -1   -1    0    0    0  501 -0.00000000000E+00  0.00000000000E+00  0.48652406770E+01  0.48652406770E+01  0.00000000000E+00 0.  1.
          1   -1    0    0  501    0  0.00000000000E+00 -0.00000000000E+00 -0.45218255959E+03  0.45218255959E+03  0.00000000000E+00 0. -1.
         23    2    1    2    0    0  0.00000000000E+00  0.00000000000E+00 -0.44731731891E+03  0.45704780027E+03  0.93807824457E+02 0.  0.
          2    1    3    3  502    0  0.30154841048E+02 -0.19374249381E+02 -0.37106105053E+03  0.37278811569E+03  0.00000000000E+00 0. -1.
         -2    1    3    3    0  502 -0.30154841048E+02  0.19374249381E+02 -0.76256268384E+02  0.84259684580E+02  0.00000000000E+00 0.  1.
<mgrwt>
<rscale>  0 0.93807824E+02</rscale>
<asrwt>0</asrwt>
<pdfrwt beam="2">  1        1 0.69566551E-01 0.93807824E+02</pdfrwt>
<pdfrwt beam="1">  1       -1 0.74849853E-03 0.93807824E+02</pdfrwt>
<totfact> 0.12744545E+05</totfact>
</mgrwt>
</event>
<event>
 5    1  0.4067226E+001  0.9049803E+02  0.7546771E-02  0.1301650E+00
          3   -1    0    0  501    0  0.00000000000E+00  0.00000000000E+00  0.57461832327E+03  0.57461832327E+03  0.00000000000E+00 0. -1.
         -3   -1    0    0    0  501 -0.00000000000E+00 -0.00000000000E+00 -0.35631886661E+01  0.35631886661E+01  0.00000000000E+00 0.  1.
         23    2    1    2    0    0  0.00000000000E+00  0.00000000000E+00  0.57105513460E+03  0.57818151194E+03  0.90498033058E+02 0.  0.
          2    1    3    3  502    0 -0.24717002190E+02  0.11110805850E+01  0.52757346927E+03  0.52815332071E+03  0.00000000000E+00 0. -1.
         -2    1    3    3    0  502  0.24717002190E+02 -0.11110805850E+01  0.43481665333E+02  0.50028191227E+02  0.00000000000E+00 0.  1.
<mgrwt>
<rscale>  0 0.90498033E+02</rscale>
<asrwt>0</asrwt>
<pdfrwt beam="1">  1        3 0.88402746E-01 0.90498033E+02</pdfrwt>
<pdfrwt beam="2">  1       -3 0.54818333E-03 0.90498033E+02</pdfrwt>
<totfact> 0.16491751E+04</totfact>
</mgrwt>
</event>
<event>
 5    1  0.4067226E+001  0.8899652E+02  0.7546771E-02  0.1305300E+00
          4   -1    0    0  501    0  0.00000000000E+00  0.00000000000E+00  0.34679255598E+03  0.34679255598E+03  0.00000000000E+00 0.  1.
         -4   -1    0    0    0  501 -0.00000000000E+00 -0.00000000000E+00 -0.57097393233E+01  0.57097393233E+01  0.00000000000E+00 0. -1.
         23    2    1    2    0    0  0.00000000000E+00  0.00000000000E+00  0.34108281666E+03  0.35250229530E+03  0.88996518896E+02 0.  0.
          2    1    3    3  502    0 -0.12734962248E+02  0.40706758335E+02  0.22077961123E+03  0.22486186019E+03  0.00000000000E+00 0.  1.
         -2    1    3    3    0  502  0.12734962248E+02 -0.40706758335E+02  0.12030320543E+03  0.12764043511E+03  0.00000000000E+00 0. -1.
<mgrwt>
<rscale>  0 0.88996519E+02</rscale>
<asrwt>0</asrwt>
<pdfrwt beam="1">  1        4 0.53352684E-01 0.88996519E+02</pdfrwt>
<pdfrwt beam="2">  1       -4 0.87842171E-03 0.88996519E+02</pdfrwt>
<totfact> 0.17408789E+04</totfact>
</mgrwt>
</event>
<event>
 4    1  0.4067226E+001  0.1365647E+03  0.7546771E-02  0.1218028E+00
          3   -1    0    0  501    0  0.00000000000E+00  0.00000000000E+00  0.63720605796E+03  0.63720605796E+03  0.00000000000E+00 0. -1.
         -3   -1    0    0    0  501 -0.00000000000E+00 -0.00000000000E+00 -0.73170699024E+01  0.73170699024E+01  0.00000000000E+00 0.  1.
          2    1    1    2  502    0  0.34919628616E+02 -0.38314445032E+02  0.52469110699E+03  0.52724580123E+03  0.00000000000E+00 0. -1.
         -2    1    1    2    0  502 -0.34919628616E+02  0.38314445032E+02  0.10519788107E+03  0.11727732663E+03  0.00000000000E+00 0.  1.
<mgrwt>
<rscale>  0 0.13656473E+03</rscale>
<asrwt>0</asrwt>
<pdfrwt beam="1">  1        3 0.98031657E-01 0.13656473E+03</pdfrwt>
<pdfrwt beam="2">  1       -3 0.11257036E-02 0.13656473E+03</pdfrwt>
<totfact> 0.49523731E+03</totfact>
</mgrwt>
</event>
<event>
 5    1  0.4067226E+001  0.9139342E+02  0.7546771E-02  0.1299512E+00
         -1   -1    0    0    0  501 -0.00000000000E+00  0.00000000000E+00  0.13662282133E+03  0.13662282133E+03  0.00000000000E+00 0.  1.
          1   -1    0    0  501    0  0.00000000000E+00 -0.00000000000E+00 -0.15284337223E+02  0.15284337223E+02  0.00000000000E+00 0. -1.
         23    2    1    2    0    0  0.00000000000E+00  0.00000000000E+00  0.12133848411E+03  0.15190715855E+03  0.91393419316E+02 0.  0.
          2    1    3    3  502    0 -0.28751227163E+02 -0.34636122816E+02  0.47592732895E+02  0.65508490224E+02  0.00000000000E+00 0. -1.
         -2    1    3    3    0  502  0.28751227163E+02  0.34636122816E+02  0.73745751212E+02  0.86398668328E+02  0.00000000000E+00 0.  1.
<mgrwt>
<rscale>  0 0.91393419E+02</rscale>
<asrwt>0</asrwt>
<pdfrwt beam="2">  1        1 0.23514366E-02 0.91393419E+02</pdfrwt>
<pdfrwt beam="1">  1       -1 0.21018895E-01 0.91393419E+02</pdfrwt>
<totfact> 0.75925382E+04</totfact>
</mgrwt>
</event>
<event>
 5    1  0.4067226E+001  0.9058284E+02  0.7546771E-02  0.1301446E+00
          2   -1    0    0  501    0  0.00000000000E+00  0.00000000000E+00  0.28013371322E+02  0.28013371322E+02  0.00000000000E+00 0. -1.
         -2   -1    0    0    0  501 -0.00000000000E+00 -0.00000000000E+00 -0.73226198932E+02  0.73226198932E+02  0.00000000000E+00 0.  1.
         23    2    1    2    0    0  0.00000000000E+00  0.00000000000E+00 -0.45212827610E+02  0.10123957025E+03  0.90582839460E+02 0.  0.
          2    1    3    3  502    0  0.27302374780E+02 -0.35355453395E+02 -0.14251311207E+02  0.46888459396E+02  0.00000000000E+00 0. -1.
         -2    1    3    3    0  502 -0.27302374780E+02  0.35355453395E+02 -0.30961516404E+02  0.54351110857E+02  0.00000000000E+00 0.  1.
<mgrwt>
<rscale>  0 0.90582839E+02</rscale>
<asrwt>0</asrwt>
<pdfrwt beam="1">  1        2 0.43097494E-02 0.90582839E+02</pdfrwt>
<pdfrwt beam="2">  1       -2 0.11265569E-01 0.90582839E+02</pdfrwt>
<totfact> 0.88561204E+04</totfact>
</mgrwt>
</event>
<event>
 5    1  0.4067226E+001  0.9075978E+02  0.7546771E-02  0.1301022E+00
         -1   -1    0    0    0  501 -0.00000000000E+00  0.00000000000E+00  0.24910018415E+01  0.24910018415E+01  0.00000000000E+00 0.  1.
          1   -1    0    0  501    0  0.00000000000E+00 -0.00000000000E+00 -0.82670928834E+03  0.82670928834E+03  0.00000000000E+00 0. -1.
         23    2    1    2    0    0  0.00000000000E+00  0.00000000000E+00 -0.82421828650E+03  0.82920029018E+03  0.90759778748E+02 0.  0.
          2    1    3    3  502    0  0.19251082019E+02  0.19379694114E+02 -0.81035618862E+02  0.85515777650E+02  0.00000000000E+00 0.  1.
         -2    1    3    3    0  502 -0.19251082019E+02 -0.19379694114E+02 -0.74318266764E+03  0.74368451253E+03  0.00000000000E+00 0. -1.
<mgrwt>
<rscale>  0 0.90759779E+02</rscale>
<asrwt>0</asrwt>
<pdfrwt beam="2">  1        1 0.12718604E+00 0.90759779E+02</pdfrwt>
<pdfrwt beam="1">  1       -1 0.38323105E-03 0.90759779E+02</pdfrwt>
<totfact> 0.14256080E+05</totfact>
</mgrwt>
</event>
<event>
 5    1  0.4067226E+001  0.9282072E+02  0.7546771E-02  0.1296161E+00
          4   -1    0    0  501    0  0.00000000000E+00  0.00000000000E+00  0.36025498341E+01  0.36025498341E+01  0.00000000000E+00 0. -1.
         -4   -1    0    0    0  501 -0.00000000000E+00 -0.00000000000E+00 -0.59788806586E+03  0.59788806586E+03  0.00000000000E+00 0.  1.
         23    2    1    2    0    0  0.00000000000E+00  0.00000000000E+00 -0.59428551602E+03  0.60149061569E+03  0.92820720800E+02 0.  0.
          2    1    3    3  502    0  0.35073238832E+02 -0.22187688225E+02 -0.43175119674E+03  0.43374130709E+03  0.00000000000E+00 0. -1.
         -2    1    3    3    0  502 -0.35073238832E+02  0.22187688225E+02 -0.16253431928E+03  0.16774930860E+03  0.00000000000E+00 0.  1.
<mgrwt>
<rscale>  0 0.92820721E+02</rscale>
<asrwt>0</asrwt>
<pdfrwt beam="1">  1        4 0.55423803E-03 0.92820721E+02</pdfrwt>
<pdfrwt beam="2">  1       -4 0.91982846E-01 0.92820721E+02</pdfrwt>
<totfact> 0.10861422E+04</totfact>
</mgrwt>
</event>
<event>
 5    1  0.4067226E+001  0.9075852E+02  0.7546771E-02  0.1301025E+00
          2   -1    0    0  501    0  0.00000000000E+00  0.00000000000E+00  0.59783920417E+02  0.59783920417E+02  0.00000000000E+00 0. -1.
         -2   -1    0    0    0  501 -0.00000000000E+00 -0.00000000000E+00 -0.34445332661E+02  0.34445332661E+02  0.00000000000E+00 0.  1.
         23    2    1    2    0    0  0.00000000000E+00  0.00000000000E+00  0.25338587756E+02  0.94229253078E+02  0.90758515336E+02 0.  0.
          2    1    3    3  502    0 -0.16908367313E+02 -0.41384121671E+02  0.45777609175E+01  0.44938783992E+02  0.00000000000E+00 0. -1.
         -2    1    3    3    0  502  0.16908367313E+02  0.41384121671E+02  0.20760826839E+02  0.49290469086E+02  0.00000000000E+00 0.  1.
<mgrwt>
<rscale>  0 0.90758515E+02</rscale>
<asrwt>0</asrwt>
<pdfrwt beam="1">  1        2 0.91975262E-02 0.90758515E+02</pdfrwt>
<pdfrwt beam="2">  1       -2 0.52992820E-02 0.90758515E+02</pdfrwt>
<totfact> 0.10734946E+05</totfact>
</mgrwt>
</event>
<event>
 5    1  0.4067226E+001  0.9243400E+02  0.7546771E-02  0.1297062E+00
         -3   -1    0    0    0  501 -0.00000000000E+00  0.00000000000E+00  0.93234534167E+01  0.93234534167E+01  0.00000000000E+00 0.  1.
          3   -1    0    0  501    0  0.00000000000E+00 -0.00000000000E+00 -0.22910082666E+03  0.22910082666E+03  0.00000000000E+00 0. -1.
         23    2    1    2    0    0  0.00000000000E+00  0.00000000000E+00 -0.21977737324E+03  0.23842428008E+03  0.92433995588E+02 0.  0.
          2    1    3    3  502    0  0.28380521503E+02  0.50411643465E+01 -0.20307409088E+03  0.20510961393E+03  0.00000000000E+00 0. -1.
         -2    1    3    3    0  502 -0.28380521503E+02 -0.50411643465E+01 -0.16703282359E+02  0.33314666145E+02  0.00000000000E+00 0.  1.
<mgrwt>
<rscale>  0 0.92433996E+02</rscale>
<asrwt>0</asrwt>
<pdfrwt beam="2">  1        3 0.35246279E-01 0.92433996E+02</pdfrwt>
<pdfrwt beam="1">  1       -3 0.14343775E-02 0.92433996E+02</pdfrwt>
<totfact> 0.25660920E+04</totfact>
</mgrwt>
</event>
<event>
 5    1  0.4067226E+001  0.9231514E+02  0.7546771E-02  0.1297340E+00
         -2   -1    0    0    0  501 -0.00000000000E+00  0.00000000000E+00  0.12719381103E+02  0.12719381103E+02  0.00000000000E+00 0. -1.
          2   -1    0    0  501    0  0.00000000000E+00 -0.00000000000E+00 -0.16750196503E+03  0.16750196503E+03  0.00000000000E+00 0.  1.
         23    2    1    2    0    0  0.00000000000E+00  0.00000000000E+00 -0.15478258393E+03  0.18022134613E+03  0.92315141307E+02 0.  0.
          2    1    3    3  502    0 -0.42922023077E+02  0.12570448396E+02 -0.55114775774E+02  0.70978551313E+02  0.00000000000E+00 0. -1.
         -2    1    3    3    0  502  0.42922023077E+02 -0.12570448396E+02 -0.99667808153E+02  0.10924279482E+03  0.00000000000E+00 0.  1.
<mgrwt>
<rscale>  0 0.92315141E+02</rscale>
<asrwt>0</asrwt>
<pdfrwt beam="2">  1        2 0.25769532E-01 0.92315141E+02</pdfrwt>
<pdfrwt beam="1">  1       -2 0.19568279E-02 0.92315141E+02</pdfrwt>
<totfact> 0.14042526E+05</totfact>
</mgrwt>
</event>
<event>
 4    1  0.4067226E+001  0.1464521E+03  0.7546771E-02  0.1204902E+00
         -3   -1    0    0    0  501 -0.00000000000E+00  0.00000000000E+00  0.28687787512E+02  0.28687787512E+02  0.00000000000E+00 0.  1.
          3   -1    0    0  501    0  0.00000000000E+00 -0.00000000000E+00 -0.18691057650E+03  0.18691057650E+03  0.00000000000E+00 0. -1.
          2    1    1    2  502    0  0.66315715607E+02  0.76179394044E+01 -0.12342861506E+03  0.14032259317E+03  0.00000000000E+00 0. -1.
         -2    1    1    2    0  502 -0.66315715607E+02 -0.76179394044E+01 -0.34794173932E+02  0.75275770849E+02  0.00000000000E+00 0.  1.
<mgrwt>
<rscale>  0 0.14645205E+03</rscale>
<asrwt>0</asrwt>
<pdfrwt beam="2">  1        3 0.28755471E-01 0.14645205E+03</pdfrwt>
<pdfrwt beam="1">  1       -3 0.44135061E-02 0.14645205E+03</pdfrwt>
<totfact> 0.74391353E+03</totfact>
</mgrwt>
</event>
<event>
 5    1  0.4067226E+001  0.9182632E+02  0.7546771E-02  0.1298488E+00
         -2   -1    0    0    0  501 -0.00000000000E+00  0.00000000000E+00  0.68167731190E+03  0.68167731190E+03  0.00000000000E+00 0.  1.
          2   -1    0    0  501    0  0.00000000000E+00 -0.00000000000E+00 -0.30923991713E+01  0.30923991713E+01  0.00000000000E+00 0. -1.
         23    2    1    2    0    0  0.00000000000E+00  0.00000000000E+00  0.67858491272E+03  0.68476971107E+03  0.91826322031E+02 0.  0.
          2    1    3    3  502    0  0.19398576482E+02  0.26564160072E+02  0.10042140756E+03  0.10567127550E+03  0.00000000000E+00 0. -1.
         -2    1    3    3    0  502 -0.19398576482E+02 -0.26564160072E+02  0.57816350517E+03  0.57909843557E+03  0.00000000000E+00 0.  1.
<mgrwt>
<rscale>  0 0.91826322E+02</rscale>
<asrwt>0</asrwt>
<pdfrwt beam="2">  1        2 0.47575426E-03 0.91826322E+02</pdfrwt>
<pdfrwt beam="1">  1       -2 0.10487331E+00 0.91826322E+02</pdfrwt>
<totfact> 0.27361618E+04</totfact>
</mgrwt>
</event>
<event>
 5    1  0.4067226E+001  0.9008456E+02  0.7546771E-02  0.1302647E+00
         -2   -1    0    0    0  501 -0.00000000000E+00  0.00000000000E+00  0.16420916326E+02  0.16420916326E+02  0.00000000000E+00 0.  1.
          2   -1    0    0  501    0  0.00000000000E+00 -0.00000000000E+00 -0.12355017451E+03  0.12355017451E+03  0.00000000000E+00 0. -1.
         23    2    1    2    0    0  0.00000000000E+00  0.00000000000E+00 -0.10712925818E+03  0.13997109084E+03  0.90084562000E+02 0.  0.
          2    1    3    3  502    0  0.37942435130E+02  0.23348612588E+02 -0.43255597980E+02  0.62095352886E+02  0.00000000000E+00 0. -1.
         -2    1    3    3    0  502 -0.37942435130E+02 -0.23348612588E+02 -0.63873660204E+02  0.77875737950E+02  0.00000000000E+00 0.  1.
<mgrwt>
<rscale>  0 0.90084562E+02</rscale>
<asrwt>0</asrwt>
<pdfrwt beam="2">  1        2 0.19007719E-01 0.90084562E+02</pdfrwt>
<pdfrwt beam="1">  1       -2 0.25262948E-02 0.90084562E+02</pdfrwt>
<totfact> 0.13546889E+05</totfact>
</mgrwt>
</event>
<event>
 5    1  0.4067226E+001  0.9463949E+02  0.7546771E-02  0.1291990E+00
          4   -1    0    0  501    0  0.00000000000E+00  0.00000000000E+00  0.25144588002E+03  0.25144588002E+03  0.00000000000E+00 0. -1.
         -4   -1    0    0    0  501 -0.00000000000E+00 -0.00000000000E+00 -0.89051297872E+01  0.89051297872E+01  0.00000000000E+00 0.  1.
         23    2    1    2    0    0  0.00000000000E+00  0.00000000000E+00  0.24254075023E+03  0.26035100981E+03  0.94639488503E+02 0.  0.
          2    1    3    3  502    0  0.31989875645E+02 -0.86967356082E+01  0.21416107353E+03  0.21671167659E+03  0.00000000000E+00 0. -1.
         -2    1    3    3    0  502 -0.31989875645E+02  0.86967356082E+01  0.28379676700E+02  0.43639333217E+02  0.00000000000E+00 0.  1.
<mgrwt>
<rscale>  0 0.94639489E+02</rscale>
<asrwt>0</asrwt>
<pdfrwt beam="1">  1        4 0.38683976E-01 0.94639489E+02</pdfrwt>
<pdfrwt beam="2">  1       -4 0.13700202E-02 0.94639489E+02</pdfrwt>
<totfact> 0.17289826E+04</totfact>
</mgrwt>
</event>
<event>
 5    1  0.4067226E+001  0.8625620E+02  0.7546771E-02  0.1312180E+00
          2   -1    0    0  501    0  0.00000000000E+00  0.00000000000E+00  0.36081440551E+04  0.36081440551E+04  0.00000000000E+00 0. -1.
         -2   -1    0    0    0  501 -0.00000000000E+00 -0.00000000000E+00 -0.51550967160E+00  0.51550967160E+00  0.00000000000E+00 0.  1.
         23    2    1    2    0    0  0.00000000000E+00  0.00000000000E+00  0.36076285455E+04  0.36086595648E+04  0.86256203416E+02 0.  0.
          2    1    3    3  502    0  0.18953042892E+02  0.33125248139E+02  0.26442320714E+04  0.26445074678E+04  0.00000000000E+00 0. -1.
         -2    1    3    3    0  502 -0.18953042892E+02 -0.33125248139E+02  0.96339647410E+03  0.96415209703E+03  0.00000000000E+00 0.  1.
<mgrwt>
<rscale>  0 0.86256203E+02</rscale>
<asrwt>0</asrwt>
<pdfrwt beam="1">  1        2 0.55507886E+00 0.86256203E+02</pdfrwt>
<pdfrwt beam="2">  1       -2 0.79312069E-04 0.86256203E+02</pdfrwt>
<totfact> 0.64962889E+04</totfact>
</mgrwt>
</event>
<event>
 5    1  0.4067226E+001  0.9073059E+02  0.7546771E-02  0.1301092E+00
         -2   -1    0    0    0  501 -0.00000000000E+00  0.00000000000E+00  0.27743091689E+01  0.27743091689E+01  0.00000000000E+00 0. -1.
          2   -1    0    0  501    0  0.00000000000E+00 -0.00000000000E+00 -0.74180992858E+03  0.74180992858E+03  0.00000000000E+00 0.  1.
         23    2    1    2    0    0  0.00000000000E+00  0.00000000000E+00 -0.73903561941E+03  0.74458423775E+03  0.90730592116E+02 0.  0.
          2    1    3    3  502    0 -0.28041448269E+02  0.31111648799E+02 -0.22649013539E+03  0.23033028230E+03  0.00000000000E+00 0. -1.
         -2    1    3    3    0  502  0.28041448269E+02 -0.31111648799E+02 -0.51254548402E+03  0.51425395545E+03  0.00000000000E+00 0.  1.
<mgrwt>
<rscale>  0 0.90730592E+02</rscale>
<asrwt>0</asrwt>
<pdfrwt beam="2">  1        2 0.11412466E+00 0.90730592E+02</pdfrwt>
<pdfrwt beam="1">  1       -2 0.42681657E-03 0.90730592E+02</pdfrwt>
<totfact> 0.24333726E+05</totfact>
</mgrwt>
</event>
<event>
 5    1  0.4067226E+001  0.9055205E+02  0.7546771E-02  0.1301520E+00
          2   -1    0    0  501    0  0.00000000000E+00  0.00000000000E+00  0.64783261948E+02  0.64783261948E+02  0.00000000000E+00 0. -1.
         -2   -1    0    0    0  501 -0.00000000000E+00 -0.00000000000E+00 -0.31642719606E+02  0.31642719606E+02  0.00000000000E+00 0.  1.
         23    2    1    2    0    0  0.00000000000E+00  0.00000000000E+00  0.33140542342E+02  0.96425981554E+02  0.90552053383E+02 0.  0.
          2    1    3    3  502    0  0.17347264297E+02  0.41673806408E+02  0.12837931887E+02  0.46930227085E+02  0.00000000000E+00 0. -1.
         -2    1    3    3    0  502 -0.17347264297E+02 -0.41673806408E+02  0.20302610456E+02  0.49495754469E+02  0.00000000000E+00 0.  1.
<mgrwt>
<rscale>  0 0.90552053E+02</rscale>
<asrwt>0</asrwt>
<pdfrwt beam="1">  1        2 0.99666556E-02 0.90552053E+02</pdfrwt>
<pdfrwt beam="2">  1       -2 0.48681107E-02 0.90552053E+02</pdfrwt>
<totfact> 0.11040075E+05</totfact>
</mgrwt>
</event>
<event>
 5    1  0.4067226E+001  0.9097320E+02  0.7546771E-02  0.1300512E+00
         -2   -1    0    0    0  501 -0.00000000000E+00  0.00000000000E+00  0.18596082305E+02  0.18596082305E+02  0.00000000000E+00 0.  1.
          2   -1    0    0  501    0  0.00000000000E+00 -0.00000000000E+00 -0.11126164621E+03  0.11126164621E+03  0.00000000000E+00 0. -1.
         23    2    1    2    0    0  0.00000000000E+00  0.00000000000E+00 -0.92665563906E+02  0.12985772852E+03  0.90973198919E+02 0.  0.
          2    1    3    3  502    0 -0.24867559463E+02 -0.33395190163E+02 -0.72474467891E+02  0.83583387917E+02  0.00000000000E+00 0. -1.
         -2    1    3    3    0  502  0.24867559463E+02  0.33395190163E+02 -0.20191096015E+02  0.46274340600E+02  0.00000000000E+00 0.  1.
<mgrwt>
<rscale>  0 0.90973199E+02</rscale>
<asrwt>0</asrwt>
<pdfrwt beam="2">  1        2 0.17117176E-01 0.90973199E+02</pdfrwt>
<pdfrwt beam="1">  1       -2 0.28609357E-02 0.90973199E+02</pdfrwt>
<totfact> 0.12756960E+05</totfact>
</mgrwt>
</event>
<event>
 5    1  0.4067226E+001  0.9058016E+02  0.7546771E-02  0.1301453E+00
         -1   -1    0    0    0  501 -0.00000000000E+00  0.00000000000E+00  0.17355301631E+01  0.17355301631E+01  0.00000000000E+00 0.  1.
          1   -1    0    0  501    0  0.00000000000E+00 -0.00000000000E+00 -0.11818817558E+04  0.11818817558E+04  0.00000000000E+00 0. -1.
         23    2    1    2    0    0  0.00000000000E+00  0.00000000000E+00 -0.11801462256E+04  0.11836172859E+04  0.90580161985E+02 0.  0.
          2    1    3    3  502    0 -0.29156477902E+02  0.26804441712E+02 -0.87713648078E+03  0.87803017273E+03  0.00000000000E+00 0. -1.
         -2    1    3    3    0  502  0.29156477902E+02 -0.26804441712E+02 -0.30300974481E+03  0.30558711319E+03  0.00000000000E+00 0.  1.
<mgrwt>
<rscale>  0 0.90580162E+02</rscale>
<asrwt>0</asrwt>
<pdfrwt beam="2">  1        1 0.18182831E+00 0.90580162E+02</pdfrwt>
<pdfrwt beam="1">  1       -1 0.26700413E-03 0.90580162E+02</pdfrwt>
<totfact> 0.13044184E+05</totfact>
</mgrwt>
</event>
<event>
 5    1  0.4067226E+001  0.9494573E+02  0.7546771E-02  0.1291298E+00
          2   -1    0    0  501    0  0.00000000000E+00  0.00000000000E+00  0.11521745454E+03  0.11521745454E+03  0.00000000000E+00 0. -1.
         -2   -1    0    0    0  501 -0.00000000000E+00 -0.00000000000E+00 -0.19560168968E+02  0.19560168968E+02  0.00000000000E+00 0.  1.
         23    2    1    2    0    0  0.00000000000E+00  0.00000000000E+00  0.95657285572E+02  0.13477762351E+03  0.94945729317E+02 0.  0.
          2    1    3    3  502    0  0.16191811714E+01 -0.47094998063E+02  0.55997042084E+02  0.73186264506E+02  0.00000000000E+00 0. -1.
         -2    1    3    3    0  502 -0.16191811714E+01  0.47094998063E+02  0.39660243488E+02  0.61591359002E+02  0.00000000000E+00 0.  1.
<mgrwt>
<rscale>  0 0.94945729E+02</rscale>
<asrwt>0</asrwt>
<pdfrwt beam="1">  1        2 0.17725762E-01 0.94945729E+02</pdfrwt>
<pdfrwt beam="2">  1       -2 0.30092568E-02 0.94945729E+02</pdfrwt>
<totfact> 0.11468947E+05</totfact>
</mgrwt>
</event>
<event>
 5    1  0.4067226E+001  0.1025660E+03  0.7546771E-02  0.1274991E+00
          2   -1    0    0  501    0  0.00000000000E+00  0.00000000000E+00  0.90875095436E+03  0.90875095436E+03  0.00000000000E+00 0. -1.
         -2   -1    0    0    0  501 -0.00000000000E+00 -0.00000000000E+00 -0.28940249226E+01  0.28940249226E+01  0.00000000000E+00 0.  1.
         23    2    1    2    0    0  0.00000000000E+00  0.00000000000E+00  0.90585692944E+03  0.91164497928E+03  0.10256603552E+03 0.  0.
          2    1    3    3  502    0  0.41285270889E+02 -0.27884148929E+02  0.34481555858E+03  0.34839599422E+03  0.00000000000E+00 0.  1.
         -2    1    3    3    0  502 -0.41285270889E+02  0.27884148929E+02  0.56104137086E+03  0.56324898506E+03  0.00000000000E+00 0. -1.
<mgrwt>
<rscale>  0 0.10256604E+03</rscale>
<asrwt>0</asrwt>
<pdfrwt beam="1">  1        2 0.13980761E+00 0.10256604E+03</pdfrwt>
<pdfrwt beam="2">  1       -2 0.44523533E-03 0.10256604E+03</pdfrwt>
<totfact> 0.18171154E+05</totfact>
</mgrwt>
</event>
<event>
 5    1  0.4067226E+001  0.8727169E+02  0.7546771E-02  0.1309596E+00
         -2   -1    0    0    0  501 -0.00000000000E+00  0.00000000000E+00  0.66437559285E+02  0.66437559285E+02  0.00000000000E+00 0.  1.
          2   -1    0    0  501    0  0.00000000000E+00 -0.00000000000E+00 -0.28659798609E+02  0.28659798609E+02  0.00000000000E+00 0. -1.
         23    2    1    2    0    0  0.00000000000E+00  0.00000000000E+00  0.37777760676E+02  0.95097357895E+02  0.87271692300E+02 0.  0.
          2    1    3    3  502    0  0.13156876820E+02  0.26150516036E+02  0.54150009854E+02  0.61556286956E+02  0.00000000000E+00 0.  1.
         -2    1    3    3    0  502 -0.13156876820E+02 -0.26150516036E+02 -0.16372249178E+02  0.33541070939E+02  0.00000000000E+00 0. -1.
<mgrwt>
<rscale>  0 0.87271692E+02</rscale>
<asrwt>0</asrwt>
<pdfrwt beam="2">  1        2 0.44091998E-02 0.87271692E+02</pdfrwt>
<pdfrwt beam="1">  1       -2 0.10221163E-01 0.87271692E+02</pdfrwt>
<totfact> 0.99484898E+04</totfact>
</mgrwt>
</event>
<event>
 5    1  0.4067226E+001  0.9922518E+02  0.7546771E-02  0.1281934E+00
         -1   -1    0    0    0  501 -0.00000000000E+00  0.00000000000E+00  0.48358206905E+01  0.48358206905E+01  0.00000000000E+00 0.  1.
          1   -1    0    0  501    0  0.00000000000E+00 -0.00000000000E+00 -0.50899507037E+03  0.50899507037E+03  0.00000000000E+00 0. -1.
         23    2    1    2    0    0  0.00000000000E+00  0.00000000000E+00 -0.50415924968E+03  0.51383089106E+03  0.99225176093E+02 0.  0.
          2    1    3    3  502    0  0.33109270992E+02  0.26828563241E+02 -0.38363762836E+03  0.38599718331E+03  0.00000000000E+00 0. -1.
         -2    1    3    3    0  502 -0.33109270992E+02 -0.26828563241E+02 -0.12052162132E+03  0.12783370775E+03  0.00000000000E+00 0.  1.
<mgrwt>
<rscale>  0 0.99225176E+02</rscale>
<asrwt>0</asrwt>
<pdfrwt beam="2">  1        1 0.78306910E-01 0.99225176E+02</pdfrwt>
<pdfrwt beam="1">  1       -1 0.74397264E-03 0.99225176E+02</pdfrwt>
<totfact> 0.11142117E+05</totfact>
</mgrwt>
</event>
<event>
 5    1  0.4067226E+001  0.9032221E+02  0.7546771E-02  0.1302073E+00
          2   -1    0    0  501    0  0.00000000000E+00  0.00000000000E+00  0.79534986619E+03  0.79534986619E+03  0.00000000000E+00 0. -1.
         -2   -1    0    0    0  501 -0.00000000000E+00 -0.00000000000E+00 -0.25643121346E+01  0.25643121346E+01  0.00000000000E+00 0.  1.
         23    2    1    2    0    0  0.00000000000E+00  0.00000000000E+00  0.79278555405E+03  0.79791417832E+03  0.90322207970E+02 0.  0.
          2    1    3    3  502    0  0.15191871286E+02  0.13427276285E+02  0.75288297988E+03  0.75315593744E+03  0.00000000000E+00 0. -1.
         -2    1    3    3    0  502 -0.15191871286E+02 -0.13427276285E+02  0.39902574170E+02  0.44758240884E+02  0.00000000000E+00 0.  1.
<mgrwt>
<rscale>  0 0.90322208E+02</rscale>
<asrwt>0</asrwt>
<pdfrwt beam="1">  1        2 0.12236132E+00 0.90322208E+02</pdfrwt>
<pdfrwt beam="2">  1       -2 0.39451019E-03 0.90322208E+02</pdfrwt>
<totfact> 0.24960310E+05</totfact>
</mgrwt>
</event>
<event>
 5    1  0.4067226E+001  0.9383947E+02  0.7546771E-02  0.1293811E+00
          1   -1    0    0  501    0  0.00000000000E+00  0.00000000000E+00  0.22048468286E+02  0.22048468286E+02  0.00000000000E+00 0. -1.
         -1   -1    0    0    0  501 -0.00000000000E+00 -0.00000000000E+00 -0.99846463062E+02  0.99846463062E+02  0.00000000000E+00 0.  1.
         23    2    1    2    0    0  0.00000000000E+00  0.00000000000E+00 -0.77797994776E+02  0.12189493135E+03  0.93839470891E+02 0.  0.
          2    1    3    3  502    0 -0.30388714680E+02  0.33871249306E+02 -0.24047125624E+02  0.51468434600E+02  0.00000000000E+00 0. -1.
         -2    1    3    3    0  502  0.30388714680E+02 -0.33871249306E+02 -0.53750869153E+02  0.70426496747E+02  0.00000000000E+00 0.  1.
<mgrwt>
<rscale>  0 0.93839471E+02</rscale>
<asrwt>0</asrwt>
<pdfrwt beam="1">  1        1 0.33920720E-02 0.93839471E+02</pdfrwt>
<pdfrwt beam="2">  1       -1 0.15360995E-01 0.93839471E+02</pdfrwt>
<totfact> 0.75571119E+04</totfact>
</mgrwt>
</event>
<event>
 4    1  0.4067226E+001  0.4931018E+02  0.7546771E-02  0.1449098E+00
          1   -1    0    0  501    0  0.00000000000E+00  0.00000000000E+00  0.99842685958E+00  0.99842685958E+00  0.00000000000E+00 0. -1.
         -1   -1    0    0    0  501 -0.00000000000E+00 -0.00000000000E+00 -0.60883118257E+03  0.60883118257E+03  0.00000000000E+00 0.  1.
          2    1    1    2  502    0  0.18249508369E+02  0.14512502505E+02 -0.20481174118E+03  0.20613468076E+03  0.00000000000E+00 0. -1.
         -2    1    1    2    0  502 -0.18249508369E+02 -0.14512502505E+02 -0.40302101453E+03  0.40369492868E+03  0.00000000000E+00 0.  1.
<mgrwt>
<rscale>  0 0.49310178E+02</rscale>
<asrwt>0</asrwt>
<pdfrwt beam="1">  1        1 0.15360402E-03 0.49310178E+02</pdfrwt>
<pdfrwt beam="2">  1       -1 0.93666402E-01 0.49310178E+02</pdfrwt>
<totfact> 0.19767610E+05</totfact>
</mgrwt>
</event>
<event>
 5    1  0.4067226E+001  0.8442367E+02  0.7546771E-02  0.1316947E+00
          1   -1    0    0  501    0  0.00000000000E+00  0.00000000000E+00  0.11758510748E+03  0.11758510748E+03  0.00000000000E+00 0. -1.
         -1   -1    0    0    0  501 -0.00000000000E+00 -0.00000000000E+00 -0.15153610296E+02  0.15153610296E+02  0.00000000000E+00 0.  1.
         23    2    1    2    0    0  0.00000000000E+00  0.00000000000E+00  0.10243149718E+03  0.13273871777E+03  0.84423667186E+02 0.  0.
          2    1    3    3  502    0 -0.30369363780E+02  0.25469147498E+02  0.74047212848E+02  0.83987888777E+02  0.00000000000E+00 0. -1.
         -2    1    3    3    0  502  0.30369363780E+02 -0.25469147498E+02  0.28384284335E+02  0.48750828997E+02  0.00000000000E+00 0.  1.
<mgrwt>
<rscale>  0 0.84423667E+02</rscale>
<asrwt>0</asrwt>
<pdfrwt beam="1">  1        1 0.18090016E-01 0.84423667E+02</pdfrwt>
<pdfrwt beam="2">  1       -1 0.23313247E-02 0.84423667E+02</pdfrwt>
<totfact> 0.13214122E+05</totfact>
</mgrwt>
</event>
<event>
 5    1  0.4067226E+001  0.8786247E+02  0.7546771E-02  0.1308112E+00
         -2   -1    0    0    0  501 -0.00000000000E+00  0.00000000000E+00  0.13812572100E+01  0.13812572100E+01  0.00000000000E+00 0.  1.
          2   -1    0    0  501    0  0.00000000000E+00 -0.00000000000E+00 -0.13972438971E+04  0.13972438971E+04  0.00000000000E+00 0. -1.
         23    2    1    2    0    0  0.00000000000E+00  0.00000000000E+00 -0.13958626398E+04  0.13986251543E+04  0.87862465408E+02 0.  0.
          2    1    3    3  502    0 -0.36292360380E+02  0.12225515366E+02 -0.35527821646E+03  0.35733626984E+03  0.00000000000E+00 0.  1.
         -2    1    3    3    0  502  0.36292360380E+02 -0.12225515366E+02 -0.10405844234E+04  0.10412888844E+04  0.00000000000E+00 0. -1.
<mgrwt>
<rscale>  0 0.87862465E+02</rscale>
<asrwt>0</asrwt>
<pdfrwt beam="2">  1        2 0.21496050E+00 0.87862465E+02</pdfrwt>
<pdfrwt beam="1">  1       -2 0.21250121E-03 0.87862465E+02</pdfrwt>
<totfact> 0.26623767E+05</totfact>
</mgrwt>
</event>
<event>
 5    1  0.4067226E+001  0.7568623E+02  0.7546771E-02  0.1341759E+00
         -1   -1    0    0    0  501 -0.00000000000E+00  0.00000000000E+00  0.92959933215E+00  0.92959933215E+00  0.00000000000E+00 0.  1.
          1   -1    0    0  501    0  0.00000000000E+00 -0.00000000000E+00 -0.15405576069E+04  0.15405576069E+04  0.00000000000E+00 0. -1.
         23    2    1    2    0    0  0.00000000000E+00  0.00000000000E+00 -0.15396280076E+04  0.15414872063E+04  0.75686229198E+02 0.  0.
          2    1    3    3  502    0  0.29295153453E+02 -0.19458298126E+02 -0.10544178424E+04  0.10550041790E+04  0.00000000000E+00 0. -1.
         -2    1    3    3    0  502 -0.29295153453E+02  0.19458298126E+02 -0.48521016525E+03  0.48648302729E+03  0.00000000000E+00 0.  1.
<mgrwt>
<rscale>  0 0.75686229E+02</rscale>
<asrwt>0</asrwt>
<pdfrwt beam="2">  1        1 0.23700782E+00 0.75686229E+02</pdfrwt>
<pdfrwt beam="1">  1       -1 0.14301591E-03 0.75686229E+02</pdfrwt>
<totfact> 0.17616014E+05</totfact>
</mgrwt>
</event>
<event>
 5    1  0.4067226E+001  0.9326389E+02  0.7546771E-02  0.1295135E+00
         -4   -1    0    0    0  501 -0.00000000000E+00  0.00000000000E+00  0.97877617696E+00  0.97877617696E+00  0.00000000000E+00 0.  1.
          4   -1    0    0  501    0  0.00000000000E+00 -0.00000000000E+00 -0.22216910577E+04  0.22216910577E+04  0.00000000000E+00 0. -1.
         23    2    1    2    0    0  0.00000000000E+00  0.00000000000E+00 -0.22207122815E+04  0.22226698338E+04  0.93263889685E+02 0.  0.
          2    1    3    3  502    0  0.21530935192E+02  0.30903196417E+02 -0.17656073642E+04  0.17660090467E+04  0.00000000000E+00 0. -1.
         -2    1    3    3    0  502 -0.21530935192E+02 -0.30903196417E+02 -0.45510491729E+03  0.45666078709E+03  0.00000000000E+00 0.  1.
<mgrwt>
<rscale>  0 0.93263890E+02</rscale>
<asrwt>0</asrwt>
<pdfrwt beam="2">  1        4 0.34179045E+00 0.93263890E+02</pdfrwt>
<pdfrwt beam="1">  1       -4 0.15058455E-03 0.93263890E+02</pdfrwt>
<totfact> 0.16013918E+03</totfact>
</mgrwt>
</event>
<event>
 5    1  0.4067226E+001  0.5793142E+02  0.7546771E-02  0.1406723E+00
         -4   -1    0    0    0  501 -0.00000000000E+00  0.00000000000E+00  0.13820923420E+02  0.13820923420E+02  0.00000000000E+00 0.  1.
          4   -1    0    0  501    0  0.00000000000E+00 -0.00000000000E+00 -0.60705955397E+02  0.60705955397E+02  0.00000000000E+00 0. -1.
         23    2    1    2    0    0  0.00000000000E+00  0.00000000000E+00 -0.46885031977E+02  0.74526878818E+02  0.57931420169E+02 0.  0.
          2    1    3    3  502    0  0.18027137811E+02  0.22587253945E+02 -0.20918080853E+02  0.35675311422E+02  0.00000000000E+00 0. -1.
         -2    1    3    3    0  502 -0.18027137811E+02 -0.22587253945E+02 -0.25966951124E+02  0.38851567396E+02  0.00000000000E+00 0.  1.
<mgrwt>
<rscale>  0 0.57931420E+02</rscale>
<asrwt>0</asrwt>
<pdfrwt beam="2">  1        4 0.93393776E-02 0.57931420E+02</pdfrwt>
<pdfrwt beam="1">  1       -4 0.21262959E-02 0.57931420E+02</pdfrwt>
<totfact> 0.92744178E+04</totfact>
</mgrwt>
</event>
<event>
 5    1  0.4067226E+001  0.9183777E+02  0.7546771E-02  0.1298461E+00
          3   -1    0    0  501    0  0.00000000000E+00  0.00000000000E+00  0.10293264613E+03  0.10293264613E+03  0.00000000000E+00 0. -1.
         -3   -1    0    0    0  501 -0.00000000000E+00 -0.00000000000E+00 -0.20484694167E+02  0.20484694167E+02  0.00000000000E+00 0.  1.
         23    2    1    2    0    0  0.00000000000E+00  0.00000000000E+00  0.82447951963E+02  0.12341734030E+03  0.91837765125E+02 0.  0.
          2    1    3    3  502    0 -0.94047252029E+01 -0.33520948919E+02  0.81460060206E+02  0.88588059474E+02  0.00000000000E+00 0. -1.
         -2    1    3    3    0  502  0.94047252029E+01  0.33520948919E+02  0.98789175713E+00  0.34829280824E+02  0.00000000000E+00 0.  1.
<mgrwt>
<rscale>  0 0.91837765E+02</rscale>
<asrwt>0</asrwt>
<pdfrwt beam="1">  1        3 0.15835791E-01 0.91837765E+02</pdfrwt>
<pdfrwt beam="2">  1       -3 0.31514915E-02 0.91837765E+02</pdfrwt>
<totfact> 0.32371785E+04</totfact>
</mgrwt>
</event>
<event>
 5    1  0.4067226E+001  0.9119648E+02  0.7546771E-02  0.1299980E+00
         -1   -1    0    0    0  501 -0.00000000000E+00  0.00000000000E+00  0.24449674344E+01  0.24449674344E+01  0.00000000000E+00 0.  1.
          1   -1    0    0  501    0  0.00000000000E+00 -0.00000000000E+00 -0.85039975695E+03  0.85039975695E+03  0.00000000000E+00 0. -1.
         23    2    1    2    0    0  0.00000000000E+00  0.00000000000E+00 -0.84795478952E+03  0.85284472439E+03  0.91196484845E+02 0.  0.
          2    1    3    3  502    0 -0.14173375898E+02 -0.27432286968E+02 -0.73775327094E+03  0.73839914933E+03  0.00000000000E+00 0. -1.
         -2    1    3    3    0  502  0.14173375898E+02  0.27432286968E+02 -0.11020151858E+03  0.11444557506E+03  0.00000000000E+00 0.  1.
<mgrwt>
<rscale>  0 0.91196485E+02</rscale>
<asrwt>0</asrwt>
<pdfrwt beam="2">  1        1 0.13083084E+00 0.91196485E+02</pdfrwt>
<pdfrwt beam="1">  1       -1 0.37614852E-03 0.91196485E+02</pdfrwt>
<totfact> 0.14029021E+05</totfact>
</mgrwt>
</event>
<event>
 5    1  0.4067226E+001  0.8986965E+02  0.7546771E-02  0.1303168E+00
          2   -1    0    0  501    0  0.00000000000E+00  0.00000000000E+00  0.43540799670E+03  0.43540799670E+03  0.00000000000E+00 0. -1.
         -2   -1    0    0    0  501 -0.00000000000E+00 -0.00000000000E+00 -0.46373486037E+01  0.46373486037E+01  0.00000000000E+00 0.  1.
         23    2    1    2    0    0  0.00000000000E+00  0.00000000000E+00  0.43077064810E+03  0.44004534531E+03  0.89869653734E+02 0.  0.
          2    1    3    3  502    0  0.27304518145E+02 -0.18608295747E+02  0.66276863298E+02  0.74056923986E+02  0.00000000000E+00 0.  1.
         -2    1    3    3    0  502 -0.27304518145E+02  0.18608295747E+02  0.36449378480E+03  0.36598842132E+03  0.00000000000E+00 0. -1.
<mgrwt>
<rscale>  0 0.89869654E+02</rscale>
<asrwt>0</asrwt>
<pdfrwt beam="1">  1        2 0.66985813E-01 0.89869654E+02</pdfrwt>
<pdfrwt beam="2">  1       -2 0.71343859E-03 0.89869654E+02</pdfrwt>
<totfact> 0.21370578E+05</totfact>
</mgrwt>
</event>
<event>
 5    1  0.4067226E+001  0.8946926E+02  0.7546771E-02  0.1304142E+00
          2   -1    0    0  501    0  0.00000000000E+00  0.00000000000E+00  0.66637800972E+03  0.66637800972E+03  0.00000000000E+00 0. -1.
         -2   -1    0    0    0  501 -0.00000000000E+00 -0.00000000000E+00 -0.30030807844E+01  0.30030807844E+01  0.00000000000E+00 0.  1.
         23    2    1    2    0    0  0.00000000000E+00  0.00000000000E+00  0.66337492893E+03  0.66938109050E+03  0.89469257203E+02 0.  0.
          2    1    3    3  502    0 -0.70322505008E+01 -0.36759015600E+02  0.51502840218E+03  0.51638641813E+03  0.00000000000E+00 0. -1.
         -2    1    3    3    0  502  0.70322505008E+01  0.36759015600E+02  0.14834652675E+03  0.15299467237E+03  0.00000000000E+00 0.  1.
<mgrwt>
<rscale>  0 0.89469257E+02</rscale>
<asrwt>0</asrwt>
<pdfrwt beam="1">  1        2 0.10251958E+00 0.89469257E+02</pdfrwt>
<pdfrwt beam="2">  1       -2 0.46201296E-03 0.89469257E+02</pdfrwt>
<totfact> 0.24630874E+05</totfact>
</mgrwt>
</event>
<event>
 5    1  0.4067226E+001  0.9132593E+02  0.7546771E-02  0.1299672E+00
         -2   -1    0    0    0  501 -0.00000000000E+00  0.00000000000E+00  0.13928384370E+02  0.13928384370E+02  0.00000000000E+00 0.  1.
          2   -1    0    0  501    0  0.00000000000E+00 -0.00000000000E+00 -0.14970195095E+03  0.14970195095E+03  0.00000000000E+00 0. -1.
         23    2    1    2    0    0  0.00000000000E+00  0.00000000000E+00 -0.13577356658E+03  0.16363033532E+03  0.91325928712E+02 0.  0.
          2    1    3    3  502    0 -0.56980408068E+01  0.36386493358E+02 -0.11625195211E+03  0.12194654951E+03  0.00000000000E+00 0. -1.
         -2    1    3    3    0  502  0.56980408068E+01 -0.36386493358E+02 -0.19521614468E+02  0.41683785809E+02  0.00000000000E+00 0.  1.
<mgrwt>
<rscale>  0 0.91325929E+02</rscale>
<asrwt>0</asrwt>
<pdfrwt beam="2">  1        2 0.23031069E-01 0.91325929E+02</pdfrwt>
<pdfrwt beam="1">  1       -2 0.21428284E-02 0.91325929E+02</pdfrwt>
<totfact> 0.13909629E+05</totfact>
</mgrwt>
</event>
<event>
 5    1  0.4067226E+001  0.9135688E+02  0.7546771E-02  0.1299599E+00
         -3   -1    0    0    0  501 -0.00000000000E+00  0.00000000000E+00  0.29411383130E+02  0.29411383130E+02  0.00000000000E+00 0.  1.
          3   -1    0    0  501    0  0.00000000000E+00 -0.00000000000E+00 -0.70942594199E+02  0.70942594199E+02  0.00000000000E+00 0. -1.
         23    2    1    2    0    0  0.00000000000E+00  0.00000000000E+00 -0.41531211068E+02  0.10035397733E+03  0.91356878629E+02 0.  0.
          2    1    3    3  502    0  0.65412464666E+01  0.26835205988E+02 -0.60729914883E+02  0.66716105608E+02  0.00000000000E+00 0. -1.
         -2    1    3    3    0  502 -0.65412464666E+01 -0.26835205988E+02  0.19198703815E+02  0.33637871721E+02  0.00000000000E+00 0.  1.
<mgrwt>
<rscale>  0 0.91356879E+02</rscale>
<asrwt>0</asrwt>
<pdfrwt beam="2">  1        3 0.10914245E-01 0.91356879E+02</pdfrwt>
<pdfrwt beam="1">  1       -3 0.45248282E-02 0.91356879E+02</pdfrwt>
<totfact> 0.34458948E+04</totfact>
</mgrwt>
</event>
<event>
 5    1  0.4067226E+001  0.9068699E+02  0.7546771E-02  0.1301197E+00
         -4   -1    0    0    0  501 -0.00000000000E+00  0.00000000000E+00  0.19995640480E+01  0.19995640480E+01  0.00000000000E+00 0.  1.
          4   -1    0    0  501    0  0.00000000000E+00 -0.00000000000E+00 -0.10282404341E+04  0.10282404341E+04  0.00000000000E+00 0. -1.
         23    2    1    2    0    0  0.00000000000E+00  0.00000000000E+00 -0.10262408700E+04  0.10302399981E+04  0.90686991451E+02 0.  0.
          2    1    3    3  502    0 -0.13651611587E+02  0.40357219949E+02 -0.33677399199E+03  0.33945808781E+03  0.00000000000E+00 0.  1.
         -2    1    3    3    0  502  0.13651611587E+02 -0.40357219949E+02 -0.68946687802E+03  0.69078191030E+03  0.00000000000E+00 0. -1.
<mgrwt>
<rscale>  0 0.90686991E+02</rscale>
<asrwt>0</asrwt>
<pdfrwt beam="2">  1        4 0.15819098E+00 0.90686991E+02</pdfrwt>
<pdfrwt beam="1">  1       -4 0.30762496E-03 0.90686991E+02</pdfrwt>
<totfact> 0.69862670E+03</totfact>
</mgrwt>
</event>
<event>
 5    1  0.4067226E+001  0.9063466E+02  0.7546771E-02  0.1301322E+00
         -2   -1    0    0    0  501 -0.00000000000E+00  0.00000000000E+00  0.27437838553E+01  0.27437838553E+01  0.00000000000E+00 0.  1.
          2   -1    0    0  501    0  0.00000000000E+00 -0.00000000000E+00 -0.74847739292E+03  0.74847739292E+03  0.00000000000E+00 0. -1.
         23    2    1    2    0    0  0.00000000000E+00  0.00000000000E+00 -0.74573360906E+03  0.75122117677E+03  0.90634655331E+02 0.  0.
          2    1    3    3  502    0 -0.37785892956E+02  0.24490498263E+02 -0.41521259263E+03  0.41764704630E+03  0.00000000000E+00 0. -1.
         -2    1    3    3    0  502  0.37785892956E+02 -0.24490498263E+02 -0.33052101643E+03  0.33357413047E+03  0.00000000000E+00 0.  1.
<mgrwt>
<rscale>  0 0.90634655E+02</rscale>
<asrwt>0</asrwt>
<pdfrwt beam="2">  1        2 0.11515063E+00 0.90634655E+02</pdfrwt>
<pdfrwt beam="1">  1       -2 0.42211963E-03 0.90634655E+02</pdfrwt>
<totfact> 0.24447067E+05</totfact>
</mgrwt>
</event>
<event>
 5    1  0.4067226E+001  0.9431194E+02  0.7546771E-02  0.1292733E+00
         -1   -1    0    0    0  501 -0.00000000000E+00  0.00000000000E+00  0.25506911414E+01  0.25506911414E+01  0.00000000000E+00 0.  1.
          1   -1    0    0  501    0  0.00000000000E+00 -0.00000000000E+00 -0.87179723061E+03  0.87179723061E+03  0.00000000000E+00 0. -1.
         23    2    1    2    0    0  0.00000000000E+00  0.00000000000E+00 -0.86924653947E+03  0.87434792175E+03  0.94311939290E+02 0.  0.
          2    1    3    3  502    0 -0.34158160014E+02 -0.52586263223E+00 -0.73597860136E+03  0.73677103505E+03  0.00000000000E+00 0. -1.
         -2    1    3    3    0  502  0.34158160014E+02  0.52586263223E+00 -0.13326793811E+03  0.13757688670E+03  0.00000000000E+00 0.  1.
<mgrwt>
<rscale>  0 0.94311939E+02</rscale>
<asrwt>0</asrwt>
<pdfrwt beam="2">  1        1 0.13412261E+00 0.94311939E+02</pdfrwt>
<pdfrwt beam="1">  1       -1 0.39241414E-03 0.94311939E+02</pdfrwt>
<totfact> 0.12791021E+05</totfact>
</mgrwt>
</event>
<event>
 5    1  0.4067226E+001  0.9053825E+02  0.7546771E-02  0.1301553E+00
          2   -1    0    0  501    0  0.00000000000E+00  0.00000000000E+00  0.13760402147E+02  0.13760402147E+02  0.00000000000E+00 0. -1.
         -2   -1    0    0    0  501 -0.00000000000E+00 -0.00000000000E+00 -0.14892686159E+03  0.14892686159E+03  0.00000000000E+00 0.  1.
         23    2    1    2    0    0  0.00000000000E+00  0.00000000000E+00 -0.13516645944E+03  0.16268726373E+03  0.90538246194E+02 0.  0.
          2    1    3    3  502    0  0.36999105229E+02 -0.14045400393E+02 -0.28088976758E+02  0.48530378890E+02  0.00000000000E+00 0. -1.
         -2    1    3    3    0  502 -0.36999105229E+02  0.14045400393E+02 -0.10707748268E+03  0.11415688484E+03  0.00000000000E+00 0.  1.
<mgrwt>
<rscale>  0 0.90538246E+02</rscale>
<asrwt>0</asrwt>
<pdfrwt beam="1">  1        2 0.21169850E-02 0.90538246E+02</pdfrwt>
<pdfrwt beam="2">  1       -2 0.22911824E-01 0.90538246E+02</pdfrwt>
<totfact> 0.71295395E+04</totfact>
</mgrwt>
</event>
<event>
 5    1  0.4067226E+001  0.9098997E+02  0.7546771E-02  0.1300472E+00
          1   -1    0    0  501    0  0.00000000000E+00  0.00000000000E+00  0.15617340974E+03  0.15617340974E+03  0.00000000000E+00 0. -1.
         -1   -1    0    0    0  501 -0.00000000000E+00 -0.00000000000E+00 -0.13253175532E+02  0.13253175532E+02  0.00000000000E+00 0.  1.
         23    2    1    2    0    0  0.00000000000E+00  0.00000000000E+00  0.14292023421E+03  0.16942658527E+03  0.90989968959E+02 0.  0.
          2    1    3    3  502    0 -0.39926458237E+02  0.21385355946E+02  0.79433913962E+02  0.91439609599E+02  0.00000000000E+00 0. -1.
         -2    1    3    3    0  502  0.39926458237E+02 -0.21385355946E+02  0.63486320245E+02  0.77986975673E+02  0.00000000000E+00 0.  1.
<mgrwt>
<rscale>  0 0.90989969E+02</rscale>
<asrwt>0</asrwt>
<pdfrwt beam="1">  1        1 0.24026677E-01 0.90989969E+02</pdfrwt>
<pdfrwt beam="2">  1       -1 0.20389502E-02 0.90989969E+02</pdfrwt>
<totfact> 0.11359751E+05</totfact>
</mgrwt>
</event>
<event>
 5    1  0.4067226E+001  0.9267409E+02  0.7546771E-02  0.1296502E+00
         -3   -1    0    0    0  501 -0.00000000000E+00  0.00000000000E+00  0.18652887844E+01  0.18652887844E+01  0.00000000000E+00 0.  1.
          3   -1    0    0  501    0  0.00000000000E+00 -0.00000000000E+00 -0.11510934478E+04  0.11510934478E+04  0.00000000000E+00 0. -1.
         23    2    1    2    0    0  0.00000000000E+00  0.00000000000E+00 -0.11492281590E+04  0.11529587366E+04  0.92674089109E+02 0.  0.
          2    1    3    3  502    0  0.27890209386E+02 -0.90708208429E+01 -0.10209286052E+04  0.10213497738E+04  0.00000000000E+00 0. -1.
         -2    1    3    3    0  502 -0.27890209386E+02  0.90708208429E+01 -0.12829955384E+03  0.13160896279E+03  0.00000000000E+00 0.  1.
<mgrwt>
<rscale>  0 0.92674089E+02</rscale>
<asrwt>0</asrwt>
<pdfrwt beam="2">  1        3 0.17709171E+00 0.92674089E+02</pdfrwt>
<pdfrwt beam="1">  1       -3 0.28696683E-03 0.92674089E+02</pdfrwt>
<totfact> 0.82204935E+03</totfact>
</mgrwt>
</event>
<event>
 5    1  0.4067226E+001  0.9240917E+02  0.7546771E-02  0.1297120E+00
         -2   -1    0    0    0  501 -0.00000000000E+00  0.00000000000E+00  0.18896092861E+01  0.18896092861E+01  0.00000000000E+00 0.  1.
          2   -1    0    0  501    0  0.00000000000E+00 -0.00000000000E+00 -0.11297910649E+04  0.11297910649E+04  0.00000000000E+00 0. -1.
         23    2    1    2    0    0  0.00000000000E+00  0.00000000000E+00 -0.11279014556E+04  0.11316806742E+04  0.92409170273E+02 0.  0.
          2    1    3    3  502    0  0.18949083021E+02  0.12285288464E+02 -0.10575992279E+04  0.10578403107E+04  0.00000000000E+00 0. -1.
         -2    1    3    3    0  502 -0.18949083021E+02 -0.12285288464E+02 -0.70302227697E+02  0.73840363482E+02  0.00000000000E+00 0.  1.
<mgrwt>
<rscale>  0 0.92409170E+02</rscale>
<asrwt>0</asrwt>
<pdfrwt beam="2">  1        2 0.17381344E+00 0.92409170E+02</pdfrwt>
<pdfrwt beam="1">  1       -2 0.29071007E-03 0.92409170E+02</pdfrwt>
<totfact> 0.24122425E+05</totfact>
</mgrwt>
</event>
<event>
 5    1  0.4067226E+001  0.9137009E+02  0.7546771E-02  0.1299567E+00
         -1   -1    0    0    0  501 -0.00000000000E+00  0.00000000000E+00  0.14117020649E+02  0.14117020649E+02  0.00000000000E+00 0.  1.
          1   -1    0    0  501    0  0.00000000000E+00 -0.00000000000E+00 -0.14784446555E+03  0.14784446555E+03  0.00000000000E+00 0. -1.
         23    2    1    2    0    0  0.00000000000E+00  0.00000000000E+00 -0.13372744491E+03  0.16196148620E+03  0.91370090797E+02 0.  0.
          2    1    3    3  502    0 -0.10055936404E+02  0.32427194748E+02 -0.12105038052E+03  0.12572127680E+03  0.00000000000E+00 0.  1.
         -2    1    3    3    0  502  0.10055936404E+02 -0.32427194748E+02 -0.12677064385E+02  0.36240209403E+02  0.00000000000E+00 0. -1.
<mgrwt>
<rscale>  0 0.91370091E+02</rscale>
<asrwt>0</asrwt>
<pdfrwt beam="2">  1        1 0.22745303E-01 0.91370091E+02</pdfrwt>
<pdfrwt beam="1">  1       -1 0.21718492E-02 0.91370091E+02</pdfrwt>
<totfact> 0.11119735E+05</totfact>
</mgrwt>
</event>
<event>
 5    1  0.4067226E+001  0.9150470E+02  0.7546771E-02  0.1299248E+00
         -1   -1    0    0    0  501 -0.00000000000E+00  0.00000000000E+00  0.15044942299E+03  0.15044942299E+03  0.00000000000E+00 0.  1.
          1   -1    0    0  501    0  0.00000000000E+00 -0.00000000000E+00 -0.13913495080E+02  0.13913495080E+02  0.00000000000E+00 0. -1.
         23    2    1    2    0    0  0.00000000000E+00  0.00000000000E+00  0.13653592791E+03  0.16436291807E+03  0.91504695104E+02 0.  0.
          2    1    3    3  502    0 -0.15735533470E+02  0.19871868035E+02 -0.14857778334E+00  0.25347982723E+02  0.00000000000E+00 0. -1.
         -2    1    3    3    0  502  0.15735533470E+02 -0.19871868035E+02  0.13668450569E+03  0.13901493534E+03  0.00000000000E+00 0.  1.
<mgrwt>
<rscale>  0 0.91504695E+02</rscale>
<asrwt>0</asrwt>
<pdfrwt beam="2">  1        1 0.21405378E-02 0.91504695E+02</pdfrwt>
<pdfrwt beam="1">  1       -1 0.23146064E-01 0.91504695E+02</pdfrwt>
<totfact> 0.74042308E+04</totfact>
</mgrwt>
</event>
<event>
 5    1  0.4067226E+001  0.9134476E+02  0.7546771E-02  0.1299627E+00
         -2   -1    0    0    0  501 -0.00000000000E+00  0.00000000000E+00  0.31770832532E+01  0.31770832532E+01  0.00000000000E+00 0.  1.
          2   -1    0    0  501    0  0.00000000000E+00 -0.00000000000E+00 -0.65656650643E+03  0.65656650643E+03  0.00000000000E+00 0. -1.
         23    2    1    2    0    0  0.00000000000E+00  0.00000000000E+00 -0.65338942318E+03  0.65974358968E+03  0.91344763445E+02 0.  0.
          2    1    3    3  502    0  0.28157610269E+02  0.13069548111E+02 -0.56865631819E+03  0.56950300467E+03  0.00000000000E+00 0. -1.
         -2    1    3    3    0  502 -0.28157610269E+02 -0.13069548111E+02 -0.84733104985E+02  0.90240585017E+02  0.00000000000E+00 0.  1.
<mgrwt>
<rscale>  0 0.91344763E+02</rscale>
<asrwt>0</asrwt>
<pdfrwt beam="2">  1        2 0.10101017E+00 0.91344763E+02</pdfrwt>
<pdfrwt beam="1">  1       -2 0.48878234E-03 0.91344763E+02</pdfrwt>
<totfact> 0.23232656E+05</totfact>
</mgrwt>
</event>
<event>
 5    1  0.4067226E+001  0.9416637E+02  0.7546771E-02  0.1293065E+00
          1   -1    0    0  501    0  0.00000000000E+00  0.00000000000E+00  0.50652052276E+03  0.50652052276E+03  0.00000000000E+00 0. -1.
         -1   -1    0    0    0  501 -0.00000000000E+00 -0.00000000000E+00 -0.43765773483E+01  0.43765773483E+01  0.00000000000E+00 0.  1.
         23    2    1    2    0    0  0.00000000000E+00  0.00000000000E+00  0.50214394541E+03  0.51089710011E+03  0.94166368655E+02 0.  0.
          2    1    3    3  502    0  0.43465064280E+02  0.16212851712E+02  0.20741195554E+03  0.21253655609E+03  0.00000000000E+00 0. -1.
         -2    1    3    3    0  502 -0.43465064280E+02 -0.16212851712E+02  0.29473198988E+03  0.29836054402E+03  0.00000000000E+00 0.  1.
<mgrwt>
<rscale>  0 0.94166369E+02</rscale>
<asrwt>0</asrwt>
<pdfrwt beam="1">  1        1 0.77926188E-01 0.94166369E+02</pdfrwt>
<pdfrwt beam="2">  1       -1 0.67331999E-03 0.94166369E+02</pdfrwt>
<totfact> 0.12802645E+05</totfact>
</mgrwt>
</event>
<event>
 5    1  0.4067226E+001  0.9108597E+02  0.7546771E-02  0.1300243E+00
         -2   -1    0    0    0  501 -0.00000000000E+00  0.00000000000E+00  0.11650925058E+01  0.11650925058E+01  0.00000000000E+00 0. -1.
          2   -1    0    0  501    0  0.00000000000E+00 -0.00000000000E+00 -0.17802566468E+04  0.17802566468E+04  0.00000000000E+00 0.  1.
         23    2    1    2    0    0  0.00000000000E+00  0.00000000000E+00 -0.17790915543E+04  0.17814217393E+04  0.91085974279E+02 0.  0.
          2    1    3    3  502    0 -0.20170212530E+02  0.12693388260E+02 -0.13051890380E+03  0.13267683984E+03  0.00000000000E+00 0. -1.
         -2    1    3    3    0  502  0.20170212530E+02 -0.12693388260E+02 -0.16485726505E+04  0.16487448995E+04  0.00000000000E+00 0.  1.
<mgrwt>
<rscale>  0 0.91085974E+02</rscale>
<asrwt>0</asrwt>
<pdfrwt beam="2">  1        2 0.27388546E+00 0.91085974E+02</pdfrwt>
<pdfrwt beam="1">  1       -2 0.17924512E-03 0.91085974E+02</pdfrwt>
<totfact> 0.21651923E+05</totfact>
</mgrwt>
</event>
<event>
 5    1  0.4067226E+001  0.8898258E+02  0.7546771E-02  0.1305334E+00
          2   -1    0    0  501    0  0.00000000000E+00  0.00000000000E+00  0.34727893462E+02  0.34727893462E+02  0.00000000000E+00 0. -1.
         -2   -1    0    0    0  501 -0.00000000000E+00 -0.00000000000E+00 -0.56999571933E+02  0.56999571933E+02  0.00000000000E+00 0.  1.
         23    2    1    2    0    0  0.00000000000E+00  0.00000000000E+00 -0.22271678471E+02  0.91727465396E+02  0.88982583948E+02 0.  0.
          2    1    3    3  502    0 -0.48625377855E+01  0.28210647374E+02  0.23973409241E+02  0.37339111527E+02  0.00000000000E+00 0. -1.
         -2    1    3    3    0  502  0.48625377855E+01 -0.28210647374E+02 -0.46245087712E+02  0.54388353868E+02  0.00000000000E+00 0.  1.
<mgrwt>
<rscale>  0 0.88982584E+02</rscale>
<asrwt>0</asrwt>
<pdfrwt beam="1">  1        2 0.53427529E-02 0.88982584E+02</pdfrwt>
<pdfrwt beam="2">  1       -2 0.87691648E-02 0.88982584E+02</pdfrwt>
<totfact> 0.98726742E+04</totfact>
</mgrwt>
</event>
<event>
 5    1  0.4067226E+001  0.8944225E+02  0.7546771E-02  0.1304208E+00
         -1   -1    0    0    0  501 -0.00000000000E+00  0.00000000000E+00  0.18572139952E+03  0.18572139952E+03  0.00000000000E+00 0.  1.
          1   -1    0    0  501    0  0.00000000000E+00 -0.00000000000E+00 -0.10768705597E+02  0.10768705597E+02  0.00000000000E+00 0. -1.
         23    2    1    2    0    0  0.00000000000E+00  0.00000000000E+00  0.17495269392E+03  0.19649010511E+03  0.89442251191E+02 0.  0.
          2    1    3    3  502    0 -0.79056060876E+01  0.31938208305E+02  0.20936048588E+02  0.38998280575E+02  0.00000000000E+00 0. -1.
         -2    1    3    3    0  502  0.79056060876E+01 -0.31938208305E+02  0.15401664533E+03  0.15749182454E+03  0.00000000000E+00 0.  1.
<mgrwt>
<rscale>  0 0.89442251E+02</rscale>
<asrwt>0</asrwt>
<pdfrwt beam="2">  1        1 0.16567241E-02 0.89442251E+02</pdfrwt>
<pdfrwt beam="1">  1       -1 0.28572521E-01 0.89442251E+02</pdfrwt>
<totfact> 0.74500847E+04</totfact>
</mgrwt>
</event>
<event>
 5    1  0.4067226E+001  0.9151648E+02  0.7546771E-02  0.1299220E+00
          1   -1    0    0  501    0  0.00000000000E+00  0.00000000000E+00  0.77915767124E+02  0.77915767124E+02  0.00000000000E+00 0. -1.
         -1   -1    0    0    0  501 -0.00000000000E+00 -0.00000000000E+00 -0.26872820274E+02  0.26872820274E+02  0.00000000000E+00 0.  1.
         23    2    1    2    0    0  0.00000000000E+00  0.00000000000E+00  0.51042946850E+02  0.10478858740E+03  0.91516477345E+02 0.  0.
          2    1    3    3  502    0 -0.15703223579E+02 -0.37932965662E+02  0.23841821766E+01  0.41124025087E+02  0.00000000000E+00 0.  1.
         -2    1    3    3    0  502  0.15703223579E+02  0.37932965662E+02  0.48658764673E+02  0.63664562311E+02  0.00000000000E+00 0. -1.
<mgrwt>
<rscale>  0 0.91516477E+02</rscale>
<asrwt>0</asrwt>
<pdfrwt beam="1">  1        1 0.11987041E-01 0.91516477E+02</pdfrwt>
<pdfrwt beam="2">  1       -1 0.41342801E-02 0.91516477E+02</pdfrwt>
<totfact> 0.99305547E+04</totfact>
</mgrwt>
</event>
<event>
 5    1  0.4067226E+001  0.9170528E+02  0.7546771E-02  0.1298774E+00
         -1   -1    0    0    0  501 -0.00000000000E+00  0.00000000000E+00  0.19382620213E+02  0.19382620213E+02  0.00000000000E+00 0.  1.
          1   -1    0    0  501    0  0.00000000000E+00 -0.00000000000E+00 -0.10847162852E+03  0.10847162852E+03  0.00000000000E+00 0. -1.
         23    2    1    2    0    0  0.00000000000E+00  0.00000000000E+00 -0.89089008308E+02  0.12785424873E+03  0.91705275300E+02 0.  0.
          2    1    3    3  502    0 -0.23195111433E+02 -0.12009596226E+02 -0.97085557782E+02  0.10053779949E+03  0.00000000000E+00 0. -1.
         -2    1    3    3    0  502  0.23195111433E+02  0.12009596226E+02  0.79965494739E+01  0.27316449246E+02  0.00000000000E+00 0.  1.
<mgrwt>
<rscale>  0 0.91705275E+02</rscale>
<asrwt>0</asrwt>
<pdfrwt beam="2">  1        1 0.16687943E-01 0.91705275E+02</pdfrwt>
<pdfrwt beam="1">  1       -1 0.29819416E-02 0.91705275E+02</pdfrwt>
<totfact> 0.10423437E+05</totfact>
</mgrwt>
</event>
<event>
 5    1  0.4067226E+001  0.9119748E+02  0.7546771E-02  0.1299977E+00
          2   -1    0    0  501    0  0.00000000000E+00  0.00000000000E+00  0.16182895062E+04  0.16182895062E+04  0.00000000000E+00 0. -1.
         -2   -1    0    0    0  501 -0.00000000000E+00 -0.00000000000E+00 -0.12848413391E+01  0.12848413391E+01  0.00000000000E+00 0.  1.
         23    2    1    2    0    0  0.00000000000E+00  0.00000000000E+00  0.16170046649E+04  0.16195743475E+04  0.91197483654E+02 0.  0.
          2    1    3    3  502    0 -0.44951658887E+02  0.76415493099E+01  0.80055345362E+03  0.80185090697E+03  0.00000000000E+00 0. -1.
         -2    1    3    3    0  502  0.44951658887E+02 -0.76415493099E+01  0.81645121125E+03  0.81772344057E+03  0.00000000000E+00 0.  1.
<mgrwt>
<rscale>  0 0.91197484E+02</rscale>
<asrwt>0</asrwt>
<pdfrwt beam="1">  1        2 0.24896599E+00 0.91197484E+02</pdfrwt>
<pdfrwt beam="2">  1       -2 0.19766919E-03 0.91197484E+02</pdfrwt>
<totfact> 0.22814135E+05</totfact>
</mgrwt>
</event>
<event>
 5    1  0.4067226E+001  0.1040939E+03  0.7546771E-02  0.1271915E+00
         -2   -1    0    0    0  501 -0.00000000000E+00  0.00000000000E+00  0.22046256525E+02  0.22046256525E+02  0.00000000000E+00 0.  1.
          2   -1    0    0  501    0  0.00000000000E+00 -0.00000000000E+00 -0.12287278907E+03  0.12287278907E+03  0.00000000000E+00 0. -1.
         23    2    1    2    0    0  0.00000000000E+00  0.00000000000E+00 -0.10082653255E+03  0.14491904560E+03  0.10409390045E+03 0.  0.
          2    1    3    3  502    0  0.51581492525E+02  0.65113669495E+01 -0.53776724171E+02  0.74799627895E+02  0.00000000000E+00 0. -1.
         -2    1    3    3    0  502 -0.51581492525E+02 -0.65113669495E+01 -0.47049808376E+02  0.70119417702E+02  0.00000000000E+00 0.  1.
<mgrwt>
<rscale>  0 0.10409390E+03</rscale>
<asrwt>0</asrwt>
<pdfrwt beam="2">  1        2 0.18903507E-01 0.10409390E+03</pdfrwt>
<pdfrwt beam="1">  1       -2 0.33917317E-02 0.10409390E+03</pdfrwt>
<totfact> 0.90791427E+04</totfact>
</mgrwt>
</event>
<event>
 5    1  0.4067226E+001  0.6354320E+02  0.7546771E-02  0.1383537E+00
          2   -1    0    0  501    0  0.00000000000E+00  0.00000000000E+00  0.72024756934E+02  0.72024756934E+02  0.00000000000E+00 0. -1.
         -2   -1    0    0    0  501 -0.00000000000E+00 -0.00000000000E+00 -0.14015107220E+02  0.14015107220E+02  0.00000000000E+00 0.  1.
         23    2    1    2    0    0  0.00000000000E+00  0.00000000000E+00  0.58009649714E+02  0.86039864154E+02  0.63543203914E+02 0.  0.
          2    1    3    3  502    0  0.23805414523E+02  0.55935437250E+01  0.56470401273E+02  0.61537725925E+02  0.00000000000E+00 0. -1.
         -2    1    3    3    0  502 -0.23805414523E+02 -0.55935437250E+01  0.15392484414E+01  0.24502138229E+02  0.00000000000E+00 0.  1.
<mgrwt>
<rscale>  0 0.63543204E+02</rscale>
<asrwt>0</asrwt>
<pdfrwt beam="1">  1        2 0.11080732E-01 0.63543204E+02</pdfrwt>
<pdfrwt beam="2">  1       -2 0.21561704E-02 0.63543204E+02</pdfrwt>
<totfact> 0.29701430E+05</totfact>
</mgrwt>
</event>
<event>
 5    1  0.4067226E+001  0.9124209E+02  0.7546771E-02  0.1299871E+00
         -1   -1    0    0    0  501 -0.00000000000E+00  0.00000000000E+00  0.35199176838E+01  0.35199176838E+01  0.00000000000E+00 0.  1.
          1   -1    0    0  501    0  0.00000000000E+00 -0.00000000000E+00 -0.59128651649E+03  0.59128651649E+03  0.00000000000E+00 0. -1.
         23    2    1    2    0    0  0.00000000000E+00  0.00000000000E+00 -0.58776659881E+03  0.59480643417E+03  0.91242092601E+02 0.  0.
          2    1    3    3  502    0  0.10880298098E+02 -0.23154100205E+02 -0.54012405495E+03  0.54072958859E+03  0.00000000000E+00 0. -1.
         -2    1    3    3    0  502 -0.10880298098E+02  0.23154100205E+02 -0.47642543858E+02  0.54076845583E+02  0.00000000000E+00 0.  1.
<mgrwt>
<rscale>  0 0.91242093E+02</rscale>
<asrwt>0</asrwt>
<pdfrwt beam="2">  1        1 0.90967075E-01 0.91242093E+02</pdfrwt>
<pdfrwt beam="1">  1       -1 0.54152628E-03 0.91242093E+02</pdfrwt>
<totfact> 0.14119014E+05</totfact>
</mgrwt>
</event>
<event>
 5    1  0.4067226E+001  0.8997002E+02  0.7546771E-02  0.1302924E+00
         -2   -1    0    0    0  501 -0.00000000000E+00  0.00000000000E+00  0.29841479080E+01  0.29841479080E+01  0.00000000000E+00 0.  1.
          2   -1    0    0  501    0  0.00000000000E+00 -0.00000000000E+00 -0.67813365459E+03  0.67813365459E+03  0.00000000000E+00 0. -1.
         23    2    1    2    0    0  0.00000000000E+00  0.00000000000E+00 -0.67514950668E+03  0.68111780250E+03  0.89970020044E+02 0.  0.
          2    1    3    3  502    0  0.28771736543E+02 -0.16197810540E+02 -0.10627539956E+03  0.11128630842E+03  0.00000000000E+00 0.  1.
         -2    1    3    3    0  502 -0.28771736543E+02  0.16197810540E+02 -0.56887410712E+03  0.56983149408E+03  0.00000000000E+00 0. -1.
<mgrwt>
<rscale>  0 0.89970020E+02</rscale>
<asrwt>0</asrwt>
<pdfrwt beam="2">  1        2 0.10432835E+00 0.89970020E+02</pdfrwt>
<pdfrwt beam="1">  1       -2 0.45909926E-03 0.89970020E+02</pdfrwt>
<totfact> 0.24376652E+05</totfact>
</mgrwt>
</event>
<event>
 5    1  0.4067226E+001  0.9261818E+02  0.7546771E-02  0.1296632E+00
          1   -1    0    0  501    0  0.00000000000E+00  0.00000000000E+00  0.20920612026E+03  0.20920612026E+03  0.00000000000E+00 0. -1.
         -1   -1    0    0    0  501 -0.00000000000E+00 -0.00000000000E+00 -0.10250808334E+02  0.10250808334E+02  0.00000000000E+00 0.  1.
         23    2    1    2    0    0  0.00000000000E+00  0.00000000000E+00  0.19895531192E+03  0.21945692859E+03  0.92618180525E+02 0.  0.
          2    1    3    3  502    0  0.39354336373E+02  0.19667746031E+02  0.13372855451E+03  0.14077965164E+03  0.00000000000E+00 0. -1.
         -2    1    3    3    0  502 -0.39354336373E+02 -0.19667746031E+02  0.65226757417E+02  0.78677276951E+02  0.00000000000E+00 0.  1.
<mgrwt>
<rscale>  0 0.92618181E+02</rscale>
<asrwt>0</asrwt>
<pdfrwt beam="1">  1        1 0.32185554E-01 0.92618181E+02</pdfrwt>
<pdfrwt beam="2">  1       -1 0.15770476E-02 0.92618181E+02</pdfrwt>
<totfact> 0.11452206E+05</totfact>
</mgrwt>
</event>
<event>
 5    1  0.4067226E+001  0.8686512E+02  0.7546771E-02  0.1310626E+00
          2   -1    0    0  501    0  0.00000000000E+00  0.00000000000E+00  0.23952289076E+01  0.23952289076E+01  0.00000000000E+00 0. -1.
         -2   -1    0    0    0  501 -0.00000000000E+00 -0.00000000000E+00 -0.78756038602E+03  0.78756038602E+03  0.00000000000E+00 0.  1.
         23    2    1    2    0    0  0.00000000000E+00  0.00000000000E+00 -0.78516515711E+03  0.78995561493E+03  0.86865123106E+02 0.  0.
          2    1    3    3  502    0 -0.25895627497E+02  0.29553222931E+02 -0.56086201063E+03  0.56223675749E+03  0.00000000000E+00 0. -1.
         -2    1    3    3    0  502  0.25895627497E+02 -0.29553222931E+02 -0.22430314648E+03  0.22771885743E+03  0.00000000000E+00 0.  1.
<mgrwt>
<rscale>  0 0.86865123E+02</rscale>
<asrwt>0</asrwt>
<pdfrwt beam="1">  1        2 0.36849739E-03 0.86865123E+02</pdfrwt>
<pdfrwt beam="2">  1       -2 0.12116293E+00 0.86865123E+02</pdfrwt>
<totfact> 0.27469975E+04</totfact>
</mgrwt>
</event>
<event>
 5    1  0.4067226E+001  0.9068795E+02  0.7546771E-02  0.1301194E+00
         -1   -1    0    0    0  501 -0.00000000000E+00  0.00000000000E+00  0.20819943965E+01  0.20819943965E+01  0.00000000000E+00 0.  1.
          1   -1    0    0  501    0  0.00000000000E+00 -0.00000000000E+00 -0.98755122842E+03  0.98755122842E+03  0.00000000000E+00 0. -1.
         23    2    1    2    0    0  0.00000000000E+00  0.00000000000E+00 -0.98546923402E+03  0.98963322281E+03  0.90687951213E+02 0.  0.
          2    1    3    3  502    0  0.18741970558E+02  0.10405273060E+02 -0.92876349356E+03  0.92901084931E+03  0.00000000000E+00 0. -1.
         -2    1    3    3    0  502 -0.18741970558E+02 -0.10405273060E+02 -0.56705740456E+02  0.60622373498E+02  0.00000000000E+00 0.  1.
<mgrwt>
<rscale>  0 0.90687951E+02</rscale>
<asrwt>0</asrwt>
<pdfrwt beam="2">  1        1 0.15193118E+00 0.90687951E+02</pdfrwt>
<pdfrwt beam="1">  1       -1 0.32030635E-03 0.90687951E+02</pdfrwt>
<totfact> 0.13841131E+05</totfact>
</mgrwt>
</event>
<event>
 5    1  0.4067226E+001  0.9188696E+02  0.7546771E-02  0.1298345E+00
          4   -1    0    0  501    0  0.00000000000E+00  0.00000000000E+00  0.60908826530E+02  0.60908826530E+02  0.00000000000E+00 0. -1.
         -4   -1    0    0    0  501 -0.00000000000E+00 -0.00000000000E+00 -0.34655128263E+02  0.34655128263E+02  0.00000000000E+00 0.  1.
         23    2    1    2    0    0  0.00000000000E+00  0.00000000000E+00  0.26253698267E+02  0.95563954793E+02  0.91886956545E+02 0.  0.
          2    1    3    3  502    0  0.29970578514E+02  0.34388166168E+02  0.74283891442E+01  0.46216474488E+02  0.00000000000E+00 0. -1.
         -2    1    3    3    0  502 -0.29970578514E+02 -0.34388166168E+02  0.18825309123E+02  0.49347480305E+02  0.00000000000E+00 0.  1.
<mgrwt>
<rscale>  0 0.91886957E+02</rscale>
<asrwt>0</asrwt>
<pdfrwt beam="1">  1        4 0.93705887E-02 0.91886957E+02</pdfrwt>
<pdfrwt beam="2">  1       -4 0.53315582E-02 0.91886957E+02</pdfrwt>
<totfact> 0.26177992E+04</totfact>
</mgrwt>
</event>
<event>
 5    1  0.4067226E+001  0.8935023E+02  0.7546771E-02  0.1304433E+00
          1   -1    0    0  501    0  0.00000000000E+00  0.00000000000E+00  0.20193462838E+02  0.20193462838E+02  0.00000000000E+00 0. -1.
         -1   -1    0    0    0  501 -0.00000000000E+00 -0.00000000000E+00 -0.98837232953E+02  0.98837232953E+02  0.00000000000E+00 0.  1.
         23    2    1    2    0    0  0.00000000000E+00  0.00000000000E+00 -0.78643770116E+02  0.11903069579E+03  0.89350232023E+02 0.  0.
          2    1    3    3  502    0  0.29180928387E+02 -0.29195006186E+02 -0.62085856780E+02  0.74555540235E+02  0.00000000000E+00 0.  1.
         -2    1    3    3    0  502 -0.29180928387E+02  0.29195006186E+02 -0.16557913336E+02  0.44475155556E+02  0.00000000000E+00 0. -1.
<mgrwt>
<rscale>  0 0.89350232E+02</rscale>
<asrwt>0</asrwt>
<pdfrwt beam="1">  1        1 0.31066866E-02 0.89350232E+02</pdfrwt>
<pdfrwt beam="2">  1       -1 0.15205728E-01 0.89350232E+02</pdfrwt>
<totfact> 0.85903128E+04</totfact>
</mgrwt>
</event>
<event>
 5    1  0.4067226E+001  0.8455318E+02  0.7546771E-02  0.1316605E+00
          2   -1    0    0  501    0  0.00000000000E+00  0.00000000000E+00  0.69741331555E+03  0.69741331555E+03  0.00000000000E+00 0. -1.
         -2   -1    0    0    0  501 -0.00000000000E+00 -0.00000000000E+00 -0.25627701775E+01  0.25627701775E+01  0.00000000000E+00 0.  1.
         23    2    1    2    0    0  0.00000000000E+00  0.00000000000E+00  0.69485054538E+03  0.69997608573E+03  0.84553179632E+02 0.  0.
          2    1    3    3  502    0  0.34137482401E+02 -0.63801849985E+01  0.14783960322E+03  0.15186382961E+03  0.00000000000E+00 0.  1.
         -2    1    3    3    0  502 -0.34137482401E+02  0.63801849985E+01  0.54701094216E+03  0.54811225612E+03  0.00000000000E+00 0. -1.
<mgrwt>
<rscale>  0 0.84553180E+02</rscale>
<asrwt>0</asrwt>
<pdfrwt beam="1">  1        2 0.10729421E+00 0.84553180E+02</pdfrwt>
<pdfrwt beam="2">  1       -2 0.39427289E-03 0.84553180E+02</pdfrwt>
<totfact> 0.28886069E+05</totfact>
</mgrwt>
</event>
<event>
 5    1  0.4067226E+001  0.9055174E+02  0.7546771E-02  0.1301521E+00
          2   -1    0    0  501    0  0.00000000000E+00  0.00000000000E+00  0.10041411626E+04  0.10041411626E+04  0.00000000000E+00 0. -1.
         -2   -1    0    0    0  501 -0.00000000000E+00 -0.00000000000E+00 -0.20414506132E+01  0.20414506132E+01  0.00000000000E+00 0.  1.
         23    2    1    2    0    0  0.00000000000E+00  0.00000000000E+00  0.10020997119E+04  0.10061826132E+04  0.90551744148E+02 0.  0.
          2    1    3    3  502    0  0.37365212370E+02  0.70660647172E+01  0.22800601896E+03  0.23115543050E+03  0.00000000000E+00 0.  1.
         -2    1    3    3    0  502 -0.37365212370E+02 -0.70660647172E+01  0.77409369298E+03  0.77502718267E+03  0.00000000000E+00 0. -1.
<mgrwt>
<rscale>  0 0.90551744E+02</rscale>
<asrwt>0</asrwt>
<pdfrwt beam="1">  1        2 0.15448286E+00 0.90551744E+02</pdfrwt>
<pdfrwt beam="2">  1       -2 0.31407013E-03 0.90551744E+02</pdfrwt>
<totfact> 0.25462641E+05</totfact>
</mgrwt>
</event>
<event>
 5    1  0.4067226E+001  0.8599930E+02  0.7546771E-02  0.1312840E+00
          1   -1    0    0  501    0  0.00000000000E+00  0.00000000000E+00  0.36653831815E+02  0.36653831815E+02  0.00000000000E+00 0. -1.
         -1   -1    0    0    0  501 -0.00000000000E+00 -0.00000000000E+00 -0.50444106904E+02  0.50444106904E+02  0.00000000000E+00 0.  1.
         23    2    1    2    0    0  0.00000000000E+00  0.00000000000E+00 -0.13790275090E+02  0.87097938719E+02  0.85999297916E+02 0.  0.
          2    1    3    3  502    0  0.30329367407E+02 -0.24795861276E+02  0.11058839520E+02  0.40706304122E+02  0.00000000000E+00 0. -1.
         -2    1    3    3    0  502 -0.30329367407E+02  0.24795861276E+02 -0.24849114610E+02  0.46391634597E+02  0.00000000000E+00 0.  1.
<mgrwt>
<rscale>  0 0.85999298E+02</rscale>
<asrwt>0</asrwt>
<pdfrwt beam="1">  1        1 0.56390511E-02 0.85999298E+02</pdfrwt>
<pdfrwt beam="2">  1       -1 0.77606318E-02 0.85999298E+02</pdfrwt>
<totfact> 0.10549967E+05</totfact>
</mgrwt>
</event>
<event>
 5    1  0.4067226E+001  0.9127416E+02  0.7546771E-02  0.1299795E+00
          4   -1    0    0  501    0  0.00000000000E+00  0.00000000000E+00  0.11887025643E+02  0.11887025643E+02  0.00000000000E+00 0. -1.
         -4   -1    0    0    0  501 -0.00000000000E+00 -0.00000000000E+00 -0.17521144528E+03  0.17521144528E+03  0.00000000000E+00 0.  1.
         23    2    1    2    0    0  0.00000000000E+00  0.00000000000E+00 -0.16332441964E+03  0.18709847093E+03  0.91274157196E+02 0.  0.
          2    1    3    3  502    0  0.44481890839E+02 -0.56122165980E+01 -0.99128984407E+02  0.10879655848E+03  0.00000000000E+00 0. -1.
         -2    1    3    3    0  502 -0.44481890839E+02  0.56122165980E+01 -0.64195435235E+02  0.78301912446E+02  0.00000000000E+00 0.  1.
<mgrwt>
<rscale>  0 0.91274157E+02</rscale>
<asrwt>0</asrwt>
<pdfrwt beam="1">  1        4 0.18287732E-02 0.91274157E+02</pdfrwt>
<pdfrwt beam="2">  1       -4 0.26955606E-01 0.91274157E+02</pdfrwt>
<totfact> 0.21874672E+04</totfact>
</mgrwt>
</event>
<event>
 5    1  0.4067226E+001  0.8930998E+02  0.7546771E-02  0.1304531E+00
         -1   -1    0    0    0  501 -0.00000000000E+00  0.00000000000E+00  0.63529235530E+03  0.63529235530E+03  0.00000000000E+00 0.  1.
          1   -1    0    0  501    0  0.00000000000E+00 -0.00000000000E+00 -0.31388196187E+01  0.31388196187E+01  0.00000000000E+00 0. -1.
         23    2    1    2    0    0  0.00000000000E+00  0.00000000000E+00  0.63215353568E+03  0.63843117492E+03  0.89309979475E+02 0.  0.
          2    1    3    3  502    0  0.20862870907E+02  0.32705767707E+02  0.15797695900E+03  0.16267036054E+03  0.00000000000E+00 0. -1.
         -2    1    3    3    0  502 -0.20862870907E+02 -0.32705767707E+02  0.47417657668E+03  0.47576081438E+03  0.00000000000E+00 0.  1.
<mgrwt>
<rscale>  0 0.89309979E+02</rscale>
<asrwt>0</asrwt>
<pdfrwt beam="2">  1        1 0.48289583E-03 0.89309979E+02</pdfrwt>
<pdfrwt beam="1">  1       -1 0.97737183E-01 0.89309979E+02</pdfrwt>
<totfact> 0.42089032E+04</totfact>
</mgrwt>
</event>
<event>
 5    1  0.4067226E+001  0.9215072E+02  0.7546771E-02  0.1297725E+00
          2   -1    0    0  501    0  0.00000000000E+00  0.00000000000E+00  0.96119124453E+03  0.96119124453E+03  0.00000000000E+00 0. -1.
         -2   -1    0    0    0  501 -0.00000000000E+00 -0.00000000000E+00 -0.22086540343E+01  0.22086540343E+01  0.00000000000E+00 0.  1.
         23    2    1    2    0    0  0.00000000000E+00  0.00000000000E+00  0.95898259050E+03  0.96339989857E+03  0.92150722622E+02 0.  0.
          2    1    3    3  502    0 -0.54683570795E+01  0.42128687692E+02  0.66598515340E+03  0.66733870995E+03  0.00000000000E+00 0. -1.
         -2    1    3    3    0  502  0.54683570795E+01 -0.42128687692E+02  0.29299743710E+03  0.29606118862E+03  0.00000000000E+00 0.  1.
<mgrwt>
<rscale>  0 0.92150723E+02</rscale>
<asrwt>0</asrwt>
<pdfrwt beam="1">  1        2 0.14787524E+00 0.92150723E+02</pdfrwt>
<pdfrwt beam="2">  1       -2 0.33979369E-03 0.92150723E+02</pdfrwt>
<totfact> 0.24256105E+05</totfact>
</mgrwt>
</event>
<event>
 5    1  0.4067226E+001  0.9220835E+02  0.7546771E-02  0.1297590E+00
         -2   -1    0    0    0  501 -0.00000000000E+00  0.00000000000E+00  0.53627329991E+01  0.53627329991E+01  0.00000000000E+00 0.  1.
          2   -1    0    0  501    0  0.00000000000E+00 -0.00000000000E+00 -0.39636408896E+03  0.39636408896E+03  0.00000000000E+00 0. -1.
         23    2    1    2    0    0  0.00000000000E+00  0.00000000000E+00 -0.39100135596E+03  0.40172682196E+03  0.92208346249E+02 0.  0.
          2    1    3    3  502    0  0.29444310929E+02  0.32351696339E+02 -0.25893488050E+03  0.26260402137E+03  0.00000000000E+00 0. -1.
         -2    1    3    3    0  502 -0.29444310929E+02 -0.32351696339E+02 -0.13206647546E+03  0.13912280059E+03  0.00000000000E+00 0.  1.
<mgrwt>
<rscale>  0 0.92208346E+02</rscale>
<asrwt>0</asrwt>
<pdfrwt beam="2">  1        2 0.60979132E-01 0.92208346E+02</pdfrwt>
<pdfrwt beam="1">  1       -2 0.82503528E-03 0.92208346E+02</pdfrwt>
<totfact> 0.19311143E+05</totfact>
</mgrwt>
</event>
<event>
 5    1  0.4067226E+001  0.9216941E+02  0.7546771E-02  0.1297682E+00
          2   -1    0    0  501    0  0.00000000000E+00  0.00000000000E+00  0.49215092464E+03  0.49215092464E+03  0.00000000000E+00 0. -1.
         -2   -1    0    0    0  501 -0.00000000000E+00 -0.00000000000E+00 -0.43153428284E+01  0.43153428284E+01  0.00000000000E+00 0.  1.
         23    2    1    2    0    0  0.00000000000E+00  0.00000000000E+00  0.48783558182E+03  0.49646626747E+03  0.92169408442E+02 0.  0.
          2    1    3    3  502    0  0.30249692702E+02  0.27515292435E+02  0.35839289256E+03  0.36071817346E+03  0.00000000000E+00 0. -1.
         -2    1    3    3    0  502 -0.30249692702E+02 -0.27515292435E+02  0.12944268925E+03  0.13574809401E+03  0.00000000000E+00 0.  1.
<mgrwt>
<rscale>  0 0.92169408E+02</rscale>
<asrwt>0</asrwt>
<pdfrwt beam="1">  1        2 0.75715482E-01 0.92169408E+02</pdfrwt>
<pdfrwt beam="2">  1       -2 0.66389929E-03 0.92169408E+02</pdfrwt>
<totfact> 0.20832319E+05</totfact>
</mgrwt>
</event>
<event>
 5    1  0.4067226E+001  0.9266389E+02  0.7546771E-02  0.1296526E+00
          2   -1    0    0  501    0  0.00000000000E+00  0.00000000000E+00  0.39023075863E+04  0.39023075863E+04  0.00000000000E+00 0. -1.
         -2   -1    0    0    0  501 -0.00000000000E+00 -0.00000000000E+00 -0.55009733348E+00  0.55009733348E+00  0.00000000000E+00 0.  1.
         23    2    1    2    0    0  0.00000000000E+00  0.00000000000E+00  0.39017574890E+04  0.39028576837E+04  0.92663887198E+02 0.  0.
          2    1    3    3  502    0 -0.43464677173E+02 -0.76190230139E+01  0.25456609931E+04  0.25460434245E+04  0.00000000000E+00 0. -1.
         -2    1    3    3    0  502  0.43464677173E+02  0.76190230139E+01  0.13560964959E+04  0.13568142592E+04  0.00000000000E+00 0.  1.
<mgrwt>
<rscale>  0 0.92663887E+02</rscale>
<asrwt>0</asrwt>
<pdfrwt beam="1">  1        2 0.60033284E+00 0.92663887E+02</pdfrwt>
<pdfrwt beam="2">  1       -2 0.84633484E-04 0.92663887E+02</pdfrwt>
<totfact> 0.37501430E+04</totfact>
</mgrwt>
</event>
<event>
 5    1  0.4067226E+001  0.8888104E+02  0.7546771E-02  0.1305584E+00
          2   -1    0    0  501    0  0.00000000000E+00  0.00000000000E+00  0.34180921928E+03  0.34180921928E+03  0.00000000000E+00 0.  1.
         -2   -1    0    0    0  501 -0.00000000000E+00 -0.00000000000E+00 -0.57779601226E+01  0.57779601226E+01  0.00000000000E+00 0. -1.
         23    2    1    2    0    0  0.00000000000E+00  0.00000000000E+00  0.33603125915E+03  0.34758717940E+03  0.88881044965E+02 0.  0.
          2    1    3    3  502    0 -0.32269855083E+02  0.22611071225E+02  0.24838561795E+03  0.25149158891E+03  0.00000000000E+00 0.  1.
         -2    1    3    3    0  502  0.32269855083E+02 -0.22611071225E+02  0.87645641204E+02  0.96095590487E+02  0.00000000000E+00 0. -1.
<mgrwt>
<rscale>  0 0.88881045E+02</rscale>
<asrwt>0</asrwt>
<pdfrwt beam="1">  1        2 0.52586018E-01 0.88881045E+02</pdfrwt>
<pdfrwt beam="2">  1       -2 0.88891721E-03 0.88881045E+02</pdfrwt>
<totfact> 0.20176923E+05</totfact>
</mgrwt>
</event>
<event>
 5    1  0.4067226E+001  0.9293817E+02  0.7546771E-02  0.1295889E+00
         -1   -1    0    0    0  501 -0.00000000000E+00  0.00000000000E+00  0.97218837233E+02  0.97218837233E+02  0.00000000000E+00 0.  1.
          1   -1    0    0  501    0  0.00000000000E+00 -0.00000000000E+00 -0.22211498185E+02  0.22211498185E+02  0.00000000000E+00 0. -1.
         23    2    1    2    0    0  0.00000000000E+00  0.00000000000E+00  0.75007339049E+02  0.11943033542E+03  0.92938173572E+02 0.  0.
          2    1    3    3  502    0 -0.14000568520E+02  0.42590538401E+02  0.21796253342E+02  0.49850241122E+02  0.00000000000E+00 0. -1.
         -2    1    3    3    0  502  0.14000568520E+02 -0.42590538401E+02  0.53211085707E+02  0.69580094296E+02  0.00000000000E+00 0.  1.
<mgrwt>
<rscale>  0 0.92938174E+02</rscale>
<asrwt>0</asrwt>
<pdfrwt beam="2">  1        1 0.34171536E-02 0.92938174E+02</pdfrwt>
<pdfrwt beam="1">  1       -1 0.14956744E-01 0.92938174E+02</pdfrwt>
<totfact> 0.77860888E+04</totfact>
</mgrwt>
</event>
<event>
 5    1  0.4067226E+001  0.9165792E+02  0.7546771E-02  0.1298886E+00
         -2   -1    0    0    0  501 -0.00000000000E+00  0.00000000000E+00  0.14163408613E+01  0.14163408613E+01  0.00000000000E+00 0.  1.
          2   -1    0    0  501    0  0.00000000000E+00 -0.00000000000E+00 -0.14829012320E+04  0.14829012320E+04  0.00000000000E+00 0. -1.
         23    2    1    2    0    0  0.00000000000E+00  0.00000000000E+00 -0.14814848911E+04  0.14843175728E+04  0.91657920730E+02 0.  0.
          2    1    3    3  502    0 -0.22869909508E+02 -0.39667114813E+02 -0.77223091358E+03  0.77358716164E+03  0.00000000000E+00 0. -1.
         -2    1    3    3    0  502  0.22869909508E+02  0.39667114813E+02 -0.70925397752E+03  0.71073041118E+03  0.00000000000E+00 0.  1.
<mgrwt>
<rscale>  0 0.91657921E+02</rscale>
<asrwt>0</asrwt>
<pdfrwt beam="2">  1        2 0.22813966E+00 0.91657921E+02</pdfrwt>
<pdfrwt beam="1">  1       -2 0.21789763E-03 0.91657921E+02</pdfrwt>
<totfact> 0.23370479E+05</totfact>
</mgrwt>
</event>
<event>
 5    1  0.4067226E+001  0.9138005E+02  0.7546771E-02  0.1299544E+00
          1   -1    0    0  501    0  0.00000000000E+00  0.00000000000E+00  0.29101396503E+04  0.29101396503E+04  0.00000000000E+00 0. -1.
         -1   -1    0    0    0  501 -0.00000000000E+00 -0.00000000000E+00 -0.71734650422E+00  0.71734650422E+00  0.00000000000E+00 0.  1.
         23    2    1    2    0    0  0.00000000000E+00  0.00000000000E+00  0.29094223038E+04  0.29108569968E+04  0.91380052636E+02 0.  0.
          2    1    3    3  502    0 -0.34859380044E+02 -0.32412391071E+01  0.51952724628E+03  0.52070552295E+03  0.00000000000E+00 0. -1.
         -2    1    3    3    0  502  0.34859380044E+02  0.32412391071E+01  0.23898950575E+04  0.23901514739E+04  0.00000000000E+00 0.  1.
<mgrwt>
<rscale>  0 0.91380053E+02</rscale>
<asrwt>0</asrwt>
<pdfrwt beam="1">  1        1 0.44770434E+00 0.91380053E+02</pdfrwt>
<pdfrwt beam="2">  1       -1 0.11036333E-03 0.91380053E+02</pdfrwt>
<totfact> 0.34471771E+04</totfact>
</mgrwt>
</event>
<event>
 5    1  0.4067226E+001  0.9264378E+02  0.7546771E-02  0.1296573E+00
         -2   -1    0    0    0  501 -0.00000000000E+00  0.00000000000E+00  0.97008026929E+01  0.97008026929E+01  0.00000000000E+00 0.  1.
          2   -1    0    0  501    0  0.00000000000E+00 -0.00000000000E+00 -0.22118967779E+03  0.22118967779E+03  0.00000000000E+00 0. -1.
         23    2    1    2    0    0  0.00000000000E+00  0.00000000000E+00 -0.21148887510E+03  0.23089048049E+03  0.92643778463E+02 0.  0.
          2    1    3    3  502    0 -0.21221227045E+02 -0.18927026108E+02 -0.19687812855E+03  0.19892101522E+03  0.00000000000E+00 0. -1.
         -2    1    3    3    0  502  0.21221227045E+02  0.18927026108E+02 -0.14610746547E+02  0.31969465264E+02  0.00000000000E+00 0.  1.
<mgrwt>
<rscale>  0 0.92643778E+02</rscale>
<asrwt>0</asrwt>
<pdfrwt beam="2">  1        2 0.34029181E-01 0.92643778E+02</pdfrwt>
<pdfrwt beam="1">  1       -2 0.14924312E-02 0.92643778E+02</pdfrwt>
<totfact> 0.15371288E+05</totfact>
</mgrwt>
</event>
<event>
 5    1  0.4067226E+001  0.9650729E+02  0.7546771E-02  0.1287817E+00
         -2   -1    0    0    0  501 -0.00000000000E+00  0.00000000000E+00  0.36488109783E+01  0.36488109783E+01  0.00000000000E+00 0.  1.
          2   -1    0    0  501    0  0.00000000000E+00 -0.00000000000E+00 -0.63812955312E+03  0.63812955312E+03  0.00000000000E+00 0. -1.
         23    2    1    2    0    0  0.00000000000E+00  0.00000000000E+00 -0.63448074214E+03  0.64177836410E+03  0.96507287166E+02 0.  0.
          2    1    3    3  502    0 -0.27277424243E+02  0.32457575311E+02 -0.47046049327E+03  0.47236704774E+03  0.00000000000E+00 0. -1.
         -2    1    3    3    0  502  0.27277424243E+02 -0.32457575311E+02 -0.16402024888E+03  0.16941131636E+03  0.00000000000E+00 0.  1.
<mgrwt>
<rscale>  0 0.96507287E+02</rscale>
<asrwt>0</asrwt>
<pdfrwt beam="2">  1        2 0.98173745E-01 0.96507287E+02</pdfrwt>
<pdfrwt beam="1">  1       -2 0.56135572E-03 0.96507287E+02</pdfrwt>
<totfact> 0.19936401E+05</totfact>
</mgrwt>
</event>
<event>
 5    1  0.4067226E+001  0.8951794E+02  0.7546771E-02  0.1304023E+00
         -1   -1    0    0    0  501 -0.00000000000E+00  0.00000000000E+00  0.61369074805E+01  0.61369074805E+01  0.00000000000E+00 0.  1.
          1   -1    0    0  501    0  0.00000000000E+00 -0.00000000000E+00 -0.32644540717E+03  0.32644540717E+03  0.00000000000E+00 0. -1.
         23    2    1    2    0    0  0.00000000000E+00  0.00000000000E+00 -0.32030849969E+03  0.33258231465E+03  0.89517937001E+02 0.  0.
          2    1    3    3  502    0  0.34459166699E+02 -0.22451746863E+02 -0.94545453815E+02  0.10310362721E+03  0.00000000000E+00 0.  1.
         -2    1    3    3    0  502 -0.34459166699E+02  0.22451746863E+02 -0.22576304587E+03  0.22947868744E+03  0.00000000000E+00 0. -1.
<mgrwt>
<rscale>  0 0.89517937E+02</rscale>
<asrwt>0</asrwt>
<pdfrwt beam="2">  1        1 0.50222368E-01 0.89517937E+02</pdfrwt>
<pdfrwt beam="1">  1       -1 0.94413966E-03 0.89517937E+02</pdfrwt>
<totfact> 0.13668280E+05</totfact>
</mgrwt>
</event>
<event>
 5    1  0.4067226E+001  0.8543930E+02  0.7546771E-02  0.1314288E+00
          2   -1    0    0  501    0  0.00000000000E+00  0.00000000000E+00  0.15619121100E+03  0.15619121100E+03  0.00000000000E+00 0. -1.
         -2   -1    0    0    0  501 -0.00000000000E+00 -0.00000000000E+00 -0.11684193795E+02  0.11684193795E+02  0.00000000000E+00 0.  1.
         23    2    1    2    0    0  0.00000000000E+00  0.00000000000E+00  0.14450701721E+03  0.16787540480E+03  0.85439297246E+02 0.  0.
          2    1    3    3  502    0  0.32215239109E+02 -0.26957361755E+02  0.56977207869E+02  0.70787874669E+02  0.00000000000E+00 0.  1.
         -2    1    3    3    0  502 -0.32215239109E+02  0.26957361755E+02  0.87529809340E+02  0.97087530130E+02  0.00000000000E+00 0. -1.
<mgrwt>
<rscale>  0 0.85439297E+02</rscale>
<asrwt>0</asrwt>
<pdfrwt beam="1">  1        2 0.24029416E-01 0.85439297E+02</pdfrwt>
<pdfrwt beam="2">  1       -2 0.17975684E-02 0.85439297E+02</pdfrwt>
<totfact> 0.16892212E+05</totfact>
</mgrwt>
</event>
<event>
 5    1  0.4067226E+001  0.9170957E+02  0.7546771E-02  0.1298764E+00
          1   -1    0    0  501    0  0.00000000000E+00  0.00000000000E+00  0.21182655553E+03  0.21182655553E+03  0.00000000000E+00 0. -1.
         -1   -1    0    0    0  501 -0.00000000000E+00 -0.00000000000E+00 -0.99263344723E+01  0.99263344723E+01  0.00000000000E+00 0.  1.
         23    2    1    2    0    0  0.00000000000E+00  0.00000000000E+00  0.20190022106E+03  0.22175289000E+03  0.91709568537E+02 0.  0.
          2    1    3    3  502    0  0.13686837129E+02 -0.21127520338E+02  0.19362446428E+03  0.19525402632E+03  0.00000000000E+00 0. -1.
         -2    1    3    3    0  502 -0.13686837129E+02  0.21127520338E+02  0.82757567776E+01  0.26498863683E+02  0.00000000000E+00 0.  1.
<mgrwt>
<rscale>  0 0.91709569E+02</rscale>
<asrwt>0</asrwt>
<pdfrwt beam="1">  1        1 0.32588697E-01 0.91709569E+02</pdfrwt>
<pdfrwt beam="2">  1       -1 0.15271285E-02 0.91709569E+02</pdfrwt>
<totfact> 0.11787963E+05</totfact>
</mgrwt>
</event>
<event>
 5    1  0.4067226E+001  0.9173978E+02  0.7546771E-02  0.1298692E+00
          2   -1    0    0  501    0  0.00000000000E+00  0.00000000000E+00  0.35644244303E+02  0.35644244303E+02  0.00000000000E+00 0. -1.
         -2   -1    0    0    0  501 -0.00000000000E+00 -0.00000000000E+00 -0.59029070638E+02  0.59029070638E+02  0.00000000000E+00 0.  1.
         23    2    1    2    0    0  0.00000000000E+00  0.00000000000E+00 -0.23384826334E+02  0.94673314941E+02  0.91739775775E+02 0.  0.
          2    1    3    3  502    0 -0.15811012759E+02  0.42959087602E+02 -0.86704154415E+01  0.46590207512E+02  0.00000000000E+00 0. -1.
         -2    1    3    3    0  502  0.15811012759E+02 -0.42959087602E+02 -0.14714410893E+02  0.48083107429E+02  0.00000000000E+00 0.  1.
<mgrwt>
<rscale>  0 0.91739776E+02</rscale>
<asrwt>0</asrwt>
<pdfrwt beam="1">  1        2 0.54837300E-02 0.91739776E+02</pdfrwt>
<pdfrwt beam="2">  1       -2 0.90813954E-02 0.91739776E+02</pdfrwt>
<totfact> 0.90923501E+04</totfact>
</mgrwt>
</event>
<event>
 5    1  0.4067226E+001  0.9014277E+02  0.7546771E-02  0.1302506E+00
          2   -1    0    0  501    0  0.00000000000E+00  0.00000000000E+00  0.33541097051E+03  0.33541097051E+03  0.00000000000E+00 0.  1.
         -2   -1    0    0    0  501 -0.00000000000E+00 -0.00000000000E+00 -0.60565395780E+01  0.60565395780E+01  0.00000000000E+00 0. -1.
         23    2    1    2    0    0  0.00000000000E+00  0.00000000000E+00  0.32935443093E+03  0.34146751009E+03  0.90142771597E+02 0.  0.
          2    1    3    3  502    0  0.20743889587E+02 -0.31763499307E+02  0.72493748106E+02  0.81820366400E+02  0.00000000000E+00 0. -1.
         -2    1    3    3    0  502 -0.20743889587E+02  0.31763499307E+02  0.25686068283E+03  0.25964714369E+03  0.00000000000E+00 0.  1.
<mgrwt>
<rscale>  0 0.90142772E+02</rscale>
<asrwt>0</asrwt>
<pdfrwt beam="1">  1        2 0.51601673E-01 0.90142772E+02</pdfrwt>
<pdfrwt beam="2">  1       -2 0.93177558E-03 0.90142772E+02</pdfrwt>
<totfact> 0.19301377E+05</totfact>
</mgrwt>
</event>
<event>
 5    1  0.4067226E+001  0.9064785E+02  0.7546771E-02  0.1301290E+00
         -2   -1    0    0    0  501 -0.00000000000E+00  0.00000000000E+00  0.96998797243E+00  0.96998797243E+00  0.00000000000E+00 0. -1.
          2   -1    0    0  501    0  0.00000000000E+00 -0.00000000000E+00 -0.21178183969E+04  0.21178183969E+04  0.00000000000E+00 0.  1.
         23    2    1    2    0    0  0.00000000000E+00  0.00000000000E+00 -0.21168484089E+04  0.21187883849E+04  0.90647854311E+02 0.  0.
          2    1    3    3  502    0 -0.22966041677E+02  0.19680571239E+02 -0.26940757604E+03  0.27109999259E+03  0.00000000000E+00 0. -1.
         -2    1    3    3    0  502  0.22966041677E+02 -0.19680571239E+02 -0.18474408329E+04  0.18476883923E+04  0.00000000000E+00 0.  1.
<mgrwt>
<rscale>  0 0.90647854E+02</rscale>
<asrwt>0</asrwt>
<pdfrwt beam="2">  1        2 0.32581951E+00 0.90647854E+02</pdfrwt>
<pdfrwt beam="1">  1       -2 0.14922832E-03 0.90647854E+02</pdfrwt>
<totfact> 0.18865847E+05</totfact>
</mgrwt>
</event>
<event>
 5    1  0.4067226E+001  0.9084072E+02  0.7546771E-02  0.1300828E+00
          1   -1    0    0  501    0  0.00000000000E+00  0.00000000000E+00  0.31372029013E+02  0.31372029013E+02  0.00000000000E+00 0. -1.
         -1   -1    0    0    0  501 -0.00000000000E+00 -0.00000000000E+00 -0.65759506890E+02  0.65759506890E+02  0.00000000000E+00 0.  1.
         23    2    1    2    0    0  0.00000000000E+00  0.00000000000E+00 -0.34387477877E+02  0.97131535903E+02  0.90840721223E+02 0.  0.
          2    1    3    3  502    0 -0.29500751053E+02 -0.18901766243E+02  0.13711835167E+02  0.37624267481E+02  0.00000000000E+00 0. -1.
         -2    1    3    3    0  502  0.29500751053E+02  0.18901766243E+02 -0.48099313044E+02  0.59507268423E+02  0.00000000000E+00 0.  1.
<mgrwt>
<rscale>  0 0.90840721E+02</rscale>
<asrwt>0</asrwt>
<pdfrwt beam="1">  1        1 0.48264660E-02 0.90840721E+02</pdfrwt>
<pdfrwt beam="2">  1       -1 0.10116847E-01 0.90840721E+02</pdfrwt>
<totfact> 0.88235862E+04</totfact>
</mgrwt>
</event>
<event>
 4    1  0.4067226E+001  0.4906190E+02  0.7546771E-02  0.1450468E+00
         -2   -1    0    0    0  501 -0.00000000000E+00  0.00000000000E+00  0.16263660007E+01  0.16263660007E+01  0.00000000000E+00 0.  1.
          2   -1    0    0  501    0  0.00000000000E+00 -0.00000000000E+00 -0.37000743850E+03  0.37000743850E+03  0.00000000000E+00 0. -1.
          2    1    1    2  502    0 -0.22732415491E+02 -0.16836299689E+01 -0.25285436258E+03  0.25387974713E+03  0.00000000000E+00 0. -1.
         -2    1    1    2    0  502  0.22732415491E+02  0.16836299689E+01 -0.11552670991E+03  0.11775405737E+03  0.00000000000E+00 0.  1.
<mgrwt>
<rscale>  0 0.49061900E+02</rscale>
<asrwt>0</asrwt>
<pdfrwt beam="2">  1        2 0.56924296E-01 0.49061900E+02</pdfrwt>
<pdfrwt beam="1">  1       -2 0.25020982E-03 0.49061900E+02</pdfrwt>
<totfact> 0.95338879E+05</totfact>
</mgrwt>
</event>
<event>
 5    1  0.4067226E+001  0.9379240E+02  0.7546771E-02  0.1293919E+00
          2   -1    0    0  501    0  0.00000000000E+00  0.00000000000E+00  0.97665333365E+01  0.97665333365E+01  0.00000000000E+00 0.  1.
         -2   -1    0    0    0  501 -0.00000000000E+00 -0.00000000000E+00 -0.22518261985E+03  0.22518261985E+03  0.00000000000E+00 0. -1.
         23    2    1    2    0    0  0.00000000000E+00  0.00000000000E+00 -0.21541608651E+03  0.23494915319E+03  0.93792399768E+02 0.  0.
          2    1    3    3  502    0 -0.31652020331E+02 -0.19556427959E+01 -0.19425100506E+03  0.19682257974E+03  0.00000000000E+00 0. -1.
         -2    1    3    3    0  502  0.31652020331E+02  0.19556427959E+01 -0.21165081457E+02  0.38126573448E+02  0.00000000000E+00 0.  1.
<mgrwt>
<rscale>  0 0.93792400E+02</rscale>
<asrwt>0</asrwt>
<pdfrwt beam="1">  1        2 0.15025438E-02 0.93792400E+02</pdfrwt>
<pdfrwt beam="2">  1       -2 0.34643476E-01 0.93792400E+02</pdfrwt>
<totfact> 0.54950858E+04</totfact>
</mgrwt>
</event>
<event>
 5    1  0.4067226E+001  0.9070245E+02  0.7546771E-02  0.1301159E+00
          2   -1    0    0  501    0  0.00000000000E+00  0.00000000000E+00  0.63674446912E+03  0.63674446912E+03  0.00000000000E+00 0. -1.
         -2   -1    0    0    0  501 -0.00000000000E+00 -0.00000000000E+00 -0.32300769763E+01  0.32300769763E+01  0.00000000000E+00 0.  1.
         23    2    1    2    0    0  0.00000000000E+00  0.00000000000E+00  0.63351439215E+03  0.63997454610E+03  0.90702450893E+02 0.  0.
          2    1    3    3  502    0 -0.34103047955E+02 -0.21121225662E+02  0.46603435915E+03  0.46775757392E+03  0.00000000000E+00 0. -1.
         -2    1    3    3    0  502  0.34103047955E+02  0.21121225662E+02  0.16748003300E+03  0.17221697218E+03  0.00000000000E+00 0.  1.
<mgrwt>
<rscale>  0 0.90702451E+02</rscale>
<asrwt>0</asrwt>
<pdfrwt beam="1">  1        2 0.97960588E-01 0.90702451E+02</pdfrwt>
<pdfrwt beam="2">  1       -2 0.49693542E-03 0.90702451E+02</pdfrwt>
<totfact> 0.23481007E+05</totfact>
</mgrwt>
</event>
<event>
 5    1  0.4067226E+001  0.9154148E+02  0.7546771E-02  0.1299161E+00
         -2   -1    0    0    0  501 -0.00000000000E+00  0.00000000000E+00  0.78525688015E+03  0.78525688015E+03  0.00000000000E+00 0. -1.
          2   -1    0    0  501    0  0.00000000000E+00 -0.00000000000E+00 -0.26678664553E+01  0.26678664553E+01  0.00000000000E+00 0.  1.
         23    2    1    2    0    0  0.00000000000E+00  0.00000000000E+00  0.78258901369E+03  0.78792474660E+03  0.91541476705E+02 0.  0.
          2    1    3    3  502    0  0.36431979113E+02  0.87699799024E+01  0.61751401427E+03  0.61864994906E+03  0.00000000000E+00 0. -1.
         -2    1    3    3    0  502 -0.36431979113E+02 -0.87699799024E+01  0.16507499942E+03  0.16927479754E+03  0.00000000000E+00 0.  1.
<mgrwt>
<rscale>  0 0.91541477E+02</rscale>
<asrwt>0</asrwt>
<pdfrwt beam="2">  1        2 0.41044162E-03 0.91541477E+02</pdfrwt>
<pdfrwt beam="1">  1       -2 0.12080857E+00 0.91541477E+02</pdfrwt>
<totfact> 0.24050456E+04</totfact>
</mgrwt>
</event>
<event>
 5    1  0.4067226E+001  0.9055226E+02  0.7546771E-02  0.1301520E+00
         -2   -1    0    0    0  501 -0.00000000000E+00  0.00000000000E+00  0.63826437608E+01  0.63826437608E+01  0.00000000000E+00 0.  1.
          2   -1    0    0  501    0  0.00000000000E+00 -0.00000000000E+00 -0.32117223659E+03  0.32117223659E+03  0.00000000000E+00 0. -1.
         23    2    1    2    0    0  0.00000000000E+00  0.00000000000E+00 -0.31478959283E+03  0.32755488035E+03  0.90552260535E+02 0.  0.
          2    1    3    3  502    0  0.15118463484E+01 -0.45181757471E+02 -0.16643883614E+03  0.17246902059E+03  0.00000000000E+00 0. -1.
         -2    1    3    3    0  502 -0.15118463484E+01  0.45181757471E+02 -0.14835075669E+03  0.15508585976E+03  0.00000000000E+00 0.  1.
<mgrwt>
<rscale>  0 0.90552261E+02</rscale>
<asrwt>0</asrwt>
<pdfrwt beam="2">  1        2 0.49411109E-01 0.90552261E+02</pdfrwt>
<pdfrwt beam="1">  1       -2 0.98194528E-03 0.90552261E+02</pdfrwt>
<totfact> 0.18767337E+05</totfact>
</mgrwt>
</event>
<event>
 5    1  0.4067226E+001  0.8862126E+02  0.7546771E-02  0.1306225E+00
          4   -1    0    0  501    0  0.00000000000E+00  0.00000000000E+00  0.43198515022E+01  0.43198515022E+01  0.00000000000E+00 0. -1.
         -4   -1    0    0    0  501 -0.00000000000E+00 -0.00000000000E+00 -0.45451371895E+03  0.45451371895E+03  0.00000000000E+00 0.  1.
         23    2    1    2    0    0  0.00000000000E+00  0.00000000000E+00 -0.45019386745E+03  0.45883357045E+03  0.88621256402E+02 0.  0.
          2    1    3    3  502    0  0.10149616279E+02 -0.42329154345E+02 -0.18219583625E+03  0.18732350297E+03  0.00000000000E+00 0. -1.
         -2    1    3    3    0  502 -0.10149616279E+02  0.42329154345E+02 -0.26799803120E+03  0.27151006748E+03  0.00000000000E+00 0.  1.
<mgrwt>
<rscale>  0 0.88621256E+02</rscale>
<asrwt>0</asrwt>
<pdfrwt beam="1">  1        4 0.66459306E-03 0.88621256E+02</pdfrwt>
<pdfrwt beam="2">  1       -4 0.69925132E-01 0.88621256E+02</pdfrwt>
<totfact> 0.14945345E+04</totfact>
</mgrwt>
</event>
<event>
 5    1  0.4067226E+001  0.9084947E+02  0.7546771E-02  0.1300808E+00
         -4   -1    0    0    0  501 -0.00000000000E+00  0.00000000000E+00  0.13960249652E+03  0.13960249652E+03  0.00000000000E+00 0.  1.
          4   -1    0    0  501    0  0.00000000000E+00 -0.00000000000E+00 -0.14780583590E+02  0.14780583590E+02  0.00000000000E+00 0. -1.
         23    2    1    2    0    0  0.00000000000E+00  0.00000000000E+00  0.12482191293E+03  0.15438308011E+03  0.90849466023E+02 0.  0.
          2    1    3    3  502    0 -0.35561674350E+02  0.12314119000E+02  0.19181959778E+02  0.42240002252E+02  0.00000000000E+00 0. -1.
         -2    1    3    3    0  502  0.35561674350E+02 -0.12314119000E+02  0.10563995316E+03  0.11214307786E+03  0.00000000000E+00 0.  1.
<mgrwt>
<rscale>  0 0.90849466E+02</rscale>
<asrwt>0</asrwt>
<pdfrwt beam="2">  1        4 0.22739360E-02 0.90849466E+02</pdfrwt>
<pdfrwt beam="1">  1       -4 0.21477306E-01 0.90849466E+02</pdfrwt>
<totfact> 0.23682928E+04</totfact>
</mgrwt>
</event>
<event>
 5    1  0.4067226E+001  0.8843268E+02  0.7546771E-02  0.1306692E+00
          2   -1    0    0  501    0  0.00000000000E+00  0.00000000000E+00  0.44497584807E+02  0.44497584807E+02  0.00000000000E+00 0. -1.
         -2   -1    0    0    0  501 -0.00000000000E+00 -0.00000000000E+00 -0.43936875771E+02  0.43936875771E+02  0.00000000000E+00 0.  1.
         23    2    1    2    0    0  0.00000000000E+00  0.00000000000E+00  0.56070903625E+00  0.88434460578E+02  0.88432683003E+02 0.  0.
          2    1    3    3  502    0 -0.30687982855E+02  0.54776797554E+01  0.31639039447E+02  0.44416056605E+02  0.00000000000E+00 0. -1.
         -2    1    3    3    0  502  0.30687982855E+02 -0.54776797554E+01 -0.31078330411E+02  0.44018403973E+02  0.00000000000E+00 0.  1.
<mgrwt>
<rscale>  0 0.88432683E+02</rscale>
<asrwt>0</asrwt>
<pdfrwt beam="1">  1        2 0.68457823E-02 0.88432683E+02</pdfrwt>
<pdfrwt beam="2">  1       -2 0.67595193E-02 0.88432683E+02</pdfrwt>
<totfact> 0.10702281E+05</totfact>
</mgrwt>
</event>
<event>
 5    1  0.4067226E+001  0.8932388E+02  0.7546771E-02  0.1304497E+00
          1   -1    0    0  501    0  0.00000000000E+00  0.00000000000E+00  0.15221175895E+04  0.15221175895E+04  0.00000000000E+00 0. -1.
         -1   -1    0    0    0  501 -0.00000000000E+00 -0.00000000000E+00 -0.13104695252E+01  0.13104695252E+01  0.00000000000E+00 0.  1.
         23    2    1    2    0    0  0.00000000000E+00  0.00000000000E+00  0.15208071200E+04  0.15234280591E+04  0.89323876201E+02 0.  0.
          2    1    3    3  502    0 -0.13043547893E+02 -0.42205338105E+02  0.64822295752E+03  0.64972642501E+03  0.00000000000E+00 0. -1.
         -2    1    3    3    0  502  0.13043547893E+02  0.42205338105E+02  0.87258416249E+03  0.87370163404E+03  0.00000000000E+00 0.  1.
<mgrwt>
<rscale>  0 0.89323876E+02</rscale>
<asrwt>0</asrwt>
<pdfrwt beam="1">  1        1 0.23417052E+00 0.89323876E+02</pdfrwt>
<pdfrwt beam="2">  1       -1 0.20161191E-03 0.89323876E+02</pdfrwt>
<totfact> 0.11526973E+05</totfact>
</mgrwt>
</event>
<event>
 5    1  0.4067226E+001  0.9914052E+02  0.7546771E-02  0.1282114E+00
         -2   -1    0    0    0  501 -0.00000000000E+00  0.00000000000E+00  0.33836402493E+01  0.33836402493E+01  0.00000000000E+00 0.  1.
          2   -1    0    0  501    0  0.00000000000E+00 -0.00000000000E+00 -0.72620335819E+03  0.72620335819E+03  0.00000000000E+00 0. -1.
         23    2    1    2    0    0  0.00000000000E+00  0.00000000000E+00 -0.72281971794E+03  0.72958699843E+03  0.99140524750E+02 0.  0.
          2    1    3    3  502    0 -0.67102623930E+01  0.32351502848E+02 -0.63335533056E+03  0.63421654197E+03  0.00000000000E+00 0. -1.
         -2    1    3    3    0  502  0.67102623930E+01 -0.32351502848E+02 -0.89464387372E+02  0.95370456462E+02  0.00000000000E+00 0.  1.
<mgrwt>
<rscale>  0 0.99140525E+02</rscale>
<asrwt>0</asrwt>
<pdfrwt beam="2">  1        2 0.11172349E+00 0.99140525E+02</pdfrwt>
<pdfrwt beam="1">  1       -2 0.52056050E-03 0.99140525E+02</pdfrwt>
<totfact> 0.19155579E+05</totfact>
</mgrwt>
</event>
<event>
 5    1  0.4067226E+001  0.8988334E+02  0.7546771E-02  0.1303134E+00
         -1   -1    0    0    0  501 -0.00000000000E+00  0.00000000000E+00  0.14630681797E+04  0.14630681797E+04  0.00000000000E+00 0.  1.
          1   -1    0    0  501    0  0.00000000000E+00 -0.00000000000E+00 -0.13804919310E+01  0.13804919310E+01  0.00000000000E+00 0. -1.
         23    2    1    2    0    0  0.00000000000E+00  0.00000000000E+00  0.14616876878E+04  0.14644486717E+04  0.89883342541E+02 0.  0.
          2    1    3    3  502    0  0.28526799006E+02  0.24831829784E+01  0.16649055233E+03  0.16893504218E+03  0.00000000000E+00 0. -1.
         -2    1    3    3    0  502 -0.28526799006E+02 -0.24831829784E+01  0.12951971355E+04  0.12955136295E+04  0.00000000000E+00 0.  1.
<mgrwt>
<rscale>  0 0.89883343E+02</rscale>
<asrwt>0</asrwt>
<pdfrwt beam="2">  1        1 0.21238454E-03 0.89883343E+02</pdfrwt>
<pdfrwt beam="1">  1       -1 0.22508617E+00 0.89883343E+02</pdfrwt>
<totfact> 0.15018124E+04</totfact>
</mgrwt>
</event>
<event>
 5    1  0.4067226E+001  0.8991239E+02  0.7546771E-02  0.1303064E+00
          1   -1    0    0  501    0  0.00000000000E+00  0.00000000000E+00  0.68841086323E+03  0.68841086323E+03  0.00000000000E+00 0. -1.
         -1   -1    0    0    0  501 -0.00000000000E+00 -0.00000000000E+00 -0.29358329562E+01  0.29358329562E+01  0.00000000000E+00 0.  1.
         23    2    1    2    0    0  0.00000000000E+00  0.00000000000E+00  0.68547503027E+03  0.69134669618E+03  0.89912386236E+02 0.  0.
          2    1    3    3  502    0 -0.18640504004E+02  0.29794958023E+02  0.55828679679E+03  0.55939195148E+03  0.00000000000E+00 0. -1.
         -2    1    3    3    0  502  0.18640504004E+02 -0.29794958023E+02  0.12718823348E+03  0.13195474470E+03  0.00000000000E+00 0.  1.
<mgrwt>
<rscale>  0 0.89912386E+02</rscale>
<asrwt>0</asrwt>
<pdfrwt beam="1">  1        1 0.10590923E+00 0.89912386E+02</pdfrwt>
<pdfrwt beam="2">  1       -1 0.45166716E-03 0.89912386E+02</pdfrwt>
<totfact> 0.14753285E+05</totfact>
</mgrwt>
</event>
<event>
 5    1  0.4067226E+001  0.7113269E+02  0.7546771E-02  0.1356283E+00
          2   -1    0    0  501    0  0.00000000000E+00  0.00000000000E+00  0.44310977552E+03  0.44310977552E+03  0.00000000000E+00 0.  1.
         -2   -1    0    0    0  501 -0.00000000000E+00 -0.00000000000E+00 -0.28547436261E+01  0.28547436261E+01  0.00000000000E+00 0. -1.
         23    2    1    2    0    0  0.00000000000E+00  0.00000000000E+00  0.44025503189E+03  0.44596451915E+03  0.71132687488E+02 0.  0.
          2    1    3    3  502    0  0.17735455530E+02  0.22690297984E+02  0.89281810463E+02  0.93811714008E+02  0.00000000000E+00 0.  1.
         -2    1    3    3    0  502 -0.17735455530E+02 -0.22690297984E+02  0.35097322143E+03  0.35215280514E+03  0.00000000000E+00 0. -1.
<mgrwt>
<rscale>  0 0.71132687E+02</rscale>
<asrwt>0</asrwt>
<pdfrwt beam="1">  1        2 0.68170680E-01 0.71132687E+02</pdfrwt>
<pdfrwt beam="2">  1       -2 0.43919168E-03 0.71132687E+02</pdfrwt>
<totfact> 0.39614996E+05</totfact>
</mgrwt>
</event>
<event>
 5    1  0.4067226E+001  0.8950763E+02  0.7546771E-02  0.1304048E+00
          2   -1    0    0  501    0  0.00000000000E+00  0.00000000000E+00  0.13177634870E+02  0.13177634870E+02  0.00000000000E+00 0. -1.
         -2   -1    0    0    0  501 -0.00000000000E+00 -0.00000000000E+00 -0.15199267114E+03  0.15199267114E+03  0.00000000000E+00 0.  1.
         23    2    1    2    0    0  0.00000000000E+00  0.00000000000E+00 -0.13881503627E+03  0.16517030601E+03  0.89507629243E+02 0.  0.
          2    1    3    3  502    0 -0.17918600794E+02  0.19789107219E+02 -0.31242948491E+01  0.26878360018E+02  0.00000000000E+00 0. -1.
         -2    1    3    3    0  502  0.17918600794E+02 -0.19789107219E+02 -0.13569074142E+03  0.13829194599E+03  0.00000000000E+00 0.  1.
<mgrwt>
<rscale>  0 0.89507629E+02</rscale>
<asrwt>0</asrwt>
<pdfrwt beam="1">  1        2 0.20273284E-02 0.89507629E+02</pdfrwt>
<pdfrwt beam="2">  1       -2 0.23383488E-01 0.89507629E+02</pdfrwt>
<totfact> 0.72848245E+04</totfact>
</mgrwt>
</event>
<event>
 5    1  0.4067226E+001  0.9004918E+02  0.7546771E-02  0.1302733E+00
          2   -1    0    0  501    0  0.00000000000E+00  0.00000000000E+00  0.26343352419E+04  0.26343352419E+04  0.00000000000E+00 0. -1.
         -2   -1    0    0    0  501 -0.00000000000E+00 -0.00000000000E+00 -0.76953527832E+00  0.76953527832E+00  0.00000000000E+00 0.  1.
         23    2    1    2    0    0  0.00000000000E+00  0.00000000000E+00  0.26335657066E+04  0.26351047772E+04  0.90049184418E+02 0.  0.
          2    1    3    3  502    0  0.42460375365E+02 -0.13192509613E+02  0.11092672324E+04  0.11101579702E+04  0.00000000000E+00 0. -1.
         -2    1    3    3    0  502 -0.42460375365E+02  0.13192509613E+02  0.15242984742E+04  0.15249468070E+04  0.00000000000E+00 0.  1.
<mgrwt>
<rscale>  0 0.90049184E+02</rscale>
<asrwt>0</asrwt>
<pdfrwt beam="1">  1        2 0.40527513E+00 0.90049184E+02</pdfrwt>
<pdfrwt beam="2">  1       -2 0.11839215E-03 0.90049184E+02</pdfrwt>
<totfact> 0.14009401E+05</totfact>
</mgrwt>
</event>
<event>
 5    1  0.4067226E+001  0.8695599E+02  0.7546771E-02  0.1310395E+00
         -2   -1    0    0    0  501 -0.00000000000E+00  0.00000000000E+00  0.51071202110E+01  0.51071202110E+01  0.00000000000E+00 0. -1.
          2   -1    0    0  501    0  0.00000000000E+00 -0.00000000000E+00 -0.37013739102E+03  0.37013739102E+03  0.00000000000E+00 0.  1.
         23    2    1    2    0    0  0.00000000000E+00  0.00000000000E+00 -0.36503027081E+03  0.37524451123E+03  0.86955992331E+02 0.  0.
          2    1    3    3  502    0 -0.38870523367E+02 -0.51287535368E+01 -0.10142414991E+03  0.10873858508E+03  0.00000000000E+00 0. -1.
         -2    1    3    3    0  502  0.38870523367E+02  0.51287535368E+01 -0.26360612090E+03  0.26650592615E+03  0.00000000000E+00 0.  1.
<mgrwt>
<rscale>  0 0.86955992E+02</rscale>
<asrwt>0</asrwt>
<pdfrwt beam="2">  1        2 0.56944237E-01 0.86955992E+02</pdfrwt>
<pdfrwt beam="1">  1       -2 0.78571049E-03 0.86955992E+02</pdfrwt>
<totfact> 0.22009150E+05</totfact>
</mgrwt>
</event>
<event>
 5    1  0.4067226E+001  0.9038555E+02  0.7546771E-02  0.1301921E+00
         -2   -1    0    0    0  501 -0.00000000000E+00  0.00000000000E+00  0.88968197080E+02  0.88968197080E+02  0.00000000000E+00 0.  1.
          2   -1    0    0  501    0  0.00000000000E+00 -0.00000000000E+00 -0.22956373097E+02  0.22956373097E+02  0.00000000000E+00 0. -1.
         23    2    1    2    0    0  0.00000000000E+00  0.00000000000E+00  0.66011823983E+02  0.11192457018E+03  0.90385554729E+02 0.  0.
          2    1    3    3  502    0 -0.40635746488E+02  0.86065800250E+01  0.55054982970E+02  0.68966573514E+02  0.00000000000E+00 0.  1.
         -2    1    3    3    0  502  0.40635746488E+02 -0.86065800250E+01  0.10956841013E+02  0.42957996663E+02  0.00000000000E+00 0. -1.
<mgrwt>
<rscale>  0 0.90385555E+02</rscale>
<asrwt>0</asrwt>
<pdfrwt beam="2">  1        2 0.35317498E-02 0.90385555E+02</pdfrwt>
<pdfrwt beam="1">  1       -2 0.13687415E-01 0.90385555E+02</pdfrwt>
<totfact> 0.84374742E+04</totfact>
</mgrwt>
</event>
<event>
 5    1  0.4067226E+001  0.8664610E+02  0.7546771E-02  0.1311183E+00
         -2   -1    0    0    0  501 -0.00000000000E+00  0.00000000000E+00  0.22455002363E+01  0.22455002363E+01  0.00000000000E+00 0.  1.
          2   -1    0    0  501    0  0.00000000000E+00 -0.00000000000E+00 -0.83584342326E+03  0.83584342326E+03  0.00000000000E+00 0. -1.
         23    2    1    2    0    0  0.00000000000E+00  0.00000000000E+00 -0.83359792303E+03  0.83808892350E+03  0.86646098687E+02 0.  0.
          2    1    3    3  502    0  0.38839948297E+02  0.17119396842E+02 -0.50071707593E+03  0.50251289084E+03  0.00000000000E+00 0. -1.
         -2    1    3    3    0  502 -0.38839948297E+02 -0.17119396842E+02 -0.33288084710E+03  0.33557603266E+03  0.00000000000E+00 0.  1.
<mgrwt>
<rscale>  0 0.86646099E+02</rscale>
<asrwt>0</asrwt>
<pdfrwt beam="2">  1        2 0.12859120E+00 0.86646099E+02</pdfrwt>
<pdfrwt beam="1">  1       -2 0.34546183E-03 0.86646099E+02</pdfrwt>
<totfact> 0.28069068E+05</totfact>
</mgrwt>
</event>
<event>
 5    1  0.4067226E+001  0.9104734E+02  0.7546771E-02  0.1300335E+00
         -1   -1    0    0    0  501 -0.00000000000E+00  0.00000000000E+00  0.35785213630E+03  0.35785213630E+03  0.00000000000E+00 0.  1.
          1   -1    0    0  501    0  0.00000000000E+00 -0.00000000000E+00 -0.57912311959E+01  0.57912311959E+01  0.00000000000E+00 0. -1.
         23    2    1    2    0    0  0.00000000000E+00  0.00000000000E+00  0.35206090510E+03  0.36364336750E+03  0.91047338352E+02 0.  0.
          2    1    3    3  502    0 -0.29393881238E+02 -0.28376824935E+02  0.95835480765E+02  0.10418101469E+03  0.00000000000E+00 0. -1.
         -2    1    3    3    0  502  0.29393881238E+02  0.28376824935E+02  0.25622542434E+03  0.25946235281E+03  0.00000000000E+00 0.  1.
<mgrwt>
<rscale>  0 0.91047338E+02</rscale>
<asrwt>0</asrwt>
<pdfrwt beam="2">  1        1 0.89095893E-03 0.91047338E+02</pdfrwt>
<pdfrwt beam="1">  1       -1 0.55054158E-01 0.91047338E+02</pdfrwt>
<totfact> 0.56429664E+04</totfact>
</mgrwt>
</event>
<event>
 5    1  0.4067226E+001  0.9193298E+02  0.7546771E-02  0.1298237E+00
          1   -1    0    0  501    0  0.00000000000E+00  0.00000000000E+00  0.55164518859E+01  0.55164518859E+01  0.00000000000E+00 0. -1.
         -1   -1    0    0    0  501 -0.00000000000E+00 -0.00000000000E+00 -0.38302125439E+03  0.38302125439E+03  0.00000000000E+00 0.  1.
         23    2    1    2    0    0  0.00000000000E+00  0.00000000000E+00 -0.37750480251E+03  0.38853770628E+03  0.91932982572E+02 0.  0.
          2    1    3    3  502    0 -0.43683291794E+02 -0.14020555869E+02 -0.17671493109E+03  0.18257319858E+03  0.00000000000E+00 0.  1.
         -2    1    3    3    0  502  0.43683291794E+02  0.14020555869E+02 -0.20078987141E+03  0.20596450770E+03  0.00000000000E+00 0. -1.
<mgrwt>
<rscale>  0 0.91932983E+02</rscale>
<asrwt>0</asrwt>
<pdfrwt beam="1">  1        1 0.84868481E-03 0.91932983E+02</pdfrwt>
<pdfrwt beam="2">  1       -1 0.58926353E-01 0.91932983E+02</pdfrwt>
<totfact> 0.53281697E+04</totfact>
</mgrwt>
</event>
<event>
 5    1  0.4067226E+001  0.9174759E+02  0.7546771E-02  0.1298674E+00
          2   -1    0    0  501    0  0.00000000000E+00  0.00000000000E+00  0.34362691362E+03  0.34362691362E+03  0.00000000000E+00 0. -1.
         -2   -1    0    0    0  501 -0.00000000000E+00 -0.00000000000E+00 -0.61240983302E+01  0.61240983302E+01  0.00000000000E+00 0.  1.
         23    2    1    2    0    0  0.00000000000E+00  0.00000000000E+00  0.33750281529E+03  0.34975101195E+03  0.91747588696E+02 0.  0.
          2    1    3    3  502    0 -0.57793665896E+01  0.39066317569E+02  0.25773164021E+03  0.26073967211E+03  0.00000000000E+00 0. -1.
         -2    1    3    3    0  502  0.57793665896E+01 -0.39066317569E+02  0.79771175080E+02  0.89011339840E+02  0.00000000000E+00 0.  1.
<mgrwt>
<rscale>  0 0.91747589E+02</rscale>
<asrwt>0</asrwt>
<pdfrwt beam="1">  1        2 0.52865664E-01 0.91747589E+02</pdfrwt>
<pdfrwt beam="2">  1       -2 0.94216924E-03 0.91747589E+02</pdfrwt>
<totfact> 0.18580550E+05</totfact>
</mgrwt>
</event>
<event>
 5    1  0.4067226E+001  0.9064378E+02  0.7546771E-02  0.1301300E+00
         -1   -1    0    0    0  501 -0.00000000000E+00  0.00000000000E+00  0.24409338483E+02  0.24409338483E+02  0.00000000000E+00 0.  1.
          1   -1    0    0  501    0  0.00000000000E+00 -0.00000000000E+00 -0.84151149307E+02  0.84151149307E+02  0.00000000000E+00 0. -1.
         23    2    1    2    0    0  0.00000000000E+00  0.00000000000E+00 -0.59741810824E+02  0.10856048779E+03  0.90643783839E+02 0.  0.
          2    1    3    3  502    0 -0.45027675201E+02  0.21591059999E+01 -0.35478287127E+02  0.57366036382E+02  0.00000000000E+00 0. -1.
         -2    1    3    3    0  502  0.45027675201E+02 -0.21591059999E+01 -0.24263523697E+02  0.51194451408E+02  0.00000000000E+00 0.  1.
<mgrwt>
<rscale>  0 0.90643784E+02</rscale>
<asrwt>0</asrwt>
<pdfrwt beam="2">  1        1 0.12946331E-01 0.90643784E+02</pdfrwt>
<pdfrwt beam="1">  1       -1 0.37552828E-02 0.90643784E+02</pdfrwt>
<totfact> 0.10319967E+05</totfact>
</mgrwt>
</event>
<event>
 5    1  0.4067226E+001  0.9209776E+02  0.7546771E-02  0.1297850E+00
          3   -1    0    0  501    0  0.00000000000E+00  0.00000000000E+00  0.24576740214E+03  0.24576740214E+03  0.00000000000E+00 0. -1.
         -3   -1    0    0    0  501 -0.00000000000E+00 -0.00000000000E+00 -0.86280731489E+01  0.86280731489E+01  0.00000000000E+00 0.  1.
         23    2    1    2    0    0  0.00000000000E+00  0.00000000000E+00  0.23713932899E+03  0.25439547529E+03  0.92097755093E+02 0.  0.
          2    1    3    3  502    0 -0.33974540422E+02 -0.28027968248E+02  0.15569707102E+03  0.16180671904E+03  0.00000000000E+00 0. -1.
         -2    1    3    3    0  502  0.33974540422E+02  0.28027968248E+02  0.81442257969E+02  0.92588756251E+02  0.00000000000E+00 0.  1.
<mgrwt>
<rscale>  0 0.92097755E+02</rscale>
<asrwt>0</asrwt>
<pdfrwt beam="1">  1        3 0.37810364E-01 0.92097755E+02</pdfrwt>
<pdfrwt beam="2">  1       -3 0.13273961E-02 0.92097755E+02</pdfrwt>
<totfact> 0.25217579E+04</totfact>
</mgrwt>
</event>
<event>
 5    1  0.4067226E+001  0.9559468E+02  0.7546771E-02  0.1289842E+00
         -1   -1    0    0    0  501 -0.00000000000E+00  0.00000000000E+00  0.16099482585E+04  0.16099482585E+04  0.00000000000E+00 0.  1.
          1   -1    0    0  501    0  0.00000000000E+00 -0.00000000000E+00 -0.14190428940E+01  0.14190428940E+01  0.00000000000E+00 0. -1.
         23    2    1    2    0    0  0.00000000000E+00  0.00000000000E+00  0.16085292156E+04  0.16113673014E+04  0.95594678429E+02 0.  0.
          2    1    3    3  502    0  0.52555670645E+01  0.41858941913E+02  0.42554502339E+03  0.42763110146E+03  0.00000000000E+00 0. -1.
         -2    1    3    3    0  502 -0.52555670645E+01 -0.41858941913E+02  0.11829841922E+04  0.11837362000E+04  0.00000000000E+00 0.  1.
<mgrwt>
<rscale>  0 0.95594678E+02</rscale>
<asrwt>0</asrwt>
<pdfrwt beam="2">  1        1 0.21831558E-03 0.95594678E+02</pdfrwt>
<pdfrwt beam="1">  1       -1 0.24768289E+00 0.95594678E+02</pdfrwt>
<totfact> 0.10548643E+04</totfact>
</mgrwt>
</event>
<event>
 5    1  0.4067226E+001  0.9337736E+02  0.7546771E-02  0.1294873E+00
          2   -1    0    0  501    0  0.00000000000E+00  0.00000000000E+00  0.14080653175E+04  0.14080653175E+04  0.00000000000E+00 0. -1.
         -2   -1    0    0    0  501 -0.00000000000E+00 -0.00000000000E+00 -0.15481050807E+01  0.15481050807E+01  0.00000000000E+00 0.  1.
         23    2    1    2    0    0  0.00000000000E+00  0.00000000000E+00  0.14065172125E+04  0.14096134226E+04  0.93377364968E+02 0.  0.
          2    1    3    3  502    0 -0.11609672618E+02 -0.45111954583E+02  0.75090070247E+03  0.75234416188E+03  0.00000000000E+00 0. -1.
         -2    1    3    3    0  502  0.11609672618E+02  0.45111954583E+02  0.65561651000E+03  0.65726926075E+03  0.00000000000E+00 0.  1.
<mgrwt>
<rscale>  0 0.93377365E+02</rscale>
<asrwt>0</asrwt>
<pdfrwt beam="1">  1        2 0.21662441E+00 0.93377365E+02</pdfrwt>
<pdfrwt beam="2">  1       -2 0.23817114E-03 0.93377365E+02</pdfrwt>
<totfact> 0.22631444E+05</totfact>
</mgrwt>
</event>
<event>
 5    1  0.4067226E+001  0.8976159E+02  0.7546771E-02  0.1303430E+00
         -3   -1    0    0    0  501 -0.00000000000E+00  0.00000000000E+00  0.18465745476E+02  0.18465745476E+02  0.00000000000E+00 0.  1.
          3   -1    0    0  501    0  0.00000000000E+00 -0.00000000000E+00 -0.10908227701E+03  0.10908227701E+03  0.00000000000E+00 0. -1.
         23    2    1    2    0    0  0.00000000000E+00  0.00000000000E+00 -0.90616531532E+02  0.12754802248E+03  0.89761585618E+02 0.  0.
          2    1    3    3  502    0  0.29358206992E+02  0.33322774674E+02 -0.36102221714E+02  0.57233574433E+02  0.00000000000E+00 0. -1.
         -2    1    3    3    0  502 -0.29358206992E+02 -0.33322774674E+02 -0.54514309818E+02  0.70314448050E+02  0.00000000000E+00 0.  1.
<mgrwt>
<rscale>  0 0.89761586E+02</rscale>
<asrwt>0</asrwt>
<pdfrwt beam="2">  1        3 0.16781889E-01 0.89761586E+02</pdfrwt>
<pdfrwt beam="1">  1       -3 0.28408839E-02 0.89761586E+02</pdfrwt>
<totfact> 0.34154185E+04</totfact>
</mgrwt>
</event>
<event>
 5    1  0.4067226E+001  0.8935439E+02  0.7546771E-02  0.1304423E+00
         -2   -1    0    0    0  501 -0.00000000000E+00  0.00000000000E+00  0.12145699632E+02  0.12145699632E+02  0.00000000000E+00 0.  1.
          2   -1    0    0  501    0  0.00000000000E+00 -0.00000000000E+00 -0.16434226010E+03  0.16434226010E+03  0.00000000000E+00 0. -1.
         23    2    1    2    0    0  0.00000000000E+00  0.00000000000E+00 -0.15219656047E+03  0.17648795973E+03  0.89354389439E+02 0.  0.
          2    1    3    3  502    0  0.28614253237E+02 -0.29827429898E+02 -0.42602188741E+02  0.59358213823E+02  0.00000000000E+00 0. -1.
         -2    1    3    3    0  502 -0.28614253237E+02  0.29827429898E+02 -0.10959437172E+03  0.11712974591E+03  0.00000000000E+00 0.  1.
<mgrwt>
<rscale>  0 0.89354389E+02</rscale>
<asrwt>0</asrwt>
<pdfrwt beam="2">  1        2 0.25283426E-01 0.89354389E+02</pdfrwt>
<pdfrwt beam="1">  1       -2 0.18685691E-02 0.89354389E+02</pdfrwt>
<totfact> 0.15235398E+05</totfact>
</mgrwt>
</event>
<event>
 5    1  0.4067226E+001  0.9294203E+02  0.7546771E-02  0.1295880E+00
          2   -1    0    0  501    0  0.00000000000E+00  0.00000000000E+00  0.16640869757E+03  0.16640869757E+03  0.00000000000E+00 0. -1.
         -2   -1    0    0    0  501 -0.00000000000E+00 -0.00000000000E+00 -0.12977418256E+02  0.12977418256E+02  0.00000000000E+00 0.  1.
         23    2    1    2    0    0  0.00000000000E+00  0.00000000000E+00  0.15343127931E+03  0.17938611582E+03  0.92942030744E+02 0.  0.
          2    1    3    3  502    0 -0.33415235863E+02 -0.17052179133E+02  0.12965070687E+03  0.13496910977E+03  0.00000000000E+00 0. -1.
         -2    1    3    3    0  502  0.33415235863E+02  0.17052179133E+02  0.23780572447E+02  0.44417006055E+02  0.00000000000E+00 0.  1.
<mgrwt>
<rscale>  0 0.92942031E+02</rscale>
<asrwt>0</asrwt>
<pdfrwt beam="1">  1        2 0.25601336E-01 0.92942031E+02</pdfrwt>
<pdfrwt beam="2">  1       -2 0.19965260E-02 0.92942031E+02</pdfrwt>
<totfact> 0.13755544E+05</totfact>
</mgrwt>
</event>
<event>
 5    1  0.4067226E+001  0.9146510E+02  0.7546771E-02  0.1299342E+00
         -1   -1    0    0    0  501 -0.00000000000E+00  0.00000000000E+00  0.20166980591E+01  0.20166980591E+01  0.00000000000E+00 0.  1.
          1   -1    0    0  501    0  0.00000000000E+00 -0.00000000000E+00 -0.10370745503E+04  0.10370745503E+04  0.00000000000E+00 0. -1.
         23    2    1    2    0    0  0.00000000000E+00  0.00000000000E+00 -0.10350578522E+04  0.10390912484E+04  0.91465102258E+02 0.  0.
          2    1    3    3  502    0  0.21159461690E+02  0.19635366222E+02 -0.92049861459E+03  0.92095112242E+03  0.00000000000E+00 0. -1.
         -2    1    3    3    0  502 -0.21159461690E+02 -0.19635366222E+02 -0.11455923766E+03  0.11814012595E+03  0.00000000000E+00 0.  1.
<mgrwt>
<rscale>  0 0.91465102E+02</rscale>
<asrwt>0</asrwt>
<pdfrwt beam="2">  1        1 0.15954990E+00 0.91465102E+02</pdfrwt>
<pdfrwt beam="1">  1       -1 0.31026129E-03 0.91465102E+02</pdfrwt>
<totfact> 0.13349845E+05</totfact>
</mgrwt>
</event>
<event>
 5    1  0.4067226E+001  0.8884475E+02  0.7546771E-02  0.1305674E+00
          1   -1    0    0  501    0  0.00000000000E+00  0.00000000000E+00  0.34915208920E+02  0.34915208920E+02  0.00000000000E+00 0. -1.
         -1   -1    0    0    0  501 -0.00000000000E+00 -0.00000000000E+00 -0.56518278610E+02  0.56518278610E+02  0.00000000000E+00 0.  1.
         23    2    1    2    0    0  0.00000000000E+00  0.00000000000E+00 -0.21603069690E+02  0.91433487529E+02  0.88844752359E+02 0.  0.
          2    1    3    3  502    0 -0.20626721605E+02  0.36715982486E+02  0.37462104508E+01  0.42279535320E+02  0.00000000000E+00 0. -1.
         -2    1    3    3    0  502  0.20626721605E+02 -0.36715982486E+02 -0.25349280141E+02  0.49153952209E+02  0.00000000000E+00 0.  1.
<mgrwt>
<rscale>  0 0.88844752E+02</rscale>
<asrwt>0</asrwt>
<pdfrwt beam="1">  1        1 0.53715706E-02 0.88844752E+02</pdfrwt>
<pdfrwt beam="2">  1       -1 0.86951198E-02 0.88844752E+02</pdfrwt>
<totfact> 0.95561593E+04</totfact>
</mgrwt>
</event>
<event>
 5    1  0.4067226E+001  0.9162860E+02  0.7546771E-02  0.1298955E+00
         -1   -1    0    0    0  501 -0.00000000000E+00  0.00000000000E+00  0.24864737824E+03  0.24864737824E+03  0.00000000000E+00 0.  1.
          1   -1    0    0  501    0  0.00000000000E+00 -0.00000000000E+00 -0.84414730101E+01  0.84414730101E+01  0.00000000000E+00 0. -1.
         23    2    1    2    0    0  0.00000000000E+00  0.00000000000E+00  0.24020590523E+03  0.25708885125E+03  0.91628601047E+02 0.  0.
          2    1    3    3  502    0 -0.52876158725E+01 -0.42264708500E+02  0.72762218489E+02  0.84312542991E+02  0.00000000000E+00 0. -1.
         -2    1    3    3    0  502  0.52876158725E+01  0.42264708500E+02  0.16744368675E+03  0.17277630826E+03  0.00000000000E+00 0.  1.
<mgrwt>
<rscale>  0 0.91628601E+02</rscale>
<asrwt>0</asrwt>
<pdfrwt beam="2">  1        1 0.12986883E-02 0.91628601E+02</pdfrwt>
<pdfrwt beam="1">  1       -1 0.38253437E-01 0.91628601E+02</pdfrwt>
<totfact> 0.64051169E+04</totfact>
</mgrwt>
</event>
<event>
 5    1  0.4067226E+001  0.9155179E+02  0.7546771E-02  0.1299137E+00
          2   -1    0    0  501    0  0.00000000000E+00  0.00000000000E+00  0.24952944802E+03  0.24952944802E+03  0.00000000000E+00 0. -1.
         -2   -1    0    0    0  501 -0.00000000000E+00 -0.00000000000E+00 -0.83975370437E+01  0.83975370437E+01  0.00000000000E+00 0.  1.
         23    2    1    2    0    0  0.00000000000E+00  0.00000000000E+00  0.24113191098E+03  0.25792698506E+03  0.91551794810E+02 0.  0.
          2    1    3    3  502    0  0.31355882849E+02  0.12443606702E+01  0.21445759628E+03  0.21674132145E+03  0.00000000000E+00 0. -1.
         -2    1    3    3    0  502 -0.31355882849E+02 -0.12443606702E+01  0.26674314700E+02  0.41185663615E+02  0.00000000000E+00 0.  1.
<mgrwt>
<rscale>  0 0.91551795E+02</rscale>
<asrwt>0</asrwt>
<pdfrwt beam="1">  1        2 0.38389140E-01 0.91551795E+02</pdfrwt>
<pdfrwt beam="2">  1       -2 0.12919290E-02 0.91551795E+02</pdfrwt>
<totfact> 0.16590809E+05</totfact>
</mgrwt>
</event>
<event>
 5    1  0.4067226E+001  0.1025566E+03  0.7546771E-02  0.1275010E+00
         -3   -1    0    0    0  501 -0.00000000000E+00  0.00000000000E+00  0.58724191387E+02  0.58724191387E+02  0.00000000000E+00 0.  1.
          3   -1    0    0  501    0  0.00000000000E+00 -0.00000000000E+00 -0.44776487804E+02  0.44776487804E+02  0.00000000000E+00 0. -1.
         23    2    1    2    0    0  0.00000000000E+00  0.00000000000E+00  0.13947703583E+02  0.10350067919E+03  0.10255658028E+03 0.  0.
          2    1    3    3  502    0 -0.17516411435E+02  0.38450060941E+02 -0.22349280764E+02  0.47798767836E+02  0.00000000000E+00 0. -1.
         -2    1    3    3    0  502  0.17516411435E+02 -0.38450060941E+02  0.36296984347E+02  0.55701911356E+02  0.00000000000E+00 0.  1.
<mgrwt>
<rscale>  0 0.10255658E+03</rscale>
<asrwt>0</asrwt>
<pdfrwt beam="2">  1        3 0.68886904E-02 0.10255658E+03</pdfrwt>
<pdfrwt beam="1">  1       -3 0.90344910E-02 0.10255658E+03</pdfrwt>
<totfact> 0.24926252E+04</totfact>
</mgrwt>
</event>
<event>
 5    1  0.4067226E+001  0.8873827E+02  0.7546771E-02  0.1305936E+00
          1   -1    0    0  501    0  0.00000000000E+00  0.00000000000E+00  0.10769040383E+03  0.10769040383E+03  0.00000000000E+00 0. -1.
         -1   -1    0    0    0  501 -0.00000000000E+00 -0.00000000000E+00 -0.18280367532E+02  0.18280367532E+02  0.00000000000E+00 0.  1.
         23    2    1    2    0    0  0.00000000000E+00  0.00000000000E+00  0.89410036301E+02  0.12597077137E+03  0.88738270475E+02 0.  0.
          2    1    3    3  502    0 -0.78674593598E+01 -0.30223937810E+02  0.89443911359E+02  0.94739625356E+02  0.00000000000E+00 0. -1.
         -2    1    3    3    0  502  0.78674593598E+01  0.30223937810E+02 -0.33875057220E-01  0.31231146009E+02  0.00000000000E+00 0.  1.
<mgrwt>
<rscale>  0 0.88738270E+02</rscale>
<asrwt>0</asrwt>
<pdfrwt beam="1">  1        1 0.16567754E-01 0.88738270E+02</pdfrwt>
<pdfrwt beam="2">  1       -1 0.28123643E-02 0.88738270E+02</pdfrwt>
<totfact> 0.11383051E+05</totfact>
</mgrwt>
</event>
<event>
 5    1  0.4067226E+001  0.8352264E+02  0.7546771E-02  0.1319342E+00
          3   -1    0    0  501    0  0.00000000000E+00  0.00000000000E+00  0.12888388523E+03  0.12888388523E+03  0.00000000000E+00 0. -1.
         -3   -1    0    0    0  501 -0.00000000000E+00 -0.00000000000E+00 -0.13531620028E+02  0.13531620028E+02  0.00000000000E+00 0.  1.
         23    2    1    2    0    0  0.00000000000E+00  0.00000000000E+00  0.11535226520E+03  0.14241550526E+03  0.83522637954E+02 0.  0.
          2    1    3    3  502    0 -0.29719244253E+02  0.29083646438E+02  0.64261443063E+02  0.76541655546E+02  0.00000000000E+00 0. -1.
         -2    1    3    3    0  502  0.29719244253E+02 -0.29083646438E+02  0.51090822139E+02  0.65873849713E+02  0.00000000000E+00 0.  1.
<mgrwt>
<rscale>  0 0.83522638E+02</rscale>
<asrwt>0</asrwt>
<pdfrwt beam="1">  1        3 0.19828289E-01 0.83522638E+02</pdfrwt>
<pdfrwt beam="2">  1       -3 0.20817878E-02 0.83522638E+02</pdfrwt>
<totfact> 0.40239018E+04</totfact>
</mgrwt>
</event>
<event>
 5    1  0.4067226E+001  0.9118193E+02  0.7546771E-02  0.1300014E+00
         -2   -1    0    0    0  501 -0.00000000000E+00  0.00000000000E+00  0.12594704464E+01  0.12594704464E+01  0.00000000000E+00 0.  1.
          2   -1    0    0  501    0  0.00000000000E+00 -0.00000000000E+00 -0.16503254247E+04  0.16503254247E+04  0.00000000000E+00 0. -1.
         23    2    1    2    0    0  0.00000000000E+00  0.00000000000E+00 -0.16490659543E+04  0.16515848952E+04  0.91181930215E+02 0.  0.
          2    1    3    3  502    0 -0.26570501261E+02 -0.71930986567E+01 -0.14828139331E+04  0.14830694159E+04  0.00000000000E+00 0. -1.
         -2    1    3    3    0  502  0.26570501261E+02  0.71930986567E+01 -0.16625202119E+03  0.16851547927E+03  0.00000000000E+00 0.  1.
<mgrwt>
<rscale>  0 0.91181930E+02</rscale>
<asrwt>0</asrwt>
<pdfrwt beam="2">  1        2 0.25389603E+00 0.91181930E+02</pdfrwt>
<pdfrwt beam="1">  1       -2 0.19376483E-03 0.91181930E+02</pdfrwt>
<totfact> 0.22595643E+05</totfact>
</mgrwt>
</event>
<event>
 5    1  0.4067226E+001  0.9089345E+02  0.7546771E-02  0.1300702E+00
          1   -1    0    0  501    0  0.00000000000E+00  0.00000000000E+00  0.64351984331E+02  0.64351984331E+02  0.00000000000E+00 0. -1.
         -1   -1    0    0    0  501 -0.00000000000E+00 -0.00000000000E+00 -0.32095433208E+02  0.32095433208E+02  0.00000000000E+00 0.  1.
         23    2    1    2    0    0  0.00000000000E+00  0.00000000000E+00  0.32256551123E+02  0.96447417540E+02  0.90893450038E+02 0.  0.
          2    1    3    3  502    0  0.37100180907E+02 -0.52196394858E+01  0.43424378300E+02  0.57352808915E+02  0.00000000000E+00 0. -1.
         -2    1    3    3    0  502 -0.37100180907E+02  0.52196394858E+01 -0.11167827177E+02  0.39094608625E+02  0.00000000000E+00 0.  1.
<mgrwt>
<rscale>  0 0.90893450E+02</rscale>
<asrwt>0</asrwt>
<pdfrwt beam="1">  1        1 0.99003053E-02 0.90893450E+02</pdfrwt>
<pdfrwt beam="2">  1       -1 0.49377590E-02 0.90893450E+02</pdfrwt>
<totfact> 0.98244084E+04</totfact>
</mgrwt>
</event>
<event>
 5    1  0.4067226E+001  0.9158310E+02  0.7546771E-02  0.1299063E+00
          2   -1    0    0  501    0  0.00000000000E+00  0.00000000000E+00  0.10774207467E+04  0.10774207467E+04  0.00000000000E+00 0.  1.
         -2   -1    0    0    0  501 -0.00000000000E+00 -0.00000000000E+00 -0.19461906319E+01  0.19461906319E+01  0.00000000000E+00 0. -1.
         23    2    1    2    0    0  0.00000000000E+00  0.00000000000E+00  0.10754745560E+04  0.10793669373E+04  0.91583102453E+02 0.  0.
          2    1    3    3  502    0 -0.45380438800E+02  0.28853997327E+00  0.60981182347E+03  0.61149810100E+03  0.00000000000E+00 0.  1.
         -2    1    3    3    0  502  0.45380438800E+02 -0.28853997327E+00  0.46566273256E+03  0.46786883630E+03  0.00000000000E+00 0. -1.
<mgrwt>
<rscale>  0 0.91583102E+02</rscale>
<asrwt>0</asrwt>
<pdfrwt beam="1">  1        2 0.16575656E+00 0.91583102E+02</pdfrwt>
<pdfrwt beam="2">  1       -2 0.29941480E-03 0.91583102E+02</pdfrwt>
<totfact> 0.24739154E+05</totfact>
</mgrwt>
</event>
<event>
 5    1  0.4067226E+001  0.9266621E+02  0.7546771E-02  0.1296521E+00
          2   -1    0    0  501    0  0.00000000000E+00  0.00000000000E+00  0.55838404777E+03  0.55838404777E+03  0.00000000000E+00 0. -1.
         -2   -1    0    0    0  501 -0.00000000000E+00 -0.00000000000E+00 -0.38445883567E+01  0.38445883567E+01  0.00000000000E+00 0.  1.
         23    2    1    2    0    0  0.00000000000E+00  0.00000000000E+00  0.55453945941E+03  0.56222863612E+03  0.92666214094E+02 0.  0.
          2    1    3    3  502    0  0.42896255094E+02  0.17417524072E+02  0.26625143422E+03  0.27024671149E+03  0.00000000000E+00 0.  1.
         -2    1    3    3    0  502 -0.42896255094E+02 -0.17417524072E+02  0.28828802519E+03  0.29198192464E+03  0.00000000000E+00 0. -1.
<mgrwt>
<rscale>  0 0.92666214E+02</rscale>
<asrwt>0</asrwt>
<pdfrwt beam="1">  1        2 0.85905174E-01 0.92666214E+02</pdfrwt>
<pdfrwt beam="2">  1       -2 0.59147558E-03 0.92666214E+02</pdfrwt>
<totfact> 0.21373532E+05</totfact>
</mgrwt>
</event>
<event>
 5    1  0.4067226E+001  0.8658584E+02  0.7546771E-02  0.1311337E+00
         -2   -1    0    0    0  501 -0.00000000000E+00  0.00000000000E+00  0.13985289744E+01  0.13985289744E+01  0.00000000000E+00 0.  1.
          2   -1    0    0  501    0  0.00000000000E+00 -0.00000000000E+00 -0.13401774025E+04  0.13401774025E+04  0.00000000000E+00 0. -1.
         23    2    1    2    0    0  0.00000000000E+00  0.00000000000E+00 -0.13387788735E+04  0.13415759314E+04  0.86585840141E+02 0.  0.
          2    1    3    3  502    0 -0.29727197635E+02 -0.21389268508E+02 -0.10271236187E+04  0.10277763060E+04  0.00000000000E+00 0. -1.
         -2    1    3    3    0  502  0.29727197635E+02  0.21389268508E+02 -0.31165525481E+03  0.31379962546E+03  0.00000000000E+00 0.  1.
<mgrwt>
<rscale>  0 0.86585840E+02</rscale>
<asrwt>0</asrwt>
<pdfrwt beam="2">  1        2 0.20618105E+00 0.86585840E+02</pdfrwt>
<pdfrwt beam="1">  1       -2 0.21515840E-03 0.86585840E+02</pdfrwt>
<totfact> 0.27960796E+05</totfact>
</mgrwt>
</event>
<event>
 5    1  0.4067226E+001  0.9364333E+02  0.7546771E-02  0.1294261E+00
         -1   -1    0    0    0  501 -0.00000000000E+00  0.00000000000E+00  0.59997042254E+02  0.59997042254E+02  0.00000000000E+00 0.  1.
          1   -1    0    0  501    0  0.00000000000E+00 -0.00000000000E+00 -0.36539606607E+02  0.36539606607E+02  0.00000000000E+00 0. -1.
         23    2    1    2    0    0  0.00000000000E+00  0.00000000000E+00  0.23457435647E+02  0.96536648861E+02  0.93643330175E+02 0.  0.
          2    1    3    3  502    0  0.33004828221E+02 -0.31411692125E+02  0.61340664637E+00  0.45567415504E+02  0.00000000000E+00 0. -1.
         -2    1    3    3    0  502 -0.33004828221E+02  0.31411692125E+02  0.22844029001E+02  0.50969233357E+02  0.00000000000E+00 0.  1.
<mgrwt>
<rscale>  0 0.93643330E+02</rscale>
<asrwt>0</asrwt>
<pdfrwt beam="2">  1        1 0.56214780E-02 0.93643330E+02</pdfrwt>
<pdfrwt beam="1">  1       -1 0.92303142E-02 0.93643330E+02</pdfrwt>
<totfact> 0.82872469E+04</totfact>
</mgrwt>
</event>
<event>
 4    1  0.4067226E+001  0.1594510E+03  0.7546771E-02  0.1189318E+00
          1   -1    0    0  501    0  0.00000000000E+00  0.00000000000E+00  0.24356137084E+02  0.24356137084E+02  0.00000000000E+00 0. -1.
         -1   -1    0    0    0  501 -0.00000000000E+00 -0.00000000000E+00 -0.26096737816E+03  0.26096737816E+03  0.00000000000E+00 0.  1.
          2    1    1    2  502    0 -0.42457465556E+02  0.20754041785E+02 -0.34093602867E+01  0.47381329334E+02  0.00000000000E+00 0. -1.
         -2    1    1    2    0  502  0.42457465556E+02 -0.20754041785E+02 -0.23320188079E+03  0.23794218591E+03  0.00000000000E+00 0.  1.
<mgrwt>
<rscale>  0 0.15945102E+03</rscale>
<asrwt>0</asrwt>
<pdfrwt beam="1">  1        1 0.37470980E-02 0.15945102E+03</pdfrwt>
<pdfrwt beam="2">  1       -1 0.40148828E-01 0.15945102E+03</pdfrwt>
<totfact> 0.14500341E+04</totfact>
</mgrwt>
</event>
<event>
 5    1  0.4067226E+001  0.9136488E+02  0.7546771E-02  0.1299580E+00
         -2   -1    0    0    0  501 -0.00000000000E+00  0.00000000000E+00  0.73940026227E+03  0.73940026227E+03  0.00000000000E+00 0.  1.
          2   -1    0    0  501    0  0.00000000000E+00 -0.00000000000E+00 -0.28224025010E+01  0.28224025010E+01  0.00000000000E+00 0. -1.
         23    2    1    2    0    0  0.00000000000E+00  0.00000000000E+00  0.73657785977E+03  0.74222266478E+03  0.91364876172E+02 0.  0.
          2    1    3    3  502    0 -0.26866391472E+02 -0.21213063708E+02  0.12254296655E+03  0.12723433386E+03  0.00000000000E+00 0. -1.
         -2    1    3    3    0  502  0.26866391472E+02  0.21213063708E+02  0.61403489323E+03  0.61498833092E+03  0.00000000000E+00 0.  1.
<mgrwt>
<rscale>  0 0.91364876E+02</rscale>
<asrwt>0</asrwt>
<pdfrwt beam="2">  1        2 0.43421636E-03 0.91364876E+02</pdfrwt>
<pdfrwt beam="1">  1       -2 0.11375373E+00 0.91364876E+02</pdfrwt>
<totfact> 0.25654577E+04</totfact>
</mgrwt>
</event>
<event>
 5    1  0.4067226E+001  0.9190081E+02  0.7546771E-02  0.1298313E+00
          2   -1    0    0  501    0  0.00000000000E+00  0.00000000000E+00  0.17171731867E+04  0.17171731867E+04  0.00000000000E+00 0.  1.
         -2   -1    0    0    0  501 -0.00000000000E+00 -0.00000000000E+00 -0.12296020896E+01  0.12296020896E+01  0.00000000000E+00 0. -1.
         23    2    1    2    0    0  0.00000000000E+00  0.00000000000E+00  0.17159435846E+04  0.17184027887E+04  0.91900810409E+02 0.  0.
          2    1    3    3  502    0 -0.22643712810E+01  0.43752505788E+02  0.59885781218E+03  0.60045823198E+03  0.00000000000E+00 0. -1.
         -2    1    3    3    0  502  0.22643712810E+01 -0.43752505788E+02  0.11170857724E+04  0.11179445568E+04  0.00000000000E+00 0.  1.
<mgrwt>
<rscale>  0 0.91900810E+02</rscale>
<asrwt>0</asrwt>
<pdfrwt beam="1">  1        2 0.26417857E+00 0.91900810E+02</pdfrwt>
<pdfrwt beam="2">  1       -2 0.18917093E-03 0.91900810E+02</pdfrwt>
<totfact> 0.21640705E+05</totfact>
</mgrwt>
</event>
<event>
 5    1  0.4067226E+001  0.9414456E+02  0.7546771E-02  0.1293114E+00
          2   -1    0    0  501    0  0.00000000000E+00  0.00000000000E+00  0.58442312758E+03  0.58442312758E+03  0.00000000000E+00 0. -1.
         -2   -1    0    0    0  501 -0.00000000000E+00 -0.00000000000E+00 -0.37914302551E+01  0.37914302551E+01  0.00000000000E+00 0.  1.
         23    2    1    2    0    0  0.00000000000E+00  0.00000000000E+00  0.58063169733E+03  0.58821455784E+03  0.94144559645E+02 0.  0.
          2    1    3    3  502    0  0.31806119023E+02  0.30256605957E+02  0.39647807973E+03  0.39890093898E+03  0.00000000000E+00 0. -1.
         -2    1    3    3    0  502 -0.31806119023E+02 -0.30256605957E+02  0.18415361760E+03  0.18931361886E+03  0.00000000000E+00 0.  1.
<mgrwt>
<rscale>  0 0.94144560E+02</rscale>
<asrwt>0</asrwt>
<pdfrwt beam="1">  1        2 0.89911179E-01 0.94144560E+02</pdfrwt>
<pdfrwt beam="2">  1       -2 0.58329743E-03 0.94144560E+02</pdfrwt>
<totfact> 0.20775209E+05</totfact>
</mgrwt>
</event>
<event>
 5    1  0.4067226E+001  0.9201734E+02  0.7546771E-02  0.1298039E+00
          1   -1    0    0  501    0  0.00000000000E+00  0.00000000000E+00  0.30072468829E+02  0.30072468829E+02  0.00000000000E+00 0. -1.
         -1   -1    0    0    0  501 -0.00000000000E+00 -0.00000000000E+00 -0.70389891459E+02  0.70389891459E+02  0.00000000000E+00 0.  1.
         23    2    1    2    0    0  0.00000000000E+00  0.00000000000E+00 -0.40317422630E+02  0.10046236029E+03  0.92017342208E+02 0.  0.
          2    1    3    3  502    0 -0.41412262533E+01 -0.35973962504E+02  0.10827781083E+02  0.37795721667E+02  0.00000000000E+00 0. -1.
         -2    1    3    3    0  502  0.41412262533E+01  0.35973962504E+02 -0.51145203713E+02  0.62666638620E+02  0.00000000000E+00 0.  1.
<mgrwt>
<rscale>  0 0.92017342E+02</rscale>
<asrwt>0</asrwt>
<pdfrwt beam="1">  1        1 0.46265337E-02 0.92017342E+02</pdfrwt>
<pdfrwt beam="2">  1       -1 0.10829214E-01 0.92017342E+02</pdfrwt>
<totfact> 0.84459772E+04</totfact>
</mgrwt>
</event>
<event>
 5    1  0.4067226E+001  0.8595387E+02  0.7546771E-02  0.1312957E+00
          1   -1    0    0  501    0  0.00000000000E+00  0.00000000000E+00  0.20611243944E+03  0.20611243944E+03  0.00000000000E+00 0. -1.
         -1   -1    0    0    0  501 -0.00000000000E+00 -0.00000000000E+00 -0.89612108177E+01  0.89612108177E+01  0.00000000000E+00 0.  1.
         23    2    1    2    0    0  0.00000000000E+00  0.00000000000E+00  0.19715122862E+03  0.21507365026E+03  0.85953871861E+02 0.  0.
          2    1    3    3  502    0 -0.33595388937E+02 -0.23905881849E+02  0.12890032753E+03  0.13533453285E+03  0.00000000000E+00 0. -1.
         -2    1    3    3    0  502  0.33595388937E+02  0.23905881849E+02  0.68250901091E+02  0.79739117405E+02  0.00000000000E+00 0.  1.
<mgrwt>
<rscale>  0 0.85953872E+02</rscale>
<asrwt>0</asrwt>
<pdfrwt beam="1">  1        1 0.31709603E-01 0.85953872E+02</pdfrwt>
<pdfrwt beam="2">  1       -1 0.13786480E-02 0.85953872E+02</pdfrwt>
<totfact> 0.13941812E+05</totfact>
</mgrwt>
</event>
<event>
 5    1  0.4067226E+001  0.9165750E+02  0.7546771E-02  0.1298887E+00
         -3   -1    0    0    0  501 -0.00000000000E+00  0.00000000000E+00  0.20399499551E+02  0.20399499551E+02  0.00000000000E+00 0.  1.
          3   -1    0    0  501    0  0.00000000000E+00 -0.00000000000E+00 -0.10295716016E+03  0.10295716016E+03  0.00000000000E+00 0. -1.
         23    2    1    2    0    0  0.00000000000E+00  0.00000000000E+00 -0.82557660610E+02  0.12335665971E+03  0.91657504712E+02 0.  0.
          2    1    3    3  502    0  0.36191234893E+02  0.27369160011E+02 -0.49938174128E+02  0.67473681077E+02  0.00000000000E+00 0. -1.
         -2    1    3    3    0  502 -0.36191234893E+02 -0.27369160011E+02 -0.32619486482E+02  0.55882978635E+02  0.00000000000E+00 0.  1.
<mgrwt>
<rscale>  0 0.91657505E+02</rscale>
<asrwt>0</asrwt>
<pdfrwt beam="2">  1        3 0.15839563E-01 0.91657505E+02</pdfrwt>
<pdfrwt beam="1">  1       -3 0.31383845E-02 0.91657505E+02</pdfrwt>
<totfact> 0.32549364E+04</totfact>
</mgrwt>
</event>
<event>
 5    1  0.4067226E+001  0.8217600E+02  0.7546771E-02  0.1322987E+00
          1   -1    0    0  501    0  0.00000000000E+00  0.00000000000E+00  0.32361366550E+04  0.32361366550E+04  0.00000000000E+00 0. -1.
         -1   -1    0    0    0  501 -0.00000000000E+00 -0.00000000000E+00 -0.52167871519E+00  0.52167871519E+00  0.00000000000E+00 0.  1.
         23    2    1    2    0    0  0.00000000000E+00  0.00000000000E+00  0.32356149762E+04  0.32366583337E+04  0.82175996796E+02 0.  0.
          2    1    3    3  502    0 -0.40427838088E+02 -0.66629435554E+01  0.14969294430E+04  0.14974900875E+04  0.00000000000E+00 0. -1.
         -2    1    3    3    0  502  0.40427838088E+02  0.66629435554E+01  0.17386855333E+04  0.17391682462E+04  0.00000000000E+00 0.  1.
<mgrwt>
<rscale>  0 0.82175997E+02</rscale>
<asrwt>0</asrwt>
<pdfrwt beam="1">  1        1 0.49785110E+00 0.82175997E+02</pdfrwt>
<pdfrwt beam="2">  1       -1 0.80260855E-04 0.82175997E+02</pdfrwt>
<totfact> 0.31667923E+04</totfact>
</mgrwt>
</event>
<event>
 5    1  0.4067226E+001  0.8893229E+02  0.7546771E-02  0.1305458E+00
         -2   -1    0    0    0  501 -0.00000000000E+00  0.00000000000E+00  0.98522270011E+00  0.98522270011E+00  0.00000000000E+00 0. -1.
          2   -1    0    0  501    0  0.00000000000E+00 -0.00000000000E+00 -0.20068947361E+04  0.20068947361E+04  0.00000000000E+00 0.  1.
         23    2    1    2    0    0  0.00000000000E+00  0.00000000000E+00 -0.20059095134E+04  0.20078799588E+04  0.88932294489E+02 0.  0.
          2    1    3    3  502    0 -0.22537792821E+02 -0.14055119102E+02 -0.19780368685E+03  0.19957904953E+03  0.00000000000E+00 0. -1.
         -2    1    3    3    0  502  0.22537792821E+02  0.14055119102E+02 -0.18081058266E+04  0.18083009093E+04  0.00000000000E+00 0.  1.
<mgrwt>
<rscale>  0 0.88932294E+02</rscale>
<asrwt>0</asrwt>
<pdfrwt beam="2">  1        2 0.30875087E+00 0.88932294E+02</pdfrwt>
<pdfrwt beam="1">  1       -2 0.15157379E-03 0.88932294E+02</pdfrwt>
<totfact> 0.20952793E+05</totfact>
</mgrwt>
</event>
<event>
 5    1  0.4067226E+001  0.9129478E+02  0.7546771E-02  0.1299746E+00
          1   -1    0    0  501    0  0.00000000000E+00  0.00000000000E+00  0.13408626927E+04  0.13408626927E+04  0.00000000000E+00 0. -1.
         -1   -1    0    0    0  501 -0.00000000000E+00 -0.00000000000E+00 -0.15539879192E+01  0.15539879192E+01  0.00000000000E+00 0.  1.
         23    2    1    2    0    0  0.00000000000E+00  0.00000000000E+00  0.13393087048E+04  0.13424166806E+04  0.91294784644E+02 0.  0.
          2    1    3    3  502    0 -0.85496175169E+00  0.23378375626E+02  0.12460148799E+04  0.12462344724E+04  0.00000000000E+00 0. -1.
         -2    1    3    3    0  502  0.85496175169E+00 -0.23378375626E+02  0.93293824936E+02  0.96182208218E+02  0.00000000000E+00 0.  1.
<mgrwt>
<rscale>  0 0.91294785E+02</rscale>
<asrwt>0</asrwt>
<pdfrwt beam="1">  1        1 0.20628564E+00 0.91294785E+02</pdfrwt>
<pdfrwt beam="2">  1       -1 0.23907614E-03 0.91294785E+02</pdfrwt>
<totfact> 0.11939815E+05</totfact>
</mgrwt>
</event>
<event>
 5    1  0.4067226E+001  0.8976835E+02  0.7546771E-02  0.1303414E+00
          3   -1    0    0  501    0  0.00000000000E+00  0.00000000000E+00  0.17538290270E+04  0.17538290270E+04  0.00000000000E+00 0. -1.
         -3   -1    0    0    0  501 -0.00000000000E+00 -0.00000000000E+00 -0.11486805113E+01  0.11486805113E+01  0.00000000000E+00 0.  1.
         23    2    1    2    0    0  0.00000000000E+00  0.00000000000E+00  0.17526803465E+04  0.17549777075E+04  0.89768351292E+02 0.  0.
          2    1    3    3  502    0 -0.24743823553E+02  0.41013699898E+01  0.16040418459E+04  0.16042379255E+04  0.00000000000E+00 0. -1.
         -2    1    3    3    0  502  0.24743823553E+02 -0.41013699898E+01  0.14863850055E+03  0.15073978203E+03  0.00000000000E+00 0.  1.
<mgrwt>
<rscale>  0 0.89768351E+02</rscale>
<asrwt>0</asrwt>
<pdfrwt beam="1">  1        3 0.26981771E+00 0.89768351E+02</pdfrwt>
<pdfrwt beam="2">  1       -3 0.17672148E-03 0.89768351E+02</pdfrwt>
<totfact> 0.49405208E+03</totfact>
</mgrwt>
</event>
<event>
 5    1  0.4067226E+001  0.9223202E+02  0.7546771E-02  0.1297535E+00
         -1   -1    0    0    0  501 -0.00000000000E+00  0.00000000000E+00  0.53316357150E+01  0.53316357150E+01  0.00000000000E+00 0.  1.
          1   -1    0    0  501    0  0.00000000000E+00 -0.00000000000E+00 -0.39888066779E+03  0.39888066779E+03  0.00000000000E+00 0. -1.
         23    2    1    2    0    0  0.00000000000E+00  0.00000000000E+00 -0.39354903207E+03  0.40421230350E+03  0.92232020783E+02 0.  0.
          2    1    3    3  502    0 -0.24835324234E+02 -0.30691154226E+02 -0.30121800700E+03  0.30379438444E+03  0.00000000000E+00 0. -1.
         -2    1    3    3    0  502  0.24835324234E+02  0.30691154226E+02 -0.92331025078E+02  0.10041791907E+03  0.00000000000E+00 0.  1.
<mgrwt>
<rscale>  0 0.92232021E+02</rscale>
<asrwt>0</asrwt>
<pdfrwt beam="2">  1        1 0.61366252E-01 0.92232021E+02</pdfrwt>
<pdfrwt beam="1">  1       -1 0.82025171E-03 0.92232021E+02</pdfrwt>
<totfact> 0.13076800E+05</totfact>
</mgrwt>
</event>
<event>
 5    1  0.4067226E+001  0.9787960E+02  0.7546771E-02  0.1284819E+00
         -1   -1    0    0    0  501 -0.00000000000E+00  0.00000000000E+00  0.23955586793E+01  0.23955586793E+01  0.00000000000E+00 0.  1.
          1   -1    0    0  501    0  0.00000000000E+00 -0.00000000000E+00 -0.99981013593E+03  0.99981013593E+03  0.00000000000E+00 0. -1.
         23    2    1    2    0    0  0.00000000000E+00  0.00000000000E+00 -0.99741457725E+03  0.10022056946E+04  0.97879596419E+02 0.  0.
          2    1    3    3  502    0 -0.45417966833E+02  0.61758150985E+00 -0.31216022082E+03  0.31544758136E+03  0.00000000000E+00 0. -1.
         -2    1    3    3    0  502  0.45417966833E+02 -0.61758150985E+00 -0.68525435643E+03  0.68675811326E+03  0.00000000000E+00 0.  1.
<mgrwt>
<rscale>  0 0.97879596E+02</rscale>
<asrwt>0</asrwt>
<pdfrwt beam="2">  1        1 0.15381655E+00 0.97879596E+02</pdfrwt>
<pdfrwt beam="1">  1       -1 0.36854843E-03 0.97879596E+02</pdfrwt>
<totfact> 0.11269318E+05</totfact>
</mgrwt>
</event>
<event>
 5    1  0.4067226E+001  0.9108844E+02  0.7546771E-02  0.1300237E+00
          1   -1    0    0  501    0  0.00000000000E+00  0.00000000000E+00  0.21589027262E+02  0.21589027262E+02  0.00000000000E+00 0. -1.
         -1   -1    0    0    0  501 -0.00000000000E+00 -0.00000000000E+00 -0.96080098109E+02  0.96080098109E+02  0.00000000000E+00 0.  1.
         23    2    1    2    0    0  0.00000000000E+00  0.00000000000E+00 -0.74491070848E+02  0.11766912537E+03  0.91088437409E+02 0.  0.
          2    1    3    3  502    0 -0.37068105369E+01 -0.34999361526E+02  0.96098676933E-01  0.35195240964E+02  0.00000000000E+00 0. -1.
         -2    1    3    3    0  502  0.37068105369E+01  0.34999361526E+02 -0.74587169525E+02  0.82473884407E+02  0.00000000000E+00 0.  1.
<mgrwt>
<rscale>  0 0.91088437E+02</rscale>
<asrwt>0</asrwt>
<pdfrwt beam="1">  1        1 0.33213888E-02 0.91088437E+02</pdfrwt>
<pdfrwt beam="2">  1       -1 0.14781553E-01 0.91088437E+02</pdfrwt>
<totfact> 0.82177330E+04</totfact>
</mgrwt>
</event>
<event>
 5    1  0.4067226E+001  0.8910998E+02  0.7546771E-02  0.1305021E+00
          3   -1    0    0  501    0  0.00000000000E+00  0.00000000000E+00  0.30692752901E+02  0.30692752901E+02  0.00000000000E+00 0. -1.
         -3   -1    0    0    0  501 -0.00000000000E+00 -0.00000000000E+00 -0.64678040710E+02  0.64678040710E+02  0.00000000000E+00 0.  1.
         23    2    1    2    0    0  0.00000000000E+00  0.00000000000E+00 -0.33985287808E+02  0.95370793611E+02  0.89109979725E+02 0.  0.
          2    1    3    3  502    0  0.37216656152E+02  0.90999334744E+01  0.73486136323E+01  0.39011413800E+02  0.00000000000E+00 0. -1.
         -2    1    3    3    0  502 -0.37216656152E+02 -0.90999334744E+01 -0.41333901441E+02  0.56359379811E+02  0.00000000000E+00 0.  1.
<mgrwt>
<rscale>  0 0.89109980E+02</rscale>
<asrwt>0</asrwt>
<pdfrwt beam="1">  1        3 0.47219620E-02 0.89109980E+02</pdfrwt>
<pdfrwt beam="2">  1       -3 0.99504677E-02 0.89109980E+02</pdfrwt>
<totfact> 0.37268857E+04</totfact>
</mgrwt>
</event>
<event>
 5    1  0.4067226E+001  0.9103528E+02  0.7546771E-02  0.1300364E+00
         -1   -1    0    0    0  501 -0.00000000000E+00  0.00000000000E+00  0.13798901171E+01  0.13798901171E+01  0.00000000000E+00 0.  1.
          1   -1    0    0  501    0  0.00000000000E+00 -0.00000000000E+00 -0.15014640436E+04  0.15014640436E+04  0.00000000000E+00 0. -1.
         23    2    1    2    0    0  0.00000000000E+00  0.00000000000E+00 -0.15000841535E+04  0.15028439337E+04  0.91035276569E+02 0.  0.
          2    1    3    3  502    0  0.41865978353E+02 -0.67872516773E+01 -0.10228193171E+04  0.10236982868E+04  0.00000000000E+00 0. -1.
         -2    1    3    3    0  502 -0.41865978353E+02  0.67872516773E+01 -0.47726483642E+03  0.47914564697E+03  0.00000000000E+00 0.  1.
<mgrwt>
<rscale>  0 0.91035277E+02</rscale>
<asrwt>0</asrwt>
<pdfrwt beam="2">  1        1 0.23099383E+00 0.91035277E+02</pdfrwt>
<pdfrwt beam="1">  1       -1 0.21229138E-03 0.91035277E+02</pdfrwt>
<totfact> 0.11087674E+05</totfact>
</mgrwt>
</event>
<event>
 5    1  0.4067226E+001  0.9157397E+02  0.7546771E-02  0.1299084E+00
         -1   -1    0    0    0  501 -0.00000000000E+00  0.00000000000E+00  0.56323791037E+03  0.56323791037E+03  0.00000000000E+00 0.  1.
          1   -1    0    0  501    0  0.00000000000E+00 -0.00000000000E+00 -0.37221359373E+01  0.37221359373E+01  0.00000000000E+00 0. -1.
         23    2    1    2    0    0  0.00000000000E+00  0.00000000000E+00  0.55951577443E+03  0.56696004631E+03  0.91573971573E+02 0.  0.
          2    1    3    3  502    0 -0.26261946898E+02 -0.19961655928E+02  0.47635323839E+03  0.47749404739E+03  0.00000000000E+00 0.  1.
         -2    1    3    3    0  502  0.26261946898E+02  0.19961655928E+02  0.83162536038E+02  0.89465998919E+02  0.00000000000E+00 0. -1.
<mgrwt>
<rscale>  0 0.91573972E+02</rscale>
<asrwt>0</asrwt>
<pdfrwt beam="2">  1        1 0.57263674E-03 0.91573972E+02</pdfrwt>
<pdfrwt beam="1">  1       -1 0.86651919E-01 0.91573972E+02</pdfrwt>
<totfact> 0.43032815E+04</totfact>
</mgrwt>
</event>
<event>
 5    1  0.4067226E+001  0.8978949E+02  0.7546771E-02  0.1303362E+00
          1   -1    0    0  501    0  0.00000000000E+00  0.00000000000E+00  0.15470005513E+02  0.15470005513E+02  0.00000000000E+00 0. -1.
         -1   -1    0    0    0  501 -0.00000000000E+00 -0.00000000000E+00 -0.13028683568E+03  0.13028683568E+03  0.00000000000E+00 0.  1.
         23    2    1    2    0    0  0.00000000000E+00  0.00000000000E+00 -0.11481683016E+03  0.14575684119E+03  0.89789488608E+02 0.  0.
          2    1    3    3  502    0 -0.84096528965E+01 -0.20943283327E+02  0.55920862647E+01  0.23251124858E+02  0.00000000000E+00 0. -1.
         -2    1    3    3    0  502  0.84096528965E+01  0.20943283327E+02 -0.12040891643E+03  0.12250571633E+03  0.00000000000E+00 0.  1.
<mgrwt>
<rscale>  0 0.89789489E+02</rscale>
<asrwt>0</asrwt>
<pdfrwt beam="1">  1        1 0.23800008E-02 0.89789489E+02</pdfrwt>
<pdfrwt beam="2">  1       -1 0.20044129E-01 0.89789489E+02</pdfrwt>
<totfact> 0.80310850E+04</totfact>
</mgrwt>
</event>
<event>
 5    1  0.4067226E+001  0.9133594E+02  0.7546771E-02  0.1299648E+00
         -2   -1    0    0    0  501 -0.00000000000E+00  0.00000000000E+00  0.35972181931E+01  0.35972181931E+01  0.00000000000E+00 0.  1.
          2   -1    0    0  501    0  0.00000000000E+00 -0.00000000000E+00 -0.57977121438E+03  0.57977121438E+03  0.00000000000E+00 0. -1.
         23    2    1    2    0    0  0.00000000000E+00  0.00000000000E+00 -0.57617399619E+03  0.58336843257E+03  0.91335941670E+02 0.  0.
          2    1    3    3  502    0 -0.19772926258E+02 -0.65796064285E+01 -0.28540786281E+02  0.35338878237E+02  0.00000000000E+00 0.  1.
         -2    1    3    3    0  502  0.19772926258E+02  0.65796064285E+01 -0.54763320991E+03  0.54802955434E+03  0.00000000000E+00 0. -1.
<mgrwt>
<rscale>  0 0.91335942E+02</rscale>
<asrwt>0</asrwt>
<pdfrwt beam="2">  1        2 0.89195592E-01 0.91335942E+02</pdfrwt>
<pdfrwt beam="1">  1       -2 0.55341805E-03 0.91335942E+02</pdfrwt>
<totfact> 0.22457190E+05</totfact>
</mgrwt>
</event>
<event>
 5    1  0.4067226E+001  0.8193090E+02  0.7546771E-02  0.1323659E+00
         -2   -1    0    0    0  501 -0.00000000000E+00  0.00000000000E+00  0.36751667438E+01  0.36751667438E+01  0.00000000000E+00 0. -1.
          2   -1    0    0  501    0  0.00000000000E+00 -0.00000000000E+00 -0.45662365491E+03  0.45662365491E+03  0.00000000000E+00 0.  1.
         23    2    1    2    0    0  0.00000000000E+00  0.00000000000E+00 -0.45294848817E+03  0.46029882166E+03  0.81930899445E+02 0.  0.
          2    1    3    3  502    0  0.15300547432E+02 -0.28304463677E+02 -0.84021718194E+02  0.89971654114E+02  0.00000000000E+00 0. -1.
         -2    1    3    3    0  502 -0.15300547432E+02  0.28304463677E+02 -0.36892676998E+03  0.37032716754E+03  0.00000000000E+00 0.  1.
<mgrwt>
<rscale>  0 0.81930899E+02</rscale>
<asrwt>0</asrwt>
<pdfrwt beam="2">  1        2 0.70249820E-01 0.81930899E+02</pdfrwt>
<pdfrwt beam="1">  1       -2 0.56541005E-03 0.81930899E+02</pdfrwt>
<totfact> 0.27710216E+05</totfact>
</mgrwt>
</event>
<event>
 5    1  0.4067226E+001  0.9122392E+02  0.7546771E-02  0.1299915E+00
          1   -1    0    0  501    0  0.00000000000E+00  0.00000000000E+00  0.79381497169E+01  0.79381497169E+01  0.00000000000E+00 0. -1.
         -1   -1    0    0    0  501 -0.00000000000E+00 -0.00000000000E+00 -0.26208257622E+03  0.26208257622E+03  0.00000000000E+00 0.  1.
         23    2    1    2    0    0  0.00000000000E+00  0.00000000000E+00 -0.25414442650E+03  0.27002072594E+03  0.91223916343E+02 0.  0.
          2    1    3    3  502    0  0.33308259314E+02 -0.21673564352E+02 -0.19334313796E+03  0.19738478291E+03  0.00000000000E+00 0.  1.
         -2    1    3    3    0  502 -0.33308259314E+02  0.21673564352E+02 -0.60801288548E+02  0.72635943027E+02  0.00000000000E+00 0. -1.
<mgrwt>
<rscale>  0 0.91223916E+02</rscale>
<asrwt>0</asrwt>
<pdfrwt beam="1">  1        1 0.12212538E-02 0.91223916E+02</pdfrwt>
<pdfrwt beam="2">  1       -1 0.40320395E-01 0.91223916E+02</pdfrwt>
<totfact> 0.63630718E+04</totfact>
</mgrwt>
</event>
<event>
 5    1  0.4067226E+001  0.9364417E+02  0.7546771E-02  0.1294259E+00
         -1   -1    0    0    0  501 -0.00000000000E+00  0.00000000000E+00  0.46691308981E+01  0.46691308981E+01  0.00000000000E+00 0.  1.
          1   -1    0    0  501    0  0.00000000000E+00 -0.00000000000E+00 -0.46953229585E+03  0.46953229585E+03  0.00000000000E+00 0. -1.
         23    2    1    2    0    0  0.00000000000E+00  0.00000000000E+00 -0.46486316495E+03  0.47420142675E+03  0.93644172274E+02 0.  0.
          2    1    3    3  502    0  0.23723220667E+02  0.39401976978E+02 -0.27686703543E+03  0.28066111647E+03  0.00000000000E+00 0. -1.
         -2    1    3    3    0  502 -0.23723220667E+02 -0.39401976978E+02 -0.18799612952E+03  0.19354031028E+03  0.00000000000E+00 0.  1.
<mgrwt>
<rscale>  0 0.93644172E+02</rscale>
<asrwt>0</asrwt>
<pdfrwt beam="2">  1        1 0.72235720E-01 0.93644172E+02</pdfrwt>
<pdfrwt beam="1">  1       -1 0.71832801E-03 0.93644172E+02</pdfrwt>
<totfact> 0.12870762E+05</totfact>
</mgrwt>
</event>
<event>
 5    1  0.4067226E+001  0.9413471E+02  0.7546771E-02  0.1293137E+00
          1   -1    0    0  501    0  0.00000000000E+00  0.00000000000E+00  0.25280167358E+04  0.25280167358E+04  0.00000000000E+00 0. -1.
         -1   -1    0    0    0  501 -0.00000000000E+00 -0.00000000000E+00 -0.87631373856E+00  0.87631373856E+00  0.00000000000E+00 0.  1.
         23    2    1    2    0    0  0.00000000000E+00  0.00000000000E+00  0.25271404221E+04  0.25288930496E+04  0.94134707667E+02 0.  0.
          2    1    3    3  502    0 -0.45892040484E+02  0.30977926801E+00  0.15442514281E+04  0.15449332181E+04  0.00000000000E+00 0. -1.
         -2    1    3    3    0  502  0.45892040484E+02 -0.30977926801E+00  0.98288899401E+03  0.98395983145E+03  0.00000000000E+00 0.  1.
<mgrwt>
<rscale>  0 0.94134708E+02</rscale>
<asrwt>0</asrwt>
<pdfrwt beam="1">  1        1 0.38891981E+00 0.94134708E+02</pdfrwt>
<pdfrwt beam="2">  1       -1 0.13481952E-03 0.94134708E+02</pdfrwt>
<totfact> 0.46792451E+04</totfact>
</mgrwt>
</event>
<event>
 5    1  0.4067226E+001  0.9030515E+02  0.7546771E-02  0.1302114E+00
          1   -1    0    0  501    0  0.00000000000E+00  0.00000000000E+00  0.78155764817E+01  0.78155764817E+01  0.00000000000E+00 0. -1.
         -1   -1    0    0    0  501 -0.00000000000E+00 -0.00000000000E+00 -0.26085793474E+03  0.26085793474E+03  0.00000000000E+00 0.  1.
         23    2    1    2    0    0  0.00000000000E+00  0.00000000000E+00 -0.25304235826E+03  0.26867351122E+03  0.90305152451E+02 0.  0.
          2    1    3    3  502    0 -0.51785335443E+01  0.43487791997E+02 -0.93828111706E+02  0.10354573776E+03  0.00000000000E+00 0. -1.
         -2    1    3    3    0  502  0.51785335443E+01 -0.43487791997E+02 -0.15921424655E+03  0.16512777346E+03  0.00000000000E+00 0.  1.
<mgrwt>
<rscale>  0 0.90305152E+02</rscale>
<asrwt>0</asrwt>
<pdfrwt beam="1">  1        1 0.12023961E-02 0.90305152E+02</pdfrwt>
<pdfrwt beam="2">  1       -1 0.40131999E-01 0.90305152E+02</pdfrwt>
<totfact> 0.65442288E+04</totfact>
</mgrwt>
</event>
<event>
 5    1  0.4067226E+001  0.9208021E+02  0.7546771E-02  0.1297891E+00
         -1   -1    0    0    0  501 -0.00000000000E+00  0.00000000000E+00  0.15477745704E+02  0.15477745704E+02  0.00000000000E+00 0.  1.
          1   -1    0    0  501    0  0.00000000000E+00 -0.00000000000E+00 -0.13695090800E+03  0.13695090800E+03  0.00000000000E+00 0. -1.
         23    2    1    2    0    0  0.00000000000E+00  0.00000000000E+00 -0.12147316230E+03  0.15242865371E+03  0.92080211295E+02 0.  0.
          2    1    3    3  502    0  0.10827208458E+02  0.44690108155E+02 -0.56941035872E+02  0.73189587893E+02  0.00000000000E+00 0. -1.
         -2    1    3    3    0  502 -0.10827208458E+02 -0.44690108155E+02 -0.64532126426E+02  0.79239065814E+02  0.00000000000E+00 0.  1.
<mgrwt>
<rscale>  0 0.92080211E+02</rscale>
<asrwt>0</asrwt>
<pdfrwt beam="2">  1        1 0.21069371E-01 0.92080211E+02</pdfrwt>
<pdfrwt beam="1">  1       -1 0.23811916E-02 0.92080211E+02</pdfrwt>
<totfact> 0.10738567E+05</totfact>
</mgrwt>
</event>
<event>
 5    1  0.4067226E+001  0.9408100E+02  0.7546771E-02  0.1293259E+00
         -1   -1    0    0    0  501 -0.00000000000E+00  0.00000000000E+00  0.29035619791E+01  0.29035619791E+01  0.00000000000E+00 0.  1.
          1   -1    0    0  501    0  0.00000000000E+00 -0.00000000000E+00 -0.76210135159E+03  0.76210135159E+03  0.00000000000E+00 0. -1.
         23    2    1    2    0    0  0.00000000000E+00  0.00000000000E+00 -0.75919778962E+03  0.76500491357E+03  0.94080997204E+02 0.  0.
          2    1    3    3  502    0  0.12223422175E+01  0.21755310942E+02 -0.40606619738E+02  0.46083459519E+02  0.00000000000E+00 0.  1.
         -2    1    3    3    0  502 -0.12223422175E+01 -0.21755310942E+02 -0.71859116988E+03  0.71892145405E+03  0.00000000000E+00 0. -1.
<mgrwt>
<rscale>  0 0.94080997E+02</rscale>
<asrwt>0</asrwt>
<pdfrwt beam="2">  1        1 0.11724620E+00 0.94080997E+02</pdfrwt>
<pdfrwt beam="1">  1       -1 0.44670246E-03 0.94080997E+02</pdfrwt>
<totfact> 0.13049238E+05</totfact>
</mgrwt>
</event>
<event>
 5    1  0.4067226E+001  0.9217996E+02  0.7546771E-02  0.1297657E+00
         -3   -1    0    0    0  501 -0.00000000000E+00  0.00000000000E+00  0.75861317817E+02  0.75861317817E+02  0.00000000000E+00 0.  1.
          3   -1    0    0  501    0  0.00000000000E+00 -0.00000000000E+00 -0.28002231642E+02  0.28002231642E+02  0.00000000000E+00 0. -1.
         23    2    1    2    0    0  0.00000000000E+00  0.00000000000E+00  0.47859086175E+02  0.10386354946E+03  0.92179958651E+02 0.  0.
          2    1    3    3  502    0  0.72172497329E+01  0.26347169964E+02 -0.17897297703E+02  0.32658464813E+02  0.00000000000E+00 0. -1.
         -2    1    3    3    0  502 -0.72172497329E+01 -0.26347169964E+02  0.65756383879E+02  0.71205084647E+02  0.00000000000E+00 0.  1.
<mgrwt>
<rscale>  0 0.92179959E+02</rscale>
<asrwt>0</asrwt>
<pdfrwt beam="2">  1        3 0.43080357E-02 0.92179959E+02</pdfrwt>
<pdfrwt beam="1">  1       -3 0.11670972E-01 0.92179959E+02</pdfrwt>
<totfact> 0.33377668E+04</totfact>
</mgrwt>
</event>
<event>
 5    1  0.4067226E+001  0.9147015E+02  0.7546771E-02  0.1299330E+00
         -3   -1    0    0    0  501 -0.00000000000E+00  0.00000000000E+00  0.22310953497E+02  0.22310953497E+02  0.00000000000E+00 0.  1.
          3   -1    0    0  501    0  0.00000000000E+00 -0.00000000000E+00 -0.93752029352E+02  0.93752029352E+02  0.00000000000E+00 0. -1.
         23    2    1    2    0    0  0.00000000000E+00  0.00000000000E+00 -0.71441075855E+02  0.11606298285E+03  0.91470151789E+02 0.  0.
          2    1    3    3  502    0 -0.30940977818E+02  0.33522301060E+02 -0.39853287359E+02  0.60575352166E+02  0.00000000000E+00 0. -1.
         -2    1    3    3    0  502  0.30940977818E+02 -0.33522301060E+02 -0.31587788495E+02  0.55487630682E+02  0.00000000000E+00 0.  1.
<mgrwt>
<rscale>  0 0.91470152E+02</rscale>
<asrwt>0</asrwt>
<pdfrwt beam="2">  1        3 0.14423389E-01 0.91470152E+02</pdfrwt>
<pdfrwt beam="1">  1       -3 0.34324544E-02 0.91470152E+02</pdfrwt>
<totfact> 0.33226007E+04</totfact>
</mgrwt>
</event>
<event>
 5    1  0.4067226E+001  0.9473196E+02  0.7546771E-02  0.1291781E+00
          4   -1    0    0  501    0  0.00000000000E+00  0.00000000000E+00  0.21247105779E+03  0.21247105779E+03  0.00000000000E+00 0. -1.
         -4   -1    0    0    0  501 -0.00000000000E+00 -0.00000000000E+00 -0.10559255330E+02  0.10559255330E+02  0.00000000000E+00 0.  1.
         23    2    1    2    0    0  0.00000000000E+00  0.00000000000E+00  0.20191180246E+03  0.22303031312E+03  0.94731961860E+02 0.  0.
          2    1    3    3  502    0 -0.26547269864E+02 -0.38447559751E+02  0.11927793937E+03  0.12810229978E+03  0.00000000000E+00 0. -1.
         -2    1    3    3    0  502  0.26547269864E+02  0.38447559751E+02  0.82633863093E+02  0.94928013345E+02  0.00000000000E+00 0.  1.
<mgrwt>
<rscale>  0 0.94731962E+02</rscale>
<asrwt>0</asrwt>
<pdfrwt beam="1">  1        4 0.32687852E-01 0.94731962E+02</pdfrwt>
<pdfrwt beam="2">  1       -4 0.16245010E-02 0.94731962E+02</pdfrwt>
<totfact> 0.18465373E+04</totfact>
</mgrwt>
</event>
<event>
 5    1  0.4067226E+001  0.8938927E+02  0.7546771E-02  0.1304337E+00
         -2   -1    0    0    0  501 -0.00000000000E+00  0.00000000000E+00  0.21490481621E+01  0.21490481621E+01  0.00000000000E+00 0.  1.
          2   -1    0    0  501    0  0.00000000000E+00 -0.00000000000E+00 -0.92953268208E+03  0.92953268208E+03  0.00000000000E+00 0. -1.
         23    2    1    2    0    0  0.00000000000E+00  0.00000000000E+00 -0.92738363392E+03  0.93168173024E+03  0.89389272333E+02 0.  0.
          2    1    3    3  502    0 -0.25673423686E+02 -0.29919774238E+02 -0.68313777132E+03  0.68427445676E+03  0.00000000000E+00 0. -1.
         -2    1    3    3    0  502  0.25673423686E+02  0.29919774238E+02 -0.24424586260E+03  0.24740727348E+03  0.00000000000E+00 0.  1.
<mgrwt>
<rscale>  0 0.89389272E+02</rscale>
<asrwt>0</asrwt>
<pdfrwt beam="2">  1        2 0.14300546E+00 0.89389272E+02</pdfrwt>
<pdfrwt beam="1">  1       -2 0.33062179E-03 0.89389272E+02</pdfrwt>
<totfact> 0.26206614E+05</totfact>
</mgrwt>
</event>
<event>
 5    1  0.4067226E+001  0.1013011E+03  0.7546771E-02  0.1277584E+00
         -1   -1    0    0    0  501 -0.00000000000E+00  0.00000000000E+00  0.31567666363E+02  0.31567666363E+02  0.00000000000E+00 0.  1.
          1   -1    0    0  501    0  0.00000000000E+00 -0.00000000000E+00 -0.81269128653E+02  0.81269128653E+02  0.00000000000E+00 0. -1.
         23    2    1    2    0    0  0.00000000000E+00  0.00000000000E+00 -0.49701462290E+02  0.11283679502E+03  0.10130107085E+03 0.  0.
          2    1    3    3  502    0  0.38773815918E+02  0.49593732535E+01 -0.60728465851E+02  0.72221539367E+02  0.00000000000E+00 0. -1.
         -2    1    3    3    0  502 -0.38773815918E+02 -0.49593732535E+01  0.11027003561E+02  0.40615255649E+02  0.00000000000E+00 0.  1.
<mgrwt>
<rscale>  0 0.10130107E+03</rscale>
<asrwt>0</asrwt>
<pdfrwt beam="2">  1        1 0.12502943E-01 0.10130107E+03</pdfrwt>
<pdfrwt beam="1">  1       -1 0.48565640E-02 0.10130107E+03</pdfrwt>
<totfact> 0.75479830E+04</totfact>
</mgrwt>
</event>
<event>
 5    1  0.4067226E+001  0.9164917E+02  0.7546771E-02  0.1298906E+00
         -1   -1    0    0    0  501 -0.00000000000E+00  0.00000000000E+00  0.69543144037E+01  0.69543144037E+01  0.00000000000E+00 0. -1.
          1   -1    0    0  501    0  0.00000000000E+00 -0.00000000000E+00 -0.30195536210E+03  0.30195536210E+03  0.00000000000E+00 0.  1.
         23    2    1    2    0    0  0.00000000000E+00  0.00000000000E+00 -0.29500104770E+03  0.30890967651E+03  0.91649168550E+02 0.  0.
          2    1    3    3  502    0 -0.31136697417E+02 -0.65330169847E+01 -0.36337283345E+02  0.48296712081E+02  0.00000000000E+00 0. -1.
         -2    1    3    3    0  502  0.31136697417E+02  0.65330169847E+01 -0.25866376435E+03  0.26061296443E+03  0.00000000000E+00 0.  1.
<mgrwt>
<rscale>  0 0.91649169E+02</rscale>
<asrwt>0</asrwt>
<pdfrwt beam="2">  1        1 0.46454671E-01 0.91649169E+02</pdfrwt>
<pdfrwt beam="1">  1       -1 0.10698945E-02 0.91649169E+02</pdfrwt>
<totfact> 0.12652508E+05</totfact>
</mgrwt>
</event>
<event>
 5    1  0.4067226E+001  0.9160386E+02  0.7546771E-02  0.1299014E+00
         -2   -1    0    0    0  501 -0.00000000000E+00  0.00000000000E+00  0.10976793419E+01  0.10976793419E+01  0.00000000000E+00 0.  1.
          2   -1    0    0  501    0  0.00000000000E+00 -0.00000000000E+00 -0.19111381488E+04  0.19111381488E+04  0.00000000000E+00 0. -1.
         23    2    1    2    0    0  0.00000000000E+00  0.00000000000E+00 -0.19100404695E+04  0.19122358282E+04  0.91603861612E+02 0.  0.
          2    1    3    3  502    0  0.35790840765E+02 -0.23192951661E+02 -0.60638829903E+03  0.60788622824E+03  0.00000000000E+00 0.  1.
         -2    1    3    3    0  502 -0.35790840765E+02  0.23192951661E+02 -0.13036521705E+04  0.13043495999E+04  0.00000000000E+00 0. -1.
<mgrwt>
<rscale>  0 0.91603862E+02</rscale>
<asrwt>0</asrwt>
<pdfrwt beam="2">  1        2 0.29402211E+00 0.91603862E+02</pdfrwt>
<pdfrwt beam="1">  1       -2 0.16887325E-03 0.91603862E+02</pdfrwt>
<totfact> 0.20230375E+05</totfact>
</mgrwt>
</event>
<event>
 5    1  0.4067226E+001  0.9177698E+02  0.7546771E-02  0.1298605E+00
          2   -1    0    0  501    0  0.00000000000E+00  0.00000000000E+00  0.67898904764E+02  0.67898904764E+02  0.00000000000E+00 0. -1.
         -2   -1    0    0    0  501 -0.00000000000E+00 -0.00000000000E+00 -0.31013072299E+02  0.31013072299E+02  0.00000000000E+00 0.  1.
         23    2    1    2    0    0  0.00000000000E+00  0.00000000000E+00  0.36885832465E+02  0.98911977063E+02  0.91776982789E+02 0.  0.
          2    1    3    3  502    0 -0.21573999909E+02 -0.31547258228E+02  0.45816026076E+02  0.59663851863E+02  0.00000000000E+00 0. -1.
         -2    1    3    3    0  502  0.21573999909E+02  0.31547258228E+02 -0.89301936103E+01  0.39248125200E+02  0.00000000000E+00 0.  1.
<mgrwt>
<rscale>  0 0.91776983E+02</rscale>
<asrwt>0</asrwt>
<pdfrwt beam="1">  1        2 0.10445985E-01 0.91776983E+02</pdfrwt>
<pdfrwt beam="2">  1       -2 0.47712419E-02 0.91776983E+02</pdfrwt>
<totfact> 0.10769162E+05</totfact>
</mgrwt>
</event>
<event>
 5    1  0.4067226E+001  0.9197294E+02  0.7546771E-02  0.1298143E+00
         -3   -1    0    0    0  501 -0.00000000000E+00  0.00000000000E+00  0.31297623648E+03  0.31297623648E+03  0.00000000000E+00 0.  1.
          3   -1    0    0  501    0  0.00000000000E+00 -0.00000000000E+00 -0.67569199613E+01  0.67569199613E+01  0.00000000000E+00 0. -1.
         23    2    1    2    0    0  0.00000000000E+00  0.00000000000E+00  0.30621931651E+03  0.31973315644E+03  0.91972939056E+02 0.  0.
          2    1    3    3  502    0 -0.13551218821E+00 -0.22631357616E+02  0.13943198606E+02  0.26582127425E+02  0.00000000000E+00 0. -1.
         -2    1    3    3    0  502  0.13551218821E+00  0.22631357616E+02  0.29227611791E+03  0.29315102901E+03  0.00000000000E+00 0.  1.
<mgrwt>
<rscale>  0 0.91972939E+02</rscale>
<asrwt>0</asrwt>
<pdfrwt beam="2">  1        3 0.10395264E-02 0.91972939E+02</pdfrwt>
<pdfrwt beam="1">  1       -3 0.48150179E-01 0.91972939E+02</pdfrwt>
<totfact> 0.22740813E+04</totfact>
</mgrwt>
</event>
<event>
 5    1  0.4067226E+001  0.8125640E+02  0.7546771E-02  0.1325523E+00
         -2   -1    0    0    0  501 -0.00000000000E+00  0.00000000000E+00  0.10105102723E+04  0.10105102723E+04  0.00000000000E+00 0.  1.
          2   -1    0    0  501    0  0.00000000000E+00 -0.00000000000E+00 -0.16334821134E+01  0.16334821134E+01  0.00000000000E+00 0. -1.
         23    2    1    2    0    0  0.00000000000E+00  0.00000000000E+00  0.10088767902E+04  0.10121437544E+04  0.81256395568E+02 0.  0.
          2    1    3    3  502    0 -0.22342850532E+02  0.80002059139E+01  0.93678405035E+02  0.96637724696E+02  0.00000000000E+00 0. -1.
         -2    1    3    3    0  502  0.22342850532E+02 -0.80002059139E+01  0.91519838516E+03  0.91550602972E+03  0.00000000000E+00 0.  1.
<mgrwt>
<rscale>  0 0.81256396E+02</rscale>
<asrwt>0</asrwt>
<pdfrwt beam="2">  1        2 0.25130575E-03 0.81256396E+02</pdfrwt>
<pdfrwt beam="1">  1       -2 0.15546262E+00 0.81256396E+02</pdfrwt>
<totfact> 0.24870028E+04</totfact>
</mgrwt>
</event>
<event>
 5    1  0.4067226E+001  0.9128203E+02  0.7546771E-02  0.1299776E+00
         -1   -1    0    0    0  501 -0.00000000000E+00  0.00000000000E+00  0.11183312025E+02  0.11183312025E+02  0.00000000000E+00 0.  1.
          1   -1    0    0  501    0  0.00000000000E+00 -0.00000000000E+00 -0.18626880183E+03  0.18626880183E+03  0.00000000000E+00 0. -1.
         23    2    1    2    0    0  0.00000000000E+00  0.00000000000E+00 -0.17508548980E+03  0.19745211385E+03  0.91282027395E+02 0.  0.
          2    1    3    3  502    0 -0.23301859023E+02  0.28883136556E+02 -0.14501324818E+03  0.14968652030E+03  0.00000000000E+00 0. -1.
         -2    1    3    3    0  502  0.23301859023E+02 -0.28883136556E+02 -0.30072241618E+02  0.47765593550E+02  0.00000000000E+00 0.  1.
<mgrwt>
<rscale>  0 0.91282027E+02</rscale>
<asrwt>0</asrwt>
<pdfrwt beam="2">  1        1 0.28656737E-01 0.91282027E+02</pdfrwt>
<pdfrwt beam="1">  1       -1 0.17205097E-02 0.91282027E+02</pdfrwt>
<totfact> 0.11642906E+05</totfact>
</mgrwt>
</event>
<event>
 5    1  0.4067226E+001  0.9127142E+02  0.7546771E-02  0.1299802E+00
         -1   -1    0    0    0  501 -0.00000000000E+00  0.00000000000E+00  0.84632498441E+02  0.84632498441E+02  0.00000000000E+00 0.  1.
          1   -1    0    0  501    0  0.00000000000E+00 -0.00000000000E+00 -0.24607778978E+02  0.24607778978E+02  0.00000000000E+00 0. -1.
         23    2    1    2    0    0  0.00000000000E+00  0.00000000000E+00  0.60024719462E+02  0.10924027742E+03  0.91271415372E+02 0.  0.
          2    1    3    3  502    0  0.22984100102E+02 -0.18860793104E+02 -0.11424674866E+02  0.31851555218E+02  0.00000000000E+00 0. -1.
         -2    1    3    3    0  502 -0.22984100102E+02  0.18860793104E+02  0.71449394328E+02  0.77388722201E+02  0.00000000000E+00 0.  1.
<mgrwt>
<rscale>  0 0.91271415E+02</rscale>
<asrwt>0</asrwt>
<pdfrwt beam="2">  1        1 0.37858122E-02 0.91271415E+02</pdfrwt>
<pdfrwt beam="1">  1       -1 0.13020384E-01 0.91271415E+02</pdfrwt>
<totfact> 0.83617316E+04</totfact>
</mgrwt>
</event>
<event>
 5    1  0.4067226E+001  0.9084908E+02  0.7546771E-02  0.1300808E+00
          1   -1    0    0  501    0  0.00000000000E+00  0.00000000000E+00  0.24990030483E+03  0.24990030483E+03  0.00000000000E+00 0. -1.
         -1   -1    0    0    0  501 -0.00000000000E+00 -0.00000000000E+00 -0.82568482851E+01  0.82568482851E+01  0.00000000000E+00 0.  1.
         23    2    1    2    0    0  0.00000000000E+00  0.00000000000E+00  0.24164345654E+03  0.25815715311E+03  0.90849081522E+02 0.  0.
          2    1    3    3  502    0 -0.19488910023E+02 -0.27556470536E+02  0.20720894376E+03  0.20993980817E+03  0.00000000000E+00 0. -1.
         -2    1    3    3    0  502  0.19488910023E+02  0.27556470536E+02  0.34434512783E+02  0.48217344938E+02  0.00000000000E+00 0.  1.
<mgrwt>
<rscale>  0 0.90849082E+02</rscale>
<asrwt>0</asrwt>
<pdfrwt beam="1">  1        1 0.38446195E-01 0.90849082E+02</pdfrwt>
<pdfrwt beam="2">  1       -1 0.12702845E-02 0.90849082E+02</pdfrwt>
<totfact> 0.12485550E+05</totfact>
</mgrwt>
</event>
<event>
 5    1  0.4067226E+001  0.8818660E+02  0.7546771E-02  0.1307303E+00
          1   -1    0    0  501    0  0.00000000000E+00  0.00000000000E+00  0.41784290341E+03  0.41784290341E+03  0.00000000000E+00 0. -1.
         -1   -1    0    0    0  501 -0.00000000000E+00 -0.00000000000E+00 -0.46529910489E+01  0.46529910489E+01  0.00000000000E+00 0.  1.
         23    2    1    2    0    0  0.00000000000E+00  0.00000000000E+00  0.41318991236E+03  0.42249589446E+03  0.88186604185E+02 0.  0.
          2    1    3    3  502    0  0.31409185783E+02  0.29999568573E+02  0.24298970492E+03  0.24684105770E+03  0.00000000000E+00 0. -1.
         -2    1    3    3    0  502 -0.31409185783E+02 -0.29999568573E+02  0.17020020744E+03  0.17565483676E+03  0.00000000000E+00 0.  1.
<mgrwt>
<rscale>  0 0.88186604E+02</rscale>
<asrwt>0</asrwt>
<pdfrwt beam="1">  1        1 0.64283494E-01 0.88186604E+02</pdfrwt>
<pdfrwt beam="2">  1       -1 0.71584511E-03 0.88186604E+02</pdfrwt>
<totfact> 0.14838212E+05</totfact>
</mgrwt>
</event>
<event>
 5    1  0.4067226E+001  0.9744058E+02  0.7546771E-02  0.1285772E+00
         -2   -1    0    0    0  501 -0.00000000000E+00  0.00000000000E+00  0.97226971916E+01  0.97226971916E+01  0.00000000000E+00 0.  1.
          2   -1    0    0  501    0  0.00000000000E+00 -0.00000000000E+00 -0.24413662483E+03  0.24413662483E+03  0.00000000000E+00 0. -1.
         23    2    1    2    0    0  0.00000000000E+00  0.00000000000E+00 -0.23441392764E+03  0.25385932202E+03  0.97440576283E+02 0.  0.
          2    1    3    3  502    0  0.86514220518E+01  0.22535571697E+02 -0.22746166337E+03  0.22873895033E+03  0.00000000000E+00 0. -1.
         -2    1    3    3    0  502 -0.86514220518E+01 -0.22535571697E+02 -0.69522642620E+01  0.25120371685E+02  0.00000000000E+00 0.  1.
<mgrwt>
<rscale>  0 0.97440576E+02</rscale>
<asrwt>0</asrwt>
<pdfrwt beam="2">  1        2 0.37559477E-01 0.97440576E+02</pdfrwt>
<pdfrwt beam="1">  1       -2 0.14957997E-02 0.97440576E+02</pdfrwt>
<totfact> 0.13914717E+05</totfact>
</mgrwt>
</event>
<event>
 5    1  0.4067226E+001  0.9129409E+02  0.7546771E-02  0.1299748E+00
          4   -1    0    0  501    0  0.00000000000E+00  0.00000000000E+00  0.35655332419E+03  0.35655332419E+03  0.00000000000E+00 0. -1.
         -4   -1    0    0    0  501 -0.00000000000E+00 -0.00000000000E+00 -0.58438743473E+01  0.58438743473E+01  0.00000000000E+00 0.  1.
         23    2    1    2    0    0  0.00000000000E+00  0.00000000000E+00  0.35070944984E+03  0.36239719853E+03  0.91294092354E+02 0.  0.
          2    1    3    3  502    0 -0.11816396617E+01 -0.24194061252E+02  0.32893630242E+03  0.32982698483E+03  0.00000000000E+00 0. -1.
         -2    1    3    3    0  502  0.11816396617E+01  0.24194061252E+02  0.21773147418E+02  0.32570213703E+02  0.00000000000E+00 0.  1.
<mgrwt>
<rscale>  0 0.91294092E+02</rscale>
<asrwt>0</asrwt>
<pdfrwt beam="1">  1        4 0.54854340E-01 0.91294092E+02</pdfrwt>
<pdfrwt beam="2">  1       -4 0.89905787E-03 0.91294092E+02</pdfrwt>
<totfact> 0.16017586E+04</totfact>
</mgrwt>
</event>
<event>
 5    1  0.4067226E+001  0.1096573E+03  0.7546771E-02  0.1261206E+00
         -4   -1    0    0    0  501 -0.00000000000E+00  0.00000000000E+00  0.29922713107E+02  0.29922713107E+02  0.00000000000E+00 0.  1.
          4   -1    0    0  501    0  0.00000000000E+00 -0.00000000000E+00 -0.10046487591E+03  0.10046487591E+03  0.00000000000E+00 0. -1.
         23    2    1    2    0    0  0.00000000000E+00  0.00000000000E+00 -0.70542162801E+02  0.13038758902E+03  0.10965731456E+03 0.  0.
          2    1    3    3  502    0 -0.33567453321E+02  0.36853541847E+02 -0.62417399285E+02  0.79880468217E+02  0.00000000000E+00 0. -1.
         -2    1    3    3    0  502  0.33567453321E+02 -0.36853541847E+02 -0.81247635163E+01  0.50507120798E+02  0.00000000000E+00 0.  1.
<mgrwt>
<rscale>  0 0.10965731E+03</rscale>
<asrwt>0</asrwt>
<pdfrwt beam="2">  1        4 0.15456135E-01 0.10965731E+03</pdfrwt>
<pdfrwt beam="1">  1       -4 0.46034943E-02 0.10965731E+03</pdfrwt>
<totfact> 0.14910458E+04</totfact>
</mgrwt>
</event>
<event>
 5    1  0.4067226E+001  0.9114177E+02  0.7546771E-02  0.1300110E+00
         -2   -1    0    0    0  501 -0.00000000000E+00  0.00000000000E+00  0.13764124408E+02  0.13764124408E+02  0.00000000000E+00 0.  1.
          2   -1    0    0  501    0  0.00000000000E+00 -0.00000000000E+00 -0.15087815851E+03  0.15087815851E+03  0.00000000000E+00 0. -1.
         23    2    1    2    0    0  0.00000000000E+00  0.00000000000E+00 -0.13711403411E+03  0.16464228292E+03  0.91141774048E+02 0.  0.
          2    1    3    3  502    0  0.34854698454E+02 -0.97067573549E+00 -0.12156040957E+03  0.12646234772E+03  0.00000000000E+00 0. -1.
         -2    1    3    3    0  502 -0.34854698454E+02  0.97067573549E+00 -0.15553624533E+02  0.38179935199E+02  0.00000000000E+00 0.  1.
<mgrwt>
<rscale>  0 0.91141774E+02</rscale>
<asrwt>0</asrwt>
<pdfrwt beam="2">  1        2 0.23212027E-01 0.91141774E+02</pdfrwt>
<pdfrwt beam="1">  1       -2 0.21175574E-02 0.91141774E+02</pdfrwt>
<totfact> 0.14023417E+05</totfact>
</mgrwt>
</event>
<event>
 5    1  0.4067226E+001  0.8832725E+02  0.7546771E-02  0.1306954E+00
         -1   -1    0    0    0  501 -0.00000000000E+00  0.00000000000E+00  0.18508392363E+03  0.18508392363E+03  0.00000000000E+00 0.  1.
          1   -1    0    0  501    0  0.00000000000E+00 -0.00000000000E+00 -0.10538060553E+02  0.10538060553E+02  0.00000000000E+00 0. -1.
         23    2    1    2    0    0  0.00000000000E+00  0.00000000000E+00  0.17454586308E+03  0.19562198418E+03  0.88327245957E+02 0.  0.
          2    1    3    3  502    0  0.26753545609E+02  0.92836009041E+01  0.12216790995E+02  0.30841326667E+02  0.00000000000E+00 0. -1.
         -2    1    3    3    0  502 -0.26753545609E+02 -0.92836009041E+01  0.16232907208E+03  0.16478065751E+03  0.00000000000E+00 0.  1.
<mgrwt>
<rscale>  0 0.88327246E+02</rscale>
<asrwt>0</asrwt>
<pdfrwt beam="2">  1        1 0.16212402E-02 0.88327246E+02</pdfrwt>
<pdfrwt beam="1">  1       -1 0.28474447E-01 0.88327246E+02</pdfrwt>
<totfact> 0.77039704E+04</totfact>
</mgrwt>
</event>
<event>
 5    1  0.4067226E+001  0.9311184E+02  0.7546771E-02  0.1295486E+00
          1   -1    0    0  501    0  0.00000000000E+00  0.00000000000E+00  0.41729008082E+02  0.41729008082E+02  0.00000000000E+00 0. -1.
         -1   -1    0    0    0  501 -0.00000000000E+00 -0.00000000000E+00 -0.51941168917E+02  0.51941168917E+02  0.00000000000E+00 0.  1.
         23    2    1    2    0    0  0.00000000000E+00  0.00000000000E+00 -0.10212160835E+02  0.93670177000E+02  0.93111835071E+02 0.  0.
          2    1    3    3  502    0 -0.34027984263E+02 -0.30488054201E+02  0.38934166276E+01  0.45853940453E+02  0.00000000000E+00 0. -1.
         -2    1    3    3    0  502  0.34027984263E+02  0.30488054201E+02 -0.14105577463E+02  0.47816236547E+02  0.00000000000E+00 0.  1.
<mgrwt>
<rscale>  0 0.93111835E+02</rscale>
<asrwt>0</asrwt>
<pdfrwt beam="1">  1        1 0.64198474E-02 0.93111835E+02</pdfrwt>
<pdfrwt beam="2">  1       -1 0.79909490E-02 0.93111835E+02</pdfrwt>
<totfact> 0.85988635E+04</totfact>
</mgrwt>
</event>
<event>
 5    1  0.4067226E+001  0.8611454E+02  0.7546771E-02  0.1312543E+00
          2   -1    0    0  501    0  0.00000000000E+00  0.00000000000E+00  0.22091798727E+03  0.22091798727E+03  0.00000000000E+00 0.  1.
         -2   -1    0    0    0  501 -0.00000000000E+00 -0.00000000000E+00 -0.83919317849E+01  0.83919317849E+01  0.00000000000E+00 0. -1.
         23    2    1    2    0    0  0.00000000000E+00  0.00000000000E+00  0.21252605548E+03  0.22930991905E+03  0.86114544165E+02 0.  0.
          2    1    3    3  502    0  0.25184478370E+02 -0.34813967810E+02  0.11363213050E+03  0.12148469610E+03  0.00000000000E+00 0.  1.
         -2    1    3    3    0  502 -0.25184478370E+02  0.34813967810E+02  0.98893924982E+02  0.10782522295E+03  0.00000000000E+00 0. -1.
<mgrwt>
<rscale>  0 0.86114544E+02</rscale>
<asrwt>0</asrwt>
<pdfrwt beam="1">  1        2 0.33987378E-01 0.86114544E+02</pdfrwt>
<pdfrwt beam="2">  1       -2 0.12910666E-02 0.86114544E+02</pdfrwt>
<totfact> 0.18686456E+05</totfact>
</mgrwt>
</event>
<event>
 5    1  0.4067226E+001  0.8939494E+02  0.7546771E-02  0.1304324E+00
          2   -1    0    0  501    0  0.00000000000E+00  0.00000000000E+00  0.18590977999E+03  0.18590977999E+03  0.00000000000E+00 0.  1.
         -2   -1    0    0    0  501 -0.00000000000E+00 -0.00000000000E+00 -0.10746415783E+02  0.10746415783E+02  0.00000000000E+00 0. -1.
         23    2    1    2    0    0  0.00000000000E+00  0.00000000000E+00  0.17516336421E+03  0.19665619578E+03  0.89394939319E+02 0.  0.
          2    1    3    3  502    0  0.40714221478E+02 -0.18443188025E+02  0.88141583383E+02  0.98826806770E+02  0.00000000000E+00 0. -1.
         -2    1    3    3    0  502 -0.40714221478E+02  0.18443188025E+02  0.87021780825E+02  0.97829389005E+02  0.00000000000E+00 0.  1.
<mgrwt>
<rscale>  0 0.89394939E+02</rscale>
<asrwt>0</asrwt>
<pdfrwt beam="1">  1        2 0.28601502E-01 0.89394939E+02</pdfrwt>
<pdfrwt beam="2">  1       -2 0.16532949E-02 0.89394939E+02</pdfrwt>
<totfact> 0.15889325E+05</totfact>
</mgrwt>
</event>
<event>
 5    1  0.4067226E+001  0.9146551E+02  0.7546771E-02  0.1299341E+00
          1   -1    0    0  501    0  0.00000000000E+00  0.00000000000E+00  0.78264853335E+03  0.78264853335E+03  0.00000000000E+00 0. -1.
         -1   -1    0    0    0  501 -0.00000000000E+00 -0.00000000000E+00 -0.26723165951E+01  0.26723165951E+01  0.00000000000E+00 0.  1.
         23    2    1    2    0    0  0.00000000000E+00  0.00000000000E+00  0.77997621676E+03  0.78532084995E+03  0.91465505275E+02 0.  0.
          2    1    3    3  502    0  0.27771167566E+02  0.31075810447E+02  0.55165570210E+03  0.55322776268E+03  0.00000000000E+00 0. -1.
         -2    1    3    3    0  502 -0.27771167566E+02 -0.31075810447E+02  0.22832051465E+03  0.23209308726E+03  0.00000000000E+00 0.  1.
<mgrwt>
<rscale>  0 0.91465505E+02</rscale>
<asrwt>0</asrwt>
<pdfrwt beam="1">  1        1 0.12040728E+00 0.91465505E+02</pdfrwt>
<pdfrwt beam="2">  1       -1 0.41112625E-03 0.91465505E+02</pdfrwt>
<totfact> 0.14036914E+05</totfact>
</mgrwt>
</event>
<event>
 5    1  0.4067226E+001  0.1036397E+03  0.7546771E-02  0.1272823E+00
         -1   -1    0    0    0  501 -0.00000000000E+00  0.00000000000E+00  0.75964820090E+01  0.75964820090E+01  0.00000000000E+00 0.  1.
          1   -1    0    0  501    0  0.00000000000E+00 -0.00000000000E+00 -0.35349207702E+03  0.35349207702E+03  0.00000000000E+00 0. -1.
         23    2    1    2    0    0  0.00000000000E+00  0.00000000000E+00 -0.34589559501E+03  0.36108855903E+03  0.10363968744E+03 0.  0.
          2    1    3    3  502    0 -0.37014301497E+02  0.31880551339E+02 -0.23317981910E+03  0.23824201163E+03  0.00000000000E+00 0. -1.
         -2    1    3    3    0  502  0.37014301497E+02 -0.31880551339E+02 -0.11271577590E+03  0.12284654739E+03  0.00000000000E+00 0.  1.
<mgrwt>
<rscale>  0 0.10363969E+03</rscale>
<asrwt>0</asrwt>
<pdfrwt beam="2">  1        1 0.54383398E-01 0.10363969E+03</pdfrwt>
<pdfrwt beam="1">  1       -1 0.11686895E-02 0.10363969E+03</pdfrwt>
<totfact> 0.93719440E+04</totfact>
</mgrwt>
</event>
<event>
 5    1  0.4067226E+001  0.7932217E+02  0.7546771E-02  0.1330986E+00
          2   -1    0    0  501    0  0.00000000000E+00  0.00000000000E+00  0.86756183730E+00  0.86756183730E+00  0.00000000000E+00 0. -1.
         -2   -1    0    0    0  501 -0.00000000000E+00 -0.00000000000E+00 -0.18131290190E+04  0.18131290190E+04  0.00000000000E+00 0.  1.
         23    2    1    2    0    0  0.00000000000E+00  0.00000000000E+00 -0.18122614571E+04  0.18139965808E+04  0.79322166964E+02 0.  0.
          2    1    3    3  502    0  0.29864573365E+02  0.91944174663E+01 -0.34756647228E+03  0.34896831190E+03  0.00000000000E+00 0. -1.
         -2    1    3    3    0  502 -0.29864573365E+02 -0.91944174663E+01 -0.14646949848E+04  0.14650282689E+04  0.00000000000E+00 0.  1.
<mgrwt>
<rscale>  0 0.79322167E+02</rscale>
<asrwt>0</asrwt>
<pdfrwt beam="1">  1        2 0.13347233E-03 0.79322167E+02</pdfrwt>
<pdfrwt beam="2">  1       -2 0.27894026E+00 0.79322167E+02</pdfrwt>
<totfact> 0.10547247E+04</totfact>
</mgrwt>
</event>
<event>
 5    1  0.4067226E+001  0.9345687E+02  0.7546771E-02  0.1294690E+00
         -2   -1    0    0    0  501 -0.00000000000E+00  0.00000000000E+00  0.68371969108E+01  0.68371969108E+01  0.00000000000E+00 0.  1.
          2   -1    0    0  501    0  0.00000000000E+00 -0.00000000000E+00 -0.31936286166E+03  0.31936286166E+03  0.00000000000E+00 0. -1.
         23    2    1    2    0    0  0.00000000000E+00  0.00000000000E+00 -0.31252566475E+03  0.32620005857E+03  0.93456872859E+02 0.  0.
          2    1    3    3  502    0 -0.12495192410E+02 -0.44682692739E+02 -0.13686877892E+03  0.14451897975E+03  0.00000000000E+00 0. -1.
         -2    1    3    3    0  502  0.12495192410E+02  0.44682692739E+02 -0.17565688582E+03  0.18168107882E+03  0.00000000000E+00 0.  1.
<mgrwt>
<rscale>  0 0.93456873E+02</rscale>
<asrwt>0</asrwt>
<pdfrwt beam="2">  1        2 0.49132744E-01 0.93456873E+02</pdfrwt>
<pdfrwt beam="1">  1       -2 0.10518765E-02 0.93456873E+02</pdfrwt>
<totfact> 0.17214773E+05</totfact>
</mgrwt>
</event>
<event>
 5    1  0.4067226E+001  0.9242886E+02  0.7546771E-02  0.1297074E+00
          4   -1    0    0  501    0  0.00000000000E+00  0.00000000000E+00  0.79831087516E+03  0.79831087516E+03  0.00000000000E+00 0. -1.
         -4   -1    0    0    0  501 -0.00000000000E+00 -0.00000000000E+00 -0.26753654755E+01  0.26753654755E+01  0.00000000000E+00 0.  1.
         23    2    1    2    0    0  0.00000000000E+00  0.00000000000E+00  0.79563550968E+03  0.80098624063E+03  0.92428855973E+02 0.  0.
          2    1    3    3  502    0 -0.32734360817E+02  0.14296628012E+02  0.14370488848E+03  0.14807777323E+03  0.00000000000E+00 0.  1.
         -2    1    3    3    0  502  0.32734360817E+02 -0.14296628012E+02  0.65193062120E+03  0.65290846740E+03  0.00000000000E+00 0. -1.
<mgrwt>
<rscale>  0 0.92428856E+02</rscale>
<asrwt>0</asrwt>
<pdfrwt beam="1">  1        4 0.12281687E+00 0.92428856E+02</pdfrwt>
<pdfrwt beam="2">  1       -4 0.41159533E-03 0.92428856E+02</pdfrwt>
<totfact> 0.85844557E+03</totfact>
</mgrwt>
</event>
<event>
 5    1  0.4067226E+001  0.8453787E+02  0.7546771E-02  0.1316646E+00
         -4   -1    0    0    0  501 -0.00000000000E+00  0.00000000000E+00  0.29470105057E+01  0.29470105057E+01  0.00000000000E+00 0.  1.
          4   -1    0    0  501    0  0.00000000000E+00 -0.00000000000E+00 -0.60626276684E+03  0.60626276684E+03  0.00000000000E+00 0. -1.
         23    2    1    2    0    0  0.00000000000E+00  0.00000000000E+00 -0.60331575634E+03  0.60920977735E+03  0.84537867092E+02 0.  0.
          2    1    3    3  502    0  0.13739398300E+02 -0.33807574760E+02 -0.45536444883E+03  0.45682436936E+03  0.00000000000E+00 0. -1.
         -2    1    3    3    0  502 -0.13739398300E+02  0.33807574760E+02 -0.14795130750E+03  0.15238540799E+03  0.00000000000E+00 0.  1.
<mgrwt>
<rscale>  0 0.84537867E+02</rscale>
<asrwt>0</asrwt>
<pdfrwt beam="2">  1        4 0.93271261E-01 0.84537867E+02</pdfrwt>
<pdfrwt beam="1">  1       -4 0.45338591E-03 0.84537867E+02</pdfrwt>
<totfact> 0.13733867E+04</totfact>
</mgrwt>
</event>
<event>
 5    1  0.4067226E+001  0.9115192E+02  0.7546771E-02  0.1300086E+00
          1   -1    0    0  501    0  0.00000000000E+00  0.00000000000E+00  0.44851359199E+03  0.44851359199E+03  0.00000000000E+00 0. -1.
         -1   -1    0    0    0  501 -0.00000000000E+00 -0.00000000000E+00 -0.46312265165E+01  0.46312265165E+01  0.00000000000E+00 0.  1.
         23    2    1    2    0    0  0.00000000000E+00  0.00000000000E+00  0.44388236547E+03  0.45314481851E+03  0.91151918032E+02 0.  0.
          2    1    3    3  502    0 -0.22498965624E+02  0.59146446721E+01  0.41677494119E+03  0.41742369133E+03  0.00000000000E+00 0. -1.
         -2    1    3    3    0  502  0.22498965624E+02 -0.59146446721E+01  0.27107424280E+02  0.35721127178E+02  0.00000000000E+00 0.  1.
<mgrwt>
<rscale>  0 0.91151918E+02</rscale>
<asrwt>0</asrwt>
<pdfrwt beam="1">  1        1 0.69002057E-01 0.91151918E+02</pdfrwt>
<pdfrwt beam="2">  1       -1 0.71249674E-03 0.91151918E+02</pdfrwt>
<totfact> 0.13739203E+05</totfact>
</mgrwt>
</event>
<event>
 5    1  0.4067226E+001  0.8929341E+02  0.7546771E-02  0.1304572E+00
          1   -1    0    0  501    0  0.00000000000E+00  0.00000000000E+00  0.27300203667E+02  0.27300203667E+02  0.00000000000E+00 0. -1.
         -1   -1    0    0    0  501 -0.00000000000E+00 -0.00000000000E+00 -0.73015138717E+02  0.73015138717E+02  0.00000000000E+00 0.  1.
         23    2    1    2    0    0  0.00000000000E+00  0.00000000000E+00 -0.45714935050E+02  0.10031534238E+03  0.89293407545E+02 0.  0.
          2    1    3    3  502    0  0.44113140906E+02 -0.51252639513E+01 -0.17698144688E+02  0.47806504334E+02  0.00000000000E+00 0. -1.
         -2    1    3    3    0  502 -0.44113140906E+02  0.51252639513E+01 -0.28016790362E+02  0.52508838050E+02  0.00000000000E+00 0.  1.
<mgrwt>
<rscale>  0 0.89293408E+02</rscale>
<asrwt>0</asrwt>
<pdfrwt beam="1">  1        1 0.42000314E-02 0.89293408E+02</pdfrwt>
<pdfrwt beam="2">  1       -1 0.11233098E-01 0.89293408E+02</pdfrwt>
<totfact> 0.90646037E+04</totfact>
</mgrwt>
</event>
<event>
 5    1  0.4067226E+001  0.9142290E+02  0.7546771E-02  0.1299442E+00
          1   -1    0    0  501    0  0.00000000000E+00  0.00000000000E+00  0.66352726889E+02  0.66352726889E+02  0.00000000000E+00 0. -1.
         -1   -1    0    0    0  501 -0.00000000000E+00 -0.00000000000E+00 -0.31491344623E+02  0.31491344623E+02  0.00000000000E+00 0.  1.
         23    2    1    2    0    0  0.00000000000E+00  0.00000000000E+00  0.34861382266E+02  0.97844071512E+02  0.91422898426E+02 0.  0.
          2    1    3    3  502    0  0.30972580123E+02  0.33573740144E+02  0.19296662896E+02  0.49586872715E+02  0.00000000000E+00 0. -1.
         -2    1    3    3    0  502 -0.30972580123E+02 -0.33573740144E+02  0.15564719370E+02  0.48257198797E+02  0.00000000000E+00 0.  1.
<mgrwt>
<rscale>  0 0.91422898E+02</rscale>
<asrwt>0</asrwt>
<pdfrwt beam="1">  1        1 0.10208112E-01 0.91422898E+02</pdfrwt>
<pdfrwt beam="2">  1       -1 0.48448222E-02 0.91422898E+02</pdfrwt>
<totfact> 0.97131735E+04</totfact>
</mgrwt>
</event>
<event>
 5    1  0.4067226E+001  0.1023515E+03  0.7546771E-02  0.1275427E+00
          2   -1    0    0  501    0  0.00000000000E+00  0.00000000000E+00  0.11367574900E+03  0.11367574900E+03  0.00000000000E+00 0. -1.
         -2   -1    0    0    0  501 -0.00000000000E+00 -0.00000000000E+00 -0.23038849388E+02  0.23038849388E+02  0.00000000000E+00 0.  1.
         23    2    1    2    0    0  0.00000000000E+00  0.00000000000E+00  0.90636899617E+02  0.13671459839E+03  0.10235152095E+03 0.  0.
          2    1    3    3  502    0 -0.34848099341E+02  0.35941699081E+02  0.59502600059E+02  0.77760884603E+02  0.00000000000E+00 0. -1.
         -2    1    3    3    0  502  0.34848099341E+02 -0.35941699081E+02  0.31134299558E+02  0.58953713789E+02  0.00000000000E+00 0.  1.
<mgrwt>
<rscale>  0 0.10235152E+03</rscale>
<asrwt>0</asrwt>
<pdfrwt beam="1">  1        2 0.17488576E-01 0.10235152E+03</pdfrwt>
<pdfrwt beam="2">  1       -2 0.35444384E-02 0.10235152E+03</pdfrwt>
<totfact> 0.92733147E+04</totfact>
</mgrwt>
</event>
<event>
 5    1  0.4067226E+001  0.9553533E+02  0.7546771E-02  0.1289975E+00
          1   -1    0    0  501    0  0.00000000000E+00  0.00000000000E+00  0.61541587170E+03  0.61541587170E+03  0.00000000000E+00 0. -1.
         -1   -1    0    0    0  501 -0.00000000000E+00 -0.00000000000E+00 -0.37076551343E+01  0.37076551343E+01  0.00000000000E+00 0.  1.
         23    2    1    2    0    0  0.00000000000E+00  0.00000000000E+00  0.61170821656E+03  0.61912352683E+03  0.95535329935E+02 0.  0.
          2    1    3    3  502    0 -0.15419618354E+02  0.42526297223E+02  0.20640336204E+03  0.21130214965E+03  0.00000000000E+00 0. -1.
         -2    1    3    3    0  502  0.15419618354E+02 -0.42526297223E+02  0.40530485452E+03  0.40782137718E+03  0.00000000000E+00 0.  1.
<mgrwt>
<rscale>  0 0.95535330E+02</rscale>
<asrwt>0</asrwt>
<pdfrwt beam="1">  1        1 0.94679284E-01 0.95535330E+02</pdfrwt>
<pdfrwt beam="2">  1       -1 0.57040897E-03 0.95535330E+02</pdfrwt>
<totfact> 0.12526427E+05</totfact>
</mgrwt>
</event>
<event>
 5    1  0.4067226E+001  0.9052184E+02  0.7546771E-02  0.1301593E+00
         -1   -1    0    0    0  501 -0.00000000000E+00  0.00000000000E+00  0.83480955242E+01  0.83480955242E+01  0.00000000000E+00 0.  1.
          1   -1    0    0  501    0  0.00000000000E+00 -0.00000000000E+00 -0.24539140506E+03  0.24539140506E+03  0.00000000000E+00 0. -1.
         23    2    1    2    0    0  0.00000000000E+00  0.00000000000E+00 -0.23704330953E+03  0.25373950058E+03  0.90521840243E+02 0.  0.
          2    1    3    3  502    0  0.42492851672E+02 -0.15438468799E+02 -0.12450878145E+03  0.13246292093E+03  0.00000000000E+00 0. -1.
         -2    1    3    3    0  502 -0.42492851672E+02  0.15438468799E+02 -0.11253452808E+03  0.12127657965E+03  0.00000000000E+00 0.  1.
<mgrwt>
<rscale>  0 0.90521840E+02</rscale>
<asrwt>0</asrwt>
<pdfrwt beam="2">  1        1 0.37752529E-01 0.90521840E+02</pdfrwt>
<pdfrwt beam="1">  1       -1 0.12843222E-02 0.90521840E+02</pdfrwt>
<totfact> 0.12561766E+05</totfact>
</mgrwt>
</event>
<event>
 5    1  0.4067226E+001  0.9004282E+02  0.7546771E-02  0.1302748E+00
         -1   -1    0    0    0  501 -0.00000000000E+00  0.00000000000E+00  0.25040929311E+02  0.25040929311E+02  0.00000000000E+00 0.  1.
          1   -1    0    0  501    0  0.00000000000E+00 -0.00000000000E+00 -0.80944579978E+02  0.80944579978E+02  0.00000000000E+00 0. -1.
         23    2    1    2    0    0  0.00000000000E+00  0.00000000000E+00 -0.55903650668E+02  0.10598550929E+03  0.90042823264E+02 0.  0.
          2    1    3    3  502    0  0.31850992348E+02  0.24152364174E+02 -0.52334380963E+02  0.65853700272E+02  0.00000000000E+00 0. -1.
         -2    1    3    3    0  502 -0.31850992348E+02 -0.24152364174E+02 -0.35692697043E+01  0.40131809017E+02  0.00000000000E+00 0.  1.
<mgrwt>
<rscale>  0 0.90042823E+02</rscale>
<asrwt>0</asrwt>
<pdfrwt beam="2">  1        1 0.12453012E-01 0.90042823E+02</pdfrwt>
<pdfrwt beam="1">  1       -1 0.38524507E-02 0.90042823E+02</pdfrwt>
<totfact> 0.10445160E+05</totfact>
</mgrwt>
</event>
<event>
 5    1  0.4067226E+001  0.9124488E+02  0.7546771E-02  0.1299865E+00
         -2   -1    0    0    0  501 -0.00000000000E+00  0.00000000000E+00  0.97592095911E+00  0.97592095911E+00  0.00000000000E+00 0.  1.
          2   -1    0    0  501    0  0.00000000000E+00 -0.00000000000E+00 -0.21327620374E+04  0.21327620374E+04  0.00000000000E+00 0. -1.
         23    2    1    2    0    0  0.00000000000E+00  0.00000000000E+00 -0.21317861165E+04  0.21337379584E+04  0.91244883104E+02 0.  0.
          2    1    3    3  502    0  0.41566768344E+02  0.30357448900E+01 -0.14998644553E+04  0.15004433999E+04  0.00000000000E+00 0. -1.
         -2    1    3    3    0  502 -0.41566768344E+02 -0.30357448900E+01 -0.63192166117E+03  0.63329455851E+03  0.00000000000E+00 0.  1.
<mgrwt>
<rscale>  0 0.91244883E+02</rscale>
<asrwt>0</asrwt>
<pdfrwt beam="2">  1        2 0.32811377E+00 0.91244883E+02</pdfrwt>
<pdfrwt beam="1">  1       -2 0.15014327E-03 0.91244883E+02</pdfrwt>
<totfact> 0.18399064E+05</totfact>
</mgrwt>
</event>
<event>
 5    1  0.4067226E+001  0.9809281E+02  0.7546771E-02  0.1284358E+00
          2   -1    0    0  501    0  0.00000000000E+00  0.00000000000E+00  0.59967345072E+03  0.59967345072E+03  0.00000000000E+00 0. -1.
         -2   -1    0    0    0  501 -0.00000000000E+00 -0.00000000000E+00 -0.40114328000E+01  0.40114328000E+01  0.00000000000E+00 0.  1.
         23    2    1    2    0    0  0.00000000000E+00  0.00000000000E+00  0.59566201792E+03  0.60368488351E+03  0.98092808084E+02 0.  0.
          2    1    3    3  502    0 -0.28765577837E+02 -0.22371954031E+02  0.49985330206E+03  0.50117989422E+03  0.00000000000E+00 0. -1.
         -2    1    3    3    0  502  0.28765577837E+02  0.22371954031E+02  0.95808715857E+02  0.10250498929E+03  0.00000000000E+00 0.  1.
<mgrwt>
<rscale>  0 0.98092808E+02</rscale>
<asrwt>0</asrwt>
<pdfrwt beam="1">  1        2 0.92257383E-01 0.98092808E+02</pdfrwt>
<pdfrwt beam="2">  1       -2 0.61714398E-03 0.98092808E+02</pdfrwt>
<totfact> 0.18766337E+05</totfact>
</mgrwt>
</event>
<event>
 5    1  0.4067226E+001  0.9138157E+02  0.7546771E-02  0.1299540E+00
         -2   -1    0    0    0  501 -0.00000000000E+00  0.00000000000E+00  0.34905834823E+01  0.34905834823E+01  0.00000000000E+00 0.  1.
          2   -1    0    0  501    0  0.00000000000E+00 -0.00000000000E+00 -0.59807988161E+03  0.59807988161E+03  0.00000000000E+00 0. -1.
         23    2    1    2    0    0  0.00000000000E+00  0.00000000000E+00 -0.59458929813E+03  0.60157046510E+03  0.91381568291E+02 0.  0.
          2    1    3    3  502    0 -0.83632617174E+01  0.44301788871E+02 -0.34614039253E+03  0.34906412589E+03  0.00000000000E+00 0. -1.
         -2    1    3    3    0  502  0.83632617174E+01 -0.44301788871E+02 -0.24844890560E+03  0.25250633920E+03  0.00000000000E+00 0.  1.
<mgrwt>
<rscale>  0 0.91381568E+02</rscale>
<asrwt>0</asrwt>
<pdfrwt beam="2">  1        2 0.92012316E-01 0.91381568E+02</pdfrwt>
<pdfrwt beam="1">  1       -2 0.53701269E-03 0.91381568E+02</pdfrwt>
<totfact> 0.22629734E+05</totfact>
</mgrwt>
</event>
<event>
 5    1  0.4067226E+001  0.9009093E+02  0.7546771E-02  0.1302632E+00
          2   -1    0    0  501    0  0.00000000000E+00  0.00000000000E+00  0.14305958323E+04  0.14305958323E+04  0.00000000000E+00 0. -1.
         -2   -1    0    0    0  501 -0.00000000000E+00 -0.00000000000E+00 -0.14183557820E+01  0.14183557820E+01  0.00000000000E+00 0.  1.
         23    2    1    2    0    0  0.00000000000E+00  0.00000000000E+00  0.14291774765E+04  0.14320141880E+04  0.90090928964E+02 0.  0.
          2    1    3    3  502    0  0.15133041668E+02 -0.42409346170E+02  0.73426465600E+03  0.73564403528E+03  0.00000000000E+00 0. -1.
         -2    1    3    3    0  502 -0.15133041668E+02  0.42409346170E+02  0.69491282048E+03  0.69637015276E+03  0.00000000000E+00 0.  1.
<mgrwt>
<rscale>  0 0.90090929E+02</rscale>
<asrwt>0</asrwt>
<pdfrwt beam="1">  1        2 0.22009051E+00 0.90090929E+02</pdfrwt>
<pdfrwt beam="2">  1       -2 0.21820973E-03 0.90090929E+02</pdfrwt>
<totfact> 0.24753930E+05</totfact>
</mgrwt>
</event>
<event>
 5    1  0.4067226E+001  0.8589738E+02  0.7546771E-02  0.1313102E+00
         -1   -1    0    0    0  501 -0.00000000000E+00  0.00000000000E+00  0.12002845320E+01  0.12002845320E+01  0.00000000000E+00 0.  1.
          1   -1    0    0  501    0  0.00000000000E+00 -0.00000000000E+00 -0.15367938799E+04  0.15367938799E+04  0.00000000000E+00 0. -1.
         23    2    1    2    0    0  0.00000000000E+00  0.00000000000E+00 -0.15355935954E+04  0.15379941645E+04  0.85897378843E+02 0.  0.
          2    1    3    3  502    0  0.38430952185E+02 -0.87453513634E+00 -0.11107548096E+04  0.11114197902E+04  0.00000000000E+00 0. -1.
         -2    1    3    3    0  502 -0.38430952185E+02  0.87453513634E+00 -0.42483878579E+03  0.42657437430E+03  0.00000000000E+00 0.  1.
<mgrwt>
<rscale>  0 0.85897379E+02</rscale>
<asrwt>0</asrwt>
<pdfrwt beam="2">  1        1 0.23643091E+00 0.85897379E+02</pdfrwt>
<pdfrwt beam="1">  1       -1 0.18465832E-03 0.85897379E+02</pdfrwt>
<totfact> 0.12676187E+05</totfact>
</mgrwt>
</event>
<event>
 5    1  0.4067226E+001  0.9764258E+02  0.7546771E-02  0.1285333E+00
          2   -1    0    0  501    0  0.00000000000E+00  0.00000000000E+00  0.53637995857E+02  0.53637995857E+02  0.00000000000E+00 0.  1.
         -2   -1    0    0    0  501 -0.00000000000E+00 -0.00000000000E+00 -0.44437124219E+02  0.44437124219E+02  0.00000000000E+00 0. -1.
         23    2    1    2    0    0  0.00000000000E+00  0.00000000000E+00  0.92008716377E+01  0.98075120076E+02  0.97642578515E+02 0.  0.
          2    1    3    3  502    0 -0.70556091996E+01 -0.27678449995E+02  0.44369263303E+02  0.52768454036E+02  0.00000000000E+00 0.  1.
         -2    1    3    3    0  502  0.70556091996E+01  0.27678449995E+02 -0.35168391665E+02  0.45306666040E+02  0.00000000000E+00 0. -1.
<mgrwt>
<rscale>  0 0.97642579E+02</rscale>
<asrwt>0</asrwt>
<pdfrwt beam="1">  1        2 0.82519993E-02 0.97642579E+02</pdfrwt>
<pdfrwt beam="2">  1       -2 0.68364807E-02 0.97642579E+02</pdfrwt>
<totfact> 0.84632546E+04</totfact>
</mgrwt>
</event>
<event>
 5    1  0.4067226E+001  0.8922718E+02  0.7546771E-02  0.1304734E+00
          1   -1    0    0  501    0  0.00000000000E+00  0.00000000000E+00  0.23668235013E+04  0.23668235013E+04  0.00000000000E+00 0. -1.
         -1   -1    0    0    0  501 -0.00000000000E+00 -0.00000000000E+00 -0.84094673069E+00  0.84094673069E+00  0.00000000000E+00 0.  1.
         23    2    1    2    0    0  0.00000000000E+00  0.00000000000E+00  0.23659825546E+04  0.23676644480E+04  0.89227181633E+02 0.  0.
          2    1    3    3  502    0 -0.35380395801E+02  0.22256455184E+02  0.15968476558E+04  0.15973946156E+04  0.00000000000E+00 0. -1.
         -2    1    3    3    0  502  0.35380395801E+02 -0.22256455184E+02  0.76913489880E+03  0.77026983243E+03  0.00000000000E+00 0.  1.
<mgrwt>
<rscale>  0 0.89227182E+02</rscale>
<asrwt>0</asrwt>
<pdfrwt beam="1">  1        1 0.36412136E+00 0.89227182E+02</pdfrwt>
<pdfrwt beam="2">  1       -1 0.12937831E-03 0.89227182E+02</pdfrwt>
<totfact> 0.62533548E+04</totfact>
</mgrwt>
</event>
<event>
 5    1  0.4067226E+001  0.9603984E+02  0.7546771E-02  0.1288851E+00
         -2   -1    0    0    0  501 -0.00000000000E+00  0.00000000000E+00  0.26748932861E+03  0.26748932861E+03  0.00000000000E+00 0.  1.
          2   -1    0    0  501    0  0.00000000000E+00 -0.00000000000E+00 -0.86205787589E+01  0.86205787589E+01  0.00000000000E+00 0. -1.
         23    2    1    2    0    0  0.00000000000E+00  0.00000000000E+00  0.25886874985E+03  0.27610990737E+03  0.96039842242E+02 0.  0.
          2    1    3    3  502    0  0.27670864291E+02  0.23908567471E+02  0.39958391042E+02  0.54166127273E+02  0.00000000000E+00 0. -1.
         -2    1    3    3    0  502 -0.27670864291E+02 -0.23908567471E+02  0.21891035881E+03  0.22194378010E+03  0.00000000000E+00 0.  1.
<mgrwt>
<rscale>  0 0.96039842E+02</rscale>
<asrwt>0</asrwt>
<pdfrwt beam="2">  1        2 0.13262431E-02 0.96039842E+02</pdfrwt>
<pdfrwt beam="1">  1       -2 0.41152198E-01 0.96039842E+02</pdfrwt>
<totfact> 0.47476306E+04</totfact>
</mgrwt>
</event>
<event>
 5    1  0.4067226E+001  0.9192919E+02  0.7546771E-02  0.1298246E+00
          2   -1    0    0  501    0  0.00000000000E+00  0.00000000000E+00  0.68682509631E+02  0.68682509631E+02  0.00000000000E+00 0. -1.
         -2   -1    0    0    0  501 -0.00000000000E+00 -0.00000000000E+00 -0.30761019734E+02  0.30761019734E+02  0.00000000000E+00 0.  1.
         23    2    1    2    0    0  0.00000000000E+00  0.00000000000E+00  0.37921489896E+02  0.99443529365E+02  0.91929190884E+02 0.  0.
          2    1    3    3  502    0 -0.39615817410E+02  0.22843256089E+02  0.13942973377E+02  0.47808303091E+02  0.00000000000E+00 0. -1.
         -2    1    3    3    0  502  0.39615817410E+02 -0.22843256089E+02  0.23978516520E+02  0.51635226274E+02  0.00000000000E+00 0.  1.
<mgrwt>
<rscale>  0 0.91929191E+02</rscale>
<asrwt>0</asrwt>
<pdfrwt beam="1">  1        2 0.10566540E-01 0.91929191E+02</pdfrwt>
<pdfrwt beam="2">  1       -2 0.47324646E-02 0.91929191E+02</pdfrwt>
<totfact> 0.10753250E+05</totfact>
</mgrwt>
</event>
<event>
 5    1  0.4067226E+001  0.9209398E+02  0.7546771E-02  0.1297859E+00
          1   -1    0    0  501    0  0.00000000000E+00  0.00000000000E+00  0.76350928508E+02  0.76350928508E+02  0.00000000000E+00 0. -1.
         -1   -1    0    0    0  501 -0.00000000000E+00 -0.00000000000E+00 -0.27770783672E+02  0.27770783672E+02  0.00000000000E+00 0.  1.
         23    2    1    2    0    0  0.00000000000E+00  0.00000000000E+00  0.48580144836E+02  0.10412171218E+03  0.92093976323E+02 0.  0.
          2    1    3    3  502    0 -0.42841556934E+02  0.90609089085E+01  0.40391780195E+02  0.59573441885E+02  0.00000000000E+00 0. -1.
         -2    1    3    3    0  502  0.42841556934E+02 -0.90609089085E+01  0.81883646408E+01  0.44548270294E+02  0.00000000000E+00 0.  1.
<mgrwt>
<rscale>  0 0.92093976E+02</rscale>
<asrwt>0</asrwt>
<pdfrwt beam="1">  1        1 0.11746297E-01 0.92093976E+02</pdfrwt>
<pdfrwt beam="2">  1       -1 0.42724283E-02 0.92093976E+02</pdfrwt>
<totfact> 0.97289047E+04</totfact>
</mgrwt>
</event>
<event>
 5    1  0.4067226E+001  0.9341526E+02  0.7546771E-02  0.1294786E+00
         -2   -1    0    0    0  501 -0.00000000000E+00  0.00000000000E+00  0.36202059384E+01  0.36202059384E+01  0.00000000000E+00 0.  1.
          2   -1    0    0  501    0  0.00000000000E+00 -0.00000000000E+00 -0.60261835659E+03  0.60261835659E+03  0.00000000000E+00 0. -1.
         23    2    1    2    0    0  0.00000000000E+00  0.00000000000E+00 -0.59899815065E+03  0.60623856253E+03  0.93415256851E+02 0.  0.
          2    1    3    3  502    0 -0.30172162952E+02  0.29665020057E+02 -0.42786260951E+03  0.42994974759E+03  0.00000000000E+00 0. -1.
         -2    1    3    3    0  502  0.30172162952E+02 -0.29665020057E+02 -0.17113554114E+03  0.17628881494E+03  0.00000000000E+00 0.  1.
<mgrwt>
<rscale>  0 0.93415257E+02</rscale>
<asrwt>0</asrwt>
<pdfrwt beam="2">  1        2 0.92710632E-01 0.93415257E+02</pdfrwt>
<pdfrwt beam="1">  1       -2 0.55695407E-03 0.93415257E+02</pdfrwt>
<totfact> 0.21395375E+05</totfact>
</mgrwt>
</event>
<event>
 5    1  0.4067226E+001  0.9117427E+02  0.7546771E-02  0.1300033E+00
          1   -1    0    0  501    0  0.00000000000E+00  0.00000000000E+00  0.42227519994E+03  0.42227519994E+03  0.00000000000E+00 0. -1.
         -1   -1    0    0    0  501 -0.00000000000E+00 -0.00000000000E+00 -0.49214035743E+01  0.49214035743E+01  0.00000000000E+00 0.  1.
         23    2    1    2    0    0  0.00000000000E+00  0.00000000000E+00  0.41735379637E+03  0.42719660352E+03  0.91174265631E+02 0.  0.
          2    1    3    3  502    0 -0.30515378489E+02 -0.25386647255E+02  0.10364271118E+03  0.11098415096E+03  0.00000000000E+00 0. -1.
         -2    1    3    3    0  502  0.30515378489E+02  0.25386647255E+02  0.31371108519E+03  0.31621245256E+03  0.00000000000E+00 0.  1.
<mgrwt>
<rscale>  0 0.91174266E+02</rscale>
<asrwt>0</asrwt>
<pdfrwt beam="1">  1        1 0.64965387E-01 0.91174266E+02</pdfrwt>
<pdfrwt beam="2">  1       -1 0.75713935E-03 0.91174266E+02</pdfrwt>
<totfact> 0.13607229E+05</totfact>
</mgrwt>
</event>
<event>
 5    1  0.4067226E+001  0.8630562E+02  0.7546771E-02  0.1312053E+00
         -2   -1    0    0    0  501 -0.00000000000E+00  0.00000000000E+00  0.39317114005E+01  0.39317114005E+01  0.00000000000E+00 0.  1.
          2   -1    0    0  501    0  0.00000000000E+00 -0.00000000000E+00 -0.47362704469E+03  0.47362704469E+03  0.00000000000E+00 0. -1.
         23    2    1    2    0    0  0.00000000000E+00  0.00000000000E+00 -0.46969533329E+03  0.47755875609E+03  0.86305616299E+02 0.  0.
          2    1    3    3  502    0  0.14275107805E+02  0.16986570832E+02 -0.43964442673E+03  0.44020398027E+03  0.00000000000E+00 0. -1.
         -2    1    3    3    0  502 -0.14275107805E+02 -0.16986570832E+02 -0.30050906558E+02  0.37354775818E+02  0.00000000000E+00 0.  1.
<mgrwt>
<rscale>  0 0.86305616E+02</rscale>
<asrwt>0</asrwt>
<pdfrwt beam="2">  1        2 0.72865686E-01 0.86305616E+02</pdfrwt>
<pdfrwt beam="1">  1       -2 0.60487879E-03 0.86305616E+02</pdfrwt>
<totfact> 0.24469601E+05</totfact>
</mgrwt>
</event>
<event>
 5    1  0.4067226E+001  0.8959763E+02  0.7546771E-02  0.1303829E+00
          2   -1    0    0  501    0  0.00000000000E+00  0.00000000000E+00  0.23495590924E+03  0.23495590924E+03  0.00000000000E+00 0. -1.
         -2   -1    0    0    0  501 -0.00000000000E+00 -0.00000000000E+00 -0.85417467533E+01  0.85417467533E+01  0.00000000000E+00 0.  1.
         23    2    1    2    0    0  0.00000000000E+00  0.00000000000E+00  0.22641416248E+03  0.24349765599E+03  0.89597631105E+02 0.  0.
          2    1    3    3  502    0 -0.10998048873E+02  0.39391855413E+02  0.16289370675E+03  0.16794950149E+03  0.00000000000E+00 0. -1.
         -2    1    3    3    0  502  0.10998048873E+02 -0.39391855413E+02  0.63520455738E+02  0.75548154505E+02  0.00000000000E+00 0.  1.
<mgrwt>
<rscale>  0 0.89597631E+02</rscale>
<asrwt>0</asrwt>
<pdfrwt beam="1">  1        2 0.36147058E-01 0.89597631E+02</pdfrwt>
<pdfrwt beam="2">  1       -2 0.13141151E-02 0.89597631E+02</pdfrwt>
<totfact> 0.17191381E+05</totfact>
</mgrwt>
</event>
<event>
 5    1  0.4067226E+001  0.9658175E+02  0.7546771E-02  0.1287653E+00
          1   -1    0    0  501    0  0.00000000000E+00  0.00000000000E+00  0.36386968504E+03  0.36386968504E+03  0.00000000000E+00 0. -1.
         -1   -1    0    0    0  501 -0.00000000000E+00 -0.00000000000E+00 -0.64089108547E+01  0.64089108547E+01  0.00000000000E+00 0.  1.
         23    2    1    2    0    0  0.00000000000E+00  0.00000000000E+00  0.35746077418E+03  0.37027859589E+03  0.96581745151E+02 0.  0.
          2    1    3    3  502    0  0.16426326498E+02 -0.36812011063E+02  0.28067439371E+03  0.28355433985E+03  0.00000000000E+00 0. -1.
         -2    1    3    3    0  502 -0.16426326498E+02  0.36812011063E+02  0.76786380471E+02  0.86724256045E+02  0.00000000000E+00 0.  1.
<mgrwt>
<rscale>  0 0.96581745E+02</rscale>
<asrwt>0</asrwt>
<pdfrwt beam="1">  1        1 0.55979935E-01 0.96581745E+02</pdfrwt>
<pdfrwt beam="2">  1       -1 0.98598657E-03 0.96581745E+02</pdfrwt>
<totfact> 0.11384132E+05</totfact>
</mgrwt>
</event>
<event>
 5    1  0.4067226E+001  0.9046618E+02  0.7546771E-02  0.1301727E+00
         -2   -1    0    0    0  501 -0.00000000000E+00  0.00000000000E+00  0.68446298464E+03  0.68446298464E+03  0.00000000000E+00 0.  1.
          2   -1    0    0  501    0  0.00000000000E+00 -0.00000000000E+00 -0.29892522368E+01  0.29892522368E+01  0.00000000000E+00 0. -1.
         23    2    1    2    0    0  0.00000000000E+00  0.00000000000E+00  0.68147373241E+03  0.68745223688E+03  0.90466181701E+02 0.  0.
          2    1    3    3  502    0 -0.36489195261E+02 -0.65757428847E+00  0.13766602710E+03  0.14242130736E+03  0.00000000000E+00 0. -1.
         -2    1    3    3    0  502  0.36489195261E+02  0.65757428847E+00  0.54380770531E+03  0.54503092952E+03  0.00000000000E+00 0.  1.
<mgrwt>
<rscale>  0 0.90466182E+02</rscale>
<asrwt>0</asrwt>
<pdfrwt beam="2">  1        2 0.45988550E-03 0.90466182E+02</pdfrwt>
<pdfrwt beam="1">  1       -2 0.10530187E+00 0.90466182E+02</pdfrwt>
<totfact> 0.28333664E+04</totfact>
</mgrwt>
</event>
<event>
 5    1  0.4067226E+001  0.9168826E+02  0.7546771E-02  0.1298814E+00
          1   -1    0    0  501    0  0.00000000000E+00  0.00000000000E+00  0.18432266904E+04  0.18432266904E+04  0.00000000000E+00 0. -1.
         -1   -1    0    0    0  501 -0.00000000000E+00 -0.00000000000E+00 -0.11402200714E+01  0.11402200714E+01  0.00000000000E+00 0.  1.
         23    2    1    2    0    0  0.00000000000E+00  0.00000000000E+00  0.18420864703E+04  0.18443669105E+04  0.91688255922E+02 0.  0.
          2    1    3    3  502    0 -0.20878160878E+02 -0.16199948524E+02  0.16746006041E+04  0.16748090994E+04  0.00000000000E+00 0. -1.
         -2    1    3    3    0  502  0.20878160878E+02  0.16199948524E+02  0.16748586619E+03  0.16955781111E+03  0.00000000000E+00 0.  1.
<mgrwt>
<rscale>  0 0.91688256E+02</rscale>
<asrwt>0</asrwt>
<pdfrwt beam="1">  1        1 0.28357095E+00 0.91688256E+02</pdfrwt>
<pdfrwt beam="2">  1       -1 0.17541995E-03 0.91688256E+02</pdfrwt>
<totfact> 0.87985634E+04</totfact>
</mgrwt>
</event>
<event>
 5    1  0.4067226E+001  0.9208348E+02  0.7546771E-02  0.1297883E+00
          1   -1    0    0  501    0  0.00000000000E+00  0.00000000000E+00  0.10025745200E+03  0.10025745200E+03  0.00000000000E+00 0. -1.
         -1   -1    0    0    0  501 -0.00000000000E+00 -0.00000000000E+00 -0.21143984902E+02  0.21143984902E+02  0.00000000000E+00 0.  1.
         23    2    1    2    0    0  0.00000000000E+00  0.00000000000E+00  0.79113467094E+02  0.12140143690E+03  0.92083484975E+02 0.  0.
          2    1    3    3  502    0 -0.43254293520E+02  0.15776298635E+02  0.39726312242E+02  0.60811227507E+02  0.00000000000E+00 0. -1.
         -2    1    3    3    0  502  0.43254293520E+02 -0.15776298635E+02  0.39387154852E+02  0.60590209390E+02  0.00000000000E+00 0.  1.
<mgrwt>
<rscale>  0 0.92083485E+02</rscale>
<asrwt>0</asrwt>
<pdfrwt beam="1">  1        1 0.15424223E-01 0.92083485E+02</pdfrwt>
<pdfrwt beam="2">  1       -1 0.32529208E-02 0.92083485E+02</pdfrwt>
<totfact> 0.10171132E+05</totfact>
</mgrwt>
</event>
<event>
 5    1  0.4067226E+001  0.8827245E+02  0.7546771E-02  0.1307090E+00
          2   -1    0    0  501    0  0.00000000000E+00  0.00000000000E+00  0.14914192199E+04  0.14914192199E+04  0.00000000000E+00 0. -1.
         -2   -1    0    0    0  501 -0.00000000000E+00 -0.00000000000E+00 -0.13061428191E+01  0.13061428191E+01  0.00000000000E+00 0.  1.
         23    2    1    2    0    0  0.00000000000E+00  0.00000000000E+00  0.14901130771E+04  0.14927253627E+04  0.88272453332E+02 0.  0.
          2    1    3    3  502    0 -0.31022741554E+02 -0.31392135892E+02  0.75114933866E+03  0.75244481901E+03  0.00000000000E+00 0. -1.
         -2    1    3    3    0  502  0.31022741554E+02  0.31392135892E+02  0.73896373844E+03  0.74028054373E+03  0.00000000000E+00 0.  1.
<mgrwt>
<rscale>  0 0.88272453E+02</rscale>
<asrwt>0</asrwt>
<pdfrwt beam="1">  1        2 0.22944775E+00 0.88272453E+02</pdfrwt>
<pdfrwt beam="2">  1       -2 0.20094624E-03 0.88272453E+02</pdfrwt>
<totfact> 0.25750024E+05</totfact>
</mgrwt>
</event>
<event>
 5    1  0.4067226E+001  0.7255702E+02  0.7546771E-02  0.1351608E+00
         -2   -1    0    0    0  501 -0.00000000000E+00  0.00000000000E+00  0.69050532672E+00  0.69050532672E+00  0.00000000000E+00 0.  1.
          2   -1    0    0  501    0  0.00000000000E+00 -0.00000000000E+00 -0.19060390919E+04  0.19060390919E+04  0.00000000000E+00 0. -1.
         23    2    1    2    0    0  0.00000000000E+00  0.00000000000E+00 -0.19053485865E+04  0.19067295972E+04  0.72557016087E+02 0.  0.
          2    1    3    3  502    0 -0.29629181391E+01  0.23986445720E+02 -0.16636679628E+04  0.16638435079E+04  0.00000000000E+00 0. -1.
         -2    1    3    3    0  502  0.29629181391E+01 -0.23986445720E+02 -0.24168062374E+03  0.24288608926E+03  0.00000000000E+00 0.  1.
<mgrwt>
<rscale>  0 0.72557016E+02</rscale>
<asrwt>0</asrwt>
<pdfrwt beam="2">  1        2 0.29323767E+00 0.72557016E+02</pdfrwt>
<pdfrwt beam="1">  1       -2 0.10623127E-03 0.72557016E+02</pdfrwt>
<totfact> 0.37281939E+05</totfact>
</mgrwt>
</event>
<event>
 5    1  0.4067226E+001  0.9226526E+02  0.7546771E-02  0.1297457E+00
          1   -1    0    0  501    0  0.00000000000E+00  0.00000000000E+00  0.43596160623E+03  0.43596160623E+03  0.00000000000E+00 0. -1.
         -1   -1    0    0    0  501 -0.00000000000E+00 -0.00000000000E+00 -0.48816672100E+01  0.48816672100E+01  0.00000000000E+00 0.  1.
         23    2    1    2    0    0  0.00000000000E+00  0.00000000000E+00  0.43107993902E+03  0.44084327344E+03  0.92265258423E+02 0.  0.
          2    1    3    3  502    0  0.23891256663E+02  0.25055739359E+02  0.36122092345E+03  0.36287620170E+03  0.00000000000E+00 0. -1.
         -2    1    3    3    0  502 -0.23891256663E+02 -0.25055739359E+02  0.69859015566E+02  0.77967071739E+02  0.00000000000E+00 0.  1.
<mgrwt>
<rscale>  0 0.92265258E+02</rscale>
<asrwt>0</asrwt>
<pdfrwt beam="1">  1        1 0.67070985E-01 0.92265258E+02</pdfrwt>
<pdfrwt beam="2">  1       -1 0.75102607E-03 0.92265258E+02</pdfrwt>
<totfact> 0.13248159E+05</totfact>
</mgrwt>
</event>
<event>
 5    1  0.4067226E+001  0.9037569E+02  0.7546771E-02  0.1301944E+00
         -2   -1    0    0    0  501 -0.00000000000E+00  0.00000000000E+00  0.44058578509E+02  0.44058578509E+02  0.00000000000E+00 0.  1.
          2   -1    0    0  501    0  0.00000000000E+00 -0.00000000000E+00 -0.46346053209E+02  0.46346053209E+02  0.00000000000E+00 0. -1.
         23    2    1    2    0    0  0.00000000000E+00  0.00000000000E+00 -0.22874746994E+01  0.90404631718E+02  0.90375687525E+02 0.  0.
          2    1    3    3  502    0  0.23896790218E+02  0.15518619645E+02 -0.36227139419E+02  0.46090018105E+02  0.00000000000E+00 0. -1.
         -2    1    3    3    0  502 -0.23896790218E+02 -0.15518619645E+02  0.33939664720E+02  0.44314613613E+02  0.00000000000E+00 0.  1.
<mgrwt>
<rscale>  0 0.90375688E+02</rscale>
<asrwt>0</asrwt>
<pdfrwt beam="2">  1        2 0.71301621E-02 0.90375688E+02</pdfrwt>
<pdfrwt beam="1">  1       -2 0.67782428E-02 0.90375688E+02</pdfrwt>
<totfact> 0.10163303E+05</totfact>
</mgrwt>
</event>
<event>
 5    1  0.4067226E+001  0.8816165E+02  0.7546771E-02  0.1307366E+00
          1   -1    0    0  501    0  0.00000000000E+00  0.00000000000E+00  0.22411150708E+04  0.22411150708E+04  0.00000000000E+00 0. -1.
         -1   -1    0    0    0  501 -0.00000000000E+00 -0.00000000000E+00 -0.86703226064E+00  0.86703226064E+00  0.00000000000E+00 0.  1.
         23    2    1    2    0    0  0.00000000000E+00  0.00000000000E+00  0.22402480385E+04  0.22419821030E+04  0.88161648491E+02 0.  0.
          2    1    3    3  502    0 -0.40927220348E+02  0.16221882067E+02  0.10636466226E+04  0.10645573374E+04  0.00000000000E+00 0.  1.
         -2    1    3    3    0  502  0.40927220348E+02 -0.16221882067E+02  0.11766014159E+04  0.11774247656E+04  0.00000000000E+00 0. -1.
<mgrwt>
<rscale>  0 0.88161648E+02</rscale>
<asrwt>0</asrwt>
<pdfrwt beam="1">  1        1 0.34478230E+00 0.88161648E+02</pdfrwt>
<pdfrwt beam="2">  1       -1 0.13339137E-03 0.88161648E+02</pdfrwt>
<totfact> 0.71954873E+04</totfact>
</mgrwt>
</event>
<event>
 5    1  0.4067226E+001  0.9081675E+02  0.7546771E-02  0.1300886E+00
         -2   -1    0    0    0  501 -0.00000000000E+00  0.00000000000E+00  0.43110508311E+02  0.43110508311E+02  0.00000000000E+00 0.  1.
          2   -1    0    0  501    0  0.00000000000E+00 -0.00000000000E+00 -0.47828719892E+02  0.47828719892E+02  0.00000000000E+00 0. -1.
         23    2    1    2    0    0  0.00000000000E+00  0.00000000000E+00 -0.47182115812E+01  0.90939228203E+02  0.90816747936E+02 0.  0.
          2    1    3    3  502    0  0.43566489056E+02 -0.95597211592E+01 -0.10884881841E+02  0.45911958028E+02  0.00000000000E+00 0. -1.
         -2    1    3    3    0  502 -0.43566489056E+02  0.95597211592E+01  0.61666702598E+01  0.45027270175E+02  0.00000000000E+00 0.  1.
<mgrwt>
<rscale>  0 0.90816748E+02</rscale>
<asrwt>0</asrwt>
<pdfrwt beam="2">  1        2 0.73582645E-02 0.90816748E+02</pdfrwt>
<pdfrwt beam="1">  1       -2 0.66323860E-02 0.90816748E+02</pdfrwt>
<totfact> 0.10104967E+05</totfact>
</mgrwt>
</event>
<event>
 5    1  0.4067226E+001  0.8727790E+02  0.7546771E-02  0.1309581E+00
          2   -1    0    0  501    0  0.00000000000E+00  0.00000000000E+00  0.46809001412E+03  0.46809001412E+03  0.00000000000E+00 0. -1.
         -2   -1    0    0    0  501 -0.00000000000E+00 -0.00000000000E+00 -0.40683587254E+01  0.40683587254E+01  0.00000000000E+00 0.  1.
         23    2    1    2    0    0  0.00000000000E+00  0.00000000000E+00  0.46402165539E+03  0.47215837285E+03  0.87277903120E+02 0.  0.
          2    1    3    3  502    0 -0.15752023712E+02  0.38878314215E+02  0.29708826641E+03  0.30003514395E+03  0.00000000000E+00 0. -1.
         -2    1    3    3    0  502  0.15752023712E+02 -0.38878314215E+02  0.16693338899E+03  0.17212322890E+03  0.00000000000E+00 0.  1.
<mgrwt>
<rscale>  0 0.87277903E+02</rscale>
<asrwt>0</asrwt>
<pdfrwt beam="1">  1        2 0.72013806E-01 0.87277903E+02</pdfrwt>
<pdfrwt beam="2">  1       -2 0.62590171E-03 0.87277903E+02</pdfrwt>
<totfact> 0.23664918E+05</totfact>
</mgrwt>
</event>
<event>
 5    1  0.4067226E+001  0.9250944E+02  0.7546771E-02  0.1296886E+00
          2   -1    0    0  501    0  0.00000000000E+00  0.00000000000E+00  0.19828512145E+01  0.19828512145E+01  0.00000000000E+00 0. -1.
         -2   -1    0    0    0  501 -0.00000000000E+00 -0.00000000000E+00 -0.10790013761E+04  0.10790013761E+04  0.00000000000E+00 0.  1.
         23    2    1    2    0    0  0.00000000000E+00  0.00000000000E+00 -0.10770185249E+04  0.10809842273E+04  0.92509441442E+02 0.  0.
          2    1    3    3  502    0  0.36966718260E+02  0.41813438906E+00 -0.21367416477E+03  0.21684870713E+03  0.00000000000E+00 0. -1.
         -2    1    3    3    0  502 -0.36966718260E+02 -0.41813438906E+00 -0.86334436009E+03  0.86413552015E+03  0.00000000000E+00 0.  1.
<mgrwt>
<rscale>  0 0.92509441E+02</rscale>
<asrwt>0</asrwt>
<pdfrwt beam="1">  1        2 0.30505406E-03 0.92509441E+02</pdfrwt>
<pdfrwt beam="2">  1       -2 0.16600020E+00 0.92509441E+02</pdfrwt>
<totfact> 0.16414520E+04</totfact>
</mgrwt>
</event>
<event>
 5    1  0.4067226E+001  0.9213571E+02  0.7546771E-02  0.1297761E+00
          2   -1    0    0  501    0  0.00000000000E+00  0.00000000000E+00  0.14047309906E+04  0.14047309906E+04  0.00000000000E+00 0. -1.
         -2   -1    0    0    0  501 -0.00000000000E+00 -0.00000000000E+00 -0.15107855103E+01  0.15107855103E+01  0.00000000000E+00 0.  1.
         23    2    1    2    0    0  0.00000000000E+00  0.00000000000E+00  0.14032202051E+04  0.14062417761E+04  0.92135709178E+02 0.  0.
          2    1    3    3  502    0  0.14839989626E+02  0.30158236604E+02  0.11824470827E+04  0.11829247008E+04  0.00000000000E+00 0. -1.
         -2    1    3    3    0  502 -0.14839989626E+02 -0.30158236604E+02  0.22077312241E+03  0.22331707527E+03  0.00000000000E+00 0.  1.
<mgrwt>
<rscale>  0 0.92135709E+02</rscale>
<asrwt>0</asrwt>
<pdfrwt beam="1">  1        2 0.21611142E+00 0.92135709E+02</pdfrwt>
<pdfrwt beam="2">  1       -2 0.23242966E-03 0.92135709E+02</pdfrwt>
<totfact> 0.23460997E+05</totfact>
</mgrwt>
</event>
<event>
 5    1  0.4067226E+001  0.8936333E+02  0.7546771E-02  0.1304401E+00
         -2   -1    0    0    0  501 -0.00000000000E+00  0.00000000000E+00  0.62796343301E+00  0.62796343301E+00  0.00000000000E+00 0.  1.
          2   -1    0    0  501    0  0.00000000000E+00 -0.00000000000E+00 -0.31792478055E+04  0.31792478055E+04  0.00000000000E+00 0. -1.
         23    2    1    2    0    0  0.00000000000E+00  0.00000000000E+00 -0.31786198421E+04  0.31798757690E+04  0.89363334010E+02 0.  0.
          2    1    3    3  502    0  0.46548063662E+00  0.40715132966E+02 -0.22440037330E+04  0.22443731179E+04  0.00000000000E+00 0. -1.
         -2    1    3    3    0  502 -0.46548063662E+00 -0.40715132966E+02 -0.93461610916E+03  0.93550265110E+03  0.00000000000E+00 0.  1.
<mgrwt>
<rscale>  0 0.89363334E+02</rscale>
<asrwt>0</asrwt>
<pdfrwt beam="2">  1        2 0.48910991E+00 0.89363334E+02</pdfrwt>
<pdfrwt beam="1">  1       -2 0.96610774E-04 0.89363334E+02</pdfrwt>
<totfact> 0.91691409E+04</totfact>
</mgrwt>
</event>
<event>
 5    1  0.4067226E+001  0.9078229E+02  0.7546771E-02  0.1300968E+00
         -1   -1    0    0    0  501 -0.00000000000E+00  0.00000000000E+00  0.60091563998E+01  0.60091563998E+01  0.00000000000E+00 0.  1.
          1   -1    0    0  501    0  0.00000000000E+00 -0.00000000000E+00 -0.34286943920E+03  0.34286943920E+03  0.00000000000E+00 0. -1.
         23    2    1    2    0    0  0.00000000000E+00  0.00000000000E+00 -0.33686028280E+03  0.34887859560E+03  0.90782290891E+02 0.  0.
          2    1    3    3  502    0  0.17948816646E+02 -0.26318067850E+02 -0.29269453534E+03  0.29442298099E+03  0.00000000000E+00 0. -1.
         -2    1    3    3    0  502 -0.17948816646E+02  0.26318067850E+02 -0.44165747462E+02  0.54455614616E+02  0.00000000000E+00 0.  1.
<mgrwt>
<rscale>  0 0.90782291E+02</rscale>
<asrwt>0</asrwt>
<pdfrwt beam="2">  1        1 0.52749166E-01 0.90782291E+02</pdfrwt>
<pdfrwt beam="1">  1       -1 0.92448523E-03 0.90782291E+02</pdfrwt>
<totfact> 0.13286933E+05</totfact>
</mgrwt>
</event>
<event>
 5    1  0.4067226E+001  0.8991458E+02  0.7546771E-02  0.1303059E+00
          1   -1    0    0  501    0  0.00000000000E+00  0.00000000000E+00  0.31705506364E+03  0.31705506364E+03  0.00000000000E+00 0. -1.
         -1   -1    0    0    0  501 -0.00000000000E+00 -0.00000000000E+00 -0.63747849473E+01  0.63747849473E+01  0.00000000000E+00 0.  1.
         23    2    1    2    0    0  0.00000000000E+00  0.00000000000E+00  0.31068027870E+03  0.32342984859E+03  0.89914578288E+02 0.  0.
          2    1    3    3  502    0  0.17281552323E+02 -0.20672082467E+02  0.25886725292E+02  0.37364549918E+02  0.00000000000E+00 0.  1.
         -2    1    3    3    0  502 -0.17281552323E+02  0.20672082467E+02  0.28479355340E+03  0.28606529867E+03  0.00000000000E+00 0. -1.
<mgrwt>
<rscale>  0 0.89914578E+02</rscale>
<asrwt>0</asrwt>
<pdfrwt beam="1">  1        1 0.48777690E-01 0.89914578E+02</pdfrwt>
<pdfrwt beam="2">  1       -1 0.98073639E-03 0.89914578E+02</pdfrwt>
<totfact> 0.13435765E+05</totfact>
</mgrwt>
</event>
<event>
 5    1  0.4067226E+001  0.9235232E+02  0.7546771E-02  0.1297253E+00
         -1   -1    0    0    0  501 -0.00000000000E+00  0.00000000000E+00  0.36319365988E+01  0.36319365988E+01  0.00000000000E+00 0.  1.
          1   -1    0    0  501    0  0.00000000000E+00 -0.00000000000E+00 -0.58708008241E+03  0.58708008241E+03  0.00000000000E+00 0. -1.
         23    2    1    2    0    0  0.00000000000E+00  0.00000000000E+00 -0.58344814581E+03  0.59071201901E+03  0.92352317517E+02 0.  0.
          2    1    3    3  502    0  0.44042074020E+02  0.11765683502E+02 -0.33877138881E+03  0.34182479353E+03  0.00000000000E+00 0. -1.
         -2    1    3    3    0  502 -0.44042074020E+02 -0.11765683502E+02 -0.24467675700E+03  0.24888722548E+03  0.00000000000E+00 0.  1.
<mgrwt>
<rscale>  0 0.92352318E+02</rscale>
<asrwt>0</asrwt>
<pdfrwt beam="2">  1        1 0.90320096E-01 0.92352318E+02</pdfrwt>
<pdfrwt beam="1">  1       -1 0.55875896E-03 0.92352318E+02</pdfrwt>
<totfact> 0.13667245E+05</totfact>
</mgrwt>
</event>
<event>
 5    1  0.4067226E+001  0.9104557E+02  0.7546771E-02  0.1300339E+00
          1   -1    0    0  501    0  0.00000000000E+00  0.00000000000E+00  0.34468367463E+03  0.34468367463E+03  0.00000000000E+00 0. -1.
         -1   -1    0    0    0  501 -0.00000000000E+00 -0.00000000000E+00 -0.60122484403E+01  0.60122484403E+01  0.00000000000E+00 0.  1.
         23    2    1    2    0    0  0.00000000000E+00  0.00000000000E+00  0.33867142619E+03  0.35069592307E+03  0.91045568485E+02 0.  0.
          2    1    3    3  502    0 -0.60965399886E+01  0.45112210461E+02  0.16852267873E+03  0.17456280411E+03  0.00000000000E+00 0. -1.
         -2    1    3    3    0  502  0.60965399886E+01 -0.45112210461E+02  0.17014874746E+03  0.17613311896E+03  0.00000000000E+00 0.  1.
<mgrwt>
<rscale>  0 0.91045568E+02</rscale>
<asrwt>0</asrwt>
<pdfrwt beam="1">  1        1 0.53028242E-01 0.91045568E+02</pdfrwt>
<pdfrwt beam="2">  1       -1 0.92496157E-03 0.91045568E+02</pdfrwt>
<totfact> 0.13197616E+05</totfact>
</mgrwt>
</event>
<event>
 5    1  0.4067226E+001  0.9313465E+02  0.7546771E-02  0.1295433E+00
          1   -1    0    0  501    0  0.00000000000E+00  0.00000000000E+00  0.91410798176E+03  0.91410798176E+03  0.00000000000E+00 0. -1.
         -1   -1    0    0    0  501 -0.00000000000E+00 -0.00000000000E+00 -0.23722752087E+01  0.23722752087E+01  0.00000000000E+00 0.  1.
         23    2    1    2    0    0  0.00000000000E+00  0.00000000000E+00  0.91173570655E+03  0.91648025697E+03  0.93134648830E+02 0.  0.
          2    1    3    3  502    0 -0.88349531129E+01  0.26402165174E+02  0.82319023773E+03  0.82366091216E+03  0.00000000000E+00 0. -1.
         -2    1    3    3    0  502  0.88349531129E+01 -0.26402165174E+02  0.88545468826E+02  0.92819344815E+02  0.00000000000E+00 0.  1.
<mgrwt>
<rscale>  0 0.93134649E+02</rscale>
<asrwt>0</asrwt>
<pdfrwt beam="1">  1        1 0.14063172E+00 0.93134649E+02</pdfrwt>
<pdfrwt beam="2">  1       -1 0.36496615E-03 0.93134649E+02</pdfrwt>
<totfact> 0.13120147E+05</totfact>
</mgrwt>
</event>
<event>
 5    1  0.4067226E+001  0.8916657E+02  0.7546771E-02  0.1304883E+00
         -2   -1    0    0    0  501 -0.00000000000E+00  0.00000000000E+00  0.32800526124E+03  0.32800526124E+03  0.00000000000E+00 0.  1.
          2   -1    0    0  501    0  0.00000000000E+00 -0.00000000000E+00 -0.60598698087E+01  0.60598698087E+01  0.00000000000E+00 0. -1.
         23    2    1    2    0    0  0.00000000000E+00  0.00000000000E+00  0.32194539143E+03  0.33406513105E+03  0.89166567270E+02 0.  0.
          2    1    3    3  502    0  0.20968417752E+02  0.23959494256E+02  0.27789425348E+03  0.27971225934E+03  0.00000000000E+00 0.  1.
         -2    1    3    3    0  502 -0.20968417752E+02 -0.23959494256E+02  0.44051137947E+02  0.54352871704E+02  0.00000000000E+00 0. -1.
<mgrwt>
<rscale>  0 0.89166567E+02</rscale>
<asrwt>0</asrwt>
<pdfrwt beam="2">  1        2 0.93228792E-03 0.89166567E+02</pdfrwt>
<pdfrwt beam="1">  1       -2 0.50462334E-01 0.89166567E+02</pdfrwt>
<totfact> 0.51295134E+04</totfact>
</mgrwt>
</event>
<event>
 5    1  0.4067226E+001  0.9188053E+02  0.7546771E-02  0.1298361E+00
          1   -1    0    0  501    0  0.00000000000E+00  0.00000000000E+00  0.84026015778E+02  0.84026015778E+02  0.00000000000E+00 0. -1.
         -1   -1    0    0    0  501 -0.00000000000E+00 -0.00000000000E+00 -0.25117313408E+02  0.25117313408E+02  0.00000000000E+00 0.  1.
         23    2    1    2    0    0  0.00000000000E+00  0.00000000000E+00  0.58908702371E+02  0.10914332919E+03  0.91880526178E+02 0.  0.
          2    1    3    3  502    0  0.23629687707E+02  0.25184962702E+02 -0.65340640239E+01  0.35147382265E+02  0.00000000000E+00 0. -1.
         -2    1    3    3    0  502 -0.23629687707E+02 -0.25184962702E+02  0.65442766394E+02  0.73995946921E+02  0.00000000000E+00 0.  1.
<mgrwt>
<rscale>  0 0.91880526E+02</rscale>
<asrwt>0</asrwt>
<pdfrwt beam="1">  1        1 0.12927079E-01 0.91880526E+02</pdfrwt>
<pdfrwt beam="2">  1       -1 0.38642021E-02 0.91880526E+02</pdfrwt>
<totfact> 0.99412076E+04</totfact>
</mgrwt>
</event>
<event>
 5    1  0.4067226E+001  0.9048267E+02  0.7546771E-02  0.1301687E+00
          1   -1    0    0  501    0  0.00000000000E+00  0.00000000000E+00  0.15761023667E+04  0.15761023667E+04  0.00000000000E+00 0. -1.
         -1   -1    0    0    0  501 -0.00000000000E+00 -0.00000000000E+00 -0.12986329997E+01  0.12986329997E+01  0.00000000000E+00 0.  1.
         23    2    1    2    0    0  0.00000000000E+00  0.00000000000E+00  0.15748037337E+04  0.15774009997E+04  0.90482673354E+02 0.  0.
          2    1    3    3  502    0 -0.42800968818E+02 -0.14549412114E+02  0.81844184230E+03  0.81968936650E+03  0.00000000000E+00 0. -1.
         -2    1    3    3    0  502  0.42800968818E+02  0.14549412114E+02  0.75636189137E+03  0.75771163317E+03  0.00000000000E+00 0.  1.
<mgrwt>
<rscale>  0 0.90482673E+02</rscale>
<asrwt>0</asrwt>
<pdfrwt beam="1">  1        1 0.24247576E+00 0.90482673E+02</pdfrwt>
<pdfrwt beam="2">  1       -1 0.19979095E-03 0.90482673E+02</pdfrwt>
<totfact> 0.10803952E+05</totfact>
</mgrwt>
</event>
<event>
 5    1  0.4067226E+001  0.9344463E+02  0.7546771E-02  0.1294718E+00
         -2   -1    0    0    0  501 -0.00000000000E+00  0.00000000000E+00  0.14565196806E+02  0.14565196806E+02  0.00000000000E+00 0.  1.
          2   -1    0    0  501    0  0.00000000000E+00 -0.00000000000E+00 -0.14987610088E+03  0.14987610088E+03  0.00000000000E+00 0. -1.
         23    2    1    2    0    0  0.00000000000E+00  0.00000000000E+00 -0.13531090407E+03  0.16444129769E+03  0.93444634001E+02 0.  0.
          2    1    3    3  502    0 -0.42901026131E+02 -0.17101665555E+02 -0.80100154349E+02  0.92460801071E+02  0.00000000000E+00 0. -1.
         -2    1    3    3    0  502  0.42901026131E+02  0.17101665555E+02 -0.55210749724E+02  0.71980496615E+02  0.00000000000E+00 0.  1.
<mgrwt>
<rscale>  0 0.93444634E+02</rscale>
<asrwt>0</asrwt>
<pdfrwt beam="2">  1        2 0.23057861E-01 0.93444634E+02</pdfrwt>
<pdfrwt beam="1">  1       -2 0.22407996E-02 0.93444634E+02</pdfrwt>
<totfact> 0.13073293E+05</totfact>
</mgrwt>
</event>
<event>
 5    1  0.4067226E+001  0.9102707E+02  0.7546771E-02  0.1300383E+00
          3   -1    0    0  501    0  0.00000000000E+00  0.00000000000E+00  0.55522022259E+02  0.55522022259E+02  0.00000000000E+00 0. -1.
         -3   -1    0    0    0  501 -0.00000000000E+00 -0.00000000000E+00 -0.37309190841E+02  0.37309190841E+02  0.00000000000E+00 0.  1.
         23    2    1    2    0    0  0.00000000000E+00  0.00000000000E+00  0.18212831418E+02  0.92831213101E+02  0.91027066840E+02 0.  0.
          2    1    3    3  502    0  0.37389839460E+01  0.37866181911E+02 -0.16361612954E+02  0.41418958364E+02  0.00000000000E+00 0.  1.
         -2    1    3    3    0  502 -0.37389839460E+01 -0.37866181911E+02  0.34574444372E+02  0.51412254737E+02  0.00000000000E+00 0. -1.
<mgrwt>
<rscale>  0 0.91027067E+02</rscale>
<asrwt>0</asrwt>
<pdfrwt beam="1">  1        3 0.85418496E-02 0.91027067E+02</pdfrwt>
<pdfrwt beam="2">  1       -3 0.57398755E-02 0.91027067E+02</pdfrwt>
<totfact> 0.35370217E+04</totfact>
</mgrwt>
</event>
<event>
 5    1  0.4067226E+001  0.8952548E+02  0.7546771E-02  0.1304005E+00
          2   -1    0    0  501    0  0.00000000000E+00  0.00000000000E+00  0.16737542966E+04  0.16737542966E+04  0.00000000000E+00 0. -1.
         -2   -1    0    0    0  501 -0.00000000000E+00 -0.00000000000E+00 -0.11971307407E+01  0.11971307407E+01  0.00000000000E+00 0.  1.
         23    2    1    2    0    0  0.00000000000E+00  0.00000000000E+00  0.16725571658E+04  0.16749514273E+04  0.89525476171E+02 0.  0.
          2    1    3    3  502    0 -0.21962283631E+02 -0.23862521636E+02  0.14135240966E+04  0.14138960830E+04  0.00000000000E+00 0. -1.
         -2    1    3    3    0  502  0.21962283631E+02  0.23862521636E+02  0.25903306920E+03  0.26105534428E+03  0.00000000000E+00 0.  1.
<mgrwt>
<rscale>  0 0.89525476E+02</rscale>
<asrwt>0</asrwt>
<pdfrwt beam="1">  1        2 0.25749879E+00 0.89525476E+02</pdfrwt>
<pdfrwt beam="2">  1       -2 0.18417530E-03 0.89525476E+02</pdfrwt>
<totfact> 0.23533796E+05</totfact>
</mgrwt>
</event>
<event>
 5    1  0.4067226E+001  0.9244447E+02  0.7546771E-02  0.1297038E+00
         -2   -1    0    0    0  501 -0.00000000000E+00  0.00000000000E+00  0.36086774630E+03  0.36086774630E+03  0.00000000000E+00 0.  1.
          2   -1    0    0  501    0  0.00000000000E+00 -0.00000000000E+00 -0.59204370642E+01  0.59204370642E+01  0.00000000000E+00 0. -1.
         23    2    1    2    0    0  0.00000000000E+00  0.00000000000E+00  0.35494730924E+03  0.36678818336E+03  0.92444465069E+02 0.  0.
          2    1    3    3  502    0 -0.31279338033E+02 -0.12868405809E+02  0.52476507538E+02  0.62432176794E+02  0.00000000000E+00 0. -1.
         -2    1    3    3    0  502  0.31279338033E+02  0.12868405809E+02  0.30247080170E+03  0.30435600657E+03  0.00000000000E+00 0.  1.
<mgrwt>
<rscale>  0 0.92444465E+02</rscale>
<asrwt>0</asrwt>
<pdfrwt beam="2">  1        2 0.91083675E-03 0.92444465E+02</pdfrwt>
<pdfrwt beam="1">  1       -2 0.55518098E-01 0.92444465E+02</pdfrwt>
<totfact> 0.44069478E+04</totfact>
</mgrwt>
</event>
<event>
 5    1  0.4067226E+001  0.8834617E+02  0.7546771E-02  0.1306907E+00
         -2   -1    0    0    0  501 -0.00000000000E+00  0.00000000000E+00  0.25127591169E+02  0.25127591169E+02  0.00000000000E+00 0.  1.
          2   -1    0    0  501    0  0.00000000000E+00 -0.00000000000E+00 -0.77654140880E+02  0.77654140880E+02  0.00000000000E+00 0. -1.
         23    2    1    2    0    0  0.00000000000E+00  0.00000000000E+00 -0.52526549711E+02  0.10278173205E+03  0.88346171499E+02 0.  0.
          2    1    3    3  502    0 -0.79930904516E+01  0.43435657880E+02 -0.27247453041E+02  0.51893829765E+02  0.00000000000E+00 0. -1.
         -2    1    3    3    0  502  0.79930904516E+01 -0.43435657880E+02 -0.25279096671E+02  0.50887902285E+02  0.00000000000E+00 0.  1.
<mgrwt>
<rscale>  0 0.88346171E+02</rscale>
<asrwt>0</asrwt>
<pdfrwt beam="2">  1        2 0.11946791E-01 0.88346171E+02</pdfrwt>
<pdfrwt beam="1">  1       -2 0.38657832E-02 0.88346171E+02</pdfrwt>
<totfact> 0.12429719E+05</totfact>
</mgrwt>
</event>
<event>
 5    1  0.4067226E+001  0.9126128E+02  0.7546771E-02  0.1299826E+00
         -2   -1    0    0    0  501 -0.00000000000E+00  0.00000000000E+00  0.47283183534E+02  0.47283183534E+02  0.00000000000E+00 0.  1.
          2   -1    0    0  501    0  0.00000000000E+00 -0.00000000000E+00 -0.44035856487E+02  0.44035856487E+02  0.00000000000E+00 0. -1.
         23    2    1    2    0    0  0.00000000000E+00  0.00000000000E+00  0.32473270473E+01  0.91319040021E+02  0.91261283891E+02 0.  0.
          2    1    3    3  502    0  0.22580825279E+00 -0.43472902244E+02  0.15496465340E+02  0.46152840183E+02  0.00000000000E+00 0. -1.
         -2    1    3    3    0  502 -0.22580825279E+00  0.43472902244E+02 -0.12249138293E+02  0.45166199838E+02  0.00000000000E+00 0.  1.
<mgrwt>
<rscale>  0 0.91261284E+02</rscale>
<asrwt>0</asrwt>
<pdfrwt beam="2">  1        2 0.67747471E-02 0.91261284E+02</pdfrwt>
<pdfrwt beam="1">  1       -2 0.72743360E-02 0.91261284E+02</pdfrwt>
<totfact> 0.97531541E+04</totfact>
</mgrwt>
</event>
<event>
 5    1  0.4067226E+001  0.9178795E+02  0.7546771E-02  0.1298579E+00
          1   -1    0    0  501    0  0.00000000000E+00  0.00000000000E+00  0.37046448399E+02  0.37046448399E+02  0.00000000000E+00 0. -1.
         -1   -1    0    0    0  501 -0.00000000000E+00 -0.00000000000E+00 -0.56854488161E+02  0.56854488161E+02  0.00000000000E+00 0.  1.
         23    2    1    2    0    0  0.00000000000E+00  0.00000000000E+00 -0.19808039762E+02  0.93900936560E+02  0.91787948270E+02 0.  0.
          2    1    3    3  502    0  0.30981216745E+02  0.13788303680E+02  0.21732025632E+02  0.40276966711E+02  0.00000000000E+00 0. -1.
         -2    1    3    3    0  502 -0.30981216745E+02 -0.13788303680E+02 -0.41540065394E+02  0.53623969848E+02  0.00000000000E+00 0.  1.
<mgrwt>
<rscale>  0 0.91787948E+02</rscale>
<asrwt>0</asrwt>
<pdfrwt beam="1">  1        1 0.56994536E-02 0.91787948E+02</pdfrwt>
<pdfrwt beam="2">  1       -1 0.87468443E-02 0.91787948E+02</pdfrwt>
<totfact> 0.87923024E+04</totfact>
</mgrwt>
</event>
<event>
 5    1  0.4067226E+001  0.8976667E+02  0.7546771E-02  0.1303418E+00
         -3   -1    0    0    0  501 -0.00000000000E+00  0.00000000000E+00  0.42099886057E+03  0.42099886057E+03  0.00000000000E+00 0.  1.
          3   -1    0    0  501    0  0.00000000000E+00 -0.00000000000E+00 -0.47850814109E+01  0.47850814109E+01  0.00000000000E+00 0. -1.
         23    2    1    2    0    0  0.00000000000E+00  0.00000000000E+00  0.41621377916E+03  0.42578394198E+03  0.89766671360E+02 0.  0.
          2    1    3    3  502    0 -0.27868527534E+02  0.28043246013E+02  0.10732745024E+03  0.11437770784E+03  0.00000000000E+00 0. -1.
         -2    1    3    3    0  502  0.27868527534E+02 -0.28043246013E+02  0.30888632892E+03  0.31140623415E+03  0.00000000000E+00 0.  1.
<mgrwt>
<rscale>  0 0.89766671E+02</rscale>
<asrwt>0</asrwt>
<pdfrwt beam="2">  1        3 0.73616670E-03 0.89766671E+02</pdfrwt>
<pdfrwt beam="1">  1       -3 0.64769026E-01 0.89766671E+02</pdfrwt>
<totfact> 0.20685383E+04</totfact>
</mgrwt>
</event>
<event>
 5    1  0.4067226E+001  0.8739067E+02  0.7546771E-02  0.1309296E+00
         -1   -1    0    0    0  501 -0.00000000000E+00  0.00000000000E+00  0.64901997072E+00  0.64901997072E+00  0.00000000000E+00 0.  1.
          1   -1    0    0  501    0  0.00000000000E+00 -0.00000000000E+00 -0.29417930265E+04  0.29417930265E+04  0.00000000000E+00 0. -1.
         23    2    1    2    0    0  0.00000000000E+00  0.00000000000E+00 -0.29411440065E+04  0.29424420465E+04  0.87390672819E+02 0.  0.
          2    1    3    3  502    0  0.20648986955E+02  0.36054042430E+02 -0.19260607151E+04  0.19265087990E+04  0.00000000000E+00 0. -1.
         -2    1    3    3    0  502 -0.20648986955E+02 -0.36054042430E+02 -0.10150832915E+04  0.10159332474E+04  0.00000000000E+00 0.  1.
<mgrwt>
<rscale>  0 0.87390673E+02</rscale>
<asrwt>0</asrwt>
<pdfrwt beam="2">  1        1 0.45258660E+00 0.87390673E+02</pdfrwt>
<pdfrwt beam="1">  1       -1 0.99848552E-04 0.87390673E+02</pdfrwt>
<totfact> 0.37540024E+04</totfact>
</mgrwt>
</event>
<event>
 5    1  0.4067226E+001  0.8936766E+02  0.7546771E-02  0.1304390E+00
         -1   -1    0    0    0  501 -0.00000000000E+00  0.00000000000E+00  0.34136642309E+03  0.34136642309E+03  0.00000000000E+00 0.  1.
          1   -1    0    0  501    0  0.00000000000E+00 -0.00000000000E+00 -0.58489783311E+01  0.58489783311E+01  0.00000000000E+00 0. -1.
         23    2    1    2    0    0  0.00000000000E+00  0.00000000000E+00  0.33551744476E+03  0.34721540142E+03  0.89367663316E+02 0.  0.
          2    1    3    3  502    0 -0.89117904693E+01  0.17990586919E+02  0.12661765497E+02  0.23736080817E+02  0.00000000000E+00 0. -1.
         -2    1    3    3    0  502  0.89117904693E+01 -0.17990586919E+02  0.32285567926E+03  0.32347932061E+03  0.00000000000E+00 0.  1.
<mgrwt>
<rscale>  0 0.89367663E+02</rscale>
<asrwt>0</asrwt>
<pdfrwt beam="2">  1        1 0.89984309E-03 0.89367663E+02</pdfrwt>
<pdfrwt beam="1">  1       -1 0.52517896E-01 0.89367663E+02</pdfrwt>
<totfact> 0.60508024E+04</totfact>
</mgrwt>
</event>
<event>
 5    1  0.4067226E+001  0.9767505E+02  0.7546771E-02  0.1285262E+00
         -1   -1    0    0    0  501 -0.00000000000E+00  0.00000000000E+00  0.39575564718E+03  0.39575564718E+03  0.00000000000E+00 0.  1.
          1   -1    0    0  501    0  0.00000000000E+00 -0.00000000000E+00 -0.60267088594E+01  0.60267088594E+01  0.00000000000E+00 0. -1.
         23    2    1    2    0    0  0.00000000000E+00  0.00000000000E+00  0.38972893832E+03  0.40178235604E+03  0.97675054441E+02 0.  0.
          2    1    3    3  502    0 -0.14067330233E+02  0.23551307769E+02  0.28660852594E+02  0.39673648042E+02  0.00000000000E+00 0. -1.
         -2    1    3    3    0  502  0.14067330233E+02 -0.23551307769E+02  0.36106808573E+03  0.36210870800E+03  0.00000000000E+00 0.  1.
<mgrwt>
<rscale>  0 0.97675054E+02</rscale>
<asrwt>0</asrwt>
<pdfrwt beam="2">  1        1 0.92718629E-03 0.97675054E+02</pdfrwt>
<pdfrwt beam="1">  1       -1 0.60885464E-01 0.97675054E+02</pdfrwt>
<totfact> 0.44711212E+04</totfact>
</mgrwt>
</event>
<event>
 5    1  0.4067226E+001  0.9102093E+02  0.7546771E-02  0.1300398E+00
         -2   -1    0    0    0  501 -0.00000000000E+00  0.00000000000E+00  0.86828728033E+03  0.86828728033E+03  0.00000000000E+00 0.  1.
          2   -1    0    0  501    0  0.00000000000E+00 -0.00000000000E+00 -0.23853882890E+01  0.23853882890E+01  0.00000000000E+00 0. -1.
         23    2    1    2    0    0  0.00000000000E+00  0.00000000000E+00  0.86590189204E+03  0.87067266862E+03  0.91020927484E+02 0.  0.
          2    1    3    3  502    0  0.15860581367E+02  0.42506059662E+02  0.46727965222E+03  0.46947693930E+03  0.00000000000E+00 0.  1.
         -2    1    3    3    0  502 -0.15860581367E+02 -0.42506059662E+02  0.39862223982E+03  0.40119572932E+03  0.00000000000E+00 0. -1.
<mgrwt>
<rscale>  0 0.91020927E+02</rscale>
<asrwt>0</asrwt>
<pdfrwt beam="2">  1        2 0.36698351E-03 0.91020927E+02</pdfrwt>
<pdfrwt beam="1">  1       -2 0.13358241E+00 0.91020927E+02</pdfrwt>
<totfact> 0.21985470E+04</totfact>
</mgrwt>
</event>
<event>
 5    1  0.4067226E+001  0.9034690E+02  0.7546771E-02  0.1302014E+00
         -4   -1    0    0    0  501 -0.00000000000E+00  0.00000000000E+00  0.81054020517E+02  0.81054020517E+02  0.00000000000E+00 0.  1.
          4   -1    0    0  501    0  0.00000000000E+00 -0.00000000000E+00 -0.25176304237E+02  0.25176304237E+02  0.00000000000E+00 0. -1.
         23    2    1    2    0    0  0.00000000000E+00  0.00000000000E+00  0.55877716281E+02  0.10623032475E+03  0.90346902108E+02 0.  0.
          2    1    3    3  502    0 -0.25801683874E+02  0.30349014053E+02  0.28897679411E+01  0.39939207597E+02  0.00000000000E+00 0. -1.
         -2    1    3    3    0  502  0.25801683874E+02 -0.30349014053E+02  0.52987948340E+02  0.66291117157E+02  0.00000000000E+00 0.  1.
<mgrwt>
<rscale>  0 0.90346902E+02</rscale>
<asrwt>0</asrwt>
<pdfrwt beam="2">  1        4 0.38732776E-02 0.90346902E+02</pdfrwt>
<pdfrwt beam="1">  1       -4 0.12469849E-01 0.90346902E+02</pdfrwt>
<totfact> 0.26730206E+04</totfact>
</mgrwt>
</event>
<event>
 5    1  0.4067226E+001  0.9189713E+02  0.7546771E-02  0.1298321E+00
         -1   -1    0    0    0  501 -0.00000000000E+00  0.00000000000E+00  0.60225400298E+01  0.60225400298E+01  0.00000000000E+00 0.  1.
          1   -1    0    0  501    0  0.00000000000E+00 -0.00000000000E+00 -0.35056152938E+03  0.35056152938E+03  0.00000000000E+00 0. -1.
         23    2    1    2    0    0  0.00000000000E+00  0.00000000000E+00 -0.34453898935E+03  0.35658406941E+03  0.91897134745E+02 0.  0.
          2    1    3    3  502    0 -0.27416044950E+02  0.23999279248E+02 -0.28089340832E+03  0.28324673301E+03  0.00000000000E+00 0. -1.
         -2    1    3    3    0  502  0.27416044950E+02 -0.23999279248E+02 -0.63645581034E+02  0.73337336400E+02  0.00000000000E+00 0.  1.
<mgrwt>
<rscale>  0 0.91897135E+02</rscale>
<asrwt>0</asrwt>
<pdfrwt beam="2">  1        1 0.53932553E-01 0.91897135E+02</pdfrwt>
<pdfrwt beam="1">  1       -1 0.92654444E-03 0.91897135E+02</pdfrwt>
<totfact> 0.12913699E+05</totfact>
</mgrwt>
</event>
<event>
 5    1  0.4067226E+001  0.9288820E+02  0.7546771E-02  0.1296004E+00
          2   -1    0    0  501    0  0.00000000000E+00  0.00000000000E+00  0.16597657161E+04  0.16597657161E+04  0.00000000000E+00 0. -1.
         -2   -1    0    0    0  501 -0.00000000000E+00 -0.00000000000E+00 -0.12996139307E+01  0.12996139307E+01  0.00000000000E+00 0.  1.
         23    2    1    2    0    0  0.00000000000E+00  0.00000000000E+00  0.16584661022E+04  0.16610653300E+04  0.92888204771E+02 0.  0.
          2    1    3    3  502    0  0.34815515472E+02 -0.30342442413E+02  0.91733133520E+03  0.91849309332E+03  0.00000000000E+00 0. -1.
         -2    1    3    3    0  502 -0.34815515472E+02  0.30342442413E+02  0.74113476699E+03  0.74257223673E+03  0.00000000000E+00 0.  1.
<mgrwt>
<rscale>  0 0.92888205E+02</rscale>
<asrwt>0</asrwt>
<pdfrwt beam="1">  1        2 0.25534688E+00 0.92888205E+02</pdfrwt>
<pdfrwt beam="2">  1       -2 0.19994193E-03 0.92888205E+02</pdfrwt>
<totfact> 0.21451477E+05</totfact>
</mgrwt>
</event>
<event>
 5    1  0.4067226E+001  0.9450719E+02  0.7546771E-02  0.1292290E+00
         -2   -1    0    0    0  501 -0.00000000000E+00  0.00000000000E+00  0.64158004100E+02  0.64158004100E+02  0.00000000000E+00 0.  1.
          2   -1    0    0  501    0  0.00000000000E+00 -0.00000000000E+00 -0.34803176273E+02  0.34803176273E+02  0.00000000000E+00 0. -1.
         23    2    1    2    0    0  0.00000000000E+00  0.00000000000E+00  0.29354827827E+02  0.98961180372E+02  0.94507191811E+02 0.  0.
          2    1    3    3  502    0  0.40947533172E+02  0.12778799085E+01 -0.99817163092E+01  0.42165959143E+02  0.00000000000E+00 0. -1.
         -2    1    3    3    0  502 -0.40947533172E+02 -0.12778799085E+01  0.39336544136E+02  0.56795221230E+02  0.00000000000E+00 0.  1.
<mgrwt>
<rscale>  0 0.94507192E+02</rscale>
<asrwt>0</asrwt>
<pdfrwt beam="2">  1        2 0.53543348E-02 0.94507192E+02</pdfrwt>
<pdfrwt beam="1">  1       -2 0.98704621E-02 0.94507192E+02</pdfrwt>
<totfact> 0.82779343E+04</totfact>
</mgrwt>
</event>
<event>
 5    1  0.4067226E+001  0.9203796E+02  0.7546771E-02  0.1297990E+00
         -2   -1    0    0    0  501 -0.00000000000E+00  0.00000000000E+00  0.14290276213E+03  0.14290276213E+03  0.00000000000E+00 0.  1.
          2   -1    0    0  501    0  0.00000000000E+00 -0.00000000000E+00 -0.14819493375E+02  0.14819493375E+02  0.00000000000E+00 0. -1.
         23    2    1    2    0    0  0.00000000000E+00  0.00000000000E+00  0.12808326876E+03  0.15772225550E+03  0.92037960356E+02 0.  0.
          2    1    3    3  502    0 -0.29224900097E+02  0.19843836213E+02  0.11458383500E+03  0.11990549555E+03  0.00000000000E+00 0.  1.
         -2    1    3    3    0  502  0.29224900097E+02 -0.19843836213E+02  0.13499433757E+02  0.37816759950E+02  0.00000000000E+00 0. -1.
<mgrwt>
<rscale>  0 0.92037960E+02</rscale>
<asrwt>0</asrwt>
<pdfrwt beam="2">  1        2 0.22799222E-02 0.92037960E+02</pdfrwt>
<pdfrwt beam="1">  1       -2 0.21985039E-01 0.92037960E+02</pdfrwt>
<totfact> 0.69413150E+04</totfact>
</mgrwt>
</event>
<event>
 5    1  0.4067226E+001  0.9271029E+02  0.7546771E-02  0.1296418E+00
         -2   -1    0    0    0  501 -0.00000000000E+00  0.00000000000E+00  0.21786457704E+02  0.21786457704E+02  0.00000000000E+00 0.  1.
          2   -1    0    0  501    0  0.00000000000E+00 -0.00000000000E+00 -0.98630051658E+02  0.98630051658E+02  0.00000000000E+00 0. -1.
         23    2    1    2    0    0  0.00000000000E+00  0.00000000000E+00 -0.76843593954E+02  0.12041650936E+03  0.92710289587E+02 0.  0.
          2    1    3    3  502    0 -0.40613317572E+02 -0.71951436129E+01 -0.65900562160E+02  0.77743782702E+02  0.00000000000E+00 0. -1.
         -2    1    3    3    0  502  0.40613317572E+02  0.71951436129E+01 -0.10943031794E+02  0.42672726661E+02  0.00000000000E+00 0.  1.
<mgrwt>
<rscale>  0 0.92710290E+02</rscale>
<asrwt>0</asrwt>
<pdfrwt beam="2">  1        2 0.15173854E-01 0.92710290E+02</pdfrwt>
<pdfrwt beam="1">  1       -2 0.33517627E-02 0.92710290E+02</pdfrwt>
<totfact> 0.11666619E+05</totfact>
</mgrwt>
</event>
<event>
 5    1  0.4067226E+001  0.8743195E+02  0.7546771E-02  0.1309192E+00
         -1   -1    0    0    0  501 -0.00000000000E+00  0.00000000000E+00  0.86119640778E+02  0.86119640778E+02  0.00000000000E+00 0.  1.
          1   -1    0    0  501    0  0.00000000000E+00 -0.00000000000E+00 -0.22191065932E+02  0.22191065932E+02  0.00000000000E+00 0. -1.
         23    2    1    2    0    0  0.00000000000E+00  0.00000000000E+00  0.63928574846E+02  0.10831070671E+03  0.87431953577E+02 0.  0.
          2    1    3    3  502    0 -0.32667566600E+02 -0.18793746561E+02  0.45223694398E+01  0.37958222333E+02  0.00000000000E+00 0. -1.
         -2    1    3    3    0  502  0.32667566600E+02  0.18793746561E+02  0.59406205406E+02  0.70352484378E+02  0.00000000000E+00 0.  1.
<mgrwt>
<rscale>  0 0.87431954E+02</rscale>
<asrwt>0</asrwt>
<pdfrwt beam="2">  1        1 0.34140102E-02 0.87431954E+02</pdfrwt>
<pdfrwt beam="1">  1       -1 0.13249175E-01 0.87431954E+02</pdfrwt>
<totfact> 0.93067053E+04</totfact>
</mgrwt>
</event>
<event>
 5    1  0.4067226E+001  0.9261684E+02  0.7546771E-02  0.1296636E+00
         -2   -1    0    0    0  501 -0.00000000000E+00  0.00000000000E+00  0.19357929530E+01  0.19357929530E+01  0.00000000000E+00 0.  1.
          2   -1    0    0  501    0  0.00000000000E+00 -0.00000000000E+00 -0.11077991033E+04  0.11077991033E+04  0.00000000000E+00 0. -1.
         23    2    1    2    0    0  0.00000000000E+00  0.00000000000E+00 -0.11058633103E+04  0.11097348962E+04  0.92616838587E+02 0.  0.
          2    1    3    3  502    0  0.16497800894E+02 -0.19950261639E+02 -0.10129966368E+04  0.10133273787E+04  0.00000000000E+00 0. -1.
         -2    1    3    3    0  502 -0.16497800894E+02  0.19950261639E+02 -0.92866673560E+02  0.96407517507E+02  0.00000000000E+00 0.  1.
<mgrwt>
<rscale>  0 0.92616839E+02</rscale>
<asrwt>0</asrwt>
<pdfrwt beam="2">  1        2 0.17043065E+00 0.92616839E+02</pdfrwt>
<pdfrwt beam="1">  1       -2 0.29781426E-03 0.92616839E+02</pdfrwt>
<totfact> 0.24001433E+05</totfact>
</mgrwt>
</event>
<event>
 5    1  0.4067226E+001  0.9192709E+02  0.7546771E-02  0.1298251E+00
          2   -1    0    0  501    0  0.00000000000E+00  0.00000000000E+00  0.46736056710E+03  0.46736056710E+03  0.00000000000E+00 0. -1.
         -2   -1    0    0    0  501 -0.00000000000E+00 -0.00000000000E+00 -0.45203805503E+01  0.45203805503E+01  0.00000000000E+00 0.  1.
         23    2    1    2    0    0  0.00000000000E+00  0.00000000000E+00  0.46284018655E+03  0.47188094765E+03  0.91927093232E+02 0.  0.
          2    1    3    3  502    0  0.69442686767E+01 -0.37385616014E+02  0.36396630569E+03  0.36594723504E+03  0.00000000000E+00 0. -1.
         -2    1    3    3    0  502 -0.69442686767E+01  0.37385616014E+02  0.98873880857E+02  0.10593371261E+03  0.00000000000E+00 0.  1.
<mgrwt>
<rscale>  0 0.91927093E+02</rscale>
<asrwt>0</asrwt>
<pdfrwt beam="1">  1        2 0.71901588E-01 0.91927093E+02</pdfrwt>
<pdfrwt beam="2">  1       -2 0.69544353E-03 0.91927093E+02</pdfrwt>
<totfact> 0.20620445E+05</totfact>
</mgrwt>
</event>
<event>
 5    1  0.4067226E+001  0.8938558E+02  0.7546771E-02  0.1304346E+00
          2   -1    0    0  501    0  0.00000000000E+00  0.00000000000E+00  0.13718405748E+04  0.13718405748E+04  0.00000000000E+00 0. -1.
         -2   -1    0    0    0  501 -0.00000000000E+00 -0.00000000000E+00 -0.14560331645E+01  0.14560331645E+01  0.00000000000E+00 0.  1.
         23    2    1    2    0    0  0.00000000000E+00  0.00000000000E+00  0.13703845417E+04  0.13732966080E+04  0.89385577659E+02 0.  0.
          2    1    3    3  502    0 -0.22154413642E+02  0.29867318676E+02  0.10660675523E+04  0.10667159419E+04  0.00000000000E+00 0. -1.
         -2    1    3    3    0  502  0.22154413642E+02 -0.29867318676E+02  0.30431698941E+03  0.30658066608E+03  0.00000000000E+00 0.  1.
<mgrwt>
<rscale>  0 0.89385578E+02</rscale>
<asrwt>0</asrwt>
<pdfrwt beam="1">  1        2 0.21105136E+00 0.89385578E+02</pdfrwt>
<pdfrwt beam="2">  1       -2 0.22400620E-03 0.89385578E+02</pdfrwt>
<totfact> 0.25574314E+05</totfact>
</mgrwt>
</event>
<event>
 5    1  0.4067226E+001  0.8859066E+02  0.7546771E-02  0.1306301E+00
         -3   -1    0    0    0  501 -0.00000000000E+00  0.00000000000E+00  0.36030745914E+02  0.36030745914E+02  0.00000000000E+00 0.  1.
          3   -1    0    0  501    0  0.00000000000E+00 -0.00000000000E+00 -0.54455611691E+02  0.54455611691E+02  0.00000000000E+00 0. -1.
         23    2    1    2    0    0  0.00000000000E+00  0.00000000000E+00 -0.18424865778E+02  0.90486357605E+02  0.88590661097E+02 0.  0.
          2    1    3    3  502    0  0.40619480539E+02 -0.17460241657E+02 -0.64576719536E+01  0.44682253357E+02  0.00000000000E+00 0. -1.
         -2    1    3    3    0  502 -0.40619480539E+02  0.17460241657E+02 -0.11967193824E+02  0.45804104248E+02  0.00000000000E+00 0.  1.
<mgrwt>
<rscale>  0 0.88590661E+02</rscale>
<asrwt>0</asrwt>
<pdfrwt beam="2">  1        3 0.83777864E-02 0.88590661E+02</pdfrwt>
<pdfrwt beam="1">  1       -3 0.55431917E-02 0.88590661E+02</pdfrwt>
<totfact> 0.38268781E+04</totfact>
</mgrwt>
</event>
<event>
 5    1  0.4067226E+001  0.9254901E+02  0.7546771E-02  0.1296794E+00
          1   -1    0    0  501    0  0.00000000000E+00  0.00000000000E+00  0.15682772046E+02  0.15682772046E+02  0.00000000000E+00 0. -1.
         -1   -1    0    0    0  501 -0.00000000000E+00 -0.00000000000E+00 -0.13654026102E+03  0.13654026102E+03  0.00000000000E+00 0.  1.
         23    2    1    2    0    0  0.00000000000E+00  0.00000000000E+00 -0.12085748897E+03  0.15222303307E+03  0.92549009475E+02 0.  0.
          2    1    3    3  502    0  0.10186666036E+02 -0.32309516892E+02 -0.85813677370E+01  0.34947287719E+02  0.00000000000E+00 0. -1.
         -2    1    3    3    0  502 -0.10186666036E+02  0.32309516892E+02 -0.11227612124E+03  0.11727574535E+03  0.00000000000E+00 0.  1.
<mgrwt>
<rscale>  0 0.92549009E+02</rscale>
<asrwt>0</asrwt>
<pdfrwt beam="1">  1        1 0.24127341E-02 0.92549009E+02</pdfrwt>
<pdfrwt beam="2">  1       -1 0.21006194E-01 0.92549009E+02</pdfrwt>
<totfact> 0.73499651E+04</totfact>
</mgrwt>
</event>
<event>
 5    1  0.4067226E+001  0.9171381E+02  0.7546771E-02  0.1298754E+00
          2   -1    0    0  501    0  0.00000000000E+00  0.00000000000E+00  0.11188537993E+04  0.11188537993E+04  0.00000000000E+00 0. -1.
         -2   -1    0    0    0  501 -0.00000000000E+00 -0.00000000000E+00 -0.18794731809E+01  0.18794731809E+01  0.00000000000E+00 0.  1.
         23    2    1    2    0    0  0.00000000000E+00  0.00000000000E+00  0.11169743261E+04  0.11207332725E+04  0.91713809411E+02 0.  0.
          2    1    3    3  502    0 -0.18615371575E+02 -0.35711915313E+02  0.29048871094E+03  0.29326705260E+03  0.00000000000E+00 0. -1.
         -2    1    3    3    0  502  0.18615371575E+02  0.35711915313E+02  0.82648561518E+03  0.82746621989E+03  0.00000000000E+00 0.  1.
<mgrwt>
<rscale>  0 0.91713809E+02</rscale>
<asrwt>0</asrwt>
<pdfrwt beam="1">  1        2 0.17213082E+00 0.91713809E+02</pdfrwt>
<pdfrwt beam="2">  1       -2 0.28915061E-03 0.91713809E+02</pdfrwt>
<totfact> 0.24619195E+05</totfact>
</mgrwt>
</event>
<event>
 5    1  0.4067226E+001  0.9696560E+02  0.7546771E-02  0.1286809E+00
          1   -1    0    0  501    0  0.00000000000E+00  0.00000000000E+00  0.33952960474E+02  0.33952960474E+02  0.00000000000E+00 0. -1.
         -1   -1    0    0    0  501 -0.00000000000E+00 -0.00000000000E+00 -0.69230549546E+02  0.69230549546E+02  0.00000000000E+00 0.  1.
         23    2    1    2    0    0  0.00000000000E+00  0.00000000000E+00 -0.35277589072E+02  0.10318351002E+03  0.96965604465E+02 0.  0.
          2    1    3    3  502    0 -0.30393011219E+02  0.12732516722E+02  0.20204723103E+02  0.38653369177E+02  0.00000000000E+00 0. -1.
         -2    1    3    3    0  502  0.30393011219E+02 -0.12732516722E+02 -0.55482312175E+02  0.64530140843E+02  0.00000000000E+00 0.  1.
<mgrwt>
<rscale>  0 0.96965604E+02</rscale>
<asrwt>0</asrwt>
<pdfrwt beam="1">  1        1 0.52235324E-02 0.96965604E+02</pdfrwt>
<pdfrwt beam="2">  1       -1 0.10650854E-01 0.96965604E+02</pdfrwt>
<totfact> 0.74094045E+04</totfact>
</mgrwt>
</event>
<event>
 5    1  0.4067226E+001  0.9080116E+02  0.7546771E-02  0.1300923E+00
         -1   -1    0    0    0  501 -0.00000000000E+00  0.00000000000E+00  0.50974313376E+01  0.50974313376E+01  0.00000000000E+00 0.  1.
          1   -1    0    0  501    0  0.00000000000E+00 -0.00000000000E+00 -0.40436296562E+03  0.40436296562E+03  0.00000000000E+00 0. -1.
         23    2    1    2    0    0  0.00000000000E+00  0.00000000000E+00 -0.39926553429E+03  0.40946039696E+03  0.90801155339E+02 0.  0.
          2    1    3    3  502    0  0.41032943982E+02  0.52261729623E+00 -0.28721733132E+03  0.29013405700E+03  0.00000000000E+00 0. -1.
         -2    1    3    3    0  502 -0.41032943982E+02 -0.52261729623E+00 -0.11204820297E+03  0.11932633996E+03  0.00000000000E+00 0.  1.
<mgrwt>
<rscale>  0 0.90801155E+02</rscale>
<asrwt>0</asrwt>
<pdfrwt beam="2">  1        1 0.62209719E-01 0.90801155E+02</pdfrwt>
<pdfrwt beam="1">  1       -1 0.78421980E-03 0.90801155E+02</pdfrwt>
<totfact> 0.13661918E+05</totfact>
</mgrwt>
</event>
<event>
 5    1  0.4067226E+001  0.8895396E+02  0.7546771E-02  0.1305405E+00
          3   -1    0    0  501    0  0.00000000000E+00  0.00000000000E+00  0.96108977930E+02  0.96108977930E+02  0.00000000000E+00 0. -1.
         -3   -1    0    0    0  501 -0.00000000000E+00 -0.00000000000E+00 -0.20582900908E+02  0.20582900908E+02  0.00000000000E+00 0.  1.
         23    2    1    2    0    0  0.00000000000E+00  0.00000000000E+00  0.75526077023E+02  0.11669187884E+03  0.88953955934E+02 0.  0.
          2    1    3    3  502    0  0.24624091802E+02 -0.27759031155E+02  0.69930591760E+02  0.79165632516E+02  0.00000000000E+00 0. -1.
         -2    1    3    3    0  502 -0.24624091802E+02  0.27759031155E+02  0.55954852626E+01  0.37526246322E+02  0.00000000000E+00 0.  1.
<mgrwt>
<rscale>  0 0.88953956E+02</rscale>
<asrwt>0</asrwt>
<pdfrwt beam="1">  1        3 0.14785996E-01 0.88953956E+02</pdfrwt>
<pdfrwt beam="2">  1       -3 0.31666002E-02 0.88953956E+02</pdfrwt>
<totfact> 0.35788580E+04</totfact>
</mgrwt>
</event>
<event>
 5    1  0.4067226E+001  0.9321849E+02  0.7546771E-02  0.1295240E+00
          2   -1    0    0  501    0  0.00000000000E+00  0.00000000000E+00  0.79693118229E+01  0.79693118229E+01  0.00000000000E+00 0.  1.
         -2   -1    0    0    0  501 -0.00000000000E+00 -0.00000000000E+00 -0.27259842712E+03  0.27259842712E+03  0.00000000000E+00 0. -1.
         23    2    1    2    0    0  0.00000000000E+00  0.00000000000E+00 -0.26462911530E+03  0.28056773894E+03  0.93218493190E+02 0.  0.
          2    1    3    3  502    0  0.26351302450E+02  0.37346367291E+02 -0.15978115812E+03  0.16619013443E+03  0.00000000000E+00 0. -1.
         -2    1    3    3    0  502 -0.26351302450E+02 -0.37346367291E+02 -0.10484795717E+03  0.11437760451E+03  0.00000000000E+00 0.  1.
<mgrwt>
<rscale>  0 0.93218493E+02</rscale>
<asrwt>0</asrwt>
<pdfrwt beam="1">  1        2 0.12260480E-02 0.93218493E+02</pdfrwt>
<pdfrwt beam="2">  1       -2 0.41938218E-01 0.93218493E+02</pdfrwt>
<totfact> 0.50757651E+04</totfact>
</mgrwt>
</event>
<event>
 5    1  0.4067226E+001  0.8980762E+02  0.7546771E-02  0.1303318E+00
          1   -1    0    0  501    0  0.00000000000E+00  0.00000000000E+00  0.10480275311E+04  0.10480275311E+04  0.00000000000E+00 0. -1.
         -1   -1    0    0    0  501 -0.00000000000E+00 -0.00000000000E+00 -0.19239494326E+01  0.19239494326E+01  0.00000000000E+00 0.  1.
         23    2    1    2    0    0  0.00000000000E+00  0.00000000000E+00  0.10461035817E+04  0.10499514806E+04  0.89807616021E+02 0.  0.
          2    1    3    3  502    0 -0.61698109886E+00 -0.44250967528E+02  0.43415070773E+03  0.43640046496E+03  0.00000000000E+00 0.  1.
         -2    1    3    3    0  502  0.61698109886E+00  0.44250967528E+02  0.61195287395E+03  0.61355101559E+03  0.00000000000E+00 0. -1.
<mgrwt>
<rscale>  0 0.89807616E+02</rscale>
<asrwt>0</asrwt>
<pdfrwt beam="1">  1        1 0.16123455E+00 0.89807616E+02</pdfrwt>
<pdfrwt beam="2">  1       -1 0.29599306E-03 0.89807616E+02</pdfrwt>
<totfact> 0.13965590E+05</totfact>
</mgrwt>
</event>
<event>
 5    1  0.4067226E+001  0.9013631E+02  0.7546771E-02  0.1302522E+00
         -2   -1    0    0    0  501 -0.00000000000E+00  0.00000000000E+00  0.32825279860E+02  0.32825279860E+02  0.00000000000E+00 0. -1.
          2   -1    0    0  501    0  0.00000000000E+00 -0.00000000000E+00 -0.61877268425E+02  0.61877268425E+02  0.00000000000E+00 0.  1.
         23    2    1    2    0    0  0.00000000000E+00  0.00000000000E+00 -0.29051988564E+02  0.94702548285E+02  0.90136311286E+02 0.  0.
          2    1    3    3  502    0 -0.47393739445E+01  0.32057948640E+02  0.18381030775E+02  0.37256355548E+02  0.00000000000E+00 0. -1.
         -2    1    3    3    0  502  0.47393739445E+01 -0.32057948640E+02 -0.47433019339E+02  0.57446192737E+02  0.00000000000E+00 0.  1.
<mgrwt>
<rscale>  0 0.90136311E+02</rscale>
<asrwt>0</asrwt>
<pdfrwt beam="2">  1        2 0.95195798E-02 0.90136311E+02</pdfrwt>
<pdfrwt beam="1">  1       -2 0.50500430E-02 0.90136311E+02</pdfrwt>
<totfact> 0.11045925E+05</totfact>
</mgrwt>
</event>
<event>
 5    1  0.4067226E+001  0.8406072E+02  0.7546771E-02  0.1317907E+00
          2   -1    0    0  501    0  0.00000000000E+00  0.00000000000E+00  0.18744831805E+03  0.18744831805E+03  0.00000000000E+00 0. -1.
         -2   -1    0    0    0  501 -0.00000000000E+00 -0.00000000000E+00 -0.94242028254E+01  0.94242028254E+01  0.00000000000E+00 0.  1.
         23    2    1    2    0    0  0.00000000000E+00  0.00000000000E+00  0.17802411522E+03  0.19687252087E+03  0.84060715404E+02 0.  0.
          2    1    3    3  502    0 -0.36398049303E+02  0.42396434343E+01  0.13722361714E+03  0.14203208676E+03  0.00000000000E+00 0. -1.
         -2    1    3    3    0  502  0.36398049303E+02 -0.42396434343E+01  0.40800498081E+02  0.54840434108E+02  0.00000000000E+00 0.  1.
<mgrwt>
<rscale>  0 0.84060715E+02</rscale>
<asrwt>0</asrwt>
<pdfrwt beam="1">  1        2 0.28838200E-01 0.84060715E+02</pdfrwt>
<pdfrwt beam="2">  1       -2 0.14498775E-02 0.84060715E+02</pdfrwt>
<totfact> 0.18791458E+05</totfact>
</mgrwt>
</event>
<event>
 5    1  0.4067226E+001  0.9135159E+02  0.7546771E-02  0.1299611E+00
          1   -1    0    0  501    0  0.00000000000E+00  0.00000000000E+00  0.13092315508E+04  0.13092315508E+04  0.00000000000E+00 0. -1.
         -1   -1    0    0    0  501 -0.00000000000E+00 -0.00000000000E+00 -0.15935135737E+01  0.15935135737E+01  0.00000000000E+00 0.  1.
         23    2    1    2    0    0  0.00000000000E+00  0.00000000000E+00  0.13076380372E+04  0.13108250643E+04  0.91351589965E+02 0.  0.
          2    1    3    3  502    0 -0.14379658094E+02 -0.13958250546E+02  0.12427795152E+04  0.12429410809E+04  0.00000000000E+00 0. -1.
         -2    1    3    3    0  502  0.14379658094E+02  0.13958250546E+02  0.64858522007E+02  0.67883983400E+02  0.00000000000E+00 0.  1.
<mgrwt>
<rscale>  0 0.91351590E+02</rscale>
<asrwt>0</asrwt>
<pdfrwt beam="1">  1        1 0.20141938E+00 0.91351590E+02</pdfrwt>
<pdfrwt beam="2">  1       -1 0.24515698E-03 0.91351590E+02</pdfrwt>
<totfact> 0.12094909E+05</totfact>
</mgrwt>
</event>
<event>
 5    1  0.4067226E+001  0.9182604E+02  0.7546771E-02  0.1298489E+00
         -2   -1    0    0    0  501 -0.00000000000E+00  0.00000000000E+00  0.69246668612E+01  0.69246668612E+01  0.00000000000E+00 0. -1.
          2   -1    0    0  501    0  0.00000000000E+00 -0.00000000000E+00 -0.30441978889E+03  0.30441978889E+03  0.00000000000E+00 0.  1.
         23    2    1    2    0    0  0.00000000000E+00  0.00000000000E+00 -0.29749512203E+03  0.31134445575E+03  0.91826044760E+02 0.  0.
          2    1    3    3  502    0 -0.93181866804E+01  0.30302661909E+02 -0.36144969203E+02  0.48078464207E+02  0.00000000000E+00 0. -1.
         -2    1    3    3    0  502  0.93181866804E+01 -0.30302661909E+02 -0.26135015283E+03  0.26326599155E+03  0.00000000000E+00 0.  1.
<mgrwt>
<rscale>  0 0.91826045E+02</rscale>
<asrwt>0</asrwt>
<pdfrwt beam="2">  1        2 0.46833812E-01 0.91826045E+02</pdfrwt>
<pdfrwt beam="1">  1       -2 0.10653334E-02 0.91826045E+02</pdfrwt>
<totfact> 0.17725075E+05</totfact>
</mgrwt>
</event>
<event>
 5    1  0.4067226E+001  0.9262281E+02  0.7546771E-02  0.1296622E+00
         -2   -1    0    0    0  501 -0.00000000000E+00  0.00000000000E+00  0.23490454907E+02  0.23490454907E+02  0.00000000000E+00 0.  1.
          2   -1    0    0  501    0  0.00000000000E+00 -0.00000000000E+00 -0.91302883835E+02  0.91302883835E+02  0.00000000000E+00 0. -1.
         23    2    1    2    0    0  0.00000000000E+00  0.00000000000E+00 -0.67812428927E+02  0.11479333874E+03  0.92622810919E+02 0.  0.
          2    1    3    3  502    0 -0.22876724786E+02  0.22490176658E+02 -0.75301583218E+02  0.81850357471E+02  0.00000000000E+00 0. -1.
         -2    1    3    3    0  502  0.22876724786E+02 -0.22490176658E+02  0.74891542904E+01  0.32942981271E+02  0.00000000000E+00 0.  1.
<mgrwt>
<rscale>  0 0.92622811E+02</rscale>
<asrwt>0</asrwt>
<pdfrwt beam="2">  1        2 0.14046598E-01 0.92622811E+02</pdfrwt>
<pdfrwt beam="1">  1       -2 0.36139161E-02 0.92622811E+02</pdfrwt>
<totfact> 0.11427658E+05</totfact>
</mgrwt>
</event>
<event>
 5    1  0.4067226E+001  0.9233972E+02  0.7546771E-02  0.1297283E+00
          2   -1    0    0  501    0  0.00000000000E+00  0.00000000000E+00  0.38318865343E+03  0.38318865343E+03  0.00000000000E+00 0. -1.
         -2   -1    0    0    0  501 -0.00000000000E+00 -0.00000000000E+00 -0.55629410273E+01  0.55629410273E+01  0.00000000000E+00 0.  1.
         23    2    1    2    0    0  0.00000000000E+00  0.00000000000E+00  0.37762571240E+03  0.38875159445E+03  0.92339718027E+02 0.  0.
          2    1    3    3  502    0  0.38449848538E+02  0.12294242021E+02  0.28315070029E+03  0.28601373798E+03  0.00000000000E+00 0. -1.
         -2    1    3    3    0  502 -0.38449848538E+02 -0.12294242021E+02  0.94475012112E+02  0.10273785647E+03  0.00000000000E+00 0.  1.
<mgrwt>
<rscale>  0 0.92339718E+02</rscale>
<asrwt>0</asrwt>
<pdfrwt beam="1">  1        2 0.58952080E-01 0.92339718E+02</pdfrwt>
<pdfrwt beam="2">  1       -2 0.85583738E-03 0.92339718E+02</pdfrwt>
<totfact> 0.19005064E+05</totfact>
</mgrwt>
</event>
<event>
 5    1  0.4067226E+001  0.8938560E+02  0.7546771E-02  0.1304346E+00
          4   -1    0    0  501    0  0.00000000000E+00  0.00000000000E+00  0.12022620617E+03  0.12022620617E+03  0.00000000000E+00 0.  1.
         -4   -1    0    0    0  501 -0.00000000000E+00 -0.00000000000E+00 -0.16614066527E+02  0.16614066527E+02  0.00000000000E+00 0. -1.
         23    2    1    2    0    0  0.00000000000E+00  0.00000000000E+00  0.10361213964E+03  0.13684027270E+03  0.89385595878E+02 0.  0.
          2    1    3    3  502    0 -0.26763629496E+02  0.26483470907E+02  0.88667997348E+02  0.96331094922E+02  0.00000000000E+00 0.  1.
         -2    1    3    3    0  502  0.26763629496E+02 -0.26483470907E+02  0.14944142294E+02  0.40509177775E+02  0.00000000000E+00 0. -1.
<mgrwt>
<rscale>  0 0.89385596E+02</rscale>
<asrwt>0</asrwt>
<pdfrwt beam="1">  1        4 0.18496339E-01 0.89385596E+02</pdfrwt>
<pdfrwt beam="2">  1       -4 0.25560103E-02 0.89385596E+02</pdfrwt>
<totfact> 0.25684676E+04</totfact>
</mgrwt>
</event>
<event>
 5    1  0.4067226E+001  0.8896926E+02  0.7546771E-02  0.1305367E+00
          2   -1    0    0  501    0  0.00000000000E+00  0.00000000000E+00  0.12949495406E+01  0.12949495406E+01  0.00000000000E+00 0. -1.
         -2   -1    0    0    0  501 -0.00000000000E+00 -0.00000000000E+00 -0.15281540580E+04  0.15281540580E+04  0.00000000000E+00 0.  1.
         23    2    1    2    0    0  0.00000000000E+00  0.00000000000E+00 -0.15268591084E+04  0.15294490075E+04  0.88969262001E+02 0.  0.
          2    1    3    3  502    0 -0.10665580467E+02 -0.22561534086E+02 -0.13037422752E+03  0.13274116403E+03  0.00000000000E+00 0. -1.
         -2    1    3    3    0  502  0.10665580467E+02  0.22561534086E+02 -0.13964848809E+04  0.13967078435E+04  0.00000000000E+00 0.  1.
<mgrwt>
<rscale>  0 0.88969262E+02</rscale>
<asrwt>0</asrwt>
<pdfrwt beam="1">  1        2 0.19922256E-03 0.88969262E+02</pdfrwt>
<pdfrwt beam="2">  1       -2 0.23510115E+00 0.88969262E+02</pdfrwt>
<totfact> 0.10950670E+04</totfact>
</mgrwt>
</event>
<event>
 5    1  0.4067226E+001  0.7609500E+02  0.7546771E-02  0.1340513E+00
         -2   -1    0    0    0  501 -0.00000000000E+00  0.00000000000E+00  0.13094344287E+01  0.13094344287E+01  0.00000000000E+00 0.  1.
          2   -1    0    0  501    0  0.00000000000E+00 -0.00000000000E+00 -0.11055248695E+04  0.11055248695E+04  0.00000000000E+00 0. -1.
         23    2    1    2    0    0  0.00000000000E+00  0.00000000000E+00 -0.11042154350E+04  0.11068343039E+04  0.76095001829E+02 0.  0.
          2    1    3    3  502    0 -0.17929271343E+02 -0.27004440553E+02 -0.84189181461E+03  0.84251559398E+03  0.00000000000E+00 0. -1.
         -2    1    3    3    0  502  0.17929271343E+02  0.27004440553E+02 -0.26232362041E+03  0.26431870990E+03  0.00000000000E+00 0.  1.
<mgrwt>
<rscale>  0 0.76095002E+02</rscale>
<asrwt>0</asrwt>
<pdfrwt beam="2">  1        2 0.17008115E+00 0.76095002E+02</pdfrwt>
<pdfrwt beam="1">  1       -2 0.20145097E-03 0.76095002E+02</pdfrwt>
<totfact> 0.40092255E+05</totfact>
</mgrwt>
</event>
<event>
 5    1  0.4067226E+001  0.9251258E+02  0.7546771E-02  0.1296879E+00
          2   -1    0    0  501    0  0.00000000000E+00  0.00000000000E+00  0.17201917120E+03  0.17201917120E+03  0.00000000000E+00 0. -1.
         -2   -1    0    0    0  501 -0.00000000000E+00 -0.00000000000E+00 -0.12438406987E+02  0.12438406987E+02  0.00000000000E+00 0.  1.
         23    2    1    2    0    0  0.00000000000E+00  0.00000000000E+00  0.15958076421E+03  0.18445757819E+03  0.92512582085E+02 0.  0.
          2    1    3    3  502    0  0.24930605622E+02 -0.96175960181E+01  0.15507326658E+03  0.15735867074E+03  0.00000000000E+00 0. -1.
         -2    1    3    3    0  502 -0.24930605622E+02  0.96175960181E+01  0.45074976331E+01  0.27098907446E+02  0.00000000000E+00 0.  1.
<mgrwt>
<rscale>  0 0.92512582E+02</rscale>
<asrwt>0</asrwt>
<pdfrwt beam="1">  1        2 0.26464486E-01 0.92512582E+02</pdfrwt>
<pdfrwt beam="2">  1       -2 0.19136012E-02 0.92512582E+02</pdfrwt>
<totfact> 0.14092290E+05</totfact>
</mgrwt>
</event>
<event>
 5    1  0.4067226E+001  0.9298670E+02  0.7546771E-02  0.1295776E+00
         -2   -1    0    0    0  501 -0.00000000000E+00  0.00000000000E+00  0.63180272824E+01  0.63180272824E+01  0.00000000000E+00 0.  1.
          2   -1    0    0  501    0  0.00000000000E+00 -0.00000000000E+00 -0.34213714051E+03  0.34213714051E+03  0.00000000000E+00 0. -1.
         23    2    1    2    0    0  0.00000000000E+00  0.00000000000E+00 -0.33581911323E+03  0.34845516779E+03  0.92986704169E+02 0.  0.
          2    1    3    3  502    0 -0.37732128302E+02 -0.13454019031E+02 -0.25634322654E+03  0.25945437735E+03  0.00000000000E+00 0. -1.
         -2    1    3    3    0  502  0.37732128302E+02  0.13454019031E+02 -0.79475886690E+02  0.89000790443E+02  0.00000000000E+00 0.  1.
<mgrwt>
<rscale>  0 0.92986704E+02</rscale>
<asrwt>0</asrwt>
<pdfrwt beam="2">  1        2 0.52636482E-01 0.92986704E+02</pdfrwt>
<pdfrwt beam="1">  1       -2 0.97200422E-03 0.92986704E+02</pdfrwt>
<totfact> 0.17898923E+05</totfact>
</mgrwt>
</event>
<event>
 5    1  0.4067226E+001  0.8781130E+02  0.7546771E-02  0.1308240E+00
          2   -1    0    0  501    0  0.00000000000E+00  0.00000000000E+00  0.10693648855E+04  0.10693648855E+04  0.00000000000E+00 0. -1.
         -2   -1    0    0    0  501 -0.00000000000E+00 -0.00000000000E+00 -0.18026646650E+01  0.18026646650E+01  0.00000000000E+00 0.  1.
         23    2    1    2    0    0  0.00000000000E+00  0.00000000000E+00  0.10675622209E+04  0.10711675502E+04  0.87811304354E+02 0.  0.
          2    1    3    3  502    0 -0.25910494993E+02  0.31473149978E+02  0.73265558883E+03  0.73378888297E+03  0.00000000000E+00 0. -1.
         -2    1    3    3    0  502  0.25910494993E+02 -0.31473149978E+02  0.33490663204E+03  0.33737866724E+03  0.00000000000E+00 0.  1.
<mgrwt>
<rscale>  0 0.87811304E+02</rscale>
<asrwt>0</asrwt>
<pdfrwt beam="1">  1        2 0.16451717E+00 0.87811304E+02</pdfrwt>
<pdfrwt beam="2">  1       -2 0.27733388E-03 0.87811304E+02</pdfrwt>
<totfact> 0.27632944E+05</totfact>
</mgrwt>
</event>
<event>
 5    1  0.4067226E+001  0.9358500E+02  0.7546771E-02  0.1294395E+00
         -4   -1    0    0    0  501 -0.00000000000E+00  0.00000000000E+00  0.10936804448E+04  0.10936804448E+04  0.00000000000E+00 0.  1.
          4   -1    0    0  501    0  0.00000000000E+00 -0.00000000000E+00 -0.20019905663E+01  0.20019905663E+01  0.00000000000E+00 0. -1.
         23    2    1    2    0    0  0.00000000000E+00  0.00000000000E+00  0.10916784543E+04  0.10956824354E+04  0.93584997368E+02 0.  0.
          2    1    3    3  502    0  0.26949130357E+02 -0.32450218074E+02  0.30869582446E+03  0.31156441440E+03  0.00000000000E+00 0. -1.
         -2    1    3    3    0  502 -0.26949130357E+02  0.32450218074E+02  0.78298262982E+03  0.78411802101E+03  0.00000000000E+00 0.  1.
<mgrwt>
<rscale>  0 0.93584997E+02</rscale>
<asrwt>0</asrwt>
<pdfrwt beam="2">  1        4 0.30799942E-03 0.93584997E+02</pdfrwt>
<pdfrwt beam="1">  1       -4 0.16825805E+00 0.93584997E+02</pdfrwt>
<totfact> 0.59960079E+03</totfact>
</mgrwt>
</event>
<event>
 5    1  0.4067226E+001  0.8330172E+02  0.7546771E-02  0.1319934E+00
          2   -1    0    0  501    0  0.00000000000E+00  0.00000000000E+00  0.14937690561E+04  0.14937690561E+04  0.00000000000E+00 0. -1.
         -2   -1    0    0    0  501 -0.00000000000E+00 -0.00000000000E+00 -0.11613535709E+01  0.11613535709E+01  0.00000000000E+00 0.  1.
         23    2    1    2    0    0  0.00000000000E+00  0.00000000000E+00  0.14926077025E+04  0.14949304097E+04  0.83301717328E+02 0.  0.
          2    1    3    3  502    0 -0.34055259485E+01  0.32683792470E+02  0.12055826973E+04  0.12060304589E+04  0.00000000000E+00 0. -1.
         -2    1    3    3    0  502  0.34055259485E+01 -0.32683792470E+02  0.28702500526E+03  0.28889995075E+03  0.00000000000E+00 0.  1.
<mgrwt>
<rscale>  0 0.83301717E+02</rscale>
<asrwt>0</asrwt>
<pdfrwt beam="1">  1        2 0.22980909E+00 0.83301717E+02</pdfrwt>
<pdfrwt beam="2">  1       -2 0.17867097E-03 0.83301717E+02</pdfrwt>
<totfact> 0.29954413E+05</totfact>
</mgrwt>
</event>
<event>
 5    1  0.4067226E+001  0.9190446E+02  0.7546771E-02  0.1298304E+00
          1   -1    0    0  501    0  0.00000000000E+00  0.00000000000E+00  0.18952993990E+03  0.18952993990E+03  0.00000000000E+00 0. -1.
         -1   -1    0    0    0  501 -0.00000000000E+00 -0.00000000000E+00 -0.11141287680E+02  0.11141287680E+02  0.00000000000E+00 0.  1.
         23    2    1    2    0    0  0.00000000000E+00  0.00000000000E+00  0.17838865222E+03  0.20067122758E+03  0.91904463100E+02 0.  0.
          2    1    3    3  502    0  0.29374988127E+02 -0.33760027820E+02  0.66400445060E+02  0.80072770091E+02  0.00000000000E+00 0.  1.
         -2    1    3    3    0  502 -0.29374988127E+02  0.33760027820E+02  0.11198820716E+03  0.12059845749E+03  0.00000000000E+00 0. -1.
<mgrwt>
<rscale>  0 0.91904463E+02</rscale>
<asrwt>0</asrwt>
<pdfrwt beam="1">  1        1 0.29158450E-01 0.91904463E+02</pdfrwt>
<pdfrwt beam="2">  1       -1 0.17140444E-02 0.91904463E+02</pdfrwt>
<totfact> 0.11470430E+05</totfact>
</mgrwt>
</event>
<event>
 5    1  0.4067226E+001  0.9079094E+02  0.7546771E-02  0.1300948E+00
          1   -1    0    0  501    0  0.00000000000E+00  0.00000000000E+00  0.39337292976E+03  0.39337292976E+03  0.00000000000E+00 0. -1.
         -1   -1    0    0    0  501 -0.00000000000E+00 -0.00000000000E+00 -0.52386641496E+01  0.52386641496E+01  0.00000000000E+00 0.  1.
         23    2    1    2    0    0  0.00000000000E+00  0.00000000000E+00  0.38813426561E+03  0.39861159391E+03  0.90790939296E+02 0.  0.
          2    1    3    3  502    0 -0.25287947087E+01 -0.30903310112E+02  0.33963760516E+03  0.34105001425E+03  0.00000000000E+00 0. -1.
         -2    1    3    3    0  502  0.25287947087E+01  0.30903310112E+02  0.48496660454E+02  0.57561579667E+02  0.00000000000E+00 0.  1.
<mgrwt>
<rscale>  0 0.90790939E+02</rscale>
<asrwt>0</asrwt>
<pdfrwt beam="1">  1        1 0.60518889E-01 0.90790939E+02</pdfrwt>
<pdfrwt beam="2">  1       -1 0.80594864E-03 0.90790939E+02</pdfrwt>
<totfact> 0.13604355E+05</totfact>
</mgrwt>
</event>
<event>
 5    1  0.4067226E+001  0.8757450E+02  0.7546771E-02  0.1308834E+00
          2   -1    0    0  501    0  0.00000000000E+00  0.00000000000E+00  0.62099102276E+03  0.62099102276E+03  0.00000000000E+00 0. -1.
         -2   -1    0    0    0  501 -0.00000000000E+00 -0.00000000000E+00 -0.30875217440E+01  0.30875217440E+01  0.00000000000E+00 0.  1.
         23    2    1    2    0    0  0.00000000000E+00  0.00000000000E+00  0.61790350101E+03  0.62407854450E+03  0.87574500526E+02 0.  0.
          2    1    3    3  502    0 -0.25039894929E+01  0.38575534638E+02  0.16238946000E+03  0.16692716542E+03  0.00000000000E+00 0.  1.
         -2    1    3    3    0  502  0.25039894929E+01 -0.38575534638E+02  0.45551404101E+03  0.45715137908E+03  0.00000000000E+00 0. -1.
<mgrwt>
<rscale>  0 0.87574501E+02</rscale>
<asrwt>0</asrwt>
<pdfrwt beam="1">  1        2 0.95536981E-01 0.87574501E+02</pdfrwt>
<pdfrwt beam="2">  1       -2 0.47500384E-03 0.87574501E+02</pdfrwt>
<totfact> 0.25581454E+05</totfact>
</mgrwt>
</event>
<event>
 5    1  0.4067226E+001  0.9305163E+02  0.7546771E-02  0.1295626E+00
          3   -1    0    0  501    0  0.00000000000E+00  0.00000000000E+00  0.43468680071E+02  0.43468680071E+02  0.00000000000E+00 0. -1.
         -3   -1    0    0    0  501 -0.00000000000E+00 -0.00000000000E+00 -0.49797961717E+02  0.49797961717E+02  0.00000000000E+00 0.  1.
         23    2    1    2    0    0  0.00000000000E+00  0.00000000000E+00 -0.63292816463E+01  0.93266641788E+02  0.93051634399E+02 0.  0.
          2    1    3    3  502    0  0.43377279983E+02  0.15123102990E+02  0.42249790259E+01  0.46131844864E+02  0.00000000000E+00 0. -1.
         -2    1    3    3    0  502 -0.43377279983E+02 -0.15123102990E+02 -0.10554260672E+02  0.47134796924E+02  0.00000000000E+00 0.  1.
<mgrwt>
<rscale>  0 0.93051634E+02</rscale>
<asrwt>0</asrwt>
<pdfrwt beam="1">  1        3 0.66874893E-02 0.93051634E+02</pdfrwt>
<pdfrwt beam="2">  1       -3 0.76612249E-02 0.93051634E+02</pdfrwt>
<totfact> 0.33276071E+04</totfact>
</mgrwt>
</event>
<event>
 5    1  0.4067226E+001  0.9124105E+02  0.7546771E-02  0.1299874E+00
          2   -1    0    0  501    0  0.00000000000E+00  0.00000000000E+00  0.26908826051E+03  0.26908826051E+03  0.00000000000E+00 0. -1.
         -2   -1    0    0    0  501 -0.00000000000E+00 -0.00000000000E+00 -0.77343859269E+01  0.77343859269E+01  0.00000000000E+00 0.  1.
         23    2    1    2    0    0  0.00000000000E+00  0.00000000000E+00  0.26135387458E+03  0.27682264644E+03  0.91241053374E+02 0.  0.
          2    1    3    3  502    0 -0.44408378533E+02  0.40698966421E+01  0.10148700311E+03  0.11085251437E+03  0.00000000000E+00 0. -1.
         -2    1    3    3    0  502  0.44408378533E+02 -0.40698966421E+01  0.15986687148E+03  0.16597013207E+03  0.00000000000E+00 0.  1.
<mgrwt>
<rscale>  0 0.91241053E+02</rscale>
<asrwt>0</asrwt>
<pdfrwt beam="1">  1        2 0.41398187E-01 0.91241053E+02</pdfrwt>
<pdfrwt beam="2">  1       -2 0.11899057E-02 0.91241053E+02</pdfrwt>
<totfact> 0.17219392E+05</totfact>
</mgrwt>
</event>
<event>
 5    1  0.4067226E+001  0.9072789E+02  0.7546771E-02  0.1301099E+00
         -1   -1    0    0    0  501 -0.00000000000E+00  0.00000000000E+00  0.58873152880E+03  0.58873152880E+03  0.00000000000E+00 0.  1.
          1   -1    0    0  501    0  0.00000000000E+00 -0.00000000000E+00 -0.34954598898E+01  0.34954598898E+01  0.00000000000E+00 0. -1.
         23    2    1    2    0    0  0.00000000000E+00  0.00000000000E+00  0.58523606891E+03  0.59222698869E+03  0.90727888651E+02 0.  0.
          2    1    3    3  502    0  0.34763277421E+01  0.44128408051E+02  0.22783891119E+03  0.23209905365E+03  0.00000000000E+00 0. -1.
         -2    1    3    3    0  502 -0.34763277421E+01 -0.44128408051E+02  0.35739715772E+03  0.36012793504E+03  0.00000000000E+00 0.  1.
<mgrwt>
<rscale>  0 0.90727889E+02</rscale>
<asrwt>0</asrwt>
<pdfrwt beam="2">  1        1 0.53776353E-03 0.90727889E+02</pdfrwt>
<pdfrwt beam="1">  1       -1 0.90574003E-01 0.90727889E+02</pdfrwt>
<totfact> 0.42741665E+04</totfact>
</mgrwt>
</event>
<event>
 5    1  0.4067226E+001  0.9113858E+02  0.7546771E-02  0.1300118E+00
          3   -1    0    0  501    0  0.00000000000E+00  0.00000000000E+00  0.50369643976E+02  0.50369643976E+02  0.00000000000E+00 0. -1.
         -3   -1    0    0    0  501 -0.00000000000E+00 -0.00000000000E+00 -0.41226424746E+02  0.41226424746E+02  0.00000000000E+00 0.  1.
         23    2    1    2    0    0  0.00000000000E+00  0.00000000000E+00  0.91432192297E+01  0.91596068722E+02  0.91138583198E+02 0.  0.
          2    1    3    3  502    0  0.41754467327E+02 -0.10882149175E+02 -0.10154710923E+02  0.44328037024E+02  0.00000000000E+00 0. -1.
         -2    1    3    3    0  502 -0.41754467327E+02  0.10882149175E+02  0.19297930153E+02  0.47268031698E+02  0.00000000000E+00 0.  1.
<mgrwt>
<rscale>  0 0.91138583E+02</rscale>
<asrwt>0</asrwt>
<pdfrwt beam="1">  1        3 0.77491760E-02 0.91138583E+02</pdfrwt>
<pdfrwt beam="2">  1       -3 0.63425269E-02 0.91138583E+02</pdfrwt>
<totfact> 0.35347011E+04</totfact>
</mgrwt>
</event>
<event>
 5    1  0.4067226E+001  0.9221578E+02  0.7546771E-02  0.1297573E+00
          2   -1    0    0  501    0  0.00000000000E+00  0.00000000000E+00  0.61461668707E+03  0.61461668707E+03  0.00000000000E+00 0. -1.
         -2   -1    0    0    0  501 -0.00000000000E+00 -0.00000000000E+00 -0.34589645560E+01  0.34589645560E+01  0.00000000000E+00 0.  1.
         23    2    1    2    0    0  0.00000000000E+00  0.00000000000E+00  0.61115772252E+03  0.61807565163E+03  0.92215776006E+02 0.  0.
          2    1    3    3  502    0 -0.28001601797E+02  0.10610239574E+02  0.54057467782E+03  0.54140340707E+03  0.00000000000E+00 0. -1.
         -2    1    3    3    0  502  0.28001601797E+02 -0.10610239574E+02  0.70583044701E+02  0.76672244563E+02  0.00000000000E+00 0.  1.
<mgrwt>
<rscale>  0 0.92215776E+02</rscale>
<asrwt>0</asrwt>
<pdfrwt beam="1">  1        2 0.94556326E-01 0.92215776E+02</pdfrwt>
<pdfrwt beam="2">  1       -2 0.53214888E-03 0.92215776E+02</pdfrwt>
<totfact> 0.22262246E+05</totfact>
</mgrwt>
</event>
<event>
 5    1  0.4067226E+001  0.9195336E+02  0.7546771E-02  0.1298189E+00
         -1   -1    0    0    0  501 -0.00000000000E+00  0.00000000000E+00  0.19376784388E+01  0.19376784388E+01  0.00000000000E+00 0.  1.
          1   -1    0    0  501    0  0.00000000000E+00 -0.00000000000E+00 -0.10909214703E+04  0.10909214703E+04  0.00000000000E+00 0. -1.
         23    2    1    2    0    0  0.00000000000E+00  0.00000000000E+00 -0.10889837919E+04  0.10928591487E+04  0.91953357991E+02 0.  0.
          2    1    3    3  502    0 -0.39665719781E+01 -0.20309484627E+02 -0.10324469329E+04  0.10326542878E+04  0.00000000000E+00 0. -1.
         -2    1    3    3    0  502  0.39665719781E+01  0.20309484627E+02 -0.56536858925E+02  0.60204860902E+02  0.00000000000E+00 0.  1.
<mgrwt>
<rscale>  0 0.91953358E+02</rscale>
<asrwt>0</asrwt>
<pdfrwt beam="2">  1        1 0.16783472E+00 0.91953358E+02</pdfrwt>
<pdfrwt beam="1">  1       -1 0.29810322E-03 0.91953358E+02</pdfrwt>
<totfact> 0.12945963E+05</totfact>
</mgrwt>
</event>
<event>
 5    1  0.4067226E+001  0.9096750E+02  0.7546771E-02  0.1300526E+00
          3   -1    0    0  501    0  0.00000000000E+00  0.00000000000E+00  0.17065634650E+03  0.17065634650E+03  0.00000000000E+00 0. -1.
         -3   -1    0    0    0  501 -0.00000000000E+00 -0.00000000000E+00 -0.12122440366E+02  0.12122440366E+02  0.00000000000E+00 0.  1.
         23    2    1    2    0    0  0.00000000000E+00  0.00000000000E+00  0.15853390614E+03  0.18277878687E+03  0.90967497132E+02 0.  0.
          2    1    3    3  502    0 -0.32590825770E+02 -0.30319720269E+02  0.60490808954E+02  0.75103830325E+02  0.00000000000E+00 0. -1.
         -2    1    3    3    0  502  0.32590825770E+02  0.30319720269E+02  0.98043097184E+02  0.10767495655E+03  0.00000000000E+00 0.  1.
<mgrwt>
<rscale>  0 0.90967497E+02</rscale>
<asrwt>0</asrwt>
<pdfrwt beam="1">  1        3 0.26254821E-01 0.90967497E+02</pdfrwt>
<pdfrwt beam="2">  1       -3 0.18649909E-02 0.90967497E+02</pdfrwt>
<totfact> 0.29596953E+04</totfact>
</mgrwt>
</event>
<event>
 5    1  0.4067226E+001  0.9110615E+02  0.7546771E-02  0.1300195E+00
         -1   -1    0    0    0  501 -0.00000000000E+00  0.00000000000E+00  0.11862072393E+01  0.11862072393E+01  0.00000000000E+00 0. -1.
          1   -1    0    0  501    0  0.00000000000E+00 -0.00000000000E+00 -0.17493422890E+04  0.17493422890E+04  0.00000000000E+00 0.  1.
         23    2    1    2    0    0  0.00000000000E+00  0.00000000000E+00 -0.17481560817E+04  0.17505284962E+04  0.91106146603E+02 0.  0.
          2    1    3    3  502    0 -0.30179895576E+02 -0.27274193272E+02 -0.12680268834E+04  0.12686791891E+04  0.00000000000E+00 0. -1.
         -2    1    3    3    0  502  0.30179895576E+02  0.27274193272E+02 -0.48012919833E+03  0.48184930716E+03  0.00000000000E+00 0.  1.
<mgrwt>
<rscale>  0 0.91106147E+02</rscale>
<asrwt>0</asrwt>
<pdfrwt beam="2">  1        1 0.26912762E+00 0.91106147E+02</pdfrwt>
<pdfrwt beam="1">  1       -1 0.18249475E-03 0.91106147E+02</pdfrwt>
<totfact> 0.95323384E+04</totfact>
</mgrwt>
</event>
<event>
 5    1  0.4067226E+001  0.9168999E+02  0.7546771E-02  0.1298810E+00
         -2   -1    0    0    0  501 -0.00000000000E+00  0.00000000000E+00  0.24280547013E+02  0.24280547013E+02  0.00000000000E+00 0. -1.
          2   -1    0    0  501    0  0.00000000000E+00 -0.00000000000E+00 -0.86561624276E+02  0.86561624276E+02  0.00000000000E+00 0.  1.
         23    2    1    2    0    0  0.00000000000E+00  0.00000000000E+00 -0.62281077263E+02  0.11084217129E+03  0.91689990462E+02 0.  0.
          2    1    3    3  502    0 -0.24201940777E+02 -0.33932962776E+02 -0.54222978544E+02  0.68390871484E+02  0.00000000000E+00 0.  1.
         -2    1    3    3    0  502  0.24201940777E+02  0.33932962776E+02 -0.80580987187E+01  0.42451299805E+02  0.00000000000E+00 0. -1.
<mgrwt>
<rscale>  0 0.91689990E+02</rscale>
<asrwt>0</asrwt>
<pdfrwt beam="2">  1        2 0.13317173E-01 0.91689990E+02</pdfrwt>
<pdfrwt beam="1">  1       -2 0.37354687E-02 0.91689990E+02</pdfrwt>
<totfact> 0.11568961E+05</totfact>
</mgrwt>
</event>
<event>
 5    1  0.4067226E+001  0.9080271E+02  0.7546771E-02  0.1300919E+00
         -1   -1    0    0    0  501 -0.00000000000E+00  0.00000000000E+00  0.60518940248E+01  0.60518940248E+01  0.00000000000E+00 0.  1.
          1   -1    0    0  501    0  0.00000000000E+00 -0.00000000000E+00 -0.34060129919E+03  0.34060129919E+03  0.00000000000E+00 0. -1.
         23    2    1    2    0    0  0.00000000000E+00  0.00000000000E+00 -0.33454940516E+03  0.34665319321E+03  0.90802708493E+02 0.  0.
          2    1    3    3  502    0 -0.24991022195E+02  0.57165802258E+01 -0.31032477228E+03  0.31138191143E+03  0.00000000000E+00 0. -1.
         -2    1    3    3    0  502  0.24991022195E+02 -0.57165802258E+01 -0.24224632888E+02  0.35271281780E+02  0.00000000000E+00 0.  1.
<mgrwt>
<rscale>  0 0.90802708E+02</rscale>
<asrwt>0</asrwt>
<pdfrwt beam="2">  1        1 0.52400199E-01 0.90802708E+02</pdfrwt>
<pdfrwt beam="1">  1       -1 0.93106064E-03 0.90802708E+02</pdfrwt>
<totfact> 0.13263074E+05</totfact>
</mgrwt>
</event>
<event>
 5    1  0.4067226E+001  0.8967367E+02  0.7546771E-02  0.1303644E+00
          2   -1    0    0  501    0  0.00000000000E+00  0.00000000000E+00  0.16886621268E+04  0.16886621268E+04  0.00000000000E+00 0. -1.
         -2   -1    0    0    0  501 -0.00000000000E+00 -0.00000000000E+00 -0.11904938707E+01  0.11904938707E+01  0.00000000000E+00 0.  1.
         23    2    1    2    0    0  0.00000000000E+00  0.00000000000E+00  0.16874716329E+04  0.16898526207E+04  0.89673673096E+02 0.  0.
          2    1    3    3  502    0 -0.12515740421E+02  0.35640100732E+02  0.12989306966E+04  0.12994798248E+04  0.00000000000E+00 0. -1.
         -2    1    3    3    0  502  0.12515740421E+02 -0.35640100732E+02  0.38854093634E+03  0.39037279587E+03  0.00000000000E+00 0.  1.
<mgrwt>
<rscale>  0 0.89673673E+02</rscale>
<asrwt>0</asrwt>
<pdfrwt beam="1">  1        2 0.25979226E+00 0.89673673E+02</pdfrwt>
<pdfrwt beam="2">  1       -2 0.18315425E-03 0.89673673E+02</pdfrwt>
<totfact> 0.23314831E+05</totfact>
</mgrwt>
</event>
<event>
 5    1  0.4067226E+001  0.1112261E+03  0.7546771E-02  0.1258316E+00
         -2   -1    0    0    0  501 -0.00000000000E+00  0.00000000000E+00  0.75215158107E+01  0.75215158107E+01  0.00000000000E+00 0.  1.
          2   -1    0    0  501    0  0.00000000000E+00 -0.00000000000E+00 -0.41119548967E+03  0.41119548967E+03  0.00000000000E+00 0. -1.
         23    2    1    2    0    0  0.00000000000E+00  0.00000000000E+00 -0.40367397386E+03  0.41871700548E+03  0.11122613680E+03 0.  0.
          2    1    3    3  502    0  0.79217562539E+01  0.22932742464E+02 -0.13453086717E+02  0.27742574525E+02  0.00000000000E+00 0.  1.
         -2    1    3    3    0  502 -0.79217562539E+01 -0.22932742464E+02 -0.39022088715E+03  0.39097443096E+03  0.00000000000E+00 0. -1.
<mgrwt>
<rscale>  0 0.11122614E+03</rscale>
<asrwt>0</asrwt>
<pdfrwt beam="2">  1        2 0.63260844E-01 0.11122614E+03</pdfrwt>
<pdfrwt beam="1">  1       -2 0.11571563E-02 0.11122614E+03</pdfrwt>
<totfact> 0.11828368E+05</totfact>
</mgrwt>
</event>
<event>
 5    1  0.4067226E+001  0.9068327E+02  0.7546771E-02  0.1301205E+00
         -1   -1    0    0    0  501 -0.00000000000E+00  0.00000000000E+00  0.76277832979E+01  0.76277832979E+01  0.00000000000E+00 0. -1.
          1   -1    0    0  501    0  0.00000000000E+00 -0.00000000000E+00 -0.26952307908E+03  0.26952307908E+03  0.00000000000E+00 0.  1.
         23    2    1    2    0    0  0.00000000000E+00  0.00000000000E+00 -0.26189529578E+03  0.27715086238E+03  0.90683265071E+02 0.  0.
          2    1    3    3  502    0  0.17816809135E+02  0.40626556701E+02 -0.15960281199E+03  0.16565329273E+03  0.00000000000E+00 0.  1.
         -2    1    3    3    0  502 -0.17816809135E+02 -0.40626556701E+02 -0.10229248380E+03  0.11149756965E+03  0.00000000000E+00 0. -1.
<mgrwt>
<rscale>  0 0.90683265E+02</rscale>
<asrwt>0</asrwt>
<pdfrwt beam="2">  1        1 0.41465086E-01 0.90683265E+02</pdfrwt>
<pdfrwt beam="1">  1       -1 0.11735052E-02 0.90683265E+02</pdfrwt>
<totfact> 0.12732905E+05</totfact>
</mgrwt>
</event>
<event>
 5    1  0.4067226E+001  0.9339049E+02  0.7546771E-02  0.1294843E+00
         -1   -1    0    0    0  501 -0.00000000000E+00  0.00000000000E+00  0.10059001698E+01  0.10059001698E+01  0.00000000000E+00 0.  1.
          1   -1    0    0  501    0  0.00000000000E+00 -0.00000000000E+00 -0.21676562043E+04  0.21676562043E+04  0.00000000000E+00 0. -1.
         23    2    1    2    0    0  0.00000000000E+00  0.00000000000E+00 -0.21666503042E+04  0.21686621045E+04  0.93390486537E+02 0.  0.
          2    1    3    3  502    0 -0.24439288890E+02  0.28522231795E+02 -0.43910298762E+03  0.44070651264E+03  0.00000000000E+00 0.  1.
         -2    1    3    3    0  502  0.24439288890E+02 -0.28522231795E+02 -0.17275473165E+04  0.17279555919E+04  0.00000000000E+00 0. -1.
<mgrwt>
<rscale>  0 0.93390487E+02</rscale>
<asrwt>0</asrwt>
<pdfrwt beam="2">  1        1 0.33348361E+00 0.93390487E+02</pdfrwt>
<pdfrwt beam="1">  1       -1 0.15475478E-03 0.93390487E+02</pdfrwt>
<totfact> 0.65597965E+04</totfact>
</mgrwt>
</event>
<event>
 5    1  0.4067226E+001  0.9179282E+02  0.7546771E-02  0.1298567E+00
          2   -1    0    0  501    0  0.00000000000E+00  0.00000000000E+00  0.93596689714E+03  0.93596689714E+03  0.00000000000E+00 0. -1.
         -2   -1    0    0    0  501 -0.00000000000E+00 -0.00000000000E+00 -0.22505930335E+01  0.22505930335E+01  0.00000000000E+00 0.  1.
         23    2    1    2    0    0  0.00000000000E+00  0.00000000000E+00  0.93371630411E+03  0.93821749017E+03  0.91792822776E+02 0.  0.
          2    1    3    3  502    0  0.60372391146E+01  0.45348592953E+02  0.50446466465E+03  0.50653483693E+03  0.00000000000E+00 0.  1.
         -2    1    3    3    0  502 -0.60372391146E+01 -0.45348592953E+02  0.42925163945E+03  0.43168265325E+03  0.00000000000E+00 0. -1.
<mgrwt>
<rscale>  0 0.91792823E+02</rscale>
<asrwt>0</asrwt>
<pdfrwt beam="1">  1        2 0.14399460E+00 0.91792823E+02</pdfrwt>
<pdfrwt beam="2">  1       -2 0.34624583E-03 0.91792823E+02</pdfrwt>
<totfact> 0.24454289E+05</totfact>
</mgrwt>
</event>
<event>
 5    1  0.4067226E+001  0.9109042E+02  0.7546771E-02  0.1300232E+00
          1   -1    0    0  501    0  0.00000000000E+00  0.00000000000E+00  0.37149885321E+01  0.37149885321E+01  0.00000000000E+00 0. -1.
         -1   -1    0    0    0  501 -0.00000000000E+00 -0.00000000000E+00 -0.55837751429E+03  0.55837751429E+03  0.00000000000E+00 0.  1.
         23    2    1    2    0    0  0.00000000000E+00  0.00000000000E+00 -0.55466252576E+03  0.56209250282E+03  0.91090417985E+02 0.  0.
          2    1    3    3  502    0  0.31357337392E+02  0.14278388404E+02 -0.93529964103E+02  0.99674516146E+02  0.00000000000E+00 0. -1.
         -2    1    3    3    0  502 -0.31357337392E+02 -0.14278388404E+02 -0.46113256166E+03  0.46241798668E+03  0.00000000000E+00 0.  1.
<mgrwt>
<rscale>  0 0.91090418E+02</rscale>
<asrwt>0</asrwt>
<pdfrwt beam="1">  1        1 0.57153691E-03 0.91090418E+02</pdfrwt>
<pdfrwt beam="2">  1       -1 0.85904201E-01 0.91090418E+02</pdfrwt>
<totfact> 0.43895596E+04</totfact>
</mgrwt>
</event>
<event>
 5    1  0.4067226E+001  0.9153935E+02  0.7546771E-02  0.1299166E+00
         -2   -1    0    0    0  501 -0.00000000000E+00  0.00000000000E+00  0.18603680557E+01  0.18603680557E+01  0.00000000000E+00 0.  1.
          2   -1    0    0  501    0  0.00000000000E+00 -0.00000000000E+00 -0.11260477245E+04  0.11260477245E+04  0.00000000000E+00 0. -1.
         23    2    1    2    0    0  0.00000000000E+00  0.00000000000E+00 -0.11241873564E+04  0.11279080925E+04  0.91539351447E+02 0.  0.
          2    1    3    3  502    0  0.40914260986E+01 -0.32860921563E+02 -0.95140118733E+03  0.95197731022E+03  0.00000000000E+00 0. -1.
         -2    1    3    3    0  502 -0.40914260986E+01  0.32860921563E+02 -0.17278616907E+03  0.17593078228E+03  0.00000000000E+00 0.  1.
<mgrwt>
<rscale>  0 0.91539351E+02</rscale>
<asrwt>0</asrwt>
<pdfrwt beam="2">  1        2 0.17323823E+00 0.91539351E+02</pdfrwt>
<pdfrwt beam="1">  1       -2 0.28621028E-03 0.91539351E+02</pdfrwt>
<totfact> 0.24735322E+05</totfact>
</mgrwt>
</event>
<event>
 5    1  0.4067226E+001  0.9116335E+02  0.7546771E-02  0.1300059E+00
         -1   -1    0    0    0  501 -0.00000000000E+00  0.00000000000E+00  0.14128042641E+03  0.14128042641E+03  0.00000000000E+00 0.  1.
          1   -1    0    0  501    0  0.00000000000E+00 -0.00000000000E+00 -0.14706135779E+02  0.14706135779E+02  0.00000000000E+00 0. -1.
         23    2    1    2    0    0  0.00000000000E+00  0.00000000000E+00  0.12657429063E+03  0.15598656219E+03  0.91163350829E+02 0.  0.
          2    1    3    3  502    0  0.88695273344E+01  0.31540291659E+02  0.11751015711E+03  0.12199219457E+03  0.00000000000E+00 0.  1.
         -2    1    3    3    0  502 -0.88695273344E+01 -0.31540291659E+02  0.90641335236E+01  0.33994367616E+02  0.00000000000E+00 0. -1.
<mgrwt>
<rscale>  0 0.91163351E+02</rscale>
<asrwt>0</asrwt>
<pdfrwt beam="2">  1        1 0.22624825E-02 0.91163351E+02</pdfrwt>
<pdfrwt beam="1">  1       -1 0.21735449E-01 0.91163351E+02</pdfrwt>
<totfact> 0.75853829E+04</totfact>
</mgrwt>
</event>
<event>
 5    1  0.4067226E+001  0.9322436E+02  0.7546771E-02  0.1295226E+00
         -1   -1    0    0    0  501 -0.00000000000E+00  0.00000000000E+00  0.75664632990E+02  0.75664632990E+02  0.00000000000E+00 0.  1.
          1   -1    0    0  501    0  0.00000000000E+00 -0.00000000000E+00 -0.28714804095E+02  0.28714804095E+02  0.00000000000E+00 0. -1.
         23    2    1    2    0    0  0.00000000000E+00  0.00000000000E+00  0.46949828895E+02  0.10437943708E+03  0.93224355470E+02 0.  0.
          2    1    3    3  502    0  0.44646723720E+02  0.11804839839E+02  0.16392605180E+02  0.49004098677E+02  0.00000000000E+00 0. -1.
         -2    1    3    3    0  502 -0.44646723720E+02 -0.11804839839E+02  0.30557223715E+02  0.55375338407E+02  0.00000000000E+00 0.  1.
<mgrwt>
<rscale>  0 0.93224355E+02</rscale>
<asrwt>0</asrwt>
<pdfrwt beam="2">  1        1 0.44176622E-02 0.93224355E+02</pdfrwt>
<pdfrwt beam="1">  1       -1 0.11640713E-01 0.93224355E+02</pdfrwt>
<totfact> 0.80723962E+04</totfact>
</mgrwt>
</event>
<event>
 5    1  0.4067226E+001  0.9289490E+02  0.7546771E-02  0.1295989E+00
          1   -1    0    0  501    0  0.00000000000E+00  0.00000000000E+00  0.40110286884E+03  0.40110286884E+03  0.00000000000E+00 0. -1.
         -1   -1    0    0    0  501 -0.00000000000E+00 -0.00000000000E+00 -0.53785848753E+01  0.53785848753E+01  0.00000000000E+00 0.  1.
         23    2    1    2    0    0  0.00000000000E+00  0.00000000000E+00  0.39572428396E+03  0.40648145372E+03  0.92894904570E+02 0.  0.
          2    1    3    3  502    0 -0.23369579819E+02  0.30597740893E+02  0.31154707781E+03  0.31391709208E+03  0.00000000000E+00 0. -1.
         -2    1    3    3    0  502  0.23369579819E+02 -0.30597740893E+02  0.84177206153E+02  0.92564361633E+02  0.00000000000E+00 0.  1.
<mgrwt>
<rscale>  0 0.92894905E+02</rscale>
<asrwt>0</asrwt>
<pdfrwt beam="1">  1        1 0.61708110E-01 0.92894905E+02</pdfrwt>
<pdfrwt beam="2">  1       -1 0.82747491E-03 0.92894905E+02</pdfrwt>
<totfact> 0.12841709E+05</totfact>
</mgrwt>
</event>
<event>
 5    1  0.4067226E+001  0.9779115E+02  0.7546771E-02  0.1285011E+00
          1   -1    0    0  501    0  0.00000000000E+00  0.00000000000E+00  0.24212278237E+03  0.24212278237E+03  0.00000000000E+00 0. -1.
         -1   -1    0    0    0  501 -0.00000000000E+00 -0.00000000000E+00 -0.98742346400E+01  0.98742346400E+01  0.00000000000E+00 0.  1.
         23    2    1    2    0    0  0.00000000000E+00  0.00000000000E+00  0.23224854773E+03  0.25199701701E+03  0.97791148164E+02 0.  0.
          2    1    3    3  502    0  0.15019274757E+02 -0.41306956246E+02  0.60920224975E+02  0.75120683300E+02  0.00000000000E+00 0.  1.
         -2    1    3    3    0  502 -0.15019274757E+02  0.41306956246E+02  0.17132832276E+03  0.17687633371E+03  0.00000000000E+00 0. -1.
<mgrwt>
<rscale>  0 0.97791148E+02</rscale>
<asrwt>0</asrwt>
<pdfrwt beam="1">  1        1 0.37249654E-01 0.97791148E+02</pdfrwt>
<pdfrwt beam="2">  1       -1 0.15191132E-02 0.97791148E+02</pdfrwt>
<totfact> 0.10183661E+05</totfact>
</mgrwt>
</event>
<event>
 5    1  0.4067226E+001  0.9375572E+02  0.7546771E-02  0.1294003E+00
         -1   -1    0    0    0  501 -0.00000000000E+00  0.00000000000E+00  0.34173885624E+02  0.34173885624E+02  0.00000000000E+00 0.  1.
          1   -1    0    0  501    0  0.00000000000E+00 -0.00000000000E+00 -0.64304473566E+02  0.64304473566E+02  0.00000000000E+00 0. -1.
         23    2    1    2    0    0  0.00000000000E+00  0.00000000000E+00 -0.30130587943E+02  0.98478359190E+02  0.93755719287E+02 0.  0.
          2    1    3    3  502    0 -0.19853638551E+02 -0.34847503884E+02  0.10426911103E+02  0.41439545917E+02  0.00000000000E+00 0.  1.
         -2    1    3    3    0  502  0.19853638551E+02  0.34847503884E+02 -0.40557499046E+02  0.57038813273E+02  0.00000000000E+00 0. -1.
<mgrwt>
<rscale>  0 0.93755719E+02</rscale>
<asrwt>0</asrwt>
<pdfrwt beam="2">  1        1 0.98929959E-02 0.93755719E+02</pdfrwt>
<pdfrwt beam="1">  1       -1 0.52575209E-02 0.93755719E+02</pdfrwt>
<totfact> 0.90138001E+04</totfact>
</mgrwt>
</event>
<event>
 5    1  0.4067226E+001  0.8925426E+02  0.7546771E-02  0.1304668E+00
          2   -1    0    0  501    0  0.00000000000E+00  0.00000000000E+00  0.29852623486E+03  0.29852623486E+03  0.00000000000E+00 0.  1.
         -2   -1    0    0    0  501 -0.00000000000E+00 -0.00000000000E+00 -0.66713760802E+01  0.66713760802E+01  0.00000000000E+00 0. -1.
         23    2    1    2    0    0  0.00000000000E+00  0.00000000000E+00  0.29185485878E+03  0.30519761094E+03  0.89254261132E+02 0.  0.
          2    1    3    3  502    0  0.41503172183E+02 -0.13768127051E+02  0.17641708764E+03  0.18175550455E+03  0.00000000000E+00 0. -1.
         -2    1    3    3    0  502 -0.41503172183E+02  0.13768127051E+02  0.11543777114E+03  0.12344210639E+03  0.00000000000E+00 0.  1.
<mgrwt>
<rscale>  0 0.89254261E+02</rscale>
<asrwt>0</asrwt>
<pdfrwt beam="1">  1        2 0.45927103E-01 0.89254261E+02</pdfrwt>
<pdfrwt beam="2">  1       -2 0.10263658E-02 0.89254261E+02</pdfrwt>
<totfact> 0.18980626E+05</totfact>
</mgrwt>
</event>
<event>
 5    1  0.4067226E+001  0.9558167E+02  0.7546771E-02  0.1289871E+00
          1   -1    0    0  501    0  0.00000000000E+00  0.00000000000E+00  0.34208343250E+02  0.34208343250E+02  0.00000000000E+00 0. -1.
         -1   -1    0    0    0  501 -0.00000000000E+00 -0.00000000000E+00 -0.66766280634E+02  0.66766280634E+02  0.00000000000E+00 0.  1.
         23    2    1    2    0    0  0.00000000000E+00  0.00000000000E+00 -0.32557937384E+02  0.10097462388E+03  0.95581668650E+02 0.  0.
          2    1    3    3  502    0 -0.33261491097E+02 -0.30515766630E+02  0.30467873890E+00  0.45140133276E+02  0.00000000000E+00 0. -1.
         -2    1    3    3    0  502  0.33261491097E+02  0.30515766630E+02 -0.32862616123E+02  0.55834490608E+02  0.00000000000E+00 0.  1.
<mgrwt>
<rscale>  0 0.95581669E+02</rscale>
<asrwt>0</asrwt>
<pdfrwt beam="1">  1        1 0.52628221E-02 0.95581669E+02</pdfrwt>
<pdfrwt beam="2">  1       -1 0.10271735E-01 0.95581669E+02</pdfrwt>
<totfact> 0.77322161E+04</totfact>
</mgrwt>
</event>
<event>
 5    1  0.4067226E+001  0.1044303E+03  0.7546771E-02  0.1271246E+00
         -2   -1    0    0    0  501 -0.00000000000E+00  0.00000000000E+00  0.47975088495E+03  0.47975088495E+03  0.00000000000E+00 0.  1.
          2   -1    0    0  501    0  0.00000000000E+00 -0.00000000000E+00 -0.56829992862E+01  0.56829992862E+01  0.00000000000E+00 0. -1.
         23    2    1    2    0    0  0.00000000000E+00  0.00000000000E+00  0.47406788566E+03  0.48543388424E+03  0.10443033921E+03 0.  0.
          2    1    3    3  502    0  0.15035839681E+02  0.19070027353E+02  0.22165173811E+02  0.32879132413E+02  0.00000000000E+00 0. -1.
         -2    1    3    3    0  502 -0.15035839681E+02 -0.19070027353E+02  0.45190271185E+03  0.45255475182E+03  0.00000000000E+00 0.  1.
<mgrwt>
<rscale>  0 0.10443034E+03</rscale>
<asrwt>0</asrwt>
<pdfrwt beam="2">  1        2 0.87430796E-03 0.10443034E+03</pdfrwt>
<pdfrwt beam="1">  1       -2 0.73807797E-01 0.10443034E+03</pdfrwt>
<totfact> 0.26331314E+04</totfact>
</mgrwt>
</event>
<event>
 5    1  0.4067226E+001  0.9208082E+02  0.7546771E-02  0.1297890E+00
         -2   -1    0    0    0  501 -0.00000000000E+00  0.00000000000E+00  0.21186518447E+01  0.21186518447E+01  0.00000000000E+00 0.  1.
          2   -1    0    0  501    0  0.00000000000E+00 -0.00000000000E+00 -0.10005037688E+04  0.10005037688E+04  0.00000000000E+00 0. -1.
         23    2    1    2    0    0  0.00000000000E+00  0.00000000000E+00 -0.99838511695E+03  0.10026224206E+04  0.92080815708E+02 0.  0.
          2    1    3    3  502    0  0.97392737736E+01 -0.24746949930E+02 -0.90841122598E+03  0.90880042940E+03  0.00000000000E+00 0. -1.
         -2    1    3    3    0  502 -0.97392737736E+01  0.24746949930E+02 -0.89973890966E+02  0.93821991239E+02  0.00000000000E+00 0.  1.
<mgrwt>
<rscale>  0 0.92080816E+02</rscale>
<asrwt>0</asrwt>
<pdfrwt beam="2">  1        2 0.15392375E+00 0.92080816E+02</pdfrwt>
<pdfrwt beam="1">  1       -2 0.32594624E-03 0.92080816E+02</pdfrwt>
<totfact> 0.24360511E+05</totfact>
</mgrwt>
</event>
<event>
 5    1  0.4067226E+001  0.8420915E+02  0.7546771E-02  0.1317514E+00
         -1   -1    0    0    0  501 -0.00000000000E+00  0.00000000000E+00  0.33836728671E+01  0.33836728671E+01  0.00000000000E+00 0.  1.
          1   -1    0    0  501    0  0.00000000000E+00 -0.00000000000E+00 -0.52392625717E+03  0.52392625717E+03  0.00000000000E+00 0. -1.
         23    2    1    2    0    0  0.00000000000E+00  0.00000000000E+00 -0.52054258430E+03  0.52730993003E+03  0.84209145839E+02 0.  0.
          2    1    3    3  502    0  0.21760046373E+01  0.39925241751E+02 -0.34287987191E+03  0.34520336975E+03  0.00000000000E+00 0. -1.
         -2    1    3    3    0  502 -0.21760046373E+01 -0.39925241751E+02 -0.17766271239E+03  0.18210656028E+03  0.00000000000E+00 0.  1.
<mgrwt>
<rscale>  0 0.84209146E+02</rscale>
<asrwt>0</asrwt>
<pdfrwt beam="2">  1        1 0.80604033E-01 0.84209146E+02</pdfrwt>
<pdfrwt beam="1">  1       -1 0.52056510E-03 0.84209146E+02</pdfrwt>
<totfact> 0.17265835E+05</totfact>
</mgrwt>
</event>
<event>
 5    1  0.4067226E+001  0.9595956E+02  0.7546771E-02  0.1289029E+00
         -2   -1    0    0    0  501 -0.00000000000E+00  0.00000000000E+00  0.13713950615E+01  0.13713950615E+01  0.00000000000E+00 0.  1.
          2   -1    0    0  501    0  0.00000000000E+00 -0.00000000000E+00 -0.16786257796E+04  0.16786257796E+04  0.00000000000E+00 0. -1.
         23    2    1    2    0    0  0.00000000000E+00  0.00000000000E+00 -0.16772543845E+04  0.16799971746E+04  0.95959556151E+02 0.  0.
          2    1    3    3  502    0 -0.75930366891E+01  0.32898135415E+02 -0.14354499253E+04  0.14358469381E+04  0.00000000000E+00 0. -1.
         -2    1    3    3    0  502  0.75930366891E+01 -0.32898135415E+02 -0.24180445918E+03  0.24415023653E+03  0.00000000000E+00 0.  1.
<mgrwt>
<rscale>  0 0.95959556E+02</rscale>
<asrwt>0</asrwt>
<pdfrwt beam="2">  1        2 0.25825023E+00 0.95959556E+02</pdfrwt>
<pdfrwt beam="1">  1       -2 0.21098376E-03 0.95959556E+02</pdfrwt>
<totfact> 0.19560467E+05</totfact>
</mgrwt>
</event>
<event>
 5    1  0.4067226E+001  0.8775965E+02  0.7546771E-02  0.1308370E+00
         -1   -1    0    0    0  501 -0.00000000000E+00  0.00000000000E+00  0.16316091936E+02  0.16316091936E+02  0.00000000000E+00 0.  1.
          1   -1    0    0  501    0  0.00000000000E+00 -0.00000000000E+00 -0.11800859235E+03  0.11800859235E+03  0.00000000000E+00 0. -1.
         23    2    1    2    0    0  0.00000000000E+00  0.00000000000E+00 -0.10169250041E+03  0.13432468429E+03  0.87759650000E+02 0.  0.
          2    1    3    3  502    0  0.38589847845E+02  0.76003134520E+01 -0.21068444290E+02  0.44618611208E+02  0.00000000000E+00 0. -1.
         -2    1    3    3    0  502 -0.38589847845E+02 -0.76003134520E+01 -0.80624056124E+02  0.89706073079E+02  0.00000000000E+00 0.  1.
<mgrwt>
<rscale>  0 0.87759650E+02</rscale>
<asrwt>0</asrwt>
<pdfrwt beam="2">  1        1 0.18155168E-01 0.87759650E+02</pdfrwt>
<pdfrwt beam="1">  1       -1 0.25101680E-02 0.87759650E+02</pdfrwt>
<totfact> 0.11911970E+05</totfact>
</mgrwt>
</event>
<event>
 5    1  0.4067226E+001  0.8764906E+02  0.7546771E-02  0.1308647E+00
         -1   -1    0    0    0  501 -0.00000000000E+00  0.00000000000E+00  0.77328241182E+03  0.77328241182E+03  0.00000000000E+00 0.  1.
          1   -1    0    0  501    0  0.00000000000E+00 -0.00000000000E+00 -0.24836845410E+01  0.24836845410E+01  0.00000000000E+00 0. -1.
         23    2    1    2    0    0  0.00000000000E+00  0.00000000000E+00  0.77079872727E+03  0.77576609636E+03  0.87649063247E+02 0.  0.
          2    1    3    3  502    0 -0.24620405773E+02  0.32531728584E+02  0.24375531439E+03  0.24714597111E+03  0.00000000000E+00 0. -1.
         -2    1    3    3    0  502  0.24620405773E+02 -0.32531728584E+02  0.52704341289E+03  0.52862012525E+03  0.00000000000E+00 0.  1.
<mgrwt>
<rscale>  0 0.87649063E+02</rscale>
<asrwt>0</asrwt>
<pdfrwt beam="2">  1        1 0.38210593E-03 0.87649063E+02</pdfrwt>
<pdfrwt beam="1">  1       -1 0.11896633E+00 0.87649063E+02</pdfrwt>
<totfact> 0.37405033E+04</totfact>
</mgrwt>
</event>
<event>
 5    1  0.4067226E+001  0.8185075E+02  0.7546771E-02  0.1323880E+00
         -2   -1    0    0    0  501 -0.00000000000E+00  0.00000000000E+00  0.19150795434E+02  0.19150795434E+02  0.00000000000E+00 0.  1.
          2   -1    0    0  501    0  0.00000000000E+00 -0.00000000000E+00 -0.87457802346E+02  0.87457802346E+02  0.00000000000E+00 0. -1.
         23    2    1    2    0    0  0.00000000000E+00  0.00000000000E+00 -0.68307006911E+02  0.10660859778E+03  0.81850753982E+02 0.  0.
          2    1    3    3  502    0 -0.90040052921E+01  0.37523295511E+02 -0.16398863208E+02  0.41928421528E+02  0.00000000000E+00 0. -1.
         -2    1    3    3    0  502  0.90040052921E+01 -0.37523295511E+02 -0.51908143704E+02  0.64680176253E+02  0.00000000000E+00 0.  1.
<mgrwt>
<rscale>  0 0.81850754E+02</rscale>
<asrwt>0</asrwt>
<pdfrwt beam="2">  1        2 0.13455047E-01 0.81850754E+02</pdfrwt>
<pdfrwt beam="1">  1       -2 0.29462762E-02 0.81850754E+02</pdfrwt>
<totfact> 0.15847212E+05</totfact>
</mgrwt>
</event>
<event>
 5    1  0.4067226E+001  0.1006513E+03  0.7546771E-02  0.1278932E+00
          3   -1    0    0  501    0  0.00000000000E+00  0.00000000000E+00  0.69174875441E+01  0.69174875441E+01  0.00000000000E+00 0. -1.
         -3   -1    0    0    0  501 -0.00000000000E+00 -0.00000000000E+00 -0.36612559940E+03  0.36612559940E+03  0.00000000000E+00 0.  1.
         23    2    1    2    0    0  0.00000000000E+00  0.00000000000E+00 -0.35920811186E+03  0.37304308695E+03  0.10065126474E+03 0.  0.
          2    1    3    3  502    0  0.35974059115E+02 -0.33986704237E+02 -0.14574868046E+03  0.15392175561E+03  0.00000000000E+00 0. -1.
         -2    1    3    3    0  502 -0.35974059115E+02  0.33986704237E+02 -0.21345943140E+03  0.21912133134E+03  0.00000000000E+00 0.  1.
<mgrwt>
<rscale>  0 0.10065126E+03</rscale>
<asrwt>0</asrwt>
<pdfrwt beam="1">  1        3 0.10642291E-02 0.10065126E+03</pdfrwt>
<pdfrwt beam="2">  1       -3 0.56327002E-01 0.10065126E+03</pdfrwt>
<totfact> 0.16428065E+04</totfact>
</mgrwt>
</event>
<event>
 5    1  0.4067226E+001  0.9075422E+02  0.7546771E-02  0.1301035E+00
          2   -1    0    0  501    0  0.00000000000E+00  0.00000000000E+00  0.37226389861E+03  0.37226389861E+03  0.00000000000E+00 0.  1.
         -2   -1    0    0    0  501 -0.00000000000E+00 -0.00000000000E+00 -0.55312428606E+01  0.55312428606E+01  0.00000000000E+00 0. -1.
         23    2    1    2    0    0  0.00000000000E+00  0.00000000000E+00  0.36673265575E+03  0.37779514147E+03  0.90754218226E+02 0.  0.
          2    1    3    3  502    0  0.16870404842E+02  0.41694396226E+02  0.15837237619E+03  0.16463548456E+03  0.00000000000E+00 0. -1.
         -2    1    3    3    0  502 -0.16870404842E+02 -0.41694396226E+02  0.20836027956E+03  0.21315965691E+03  0.00000000000E+00 0.  1.
<mgrwt>
<rscale>  0 0.90754218E+02</rscale>
<asrwt>0</asrwt>
<pdfrwt beam="1">  1        2 0.57271349E-01 0.90754218E+02</pdfrwt>
<pdfrwt beam="2">  1       -2 0.85096073E-03 0.90754218E+02</pdfrwt>
<totfact> 0.19693019E+05</totfact>
</mgrwt>
</event>
<event>
 5    1  0.4067226E+001  0.9870614E+02  0.7546771E-02  0.1283041E+00
          2   -1    0    0  501    0  0.00000000000E+00  0.00000000000E+00  0.36419617963E+04  0.36419617963E+04  0.00000000000E+00 0. -1.
         -2   -1    0    0    0  501 -0.00000000000E+00 -0.00000000000E+00 -0.66879496872E+00  0.66879496872E+00  0.00000000000E+00 0.  1.
         23    2    1    2    0    0  0.00000000000E+00  0.00000000000E+00  0.36412930013E+04  0.36426305913E+04  0.98706144199E+02 0.  0.
          2    1    3    3  502    0  0.42704649978E+02  0.97756762326E+01  0.98196803801E+03  0.98294479939E+03  0.00000000000E+00 0.  1.
         -2    1    3    3    0  502 -0.42704649978E+02 -0.97756762326E+01  0.26593249633E+04  0.26596857919E+04  0.00000000000E+00 0. -1.
<mgrwt>
<rscale>  0 0.98706144E+02</rscale>
<asrwt>0</asrwt>
<pdfrwt beam="1">  1        2 0.56028593E+00 0.98706144E+02</pdfrwt>
<pdfrwt beam="2">  1       -2 0.10289445E-03 0.98706144E+02</pdfrwt>
<totfact> 0.43460613E+04</totfact>
</mgrwt>
</event>
<event>
 5    1  0.4067226E+001  0.9092017E+02  0.7546771E-02  0.1300639E+00
          1   -1    0    0  501    0  0.00000000000E+00  0.00000000000E+00  0.96495099439E+03  0.96495099439E+03  0.00000000000E+00 0. -1.
         -1   -1    0    0    0  501 -0.00000000000E+00 -0.00000000000E+00 -0.21416834224E+01  0.21416834224E+01  0.00000000000E+00 0.  1.
         23    2    1    2    0    0  0.00000000000E+00  0.00000000000E+00  0.96280931097E+03  0.96709267782E+03  0.90920174837E+02 0.  0.
          2    1    3    3  502    0 -0.40250840282E+01 -0.43054421771E+02  0.63059772926E+03  0.63207861907E+03  0.00000000000E+00 0. -1.
         -2    1    3    3    0  502  0.40250840282E+01  0.43054421771E+02  0.33221158171E+03  0.33501405875E+03  0.00000000000E+00 0.  1.
<mgrwt>
<rscale>  0 0.90920175E+02</rscale>
<asrwt>0</asrwt>
<pdfrwt beam="1">  1        1 0.14845365E+00 0.90920175E+02</pdfrwt>
<pdfrwt beam="2">  1       -1 0.32949053E-03 0.90920175E+02</pdfrwt>
<totfact> 0.13825503E+05</totfact>
</mgrwt>
</event>
<event>
 5    1  0.4067226E+001  0.8914950E+02  0.7546771E-02  0.1304924E+00
          2   -1    0    0  501    0  0.00000000000E+00  0.00000000000E+00  0.13427934871E+03  0.13427934871E+03  0.00000000000E+00 0. -1.
         -2   -1    0    0    0  501 -0.00000000000E+00 -0.00000000000E+00 -0.14796827721E+02  0.14796827721E+02  0.00000000000E+00 0.  1.
         23    2    1    2    0    0  0.00000000000E+00  0.00000000000E+00  0.11948252099E+03  0.14907617643E+03  0.89149501163E+02 0.  0.
          2    1    3    3  502    0 -0.75147648083E+01  0.41544342341E+02  0.83654618729E+02  0.93704318499E+02  0.00000000000E+00 0. -1.
         -2    1    3    3    0  502  0.75147648083E+01 -0.41544342341E+02  0.35827902263E+02  0.55371857935E+02  0.00000000000E+00 0.  1.
<mgrwt>
<rscale>  0 0.89149501E+02</rscale>
<asrwt>0</asrwt>
<pdfrwt beam="1">  1        2 0.20658361E-01 0.89149501E+02</pdfrwt>
<pdfrwt beam="2">  1       -2 0.22764351E-02 0.89149501E+02</pdfrwt>
<totfact> 0.14319914E+05</totfact>
</mgrwt>
</event>
<event>
 5    1  0.4067226E+001  0.9006759E+02  0.7546771E-02  0.1302688E+00
          1   -1    0    0  501    0  0.00000000000E+00  0.00000000000E+00  0.11413749683E+04  0.11413749683E+04  0.00000000000E+00 0. -1.
         -1   -1    0    0    0  501 -0.00000000000E+00 -0.00000000000E+00 -0.17768415775E+01  0.17768415775E+01  0.00000000000E+00 0.  1.
         23    2    1    2    0    0  0.00000000000E+00  0.00000000000E+00  0.11395981267E+04  0.11431518098E+04  0.90067585716E+02 0.  0.
          2    1    3    3  502    0  0.17983351008E+02 -0.22612953352E+02  0.10082383533E+04  0.10086522313E+04  0.00000000000E+00 0. -1.
         -2    1    3    3    0  502 -0.17983351008E+02  0.22612953352E+02  0.13135977337E+03  0.13449957856E+03  0.00000000000E+00 0.  1.
<mgrwt>
<rscale>  0 0.90067586E+02</rscale>
<asrwt>0</asrwt>
<pdfrwt beam="1">  1        1 0.17559556E+00 0.90067586E+02</pdfrwt>
<pdfrwt beam="2">  1       -1 0.27336115E-03 0.90067586E+02</pdfrwt>
<totfact> 0.13440986E+05</totfact>
</mgrwt>
</event>
<event>
 5    1  0.4067226E+001  0.8953845E+02  0.7546771E-02  0.1303973E+00
          1   -1    0    0  501    0  0.00000000000E+00  0.00000000000E+00  0.26735666810E+03  0.26735666810E+03  0.00000000000E+00 0. -1.
         -1   -1    0    0    0  501 -0.00000000000E+00 -0.00000000000E+00 -0.74966652726E+01  0.74966652726E+01  0.00000000000E+00 0.  1.
         23    2    1    2    0    0  0.00000000000E+00  0.00000000000E+00  0.25986000283E+03  0.27485333337E+03  0.89538448705E+02 0.  0.
          2    1    3    3  502    0  0.20464165016E+02  0.22339975754E+02  0.23110930696E+03  0.23308661122E+03  0.00000000000E+00 0. -1.
         -2    1    3    3    0  502 -0.20464165016E+02 -0.22339975754E+02  0.28750695867E+02  0.41766722152E+02  0.00000000000E+00 0.  1.
<mgrwt>
<rscale>  0 0.89538449E+02</rscale>
<asrwt>0</asrwt>
<pdfrwt beam="1">  1        1 0.41131788E-01 0.89538449E+02</pdfrwt>
<pdfrwt beam="2">  1       -1 0.11533333E-02 0.89538449E+02</pdfrwt>
<totfact> 0.13150484E+05</totfact>
</mgrwt>
</event>
<event>
 5    1  0.4067226E+001  0.8870995E+02  0.7546771E-02  0.1306006E+00
          2   -1    0    0  501    0  0.00000000000E+00  0.00000000000E+00  0.26476987690E+03  0.26476987690E+03  0.00000000000E+00 0. -1.
         -2   -1    0    0    0  501 -0.00000000000E+00 -0.00000000000E+00 -0.74304664301E+01  0.74304664301E+01  0.00000000000E+00 0.  1.
         23    2    1    2    0    0  0.00000000000E+00  0.00000000000E+00  0.25733941047E+03  0.27220034333E+03  0.88709947177E+02 0.  0.
          2    1    3    3  502    0  0.39501095889E+02 -0.14519352926E+02  0.17165134694E+03  0.17673520615E+03  0.00000000000E+00 0. -1.
         -2    1    3    3    0  502 -0.39501095889E+02  0.14519352926E+02  0.85688063535E+02  0.95465137187E+02  0.00000000000E+00 0.  1.
<mgrwt>
<rscale>  0 0.88709947E+02</rscale>
<asrwt>0</asrwt>
<pdfrwt beam="1">  1        2 0.40733820E-01 0.88709947E+02</pdfrwt>
<pdfrwt beam="2">  1       -2 0.11431489E-02 0.88709947E+02</pdfrwt>
<totfact> 0.18450556E+05</totfact>
</mgrwt>
</event>
<event>
 5    1  0.4067226E+001  0.9143434E+02  0.7546771E-02  0.1299415E+00
          1   -1    0    0  501    0  0.00000000000E+00  0.00000000000E+00  0.66114877031E+02  0.66114877031E+02  0.00000000000E+00 0. -1.
         -1   -1    0    0    0  501 -0.00000000000E+00 -0.00000000000E+00 -0.31612549098E+02  0.31612549098E+02  0.00000000000E+00 0.  1.
         23    2    1    2    0    0  0.00000000000E+00  0.00000000000E+00  0.34502327933E+02  0.97727426128E+02  0.91434343574E+02 0.  0.
          2    1    3    3  502    0 -0.38967843670E+02  0.23835139642E+02  0.19237304899E+02  0.49564913213E+02  0.00000000000E+00 0. -1.
         -2    1    3    3    0  502  0.38967843670E+02 -0.23835139642E+02  0.15265023034E+02  0.48162512915E+02  0.00000000000E+00 0.  1.
<mgrwt>
<rscale>  0 0.91434344E+02</rscale>
<asrwt>0</asrwt>
<pdfrwt beam="1">  1        1 0.10171519E-01 0.91434344E+02</pdfrwt>
<pdfrwt beam="2">  1       -1 0.48634691E-02 0.91434344E+02</pdfrwt>
<totfact> 0.97044626E+04</totfact>
</mgrwt>
</event>
<event>
 5    1  0.4067226E+001  0.8412888E+02  0.7546771E-02  0.1317726E+00
          2   -1    0    0  501    0  0.00000000000E+00  0.00000000000E+00  0.44670895862E+02  0.44670895862E+02  0.00000000000E+00 0. -1.
         -2   -1    0    0    0  501 -0.00000000000E+00 -0.00000000000E+00 -0.39610068647E+02  0.39610068647E+02  0.00000000000E+00 0.  1.
         23    2    1    2    0    0  0.00000000000E+00  0.00000000000E+00  0.50608272155E+01  0.84280964509E+02  0.84128883307E+02 0.  0.
          2    1    3    3  502    0 -0.26217612449E+01 -0.38095388689E+02 -0.15144750540E+02  0.41079139966E+02  0.00000000000E+00 0. -1.
         -2    1    3    3    0  502  0.26217612449E+01  0.38095388689E+02  0.20205577756E+02  0.43201824543E+02  0.00000000000E+00 0.  1.
<mgrwt>
<rscale>  0 0.84128883E+02</rscale>
<asrwt>0</asrwt>
<pdfrwt beam="1">  1        2 0.68724455E-02 0.84128883E+02</pdfrwt>
<pdfrwt beam="2">  1       -2 0.60938567E-02 0.84128883E+02</pdfrwt>
<totfact> 0.12343430E+05</totfact>
</mgrwt>
</event>
<event>
 5    1  0.4067226E+001  0.9460054E+02  0.7546771E-02  0.1292078E+00
          2   -1    0    0  501    0  0.00000000000E+00  0.00000000000E+00  0.67227731483E+03  0.67227731483E+03  0.00000000000E+00 0. -1.
         -2   -1    0    0    0  501 -0.00000000000E+00 -0.00000000000E+00 -0.33279649246E+01  0.33279649246E+01  0.00000000000E+00 0.  1.
         23    2    1    2    0    0  0.00000000000E+00  0.00000000000E+00  0.66894934991E+03  0.67560527976E+03  0.94600535377E+02 0.  0.
          2    1    3    3  502    0 -0.40851047607E+02  0.11896780629E+02  0.18690399578E+03  0.19168579790E+03  0.00000000000E+00 0. -1.
         -2    1    3    3    0  502  0.40851047607E+02 -0.11896780629E+02  0.48204535413E+03  0.48391948185E+03  0.00000000000E+00 0.  1.
<mgrwt>
<rscale>  0 0.94600535E+02</rscale>
<asrwt>0</asrwt>
<pdfrwt beam="1">  1        2 0.10342717E+00 0.94600535E+02</pdfrwt>
<pdfrwt beam="2">  1       -2 0.51199514E-03 0.94600535E+02</pdfrwt>
<totfact> 0.21304037E+05</totfact>
</mgrwt>
</event>
<event>
 5    1  0.4067226E+001  0.9399316E+02  0.7546771E-02  0.1293460E+00
          2   -1    0    0  501    0  0.00000000000E+00  0.00000000000E+00  0.28082992659E+01  0.28082992659E+01  0.00000000000E+00 0. -1.
         -2   -1    0    0    0  501 -0.00000000000E+00 -0.00000000000E+00 -0.78648255583E+03  0.78648255583E+03  0.00000000000E+00 0.  1.
         23    2    1    2    0    0  0.00000000000E+00  0.00000000000E+00 -0.78367425656E+03  0.78929085509E+03  0.93993156861E+02 0.  0.
          2    1    3    3  502    0  0.31484682014E+02  0.99215154792E+01 -0.11093988439E+03  0.11574705016E+03  0.00000000000E+00 0. -1.
         -2    1    3    3    0  502 -0.31484682014E+02 -0.99215154792E+01 -0.67273437217E+03  0.67354380494E+03  0.00000000000E+00 0.  1.
<mgrwt>
<rscale>  0 0.93993157E+02</rscale>
<asrwt>0</asrwt>
<pdfrwt beam="1">  1        2 0.43204571E-03 0.93993157E+02</pdfrwt>
<pdfrwt beam="2">  1       -2 0.12099741E+00 0.93993157E+02</pdfrwt>
<totfact> 0.22416949E+04</totfact>
</mgrwt>
</event>
<event>
 5    1  0.4067226E+001  0.9131552E+02  0.7546771E-02  0.1299697E+00
         -2   -1    0    0    0  501 -0.00000000000E+00  0.00000000000E+00  0.32687783673E+01  0.32687783673E+01  0.00000000000E+00 0.  1.
          2   -1    0    0  501    0  0.00000000000E+00 -0.00000000000E+00 -0.63774009216E+03  0.63774009216E+03  0.00000000000E+00 0. -1.
         23    2    1    2    0    0  0.00000000000E+00  0.00000000000E+00 -0.63447131379E+03  0.64100887053E+03  0.91315519320E+02 0.  0.
          2    1    3    3  502    0  0.22112105860E+02 -0.39809794150E+02 -0.34037526086E+03  0.34340804175E+03  0.00000000000E+00 0. -1.
         -2    1    3    3    0  502 -0.22112105860E+02  0.39809794150E+02 -0.29409605294E+03  0.29760082878E+03  0.00000000000E+00 0.  1.
<mgrwt>
<rscale>  0 0.91315519E+02</rscale>
<asrwt>0</asrwt>
<pdfrwt beam="2">  1        2 0.98113778E-01 0.91315519E+02</pdfrwt>
<pdfrwt beam="1">  1       -2 0.50288940E-03 0.91315519E+02</pdfrwt>
<totfact> 0.23076793E+05</totfact>
</mgrwt>
</event>
<event>
 5    1  0.4067226E+001  0.9249282E+02  0.7546771E-02  0.1296925E+00
         -1   -1    0    0    0  501 -0.00000000000E+00  0.00000000000E+00  0.14799028899E+03  0.14799028899E+03  0.00000000000E+00 0.  1.
          1   -1    0    0  501    0  0.00000000000E+00 -0.00000000000E+00 -0.14451830016E+02  0.14451830016E+02  0.00000000000E+00 0. -1.
         23    2    1    2    0    0  0.00000000000E+00  0.00000000000E+00  0.13353845898E+03  0.16244211901E+03  0.92492821354E+02 0.  0.
          2    1    3    3  502    0  0.27943733818E+02 -0.36294211511E+02  0.55577458001E+02  0.72020662915E+02  0.00000000000E+00 0. -1.
         -2    1    3    3    0  502 -0.27943733818E+02  0.36294211511E+02  0.77961000977E+02  0.90421456094E+02  0.00000000000E+00 0.  1.
<mgrwt>
<rscale>  0 0.92492821E+02</rscale>
<asrwt>0</asrwt>
<pdfrwt beam="2">  1        1 0.22233586E-02 0.92492821E+02</pdfrwt>
<pdfrwt beam="1">  1       -1 0.22767736E-01 0.92492821E+02</pdfrwt>
<totfact> 0.72282053E+04</totfact>
</mgrwt>
</event>
<event>
 5    1  0.4067226E+001  0.9225469E+02  0.7546771E-02  0.1297482E+00
          2   -1    0    0  501    0  0.00000000000E+00  0.00000000000E+00  0.50772384797E+03  0.50772384797E+03  0.00000000000E+00 0. -1.
         -2   -1    0    0    0  501 -0.00000000000E+00 -0.00000000000E+00 -0.41907272884E+01  0.41907272884E+01  0.00000000000E+00 0.  1.
         23    2    1    2    0    0  0.00000000000E+00  0.00000000000E+00  0.50353312069E+03  0.51191457526E+03  0.92254694941E+02 0.  0.
          2    1    3    3  502    0  0.65019351345E+01  0.45634750471E+02  0.26125923822E+03  0.26529454417E+03  0.00000000000E+00 0. -1.
         -2    1    3    3    0  502 -0.65019351345E+01 -0.45634750471E+02  0.24227388247E+03  0.24662003109E+03  0.00000000000E+00 0.  1.
<mgrwt>
<rscale>  0 0.92254695E+02</rscale>
<asrwt>0</asrwt>
<pdfrwt beam="1">  1        2 0.78111313E-01 0.92254695E+02</pdfrwt>
<pdfrwt beam="2">  1       -2 0.64472768E-03 0.92254695E+02</pdfrwt>
<totfact> 0.20993028E+05</totfact>
</mgrwt>
</event>
<event>
 5    1  0.4067226E+001  0.8963246E+02  0.7546771E-02  0.1303744E+00
         -3   -1    0    0    0  501 -0.00000000000E+00  0.00000000000E+00  0.10791051832E+04  0.10791051832E+04  0.00000000000E+00 0.  1.
          3   -1    0    0  501    0  0.00000000000E+00 -0.00000000000E+00 -0.18612594209E+01  0.18612594209E+01  0.00000000000E+00 0. -1.
         23    2    1    2    0    0  0.00000000000E+00  0.00000000000E+00  0.10772439237E+04  0.10809664426E+04  0.89632464838E+02 0.  0.
          2    1    3    3  502    0 -0.30088546163E+02  0.27779750421E+02  0.31905745475E+03  0.32167482739E+03  0.00000000000E+00 0. -1.
         -2    1    3    3    0  502  0.30088546163E+02 -0.27779750421E+02  0.75818646899E+03  0.75929161520E+03  0.00000000000E+00 0.  1.
<mgrwt>
<rscale>  0 0.89632465E+02</rscale>
<asrwt>0</asrwt>
<pdfrwt beam="2">  1        3 0.28634847E-03 0.89632465E+02</pdfrwt>
<pdfrwt beam="1">  1       -3 0.16601568E+00 0.89632465E+02</pdfrwt>
<totfact> 0.96094260E+03</totfact>
</mgrwt>
</event>
<event>
 5    1  0.4067226E+001  0.8820928E+02  0.7546771E-02  0.1307247E+00
         -2   -1    0    0    0  501 -0.00000000000E+00  0.00000000000E+00  0.32502544479E+01  0.32502544479E+01  0.00000000000E+00 0.  1.
          2   -1    0    0  501    0  0.00000000000E+00 -0.00000000000E+00 -0.59848213613E+03  0.59848213613E+03  0.00000000000E+00 0. -1.
         23    2    1    2    0    0  0.00000000000E+00  0.00000000000E+00 -0.59523188169E+03  0.60173239058E+03  0.88209278989E+02 0.  0.
          2    1    3    3  502    0  0.23165673883E+02  0.19454575712E+02 -0.51655676993E+03  0.51744180883E+03  0.00000000000E+00 0. -1.
         -2    1    3    3    0  502 -0.23165673883E+02 -0.19454575712E+02 -0.78675111758E+02  0.84290581756E+02  0.00000000000E+00 0.  1.
<mgrwt>
<rscale>  0 0.88209279E+02</rscale>
<asrwt>0</asrwt>
<pdfrwt beam="2">  1        2 0.92074169E-01 0.88209279E+02</pdfrwt>
<pdfrwt beam="1">  1       -2 0.50003918E-03 0.88209279E+02</pdfrwt>
<totfact> 0.24843832E+05</totfact>
</mgrwt>
</event>
<event>
 5    1  0.4067226E+001  0.9072791E+02  0.7546771E-02  0.1301098E+00
          2   -1    0    0  501    0  0.00000000000E+00  0.00000000000E+00  0.89545923114E+03  0.89545923114E+03  0.00000000000E+00 0.  1.
         -2   -1    0    0    0  501 -0.00000000000E+00 -0.00000000000E+00 -0.22981376566E+01  0.22981376566E+01  0.00000000000E+00 0. -1.
         23    2    1    2    0    0  0.00000000000E+00  0.00000000000E+00  0.89316109349E+03  0.89775736880E+03  0.90727913654E+02 0.  0.
          2    1    3    3  502    0 -0.26181206077E+02 -0.36796044664E+01  0.81817553259E+02  0.85983178948E+02  0.00000000000E+00 0. -1.
         -2    1    3    3    0  502  0.26181206077E+02  0.36796044664E+01  0.81134354023E+03  0.81177418985E+03  0.00000000000E+00 0.  1.
<mgrwt>
<rscale>  0 0.90727914E+02</rscale>
<asrwt>0</asrwt>
<pdfrwt beam="1">  1        2 0.13776268E+00 0.90727914E+02</pdfrwt>
<pdfrwt beam="2">  1       -2 0.35356035E-03 0.90727914E+02</pdfrwt>
<totfact> 0.25104037E+05</totfact>
</mgrwt>
</event>
<event>
 5    1  0.4067226E+001  0.9072347E+02  0.7546771E-02  0.1301109E+00
         -2   -1    0    0    0  501 -0.00000000000E+00  0.00000000000E+00  0.26203344526E+01  0.26203344526E+01  0.00000000000E+00 0. -1.
          2   -1    0    0  501    0  0.00000000000E+00 -0.00000000000E+00 -0.78527646879E+03  0.78527646879E+03  0.00000000000E+00 0.  1.
         23    2    1    2    0    0  0.00000000000E+00  0.00000000000E+00 -0.78265613434E+03  0.78789680324E+03  0.90723469642E+02 0.  0.
          2    1    3    3  502    0 -0.37276080197E+02 -0.21156975560E+01 -0.61506471100E+03  0.61619686874E+03  0.00000000000E+00 0.  1.
         -2    1    3    3    0  502  0.37276080197E+02  0.21156975560E+01 -0.16759142334E+03  0.17169993451E+03  0.00000000000E+00 0. -1.
<mgrwt>
<rscale>  0 0.90723470E+02</rscale>
<asrwt>0</asrwt>
<pdfrwt beam="2">  1        2 0.12081192E+00 0.90723470E+02</pdfrwt>
<pdfrwt beam="1">  1       -2 0.40312786E-03 0.90723470E+02</pdfrwt>
<totfact> 0.24613725E+05</totfact>
</mgrwt>
</event>
<event>
 5    1  0.4067226E+001  0.9178852E+02  0.7546771E-02  0.1298577E+00
          1   -1    0    0  501    0  0.00000000000E+00  0.00000000000E+00  0.51961809446E+01  0.51961809446E+01  0.00000000000E+00 0. -1.
         -1   -1    0    0    0  501 -0.00000000000E+00 -0.00000000000E+00 -0.40535215442E+03  0.40535215442E+03  0.00000000000E+00 0.  1.
         23    2    1    2    0    0  0.00000000000E+00  0.00000000000E+00 -0.40015597347E+03  0.41054833536E+03  0.91788520865E+02 0.  0.
          2    1    3    3  502    0  0.39067100595E+02  0.15314779720E+02 -0.11693963613E+03  0.12424032890E+03  0.00000000000E+00 0. -1.
         -2    1    3    3    0  502 -0.39067100595E+02 -0.15314779720E+02 -0.28321633734E+03  0.28630800646E+03  0.00000000000E+00 0.  1.
<mgrwt>
<rscale>  0 0.91788521E+02</rscale>
<asrwt>0</asrwt>
<pdfrwt beam="1">  1        1 0.79941229E-03 0.91788521E+02</pdfrwt>
<pdfrwt beam="2">  1       -1 0.62361883E-01 0.91788521E+02</pdfrwt>
<totfact> 0.52011136E+04</totfact>
</mgrwt>
</event>
<event>
 5    1  0.4067226E+001  0.9078987E+02  0.7546771E-02  0.1300950E+00
          1   -1    0    0  501    0  0.00000000000E+00  0.00000000000E+00  0.56411117322E+02  0.56411117322E+02  0.00000000000E+00 0. -1.
         -1   -1    0    0    0  501 -0.00000000000E+00 -0.00000000000E+00 -0.36530036895E+02  0.36530036895E+02  0.00000000000E+00 0.  1.
         23    2    1    2    0    0  0.00000000000E+00  0.00000000000E+00  0.19881080427E+02  0.92941154217E+02  0.90789871617E+02 0.  0.
          2    1    3    3  502    0 -0.28615019612E+02  0.71466738135E+00  0.46008477009E+02  0.54185884265E+02  0.00000000000E+00 0. -1.
         -2    1    3    3    0  502  0.28615019612E+02 -0.71466738135E+00 -0.26127396582E+02  0.38755269952E+02  0.00000000000E+00 0.  1.
<mgrwt>
<rscale>  0 0.90789872E+02</rscale>
<asrwt>0</asrwt>
<pdfrwt beam="1">  1        1 0.86786334E-02 0.90789872E+02</pdfrwt>
<pdfrwt beam="2">  1       -1 0.56200057E-02 0.90789872E+02</pdfrwt>
<totfact> 0.96613527E+04</totfact>
</mgrwt>
</event>
<event>
 5    1  0.4067226E+001  0.9198009E+02  0.7546771E-02  0.1298126E+00
         -2   -1    0    0    0  501 -0.00000000000E+00  0.00000000000E+00  0.18816221723E+01  0.18816221723E+01  0.00000000000E+00 0. -1.
          2   -1    0    0  501    0  0.00000000000E+00 -0.00000000000E+00 -0.11240749293E+04  0.11240749293E+04  0.00000000000E+00 0.  1.
         23    2    1    2    0    0  0.00000000000E+00  0.00000000000E+00 -0.11221933072E+04  0.11259565515E+04  0.91980091550E+02 0.  0.
          2    1    3    3  502    0 -0.24557833028E+01  0.38916614200E+02 -0.26261186906E+03  0.26549110626E+03  0.00000000000E+00 0. -1.
         -2    1    3    3    0  502  0.24557833028E+01 -0.38916614200E+02 -0.85958143812E+03  0.86046544526E+03  0.00000000000E+00 0.  1.
<mgrwt>
<rscale>  0 0.91980092E+02</rscale>
<asrwt>0</asrwt>
<pdfrwt beam="2">  1        2 0.17293446E+00 0.91980092E+02</pdfrwt>
<pdfrwt beam="1">  1       -2 0.28948058E-03 0.91980092E+02</pdfrwt>
<totfact> 0.24426494E+05</totfact>
</mgrwt>
</event>
<event>
 5    1  0.4067226E+001  0.9078189E+02  0.7546771E-02  0.1300969E+00
         -4   -1    0    0    0  501 -0.00000000000E+00  0.00000000000E+00  0.11023852124E+03  0.11023852124E+03  0.00000000000E+00 0.  1.
          4   -1    0    0  501    0  0.00000000000E+00 -0.00000000000E+00 -0.18689818689E+02  0.18689818689E+02  0.00000000000E+00 0. -1.
         23    2    1    2    0    0  0.00000000000E+00  0.00000000000E+00  0.91548702556E+02  0.12892833993E+03  0.90781891908E+02 0.  0.
          2    1    3    3  502    0 -0.13841267746E+02  0.29648835606E+02  0.90453180762E+02  0.96189459171E+02  0.00000000000E+00 0. -1.
         -2    1    3    3    0  502  0.13841267746E+02 -0.29648835606E+02  0.10955217940E+01  0.32738880763E+02  0.00000000000E+00 0.  1.
<mgrwt>
<rscale>  0 0.90781892E+02</rscale>
<asrwt>0</asrwt>
<pdfrwt beam="2">  1        4 0.28753568E-02 0.90781892E+02</pdfrwt>
<pdfrwt beam="1">  1       -4 0.16959772E-01 0.90781892E+02</pdfrwt>
<totfact> 0.25067835E+04</totfact>
</mgrwt>
</event>
<event>
 5    1  0.4067226E+001  0.9510874E+02  0.7546771E-02  0.1290931E+00
          3   -1    0    0  501    0  0.00000000000E+00  0.00000000000E+00  0.21586669918E+03  0.21586669918E+03  0.00000000000E+00 0. -1.
         -3   -1    0    0    0  501 -0.00000000000E+00 -0.00000000000E+00 -0.10475993271E+02  0.10475993271E+02  0.00000000000E+00 0.  1.
         23    2    1    2    0    0  0.00000000000E+00  0.00000000000E+00  0.20539070591E+03  0.22634269246E+03  0.95108739622E+02 0.  0.
          2    1    3    3  502    0 -0.32885885924E+01  0.47280012280E+02  0.93415932188E+02  0.10475089863E+03  0.00000000000E+00 0. -1.
         -2    1    3    3    0  502  0.32885885924E+01 -0.47280012280E+02  0.11197477372E+03  0.12159179383E+03  0.00000000000E+00 0.  1.
<mgrwt>
<rscale>  0 0.95108740E+02</rscale>
<asrwt>0</asrwt>
<pdfrwt beam="1">  1        3 0.33210258E-01 0.95108740E+02</pdfrwt>
<pdfrwt beam="2">  1       -3 0.16116914E-02 0.95108740E+02</pdfrwt>
<totfact> 0.24258188E+04</totfact>
</mgrwt>
</event>
<event>
 5    1  0.4067226E+001  0.9114196E+02  0.7546771E-02  0.1300110E+00
         -2   -1    0    0    0  501 -0.00000000000E+00  0.00000000000E+00  0.18078989983E+01  0.18078989983E+01  0.00000000000E+00 0.  1.
          2   -1    0    0  501    0  0.00000000000E+00 -0.00000000000E+00 -0.11486893520E+04  0.11486893520E+04  0.00000000000E+00 0. -1.
         23    2    1    2    0    0  0.00000000000E+00  0.00000000000E+00 -0.11468814530E+04  0.11504972510E+04  0.91141962428E+02 0.  0.
          2    1    3    3  502    0 -0.41992345896E+02 -0.13509937538E+02 -0.42905126707E+03  0.43131295517E+03  0.00000000000E+00 0.  1.
         -2    1    3    3    0  502  0.41992345896E+02  0.13509937538E+02 -0.71783018589E+03  0.71918429579E+03  0.00000000000E+00 0. -1.
<mgrwt>
<rscale>  0 0.91141962E+02</rscale>
<asrwt>0</asrwt>
<pdfrwt beam="2">  1        2 0.17672148E+00 0.91141962E+02</pdfrwt>
<pdfrwt beam="1">  1       -2 0.27813825E-03 0.91141962E+02</pdfrwt>
<totfact> 0.24990567E+05</totfact>
</mgrwt>
</event>
<event>
 5    1  0.4067226E+001  0.8624230E+02  0.7546771E-02  0.1312215E+00
          2   -1    0    0  501    0  0.00000000000E+00  0.00000000000E+00  0.20943903117E+01  0.20943903117E+01  0.00000000000E+00 0. -1.
         -2   -1    0    0    0  501 -0.00000000000E+00 -0.00000000000E+00 -0.88781618840E+03  0.88781618840E+03  0.00000000000E+00 0.  1.
         23    2    1    2    0    0  0.00000000000E+00  0.00000000000E+00 -0.88572179809E+03  0.88991057871E+03  0.86242301072E+02 0.  0.
          2    1    3    3  502    0 -0.19269509890E+02  0.15725282887E+02 -0.79378766717E+02  0.83184055797E+02  0.00000000000E+00 0. -1.
         -2    1    3    3    0  502  0.19269509890E+02 -0.15725282887E+02 -0.80634303137E+03  0.80672652292E+03  0.00000000000E+00 0.  1.
<mgrwt>
<rscale>  0 0.86242301E+02</rscale>
<asrwt>0</asrwt>
<pdfrwt beam="1">  1        2 0.32221416E-03 0.86242301E+02</pdfrwt>
<pdfrwt beam="2">  1       -2 0.13658699E+00 0.86242301E+02</pdfrwt>
<totfact> 0.24688523E+04</totfact>
</mgrwt>
</event>
<event>
 5    1  0.4067226E+001  0.9181029E+02  0.7546771E-02  0.1298526E+00
          2   -1    0    0  501    0  0.00000000000E+00  0.00000000000E+00  0.11122214869E+02  0.11122214869E+02  0.00000000000E+00 0. -1.
         -2   -1    0    0    0  501 -0.00000000000E+00 -0.00000000000E+00 -0.18946606666E+03  0.18946606666E+03  0.00000000000E+00 0.  1.
         23    2    1    2    0    0  0.00000000000E+00  0.00000000000E+00 -0.17834385179E+03  0.20058828153E+03  0.91810289267E+02 0.  0.
          2    1    3    3  502    0 -0.31728623820E+02 -0.22518509336E+02 -0.35946128676E+02  0.52970869344E+02  0.00000000000E+00 0. -1.
         -2    1    3    3    0  502  0.31728623820E+02  0.22518509336E+02 -0.14239772311E+03  0.14761741219E+03  0.00000000000E+00 0.  1.
<mgrwt>
<rscale>  0 0.91810289E+02</rscale>
<asrwt>0</asrwt>
<pdfrwt beam="1">  1        2 0.17111100E-02 0.91810289E+02</pdfrwt>
<pdfrwt beam="2">  1       -2 0.29148626E-01 0.91810289E+02</pdfrwt>
<totfact> 0.62654679E+04</totfact>
</mgrwt>
</event>
<event>
 5    1  0.4067226E+001  0.9066094E+02  0.7546771E-02  0.1301259E+00
         -2   -1    0    0    0  501 -0.00000000000E+00  0.00000000000E+00  0.12759183205E+01  0.12759183205E+01  0.00000000000E+00 0.  1.
          2   -1    0    0  501    0  0.00000000000E+00 -0.00000000000E+00 -0.16104883961E+04  0.16104883961E+04  0.00000000000E+00 0. -1.
         23    2    1    2    0    0  0.00000000000E+00  0.00000000000E+00 -0.16092124778E+04  0.16117643145E+04  0.90660943071E+02 0.  0.
          2    1    3    3  502    0  0.40110248912E+00  0.24247651223E+02 -0.14854668243E+04  0.14856647655E+04  0.00000000000E+00 0. -1.
         -2    1    3    3    0  502 -0.40110248912E+00 -0.24247651223E+02 -0.12374565356E+03  0.12609954896E+03  0.00000000000E+00 0.  1.
<mgrwt>
<rscale>  0 0.90660943E+02</rscale>
<asrwt>0</asrwt>
<pdfrwt beam="2">  1        2 0.24776760E+00 0.90660943E+02</pdfrwt>
<pdfrwt beam="1">  1       -2 0.19629500E-03 0.90660943E+02</pdfrwt>
<totfact> 0.23226977E+05</totfact>
</mgrwt>
</event>
<event>
 5    1  0.4067226E+001  0.9135874E+02  0.7546771E-02  0.1299594E+00
         -2   -1    0    0    0  501 -0.00000000000E+00  0.00000000000E+00  0.45471533864E+02  0.45471533864E+02  0.00000000000E+00 0.  1.
          2   -1    0    0  501    0  0.00000000000E+00 -0.00000000000E+00 -0.45888154138E+02  0.45888154138E+02  0.00000000000E+00 0. -1.
         23    2    1    2    0    0  0.00000000000E+00  0.00000000000E+00 -0.41662027397E+00  0.91359688002E+02  0.91358738058E+02 0.  0.
          2    1    3    3  502    0 -0.31351743894E+02  0.17564683873E+02 -0.28407092490E+02  0.45808436652E+02  0.00000000000E+00 0. -1.
         -2    1    3    3    0  502  0.31351743894E+02 -0.17564683873E+02  0.27990472216E+02  0.45551251351E+02  0.00000000000E+00 0.  1.
<mgrwt>
<rscale>  0 0.91358738E+02</rscale>
<asrwt>0</asrwt>
<pdfrwt beam="2">  1        2 0.70597160E-02 0.91358738E+02</pdfrwt>
<pdfrwt beam="1">  1       -2 0.69956206E-02 0.91358738E+02</pdfrwt>
<totfact> 0.98278498E+04</totfact>
</mgrwt>
</event>
<event>
 5    1  0.4067226E+001  0.9466749E+02  0.7546771E-02  0.1291927E+00
         -3   -1    0    0    0  501 -0.00000000000E+00  0.00000000000E+00  0.33545423988E+02  0.33545423988E+02  0.00000000000E+00 0.  1.
          3   -1    0    0  501    0  0.00000000000E+00 -0.00000000000E+00 -0.66789546252E+02  0.66789546252E+02  0.00000000000E+00 0. -1.
         23    2    1    2    0    0  0.00000000000E+00  0.00000000000E+00 -0.33244122264E+02  0.10033497024E+03  0.94667494885E+02 0.  0.
          2    1    3    3  502    0  0.34722060065E+02  0.19575616803E+02 -0.43677906815E+02  0.59131935298E+02  0.00000000000E+00 0. -1.
         -2    1    3    3    0  502 -0.34722060065E+02 -0.19575616803E+02  0.10433784551E+02  0.41203034942E+02  0.00000000000E+00 0.  1.
<mgrwt>
<rscale>  0 0.94667495E+02</rscale>
<asrwt>0</asrwt>
<pdfrwt beam="2">  1        3 0.10275315E-01 0.94667495E+02</pdfrwt>
<pdfrwt beam="1">  1       -3 0.51608345E-02 0.94667495E+02</pdfrwt>
<totfact> 0.31266714E+04</totfact>
</mgrwt>
</event>
<event>
 5    1  0.4067226E+001  0.9850944E+02  0.7546771E-02  0.1283462E+00
          1   -1    0    0  501    0  0.00000000000E+00  0.00000000000E+00  0.65914592785E+01  0.65914592785E+01  0.00000000000E+00 0. -1.
         -1   -1    0    0    0  501 -0.00000000000E+00 -0.00000000000E+00 -0.36805622570E+03  0.36805622570E+03  0.00000000000E+00 0.  1.
         23    2    1    2    0    0  0.00000000000E+00  0.00000000000E+00 -0.36146476642E+03  0.37464768498E+03  0.98509443687E+02 0.  0.
          2    1    3    3  502    0  0.30554591738E+02 -0.38172396537E+01 -0.34526860448E+02  0.46262927785E+02  0.00000000000E+00 0. -1.
         -2    1    3    3    0  502 -0.30554591738E+02  0.38172396537E+01 -0.32693790597E+03  0.32838475719E+03  0.00000000000E+00 0.  1.
<mgrwt>
<rscale>  0 0.98509444E+02</rscale>
<asrwt>0</asrwt>
<pdfrwt beam="1">  1        1 0.10140703E-02 0.98509444E+02</pdfrwt>
<pdfrwt beam="2">  1       -1 0.56624057E-01 0.98509444E+02</pdfrwt>
<totfact> 0.45289230E+04</totfact>
</mgrwt>
</event>
<event>
 5    1  0.4067226E+001  0.9945577E+02  0.7546771E-02  0.1281445E+00
          1   -1    0    0  501    0  0.00000000000E+00  0.00000000000E+00  0.13268711983E+01  0.13268711983E+01  0.00000000000E+00 0. -1.
         -1   -1    0    0    0  501 -0.00000000000E+00 -0.00000000000E+00 -0.18636795609E+04  0.18636795609E+04  0.00000000000E+00 0.  1.
         23    2    1    2    0    0  0.00000000000E+00  0.00000000000E+00 -0.18623526897E+04  0.18650064321E+04  0.99455773733E+02 0.  0.
          2    1    3    3  502    0 -0.13397289323E+02 -0.35050227593E+02 -0.31925449382E+03  0.32145207674E+03  0.00000000000E+00 0. -1.
         -2    1    3    3    0  502  0.13397289323E+02  0.35050227593E+02 -0.15430981959E+04  0.15435543554E+04  0.00000000000E+00 0.  1.
<mgrwt>
<rscale>  0 0.99455774E+02</rscale>
<asrwt>0</asrwt>
<pdfrwt beam="1">  1        1 0.20413367E-03 0.99455774E+02</pdfrwt>
<pdfrwt beam="2">  1       -1 0.28672044E+00 0.99455774E+02</pdfrwt>
<totfact> 0.67191128E+03</totfact>
</mgrwt>
</event>
<event>
 5    1  0.4067226E+001  0.9086722E+02  0.7546771E-02  0.1300765E+00
         -2   -1    0    0    0  501 -0.00000000000E+00  0.00000000000E+00  0.52611952332E+02  0.52611952332E+02  0.00000000000E+00 0.  1.
          2   -1    0    0  501    0  0.00000000000E+00 -0.00000000000E+00 -0.39234679226E+02  0.39234679226E+02  0.00000000000E+00 0. -1.
         23    2    1    2    0    0  0.00000000000E+00  0.00000000000E+00  0.13377273106E+02  0.91846631559E+02  0.90867223425E+02 0.  0.
          2    1    3    3  502    0  0.36549447583E+02  0.22843973345E+02 -0.78364937740E+01  0.43807760402E+02  0.00000000000E+00 0. -1.
         -2    1    3    3    0  502 -0.36549447583E+02 -0.22843973345E+02  0.21213766880E+02  0.48038871157E+02  0.00000000000E+00 0.  1.
<mgrwt>
<rscale>  0 0.90867223E+02</rscale>
<asrwt>0</asrwt>
<pdfrwt beam="2">  1        2 0.60361045E-02 0.90867223E+02</pdfrwt>
<pdfrwt beam="1">  1       -2 0.80941465E-02 0.90867223E+02</pdfrwt>
<totfact> 0.95853317E+04</totfact>
</mgrwt>
</event>
<event>
 5    1  0.4067226E+001  0.9324796E+02  0.7546771E-02  0.1295172E+00
         -1   -1    0    0    0  501 -0.00000000000E+00  0.00000000000E+00  0.75109696907E+01  0.75109696907E+01  0.00000000000E+00 0.  1.
          1   -1    0    0  501    0  0.00000000000E+00 -0.00000000000E+00 -0.28941611018E+03  0.28941611018E+03  0.00000000000E+00 0. -1.
         23    2    1    2    0    0  0.00000000000E+00  0.00000000000E+00 -0.28190514049E+03  0.29692707987E+03  0.93247962585E+02 0.  0.
          2    1    3    3  502    0  0.13610156995E+02 -0.43494933833E+02 -0.10963154873E+03  0.11872709093E+03  0.00000000000E+00 0. -1.
         -2    1    3    3    0  502 -0.13610156995E+02  0.43494933833E+02 -0.17227359175E+03  0.17819998894E+03  0.00000000000E+00 0.  1.
<mgrwt>
<rscale>  0 0.93247963E+02</rscale>
<asrwt>0</asrwt>
<pdfrwt beam="2">  1        1 0.44525545E-01 0.93247963E+02</pdfrwt>
<pdfrwt beam="1">  1       -1 0.11555341E-02 0.93247963E+02</pdfrwt>
<totfact> 0.11983517E+05</totfact>
</mgrwt>
</event>
<event>
 5    1  0.4067226E+001  0.9091019E+02  0.7546771E-02  0.1300662E+00
          1   -1    0    0  501    0  0.00000000000E+00  0.00000000000E+00  0.84569397436E+03  0.84569397436E+03  0.00000000000E+00 0. -1.
         -1   -1    0    0    0  501 -0.00000000000E+00 -0.00000000000E+00 -0.24431598346E+01  0.24431598346E+01  0.00000000000E+00 0.  1.
         23    2    1    2    0    0  0.00000000000E+00  0.00000000000E+00  0.84325081452E+03  0.84813713419E+03  0.90910187558E+02 0.  0.
          2    1    3    3  502    0 -0.30041450094E+02 -0.33923032775E+02  0.45513946738E+03  0.45738954475E+03  0.00000000000E+00 0. -1.
         -2    1    3    3    0  502  0.30041450094E+02  0.33923032775E+02  0.38811134714E+03  0.39074758944E+03  0.00000000000E+00 0.  1.
<mgrwt>
<rscale>  0 0.90910188E+02</rscale>
<asrwt>0</asrwt>
<pdfrwt beam="1">  1        1 0.13010653E+00 0.90910188E+02</pdfrwt>
<pdfrwt beam="2">  1       -1 0.37587142E-03 0.90910188E+02</pdfrwt>
<totfact> 0.14156103E+05</totfact>
</mgrwt>
</event>
<event>
 5    1  0.4067226E+001  0.9972272E+02  0.7546771E-02  0.1280880E+00
          2   -1    0    0  501    0  0.00000000000E+00  0.00000000000E+00  0.13755303114E+04  0.13755303114E+04  0.00000000000E+00 0. -1.
         -2   -1    0    0    0  501 -0.00000000000E+00 -0.00000000000E+00 -0.18074158909E+01  0.18074158909E+01  0.00000000000E+00 0.  1.
         23    2    1    2    0    0  0.00000000000E+00  0.00000000000E+00  0.13737228955E+04  0.13773377273E+04  0.99722722451E+02 0.  0.
          2    1    3    3  502    0 -0.41788423491E+02 -0.20903172221E+02  0.92725616076E+03  0.92843265917E+03  0.00000000000E+00 0. -1.
         -2    1    3    3    0  502  0.41788423491E+02  0.20903172221E+02  0.44646673477E+03  0.44890506814E+03  0.00000000000E+00 0.  1.
<mgrwt>
<rscale>  0 0.99722722E+02</rscale>
<asrwt>0</asrwt>
<pdfrwt beam="1">  1        2 0.21161921E+00 0.99722722E+02</pdfrwt>
<pdfrwt beam="2">  1       -2 0.27806508E-03 0.99722722E+02</pdfrwt>
<totfact> 0.19138377E+05</totfact>
</mgrwt>
</event>
<event>
 5    1  0.4067226E+001  0.9089713E+02  0.7546771E-02  0.1300694E+00
         -2   -1    0    0    0  501 -0.00000000000E+00  0.00000000000E+00  0.13241333360E+01  0.13241333360E+01  0.00000000000E+00 0.  1.
          2   -1    0    0  501    0  0.00000000000E+00 -0.00000000000E+00 -0.15599426316E+04  0.15599426316E+04  0.00000000000E+00 0. -1.
         23    2    1    2    0    0  0.00000000000E+00  0.00000000000E+00 -0.15586184983E+04  0.15612667650E+04  0.90897129564E+02 0.  0.
          2    1    3    3  502    0  0.11690153019E+02 -0.19808097359E+02 -0.14525967103E+04  0.14527787936E+04  0.00000000000E+00 0. -1.
         -2    1    3    3    0  502 -0.11690153019E+02  0.19808097359E+02 -0.10602178797E+03  0.10848797133E+03  0.00000000000E+00 0.  1.
<mgrwt>
<rscale>  0 0.90897130E+02</rscale>
<asrwt>0</asrwt>
<pdfrwt beam="2">  1        2 0.23999118E+00 0.90897130E+02</pdfrwt>
<pdfrwt beam="1">  1       -2 0.20371282E-03 0.90897130E+02</pdfrwt>
<totfact> 0.23411363E+05</totfact>
</mgrwt>
</event>
<event>
 5    1  0.4067226E+001  0.8918472E+02  0.7546771E-02  0.1304838E+00
         -4   -1    0    0    0  501 -0.00000000000E+00  0.00000000000E+00  0.10245296451E+03  0.10245296451E+03  0.00000000000E+00 0.  1.
          4   -1    0    0  501    0  0.00000000000E+00 -0.00000000000E+00 -0.19408697976E+02  0.19408697976E+02  0.00000000000E+00 0. -1.
         23    2    1    2    0    0  0.00000000000E+00  0.00000000000E+00  0.83044266533E+02  0.12186166249E+03  0.89184721672E+02 0.  0.
          2    1    3    3  502    0  0.23893908102E+00 -0.41943648883E+02  0.20837951692E+02  0.46835317915E+02  0.00000000000E+00 0. -1.
         -2    1    3    3    0  502 -0.23893908102E+00  0.41943648883E+02  0.62206314841E+02  0.75026344570E+02  0.00000000000E+00 0.  1.
<mgrwt>
<rscale>  0 0.89184722E+02</rscale>
<asrwt>0</asrwt>
<pdfrwt beam="2">  1        4 0.29859536E-02 0.89184722E+02</pdfrwt>
<pdfrwt beam="1">  1       -4 0.15761994E-01 0.89184722E+02</pdfrwt>
<totfact> 0.26709848E+04</totfact>
</mgrwt>
</event>
<event>
 5    1  0.4067226E+001  0.9106804E+02  0.7546771E-02  0.1300286E+00
          2   -1    0    0  501    0  0.00000000000E+00  0.00000000000E+00  0.10408969714E+04  0.10408969714E+04  0.00000000000E+00 0. -1.
         -2   -1    0    0    0  501 -0.00000000000E+00 -0.00000000000E+00 -0.19918849456E+01  0.19918849456E+01  0.00000000000E+00 0.  1.
         23    2    1    2    0    0  0.00000000000E+00  0.00000000000E+00  0.10389050864E+04  0.10428888563E+04  0.91068040655E+02 0.  0.
          2    1    3    3  502    0 -0.13609943333E+02  0.19993130764E+02  0.96125749261E+03  0.96156171041E+03  0.00000000000E+00 0. -1.
         -2    1    3    3    0  502  0.13609943333E+02 -0.19993130764E+02  0.77647593800E+02  0.81327145887E+02  0.00000000000E+00 0.  1.
<mgrwt>
<rscale>  0 0.91068041E+02</rscale>
<asrwt>0</asrwt>
<pdfrwt beam="1">  1        2 0.16013756E+00 0.91068041E+02</pdfrwt>
<pdfrwt beam="2">  1       -2 0.30644467E-03 0.91068041E+02</pdfrwt>
<totfact> 0.25109066E+05</totfact>
</mgrwt>
</event>
<event>
 5    1  0.4067226E+001  0.8919696E+02  0.7546771E-02  0.1304808E+00
          3   -1    0    0  501    0  0.00000000000E+00  0.00000000000E+00  0.65529086283E+02  0.65529086283E+02  0.00000000000E+00 0. -1.
         -3   -1    0    0    0  501 -0.00000000000E+00 -0.00000000000E+00 -0.30353306189E+02  0.30353306189E+02  0.00000000000E+00 0.  1.
         23    2    1    2    0    0  0.00000000000E+00  0.00000000000E+00  0.35175780094E+02  0.95882392472E+02  0.89196960044E+02 0.  0.
          2    1    3    3  502    0  0.29825604839E+02  0.20821847203E+02  0.45327225587E+02  0.58117754640E+02  0.00000000000E+00 0. -1.
         -2    1    3    3    0  502 -0.29825604839E+02 -0.20821847203E+02 -0.10151445494E+02  0.37764637832E+02  0.00000000000E+00 0.  1.
<mgrwt>
<rscale>  0 0.89196960E+02</rscale>
<asrwt>0</asrwt>
<pdfrwt beam="1">  1        3 0.10081398E-01 0.89196960E+02</pdfrwt>
<pdfrwt beam="2">  1       -3 0.46697394E-02 0.89196960E+02</pdfrwt>
<totfact> 0.37127894E+04</totfact>
</mgrwt>
</event>
<event>
 5    1  0.4067226E+001  0.8719641E+02  0.7546771E-02  0.1309787E+00
         -1   -1    0    0    0  501 -0.00000000000E+00  0.00000000000E+00  0.34139560130E+01  0.34139560130E+01  0.00000000000E+00 0.  1.
          1   -1    0    0  501    0  0.00000000000E+00 -0.00000000000E+00 -0.55677448503E+03  0.55677448503E+03  0.00000000000E+00 0. -1.
         23    2    1    2    0    0  0.00000000000E+00  0.00000000000E+00 -0.55336052902E+03  0.56018844104E+03  0.87196412794E+02 0.  0.
          2    1    3    3  502    0  0.10183297285E+02  0.33672886428E+02 -0.11122860242E+03  0.11665918232E+03  0.00000000000E+00 0.  1.
         -2    1    3    3    0  502 -0.10183297285E+02 -0.33672886428E+02 -0.44213192660E+03  0.44352925872E+03  0.00000000000E+00 0. -1.
<mgrwt>
<rscale>  0 0.87196413E+02</rscale>
<asrwt>0</asrwt>
<pdfrwt beam="2">  1        1 0.85657490E-01 0.87196413E+02</pdfrwt>
<pdfrwt beam="1">  1       -1 0.52522475E-03 0.87196413E+02</pdfrwt>
<totfact> 0.15843424E+05</totfact>
</mgrwt>
</event>
<event>
 5    1  0.4067226E+001  0.9550832E+02  0.7546771E-02  0.1290035E+00
          4   -1    0    0  501    0  0.00000000000E+00  0.00000000000E+00  0.91110835982E+02  0.91110835982E+02  0.00000000000E+00 0. -1.
         -4   -1    0    0    0  501 -0.00000000000E+00 -0.00000000000E+00 -0.25029510649E+02  0.25029510649E+02  0.00000000000E+00 0.  1.
         23    2    1    2    0    0  0.00000000000E+00  0.00000000000E+00  0.66081325333E+02  0.11614034663E+03  0.95508316695E+02 0.  0.
          2    1    3    3  502    0 -0.13110760037E+02 -0.37148065489E+02  0.65864033908E+02  0.76745955991E+02  0.00000000000E+00 0. -1.
         -2    1    3    3    0  502  0.13110760037E+02  0.37148065489E+02  0.21729142514E+00  0.39394390640E+02  0.00000000000E+00 0.  1.
<mgrwt>
<rscale>  0 0.95508317E+02</rscale>
<asrwt>0</asrwt>
<pdfrwt beam="1">  1        4 0.14017052E-01 0.95508317E+02</pdfrwt>
<pdfrwt beam="2">  1       -4 0.38506940E-02 0.95508317E+02</pdfrwt>
<totfact> 0.22473922E+04</totfact>
</mgrwt>
</event>
<event>
 5    1  0.4067226E+001  0.9168392E+02  0.7546771E-02  0.1298824E+00
         -1   -1    0    0    0  501 -0.00000000000E+00  0.00000000000E+00  0.15447379295E+03  0.15447379295E+03  0.00000000000E+00 0.  1.
          1   -1    0    0  501    0  0.00000000000E+00 -0.00000000000E+00 -0.13604153715E+02  0.13604153715E+02  0.00000000000E+00 0. -1.
         23    2    1    2    0    0  0.00000000000E+00  0.00000000000E+00  0.14086963923E+03  0.16807794666E+03  0.91683918422E+02 0.  0.
          2    1    3    3  502    0 -0.43703352775E+02  0.13790878711E+02  0.72536127160E+02  0.85800123093E+02  0.00000000000E+00 0. -1.
         -2    1    3    3    0  502  0.43703352775E+02 -0.13790878711E+02  0.68333512074E+02  0.82277823572E+02  0.00000000000E+00 0.  1.
<mgrwt>
<rscale>  0 0.91683918E+02</rscale>
<asrwt>0</asrwt>
<pdfrwt beam="2">  1        1 0.20929468E-02 0.91683918E+02</pdfrwt>
<pdfrwt beam="1">  1       -1 0.23765198E-01 0.91683918E+02</pdfrwt>
<totfact> 0.73207703E+04</totfact>
</mgrwt>
</event>
<event>
 5    1  0.4067226E+001  0.9396297E+02  0.7546771E-02  0.1293529E+00
         -2   -1    0    0    0  501 -0.00000000000E+00  0.00000000000E+00  0.27531936887E+01  0.27531936887E+01  0.00000000000E+00 0. -1.
          2   -1    0    0  501    0  0.00000000000E+00 -0.00000000000E+00 -0.80170893367E+03  0.80170893367E+03  0.00000000000E+00 0.  1.
         23    2    1    2    0    0  0.00000000000E+00  0.00000000000E+00 -0.79895573999E+03  0.80446212736E+03  0.93962970928E+02 0.  0.
          2    1    3    3  502    0 -0.36041634019E+02 -0.33209863080E+01 -0.65592695518E+03  0.65692480457E+03  0.00000000000E+00 0. -1.
         -2    1    3    3    0  502  0.36041634019E+02  0.33209863080E+01 -0.14302878481E+03  0.14753732279E+03  0.00000000000E+00 0.  1.
<mgrwt>
<rscale>  0 0.93962971E+02</rscale>
<asrwt>0</asrwt>
<pdfrwt beam="2">  1        2 0.12333972E+00 0.93962971E+02</pdfrwt>
<pdfrwt beam="1">  1       -2 0.42356866E-03 0.93962971E+02</pdfrwt>
<totfact> 0.22520710E+05</totfact>
</mgrwt>
</event>
<event>
 5    1  0.4067226E+001  0.9006844E+02  0.7546771E-02  0.1302686E+00
         -2   -1    0    0    0  501 -0.00000000000E+00  0.00000000000E+00  0.84234667839E+01  0.84234667839E+01  0.00000000000E+00 0.  1.
          2   -1    0    0  501    0  0.00000000000E+00 -0.00000000000E+00 -0.24076560314E+03  0.24076560314E+03  0.00000000000E+00 0. -1.
         23    2    1    2    0    0  0.00000000000E+00  0.00000000000E+00 -0.23234213636E+03  0.24918906992E+03  0.90068441993E+02 0.  0.
          2    1    3    3  502    0  0.90630790943E+01 -0.27879774033E+02 -0.21075130610E+03  0.21278048366E+03  0.00000000000E+00 0. -1.
         -2    1    3    3    0  502 -0.90630790943E+01  0.27879774033E+02 -0.21590830257E+02  0.36408586267E+02  0.00000000000E+00 0.  1.
<mgrwt>
<rscale>  0 0.90068442E+02</rscale>
<asrwt>0</asrwt>
<pdfrwt beam="2">  1        2 0.37040856E-01 0.90068442E+02</pdfrwt>
<pdfrwt beam="1">  1       -2 0.12959182E-02 0.90068442E+02</pdfrwt>
<totfact> 0.17105116E+05</totfact>
</mgrwt>
</event>
<event>
 5    1  0.4067226E+001  0.8323448E+02  0.7546771E-02  0.1320115E+00
         -2   -1    0    0    0  501 -0.00000000000E+00  0.00000000000E+00  0.16528508450E+01  0.16528508450E+01  0.00000000000E+00 0.  1.
          2   -1    0    0  501    0  0.00000000000E+00 -0.00000000000E+00 -0.10478831443E+04  0.10478831443E+04  0.00000000000E+00 0. -1.
         23    2    1    2    0    0  0.00000000000E+00  0.00000000000E+00 -0.10462302935E+04  0.10495359952E+04  0.83234477003E+02 0.  0.
          2    1    3    3  502    0  0.28720569643E+00 -0.41613372251E+02 -0.51694680487E+03  0.51861908401E+03  0.00000000000E+00 0. -1.
         -2    1    3    3    0  502 -0.28720569643E+00  0.41613372251E+02 -0.52928348861E+03  0.53091691116E+03  0.00000000000E+00 0.  1.
<mgrwt>
<rscale>  0 0.83234477E+02</rscale>
<asrwt>0</asrwt>
<pdfrwt beam="2">  1        2 0.16121328E+00 0.83234477E+02</pdfrwt>
<pdfrwt beam="1">  1       -2 0.25428397E-03 0.83234477E+02</pdfrwt>
<totfact> 0.31785901E+05</totfact>
</mgrwt>
</event>
<event>
 5    1  0.4067226E+001  0.9048801E+02  0.7546771E-02  0.1301674E+00
         -1   -1    0    0    0  501 -0.00000000000E+00  0.00000000000E+00  0.44072312984E+01  0.44072312984E+01  0.00000000000E+00 0.  1.
          1   -1    0    0  501    0  0.00000000000E+00 -0.00000000000E+00 -0.46446844757E+03  0.46446844757E+03  0.00000000000E+00 0. -1.
         23    2    1    2    0    0  0.00000000000E+00  0.00000000000E+00 -0.46006121627E+03  0.46887567887E+03  0.90488007587E+02 0.  0.
          2    1    3    3  502    0  0.84489105320E+01  0.39333483769E+02 -0.33729327792E+03  0.33968406257E+03  0.00000000000E+00 0. -1.
         -2    1    3    3    0  502 -0.84489105320E+01 -0.39333483769E+02 -0.12276793836E+03  0.12919161630E+03  0.00000000000E+00 0.  1.
<mgrwt>
<rscale>  0 0.90488008E+02</rscale>
<asrwt>0</asrwt>
<pdfrwt beam="2">  1        1 0.71456702E-01 0.90488008E+02</pdfrwt>
<pdfrwt beam="1">  1       -1 0.67803542E-03 0.90488008E+02</pdfrwt>
<totfact> 0.14076542E+05</totfact>
</mgrwt>
</event>
<event>
 5    1  0.4067226E+001  0.9291982E+02  0.7546771E-02  0.1295931E+00
          1   -1    0    0  501    0  0.00000000000E+00  0.00000000000E+00  0.13728123511E+03  0.13728123511E+03  0.00000000000E+00 0. -1.
         -1   -1    0    0    0  501 -0.00000000000E+00 -0.00000000000E+00 -0.15723365408E+02  0.15723365408E+02  0.00000000000E+00 0.  1.
         23    2    1    2    0    0  0.00000000000E+00  0.00000000000E+00  0.12155786970E+03  0.15300460051E+03  0.92919815395E+02 0.  0.
          2    1    3    3  502    0 -0.31524418954E+02 -0.39461071239E+00  0.11697171256E+03  0.12114588828E+03  0.00000000000E+00 0. -1.
         -2    1    3    3    0  502  0.31524418954E+02  0.39461071239E+00  0.45861571385E+01  0.31858712235E+02  0.00000000000E+00 0.  1.
<mgrwt>
<rscale>  0 0.92919815E+02</rscale>
<asrwt>0</asrwt>
<pdfrwt beam="1">  1        1 0.21120189E-01 0.92919815E+02</pdfrwt>
<pdfrwt beam="2">  1       -1 0.24189794E-02 0.92919815E+02</pdfrwt>
<totfact> 0.10482193E+05</totfact>
</mgrwt>
</event>
<event>
 5    1  0.4067226E+001  0.9146490E+02  0.7546771E-02  0.1299343E+00
         -1   -1    0    0    0  501 -0.00000000000E+00  0.00000000000E+00  0.27192438740E+01  0.27192438740E+01  0.00000000000E+00 0.  1.
          1   -1    0    0  501    0  0.00000000000E+00 -0.00000000000E+00 -0.76913179783E+03  0.76913179783E+03  0.00000000000E+00 0. -1.
         23    2    1    2    0    0  0.00000000000E+00  0.00000000000E+00 -0.76641255395E+03  0.77185104170E+03  0.91464898831E+02 0.  0.
          2    1    3    3  502    0 -0.38641073050E+02  0.20333353451E+02 -0.49794842956E+03  0.49985919647E+03  0.00000000000E+00 0. -1.
         -2    1    3    3    0  502  0.38641073050E+02 -0.20333353451E+02 -0.26846412439E+03  0.27199184524E+03  0.00000000000E+00 0.  1.
<mgrwt>
<rscale>  0 0.91464899E+02</rscale>
<asrwt>0</asrwt>
<pdfrwt beam="2">  1        1 0.11832818E+00 0.91464899E+02</pdfrwt>
<pdfrwt beam="1">  1       -1 0.41834446E-03 0.91464899E+02</pdfrwt>
<totfact> 0.14053743E+05</totfact>
</mgrwt>
</event>
<event>
 5    1  0.4067226E+001  0.9142086E+02  0.7546771E-02  0.1299447E+00
          1   -1    0    0  501    0  0.00000000000E+00  0.00000000000E+00  0.65488643942E+01  0.65488643942E+01  0.00000000000E+00 0. -1.
         -1   -1    0    0    0  501 -0.00000000000E+00 -0.00000000000E+00 -0.31905428035E+03  0.31905428035E+03  0.00000000000E+00 0.  1.
         23    2    1    2    0    0  0.00000000000E+00  0.00000000000E+00 -0.31250541595E+03  0.32560314474E+03  0.91420855747E+02 0.  0.
          2    1    3    3  502    0  0.28109663425E+02  0.31868632972E+02 -0.21623980909E+03  0.22037562928E+03  0.00000000000E+00 0. -1.
         -2    1    3    3    0  502 -0.28109663425E+02 -0.31868632972E+02 -0.96265606864E+02  0.10522751546E+03  0.00000000000E+00 0.  1.
<mgrwt>
<rscale>  0 0.91420856E+02</rscale>
<asrwt>0</asrwt>
<pdfrwt beam="1">  1        1 0.10075176E-02 0.91420856E+02</pdfrwt>
<pdfrwt beam="2">  1       -1 0.49085274E-01 0.91420856E+02</pdfrwt>
<totfact> 0.58685961E+04</totfact>
</mgrwt>
</event>
<event>
 5    1  0.4067226E+001  0.9146583E+02  0.7546771E-02  0.1299340E+00
         -1   -1    0    0    0  501 -0.00000000000E+00  0.00000000000E+00  0.16373647201E+01  0.16373647201E+01  0.00000000000E+00 0.  1.
          1   -1    0    0  501    0  0.00000000000E+00 -0.00000000000E+00 -0.12773571393E+04  0.12773571393E+04  0.00000000000E+00 0. -1.
         23    2    1    2    0    0  0.00000000000E+00  0.00000000000E+00 -0.12757197746E+04  0.12789945040E+04  0.91465830009E+02 0.  0.
          2    1    3    3  502    0 -0.22507796825E+02  0.17259698961E+02 -0.11395081427E+04  0.11398610904E+04  0.00000000000E+00 0. -1.
         -2    1    3    3    0  502  0.22507796825E+02 -0.17259698961E+02 -0.13621163183E+03  0.13913341357E+03  0.00000000000E+00 0.  1.
<mgrwt>
<rscale>  0 0.91465830E+02</rscale>
<asrwt>0</asrwt>
<pdfrwt beam="2">  1        1 0.19651629E+00 0.91465830E+02</pdfrwt>
<pdfrwt beam="1">  1       -1 0.25190251E-03 0.91465830E+02</pdfrwt>
<totfact> 0.12226532E+05</totfact>
</mgrwt>
</event>
<event>
 5    1  0.4067226E+001  0.9091789E+02  0.7546771E-02  0.1300644E+00
          2   -1    0    0  501    0  0.00000000000E+00  0.00000000000E+00  0.37950969301E+03  0.37950969301E+03  0.00000000000E+00 0. -1.
         -2   -1    0    0    0  501 -0.00000000000E+00 -0.00000000000E+00 -0.54452245172E+01  0.54452245172E+01  0.00000000000E+00 0.  1.
         23    2    1    2    0    0  0.00000000000E+00  0.00000000000E+00  0.37406446849E+03  0.38495491753E+03  0.90917885697E+02 0.  0.
          2    1    3    3  502    0  0.25192259327E+02  0.33084712236E+01  0.34663679324E+03  0.34756677393E+03  0.00000000000E+00 0. -1.
         -2    1    3    3    0  502 -0.25192259327E+02 -0.33084712236E+01  0.27427675248E+02  0.37388143593E+02  0.00000000000E+00 0.  1.
<mgrwt>
<rscale>  0 0.90917886E+02</rscale>
<asrwt>0</asrwt>
<pdfrwt beam="1">  1        2 0.58386086E-01 0.90917886E+02</pdfrwt>
<pdfrwt beam="2">  1       -2 0.83772715E-03 0.90917886E+02</pdfrwt>
<totfact> 0.19736686E+05</totfact>
</mgrwt>
</event>
<event>
 5    1  0.4067226E+001  0.9360696E+02  0.7546771E-02  0.1294345E+00
          2   -1    0    0  501    0  0.00000000000E+00  0.00000000000E+00  0.85304120529E+02  0.85304120529E+02  0.00000000000E+00 0. -1.
         -2   -1    0    0    0  501 -0.00000000000E+00 -0.00000000000E+00 -0.25679481960E+02  0.25679481960E+02  0.00000000000E+00 0.  1.
         23    2    1    2    0    0  0.00000000000E+00  0.00000000000E+00  0.59624638569E+02  0.11098360249E+03  0.93606957523E+02 0.  0.
          2    1    3    3  502    0  0.10644346656E+02 -0.45101423417E+02  0.22026293864E+02  0.51308850419E+02  0.00000000000E+00 0.  1.
         -2    1    3    3    0  502 -0.10644346656E+02  0.45101423417E+02  0.37598344705E+02  0.59674752069E+02  0.00000000000E+00 0. -1.
<mgrwt>
<rscale>  0 0.93606958E+02</rscale>
<asrwt>0</asrwt>
<pdfrwt beam="1">  1        2 0.13123711E-01 0.93606958E+02</pdfrwt>
<pdfrwt beam="2">  1       -2 0.39506896E-02 0.93606958E+02</pdfrwt>
<totfact> 0.10875456E+05</totfact>
</mgrwt>
</event>
<event>
 5    1  0.4067226E+001  0.9128278E+02  0.7546771E-02  0.1299775E+00
          2   -1    0    0  501    0  0.00000000000E+00  0.00000000000E+00  0.92897267870E+02  0.92897267870E+02  0.00000000000E+00 0.  1.
         -2   -1    0    0    0  501 -0.00000000000E+00 -0.00000000000E+00 -0.22424089619E+02  0.22424089619E+02  0.00000000000E+00 0. -1.
         23    2    1    2    0    0  0.00000000000E+00  0.00000000000E+00  0.70473178251E+02  0.11532135749E+03  0.91282783921E+02 0.  0.
          2    1    3    3  502    0 -0.29840318302E+02 -0.34528484597E+02  0.34365144065E+02  0.57128136426E+02  0.00000000000E+00 0. -1.
         -2    1    3    3    0  502  0.29840318302E+02  0.34528484597E+02  0.36108034186E+02  0.58193221063E+02  0.00000000000E+00 0.  1.
<mgrwt>
<rscale>  0 0.91282784E+02</rscale>
<asrwt>0</asrwt>
<pdfrwt beam="1">  1        2 0.14291887E-01 0.91282784E+02</pdfrwt>
<pdfrwt beam="2">  1       -2 0.34498600E-02 0.91282784E+02</pdfrwt>
<totfact> 0.11959762E+05</totfact>
</mgrwt>
</event>
<event>
 5    1  0.4067226E+001  0.9156907E+02  0.7546771E-02  0.1299096E+00
          3   -1    0    0  501    0  0.00000000000E+00  0.00000000000E+00  0.15059287069E+01  0.15059287069E+01  0.00000000000E+00 0. -1.
         -3   -1    0    0    0  501 -0.00000000000E+00 -0.00000000000E+00 -0.13919806307E+04  0.13919806307E+04  0.00000000000E+00 0.  1.
         23    2    1    2    0    0  0.00000000000E+00  0.00000000000E+00 -0.13904747020E+04  0.13934865595E+04  0.91569068823E+02 0.  0.
          2    1    3    3  502    0  0.31524159844E+02 -0.33072625703E+01 -0.11980062829E+04  0.11984255357E+04  0.00000000000E+00 0.  1.
         -2    1    3    3    0  502 -0.31524159844E+02  0.33072625703E+01 -0.19246841914E+03  0.19506102380E+03  0.00000000000E+00 0. -1.
<mgrwt>
<rscale>  0 0.91569069E+02</rscale>
<asrwt>0</asrwt>
<pdfrwt beam="1">  1        3 0.23168160E-03 0.91569069E+02</pdfrwt>
<pdfrwt beam="2">  1       -3 0.21415063E+00 0.91569069E+02</pdfrwt>
<totfact> 0.66573872E+03</totfact>
</mgrwt>
</event>
<event>
 5    1  0.4067226E+001  0.9544525E+02  0.7546771E-02  0.1290176E+00
         -2   -1    0    0    0  501 -0.00000000000E+00  0.00000000000E+00  0.93423043504E+00  0.93423043504E+00  0.00000000000E+00 0.  1.
          2   -1    0    0  501    0  0.00000000000E+00 -0.00000000000E+00 -0.24377809282E+04  0.24377809282E+04  0.00000000000E+00 0. -1.
         23    2    1    2    0    0  0.00000000000E+00  0.00000000000E+00 -0.24368466978E+04  0.24387151587E+04  0.95445254195E+02 0.  0.
          2    1    3    3  502    0  0.47311592249E+02 -0.62224932234E+01 -0.12333865574E+04  0.12343093235E+04  0.00000000000E+00 0. -1.
         -2    1    3    3    0  502 -0.47311592249E+02  0.62224932234E+01 -0.12034601404E+04  0.12044058351E+04  0.00000000000E+00 0.  1.
<mgrwt>
<rscale>  0 0.95445254E+02</rscale>
<asrwt>0</asrwt>
<pdfrwt beam="2">  1        2 0.37504886E+00 0.95445254E+02</pdfrwt>
<pdfrwt beam="1">  1       -2 0.14372560E-03 0.95445254E+02</pdfrwt>
<totfact> 0.13693653E+05</totfact>
</mgrwt>
</event>
<event>
 5    1  0.4067226E+001  0.9056232E+02  0.7546771E-02  0.1301496E+00
          2   -1    0    0  501    0  0.00000000000E+00  0.00000000000E+00  0.71469126806E+02  0.71469126806E+02  0.00000000000E+00 0. -1.
         -2   -1    0    0    0  501 -0.00000000000E+00 -0.00000000000E+00 -0.28689077494E+02  0.28689077494E+02  0.00000000000E+00 0.  1.
         23    2    1    2    0    0  0.00000000000E+00  0.00000000000E+00  0.42780049312E+02  0.10015820430E+03  0.90562317050E+02 0.  0.
          2    1    3    3  502    0 -0.63244620367E+01  0.24291961060E+02 -0.20289885437E+02  0.32276580414E+02  0.00000000000E+00 0.  1.
         -2    1    3    3    0  502  0.63244620367E+01 -0.24291961060E+02  0.63069934749E+02  0.67881623886E+02  0.00000000000E+00 0. -1.
<mgrwt>
<rscale>  0 0.90562317E+02</rscale>
<asrwt>0</asrwt>
<pdfrwt beam="1">  1        2 0.10995250E-01 0.90562317E+02</pdfrwt>
<pdfrwt beam="2">  1       -2 0.44137043E-02 0.90562317E+02</pdfrwt>
<totfact> 0.11337988E+05</totfact>
</mgrwt>
</event>
<event>
 5    1  0.4067226E+001  0.9128378E+02  0.7546771E-02  0.1299772E+00
          1   -1    0    0  501    0  0.00000000000E+00  0.00000000000E+00  0.61694790610E+02  0.61694790610E+02  0.00000000000E+00 0. -1.
         -1   -1    0    0    0  501 -0.00000000000E+00 -0.00000000000E+00 -0.33765935604E+02  0.33765935604E+02  0.00000000000E+00 0.  1.
         23    2    1    2    0    0  0.00000000000E+00  0.00000000000E+00  0.27928855006E+02  0.95460726214E+02  0.91283784471E+02 0.  0.
          2    1    3    3  502    0  0.40134814324E+02 -0.19871425293E+02  0.23170984668E+02  0.50423916890E+02  0.00000000000E+00 0. -1.
         -2    1    3    3    0  502 -0.40134814324E+02  0.19871425293E+02  0.47578703376E+01  0.45036809325E+02  0.00000000000E+00 0.  1.
<mgrwt>
<rscale>  0 0.91283784E+02</rscale>
<asrwt>0</asrwt>
<pdfrwt beam="1">  1        1 0.94915062E-02 0.91283784E+02</pdfrwt>
<pdfrwt beam="2">  1       -1 0.51947593E-02 0.91283784E+02</pdfrwt>
<totfact> 0.96464781E+04</totfact>
</mgrwt>
</event>
<event>
 5    1  0.4067226E+001  0.9032527E+02  0.7546771E-02  0.1302066E+00
         -1   -1    0    0    0  501 -0.00000000000E+00  0.00000000000E+00  0.51931221660E+01  0.51931221660E+01  0.00000000000E+00 0.  1.
          1   -1    0    0  501    0  0.00000000000E+00 -0.00000000000E+00 -0.39276250125E+03  0.39276250125E+03  0.00000000000E+00 0. -1.
         23    2    1    2    0    0  0.00000000000E+00  0.00000000000E+00 -0.38756937908E+03  0.39795562342E+03  0.90325271131E+02 0.  0.
          2    1    3    3  502    0  0.46826783796E+01  0.36182843005E+02 -0.31106009954E+03  0.31319245063E+03  0.00000000000E+00 0. -1.
         -2    1    3    3    0  502 -0.46826783796E+01 -0.36182843005E+02 -0.76509279547E+02  0.84763172791E+02  0.00000000000E+00 0.  1.
<mgrwt>
<rscale>  0 0.90325271E+02</rscale>
<asrwt>0</asrwt>
<pdfrwt beam="2">  1        1 0.60425021E-01 0.90325271E+02</pdfrwt>
<pdfrwt beam="1">  1       -1 0.79894160E-03 0.90325271E+02</pdfrwt>
<totfact> 0.13787636E+05</totfact>
</mgrwt>
</event>
<event>
 5    1  0.4067226E+001  0.1108746E+03  0.7546771E-02  0.1258959E+00
         -2   -1    0    0    0  501 -0.00000000000E+00  0.00000000000E+00  0.36240792601E+01  0.36240792601E+01  0.00000000000E+00 0.  1.
          2   -1    0    0  501    0  0.00000000000E+00 -0.00000000000E+00 -0.84802077891E+03  0.84802077891E+03  0.00000000000E+00 0. -1.
         23    2    1    2    0    0  0.00000000000E+00  0.00000000000E+00 -0.84439669965E+03  0.85164485817E+03  0.11087460515E+03 0.  0.
          2    1    3    3  502    0 -0.49671988425E+01  0.22122788522E+02 -0.81077694005E+03  0.81109391401E+03  0.00000000000E+00 0. -1.
         -2    1    3    3    0  502  0.49671988425E+01 -0.22122788522E+02 -0.33619759605E+02  0.40550944159E+02  0.00000000000E+00 0.  1.
<mgrwt>
<rscale>  0 0.11087461E+03</rscale>
<asrwt>0</asrwt>
<pdfrwt beam="2">  1        2 0.13046469E+00 0.11087461E+03</pdfrwt>
<pdfrwt beam="1">  1       -2 0.55755086E-03 0.11087461E+03</pdfrwt>
<totfact> 0.14622613E+05</totfact>
</mgrwt>
</event>
<event>
 5    1  0.4067226E+001  0.8929640E+02  0.7546771E-02  0.1304565E+00
          1   -1    0    0  501    0  0.00000000000E+00  0.00000000000E+00  0.11028145139E+03  0.11028145139E+03  0.00000000000E+00 0. -1.
         -1   -1    0    0    0  501 -0.00000000000E+00 -0.00000000000E+00 -0.18076127677E+02  0.18076127677E+02  0.00000000000E+00 0.  1.
         23    2    1    2    0    0  0.00000000000E+00  0.00000000000E+00  0.92205323710E+02  0.12835757906E+03  0.89296396247E+02 0.  0.
          2    1    3    3  502    0 -0.28103850249E+01  0.44544819945E+02  0.47755614582E+02  0.65366183704E+02  0.00000000000E+00 0. -1.
         -2    1    3    3    0  502  0.28103850249E+01 -0.44544819945E+02  0.44449709128E+02  0.62991395360E+02  0.00000000000E+00 0.  1.
<mgrwt>
<rscale>  0 0.89296396E+02</rscale>
<asrwt>0</asrwt>
<pdfrwt beam="1">  1        1 0.16966377E-01 0.89296396E+02</pdfrwt>
<pdfrwt beam="2">  1       -1 0.27809428E-02 0.89296396E+02</pdfrwt>
<totfact> 0.11236122E+05</totfact>
</mgrwt>
</event>
<event>
 5    1  0.4067226E+001  0.9080633E+02  0.7546771E-02  0.1300911E+00
          2   -1    0    0  501    0  0.00000000000E+00  0.00000000000E+00  0.28376025429E+04  0.28376025429E+04  0.00000000000E+00 0. -1.
         -2   -1    0    0    0  501 -0.00000000000E+00 -0.00000000000E+00 -0.72647503161E+00  0.72647503161E+00  0.00000000000E+00 0.  1.
         23    2    1    2    0    0  0.00000000000E+00  0.00000000000E+00  0.28368760679E+04  0.28383290180E+04  0.90806330111E+02 0.  0.
          2    1    3    3  502    0  0.31692451550E+02  0.75050860017E+01  0.24072202465E+04  0.24074405606E+04  0.00000000000E+00 0.  1.
         -2    1    3    3    0  502 -0.31692451550E+02 -0.75050860017E+01  0.42965582140E+03  0.43088845733E+03  0.00000000000E+00 0. -1.
<mgrwt>
<rscale>  0 0.90806330E+02</rscale>
<asrwt>0</asrwt>
<pdfrwt beam="1">  1        2 0.43654536E+00 0.90806330E+02</pdfrwt>
<pdfrwt beam="2">  1       -2 0.11176766E-03 0.90806330E+02</pdfrwt>
<totfact> 0.11769689E+05</totfact>
</mgrwt>
</event>
<event>
 5    1  0.4067226E+001  0.9087174E+02  0.7546771E-02  0.1300754E+00
          1   -1    0    0  501    0  0.00000000000E+00  0.00000000000E+00  0.64951569021E+02  0.64951569021E+02  0.00000000000E+00 0. -1.
         -1   -1    0    0    0  501 -0.00000000000E+00 -0.00000000000E+00 -0.31783959787E+02  0.31783959787E+02  0.00000000000E+00 0.  1.
         23    2    1    2    0    0  0.00000000000E+00  0.00000000000E+00  0.33167609234E+02  0.96735528809E+02  0.90871735053E+02 0.  0.
          2    1    3    3  502    0 -0.40370682322E+02 -0.18964438986E+02  0.25801421915E+02  0.51528199173E+02  0.00000000000E+00 0. -1.
         -2    1    3    3    0  502  0.40370682322E+02  0.18964438986E+02  0.73661873187E+01  0.45207329636E+02  0.00000000000E+00 0.  1.
<mgrwt>
<rscale>  0 0.90871735E+02</rscale>
<asrwt>0</asrwt>
<pdfrwt beam="1">  1        1 0.99925491E-02 0.90871735E+02</pdfrwt>
<pdfrwt beam="2">  1       -1 0.48898400E-02 0.90871735E+02</pdfrwt>
<totfact> 0.98447869E+04</totfact>
</mgrwt>
</event>
<event>
 5    1  0.4067226E+001  0.8907693E+02  0.7546771E-02  0.1305103E+00
          4   -1    0    0  501    0  0.00000000000E+00  0.00000000000E+00  0.96379172742E+03  0.96379172742E+03  0.00000000000E+00 0. -1.
         -4   -1    0    0    0  501 -0.00000000000E+00 -0.00000000000E+00 -0.20581986742E+01  0.20581986742E+01  0.00000000000E+00 0.  1.
         23    2    1    2    0    0  0.00000000000E+00  0.00000000000E+00  0.96173352874E+03  0.96584992609E+03  0.89076929798E+02 0.  0.
          2    1    3    3  502    0 -0.49383786483E+01 -0.28219984769E+02  0.85062621317E+03  0.85110851815E+03  0.00000000000E+00 0. -1.
         -2    1    3    3    0  502  0.49383786483E+01  0.28219984769E+02  0.11110731557E+03  0.11474140795E+03  0.00000000000E+00 0.  1.
<mgrwt>
<rscale>  0 0.89076930E+02</rscale>
<asrwt>0</asrwt>
<pdfrwt beam="1">  1        4 0.14827529E+00 0.89076930E+02</pdfrwt>
<pdfrwt beam="2">  1       -4 0.31664672E-03 0.89076930E+02</pdfrwt>
<totfact> 0.78508656E+03</totfact>
</mgrwt>
</event>
<event>
 5    1  0.4067226E+001  0.9101097E+02  0.7546771E-02  0.1300422E+00
          3   -1    0    0  501    0  0.00000000000E+00  0.00000000000E+00  0.20060406314E+02  0.20060406314E+02  0.00000000000E+00 0. -1.
         -3   -1    0    0    0  501 -0.00000000000E+00 -0.00000000000E+00 -0.10322569077E+03  0.10322569077E+03  0.00000000000E+00 0.  1.
         23    2    1    2    0    0  0.00000000000E+00  0.00000000000E+00 -0.83165284457E+02  0.12328609708E+03  0.91010972940E+02 0.  0.
          2    1    3    3  502    0 -0.39466298767E+02 -0.18504043533E+01 -0.72166568684E+02  0.82274092947E+02  0.00000000000E+00 0.  1.
         -2    1    3    3    0  502  0.39466298767E+02  0.18504043533E+01 -0.10998715773E+02  0.41012004137E+02  0.00000000000E+00 0. -1.
<mgrwt>
<rscale>  0 0.91010973E+02</rscale>
<asrwt>0</asrwt>
<pdfrwt beam="1">  1        3 0.30862163E-02 0.91010973E+02</pdfrwt>
<pdfrwt beam="2">  1       -3 0.15880876E-01 0.91010973E+02</pdfrwt>
<totfact> 0.33188610E+04</totfact>
</mgrwt>
</event>
<event>
 5    1  0.4067226E+001  0.9107939E+02  0.7546771E-02  0.1300259E+00
         -1   -1    0    0    0  501 -0.00000000000E+00  0.00000000000E+00  0.63006639292E+02  0.63006639292E+02  0.00000000000E+00 0.  1.
          1   -1    0    0  501    0  0.00000000000E+00 -0.00000000000E+00 -0.32915007137E+02  0.32915007137E+02  0.00000000000E+00 0. -1.
         23    2    1    2    0    0  0.00000000000E+00  0.00000000000E+00  0.30091632155E+02  0.95921646428E+02  0.91079393541E+02 0.  0.
          2    1    3    3  502    0  0.38004474220E+02 -0.21693787544E+02  0.28321693390E+02  0.52125605946E+02  0.00000000000E+00 0.  1.
         -2    1    3    3    0  502 -0.38004474220E+02  0.21693787544E+02  0.17699387646E+01  0.43796040483E+02  0.00000000000E+00 0. -1.
<mgrwt>
<rscale>  0 0.91079394E+02</rscale>
<asrwt>0</asrwt>
<pdfrwt beam="2">  1        1 0.50638473E-02 0.91079394E+02</pdfrwt>
<pdfrwt beam="1">  1       -1 0.96933291E-02 0.91079394E+02</pdfrwt>
<totfact> 0.88243905E+04</totfact>
</mgrwt>
</event>
<event>
 5    1  0.4067226E+001  0.9341924E+02  0.7546771E-02  0.1294777E+00
          1   -1    0    0  501    0  0.00000000000E+00  0.00000000000E+00  0.97773488203E+02  0.97773488203E+02  0.00000000000E+00 0. -1.
         -1   -1    0    0    0  501 -0.00000000000E+00 -0.00000000000E+00 -0.22314724508E+02  0.22314724508E+02  0.00000000000E+00 0.  1.
         23    2    1    2    0    0  0.00000000000E+00  0.00000000000E+00  0.75458763695E+02  0.12008821271E+03  0.93419236852E+02 0.  0.
          2    1    3    3  502    0  0.81153473430E+01 -0.23257615544E+02  0.88745349080E+02  0.92100556603E+02  0.00000000000E+00 0. -1.
         -2    1    3    3    0  502 -0.81153473430E+01  0.23257615544E+02 -0.13286585385E+02  0.27987656109E+02  0.00000000000E+00 0.  1.
<mgrwt>
<rscale>  0 0.93419237E+02</rscale>
<asrwt>0</asrwt>
<pdfrwt beam="1">  1        1 0.15042075E-01 0.93419237E+02</pdfrwt>
<pdfrwt beam="2">  1       -1 0.34330346E-02 0.93419237E+02</pdfrwt>
<totfact> 0.97373179E+04</totfact>
</mgrwt>
</event>
<event>
 5    1  0.4067226E+001  0.9376854E+02  0.7546771E-02  0.1293974E+00
         -3   -1    0    0    0  501 -0.00000000000E+00  0.00000000000E+00  0.35713836565E+01  0.35713836565E+01  0.00000000000E+00 0.  1.
          3   -1    0    0  501    0  0.00000000000E+00 -0.00000000000E+00 -0.61548548704E+03  0.61548548704E+03  0.00000000000E+00 0. -1.
         23    2    1    2    0    0  0.00000000000E+00  0.00000000000E+00 -0.61191410338E+03  0.61905687070E+03  0.93768540764E+02 0.  0.
          2    1    3    3  502    0  0.11430147845E+02 -0.36495436432E+02 -0.48501157269E+03  0.48651699950E+03  0.00000000000E+00 0. -1.
         -2    1    3    3    0  502 -0.11430147845E+02  0.36495436432E+02 -0.12690253069E+03  0.13253987119E+03  0.00000000000E+00 0.  1.
<mgrwt>
<rscale>  0 0.93768541E+02</rscale>
<asrwt>0</asrwt>
<pdfrwt beam="2">  1        3 0.94690035E-01 0.93768541E+02</pdfrwt>
<pdfrwt beam="1">  1       -3 0.54944387E-03 0.93768541E+02</pdfrwt>
<totfact> 0.14250505E+04</totfact>
</mgrwt>
</event>
<event>
 5    1  0.4067226E+001  0.8923973E+02  0.7546771E-02  0.1304703E+00
         -2   -1    0    0    0  501 -0.00000000000E+00  0.00000000000E+00  0.66849548806E+00  0.66849548806E+00  0.00000000000E+00 0.  1.
          2   -1    0    0  501    0  0.00000000000E+00 -0.00000000000E+00 -0.29782287486E+04  0.29782287486E+04  0.00000000000E+00 0. -1.
         23    2    1    2    0    0  0.00000000000E+00  0.00000000000E+00 -0.29775602531E+04  0.29788972441E+04  0.89239732874E+02 0.  0.
          2    1    3    3  502    0 -0.29847974481E+02 -0.26942485535E+02 -0.21344499449E+04  0.21348286504E+04  0.00000000000E+00 0. -1.
         -2    1    3    3    0  502  0.29847974481E+02  0.26942485535E+02 -0.84311030816E+03  0.84406859367E+03  0.00000000000E+00 0.  1.
<mgrwt>
<rscale>  0 0.89239733E+02</rscale>
<asrwt>0</asrwt>
<pdfrwt beam="2">  1        2 0.45818385E+00 0.89239733E+02</pdfrwt>
<pdfrwt beam="1">  1       -2 0.10284663E-03 0.89239733E+02</pdfrwt>
<totfact> 0.10994177E+05</totfact>
</mgrwt>
</event>
<event>
 5    1  0.4067226E+001  0.9079319E+02  0.7546771E-02  0.1300942E+00
         -2   -1    0    0    0  501 -0.00000000000E+00  0.00000000000E+00  0.36757366417E+02  0.36757366417E+02  0.00000000000E+00 0.  1.
          2   -1    0    0  501    0  0.00000000000E+00 -0.00000000000E+00 -0.56066340964E+02  0.56066340964E+02  0.00000000000E+00 0. -1.
         23    2    1    2    0    0  0.00000000000E+00  0.00000000000E+00 -0.19308974547E+02  0.92823707381E+02  0.90793194425E+02 0.  0.
          2    1    3    3  502    0  0.34329088559E+02  0.35255451942E+01 -0.39808775231E+02  0.52684479457E+02  0.00000000000E+00 0. -1.
         -2    1    3    3    0  502 -0.34329088559E+02 -0.35255451942E+01  0.20499800684E+02  0.40139227924E+02  0.00000000000E+00 0.  1.
<mgrwt>
<rscale>  0 0.90793194E+02</rscale>
<asrwt>0</asrwt>
<pdfrwt beam="2">  1        2 0.86255909E-02 0.90793194E+02</pdfrwt>
<pdfrwt beam="1">  1       -2 0.56549795E-02 0.90793194E+02</pdfrwt>
<totfact> 0.10541910E+05</totfact>
</mgrwt>
</event>
<event>
 5    1  0.4067226E+001  0.9224839E+02  0.7546771E-02  0.1297496E+00
         -2   -1    0    0    0  501 -0.00000000000E+00  0.00000000000E+00  0.14974665427E+02  0.14974665427E+02  0.00000000000E+00 0.  1.
          2   -1    0    0  501    0  0.00000000000E+00 -0.00000000000E+00 -0.14206938576E+03  0.14206938576E+03  0.00000000000E+00 0. -1.
         23    2    1    2    0    0  0.00000000000E+00  0.00000000000E+00 -0.12709472033E+03  0.15704405119E+03  0.92248393356E+02 0.  0.
          2    1    3    3  502    0  0.89150916034E+01 -0.45097331598E+02 -0.57133713397E+02  0.73331503340E+02  0.00000000000E+00 0. -1.
         -2    1    3    3    0  502 -0.89150916034E+01  0.45097331598E+02 -0.69961006938E+02  0.83712547849E+02  0.00000000000E+00 0.  1.
<mgrwt>
<rscale>  0 0.92248393E+02</rscale>
<asrwt>0</asrwt>
<pdfrwt beam="2">  1        2 0.21856828E-01 0.92248393E+02</pdfrwt>
<pdfrwt beam="1">  1       -2 0.23037948E-02 0.92248393E+02</pdfrwt>
<totfact> 0.13296798E+05</totfact>
</mgrwt>
</event>
<event>
 5    1  0.4067226E+001  0.8908545E+02  0.7546771E-02  0.1305082E+00
          2   -1    0    0  501    0  0.00000000000E+00  0.00000000000E+00  0.86373291211E+02  0.86373291211E+02  0.00000000000E+00 0. -1.
         -2   -1    0    0    0  501 -0.00000000000E+00 -0.00000000000E+00 -0.22970692994E+02  0.22970692994E+02  0.00000000000E+00 0.  1.
         23    2    1    2    0    0  0.00000000000E+00  0.00000000000E+00  0.63402598217E+02  0.10934398421E+03  0.89085450110E+02 0.  0.
          2    1    3    3  502    0 -0.41274161740E+02 -0.13773436321E+02  0.20006088893E+02  0.47890579118E+02  0.00000000000E+00 0. -1.
         -2    1    3    3    0  502  0.41274161740E+02  0.13773436321E+02  0.43396509324E+02  0.61453405088E+02  0.00000000000E+00 0.  1.
<mgrwt>
<rscale>  0 0.89085450E+02</rscale>
<asrwt>0</asrwt>
<pdfrwt beam="1">  1        2 0.13288198E-01 0.89085450E+02</pdfrwt>
<pdfrwt beam="2">  1       -2 0.35339528E-02 0.89085450E+02</pdfrwt>
<totfact> 0.12520393E+05</totfact>
</mgrwt>
</event>
<event>
 5    1  0.4067226E+001  0.9159029E+02  0.7546771E-02  0.1299046E+00
         -4   -1    0    0    0  501 -0.00000000000E+00  0.00000000000E+00  0.25881704882E+02  0.25881704882E+02  0.00000000000E+00 0.  1.
          4   -1    0    0  501    0  0.00000000000E+00 -0.00000000000E+00 -0.81030032037E+02  0.81030032037E+02  0.00000000000E+00 0. -1.
         23    2    1    2    0    0  0.00000000000E+00  0.00000000000E+00 -0.55148327155E+02  0.10691173692E+03  0.91590291533E+02 0.  0.
          2    1    3    3  502    0 -0.26591668323E+01 -0.28590996123E+02 -0.69216530660E+02  0.74936268550E+02  0.00000000000E+00 0. -1.
         -2    1    3    3    0  502  0.26591668323E+01  0.28590996123E+02  0.14068203505E+02  0.31975468369E+02  0.00000000000E+00 0.  1.
<mgrwt>
<rscale>  0 0.91590292E+02</rscale>
<asrwt>0</asrwt>
<pdfrwt beam="2">  1        4 0.12466159E-01 0.91590292E+02</pdfrwt>
<pdfrwt beam="1">  1       -4 0.39818007E-02 0.91590292E+02</pdfrwt>
<totfact> 0.25719340E+04</totfact>
</mgrwt>
</event>
<event>
 5    1  0.4067226E+001  0.9197888E+02  0.7546771E-02  0.1298129E+00
          2   -1    0    0  501    0  0.00000000000E+00  0.00000000000E+00  0.52488245128E+03  0.52488245128E+03  0.00000000000E+00 0. -1.
         -2   -1    0    0    0  501 -0.00000000000E+00 -0.00000000000E+00 -0.40295281518E+01  0.40295281518E+01  0.00000000000E+00 0.  1.
         23    2    1    2    0    0  0.00000000000E+00  0.00000000000E+00  0.52085292312E+03  0.52891197943E+03  0.91978880484E+02 0.  0.
          2    1    3    3  502    0 -0.37871522918E+01 -0.23007638778E+02  0.32481693813E+02  0.39984426938E+02  0.00000000000E+00 0.  1.
         -2    1    3    3    0  502  0.37871522918E+01  0.23007638778E+02  0.48837122931E+03  0.48892755249E+03  0.00000000000E+00 0. -1.
<mgrwt>
<rscale>  0 0.91978880E+02</rscale>
<asrwt>0</asrwt>
<pdfrwt beam="1">  1        2 0.80751092E-01 0.91978880E+02</pdfrwt>
<pdfrwt beam="2">  1       -2 0.61992782E-03 0.91978880E+02</pdfrwt>
<totfact> 0.21385778E+05</totfact>
</mgrwt>
</event>
<event>
 5    1  0.4067226E+001  0.8810216E+02  0.7546771E-02  0.1307514E+00
          1   -1    0    0  501    0  0.00000000000E+00  0.00000000000E+00  0.79274998429E+01  0.79274998429E+01  0.00000000000E+00 0. -1.
         -1   -1    0    0    0  501 -0.00000000000E+00 -0.00000000000E+00 -0.24478054625E+03  0.24478054625E+03  0.00000000000E+00 0.  1.
         23    2    1    2    0    0  0.00000000000E+00  0.00000000000E+00 -0.23685304641E+03  0.25270804609E+03  0.88102162106E+02 0.  0.
          2    1    3    3  502    0  0.59589213215E+01 -0.25609364213E+02 -0.17049459953E+02  0.31337395607E+02  0.00000000000E+00 0. -1.
         -2    1    3    3    0  502 -0.59589213215E+01  0.25609364213E+02 -0.21980358645E+03  0.22137065048E+03  0.00000000000E+00 0.  1.
<mgrwt>
<rscale>  0 0.88102162E+02</rscale>
<asrwt>0</asrwt>
<pdfrwt beam="1">  1        1 0.12196154E-02 0.88102162E+02</pdfrwt>
<pdfrwt beam="2">  1       -1 0.37658545E-01 0.88102162E+02</pdfrwt>
<totfact> 0.71325635E+04</totfact>
</mgrwt>
</event>
<event>
 5    1  0.4067226E+001  0.9107192E+02  0.7546771E-02  0.1300276E+00
         -1   -1    0    0    0  501 -0.00000000000E+00  0.00000000000E+00  0.13077306339E+03  0.13077306339E+03  0.00000000000E+00 0.  1.
          1   -1    0    0  501    0  0.00000000000E+00 -0.00000000000E+00 -0.15855892765E+02  0.15855892765E+02  0.00000000000E+00 0. -1.
         23    2    1    2    0    0  0.00000000000E+00  0.00000000000E+00  0.11491717062E+03  0.14662895615E+03  0.91071920361E+02 0.  0.
          2    1    3    3  502    0  0.22470794933E+02  0.10633636941E+02 -0.39661458794E+01  0.25174216426E+02  0.00000000000E+00 0. -1.
         -2    1    3    3    0  502 -0.22470794933E+02 -0.10633636941E+02  0.11888331650E+03  0.12145473973E+03  0.00000000000E+00 0.  1.
<mgrwt>
<rscale>  0 0.91071920E+02</rscale>
<asrwt>0</asrwt>
<pdfrwt beam="2">  1        1 0.24393682E-02 0.91071920E+02</pdfrwt>
<pdfrwt beam="1">  1       -1 0.20118932E-01 0.91071920E+02</pdfrwt>
<totfact> 0.77357017E+04</totfact>
</mgrwt>
</event>
<event>
 5    1  0.4067226E+001  0.9161320E+02  0.7546771E-02  0.1298991E+00
          1   -1    0    0  501    0  0.00000000000E+00  0.00000000000E+00  0.10555320975E+03  0.10555320975E+03  0.00000000000E+00 0. -1.
         -1   -1    0    0    0  501 -0.00000000000E+00 -0.00000000000E+00 -0.19878546948E+02  0.19878546948E+02  0.00000000000E+00 0.  1.
         23    2    1    2    0    0  0.00000000000E+00  0.00000000000E+00  0.85674662801E+02  0.12543175670E+03  0.91613196331E+02 0.  0.
          2    1    3    3  502    0 -0.24062958321E+02  0.36731017397E+02  0.60691467918E+02  0.74910932982E+02  0.00000000000E+00 0. -1.
         -2    1    3    3    0  502  0.24062958321E+02 -0.36731017397E+02  0.24983194883E+02  0.50520823714E+02  0.00000000000E+00 0.  1.
<mgrwt>
<rscale>  0 0.91613196E+02</rscale>
<asrwt>0</asrwt>
<pdfrwt beam="1">  1        1 0.16238955E-01 0.91613196E+02</pdfrwt>
<pdfrwt beam="2">  1       -1 0.30582381E-02 0.91613196E+02</pdfrwt>
<totfact> 0.10403822E+05</totfact>
</mgrwt>
</event>
<event>
 5    1  0.4067226E+001  0.9587775E+02  0.7546771E-02  0.1289211E+00
         -1   -1    0    0    0  501 -0.00000000000E+00  0.00000000000E+00  0.12559336220E+02  0.12559336220E+02  0.00000000000E+00 0.  1.
          1   -1    0    0  501    0  0.00000000000E+00 -0.00000000000E+00 -0.18298227252E+03  0.18298227252E+03  0.00000000000E+00 0. -1.
         23    2    1    2    0    0  0.00000000000E+00  0.00000000000E+00 -0.17042293630E+03  0.19554160874E+03  0.95877753060E+02 0.  0.
          2    1    3    3  502    0 -0.21309030809E+02  0.30879826150E+02 -0.14607227007E+03  0.15081361524E+03  0.00000000000E+00 0. -1.
         -2    1    3    3    0  502  0.21309030809E+02 -0.30879826150E+02 -0.24350666228E+02  0.44727993503E+02  0.00000000000E+00 0.  1.
<mgrwt>
<rscale>  0 0.95877753E+02</rscale>
<asrwt>0</asrwt>
<pdfrwt beam="2">  1        1 0.28151117E-01 0.95877753E+02</pdfrwt>
<pdfrwt beam="1">  1       -1 0.19322057E-02 0.95877753E+02</pdfrwt>
<totfact> 0.10164016E+05</totfact>
</mgrwt>
</event>
<event>
 5    1  0.4067226E+001  0.8908430E+02  0.7546771E-02  0.1305084E+00
          1   -1    0    0  501    0  0.00000000000E+00  0.00000000000E+00  0.79099647245E+01  0.79099647245E+01  0.00000000000E+00 0. -1.
         -1   -1    0    0    0  501 -0.00000000000E+00 -0.00000000000E+00 -0.25082324171E+03  0.25082324171E+03  0.00000000000E+00 0.  1.
         23    2    1    2    0    0  0.00000000000E+00  0.00000000000E+00 -0.24291327699E+03  0.25873320644E+03  0.89084297023E+02 0.  0.
          2    1    3    3  502    0  0.34360472879E+02  0.18526416424E+02 -0.59155984462E+02  0.70875247440E+02  0.00000000000E+00 0. -1.
         -2    1    3    3    0  502 -0.34360472879E+02 -0.18526416424E+02 -0.18375729252E+03  0.18785795900E+03  0.00000000000E+00 0.  1.
<mgrwt>
<rscale>  0 0.89084297E+02</rscale>
<asrwt>0</asrwt>
<pdfrwt beam="1">  1        1 0.12169176E-02 0.89084297E+02</pdfrwt>
<pdfrwt beam="2">  1       -1 0.38588194E-01 0.89084297E+02</pdfrwt>
<totfact> 0.68730570E+04</totfact>
</mgrwt>
</event>
<event>
 5    1  0.4067226E+001  0.7335895E+02  0.7546771E-02  0.1349029E+00
         -1   -1    0    0    0  501 -0.00000000000E+00  0.00000000000E+00  0.38230705506E+02  0.38230705506E+02  0.00000000000E+00 0.  1.
          1   -1    0    0  501    0  0.00000000000E+00 -0.00000000000E+00 -0.35191187110E+02  0.35191187110E+02  0.00000000000E+00 0. -1.
         23    2    1    2    0    0  0.00000000000E+00  0.00000000000E+00  0.30395183954E+01  0.73421892616E+02  0.73358950669E+02 0.  0.
          2    1    3    3  502    0 -0.23554172923E+02 -0.20550290108E+01 -0.26546442529E+02  0.35549062115E+02  0.00000000000E+00 0. -1.
         -2    1    3    3    0  502  0.23554172923E+02  0.20550290108E+01  0.29585960924E+02  0.37872830501E+02  0.00000000000E+00 0.  1.
<mgrwt>
<rscale>  0 0.73358951E+02</rscale>
<asrwt>0</asrwt>
<pdfrwt beam="2">  1        1 0.54140288E-02 0.73358951E+02</pdfrwt>
<pdfrwt beam="1">  1       -1 0.58816470E-02 0.73358951E+02</pdfrwt>
<totfact> 0.16303841E+05</totfact>
</mgrwt>
</event>
<event>
 5    1  0.4067226E+001  0.9040621E+02  0.7546771E-02  0.1301871E+00
         -2   -1    0    0    0  501 -0.00000000000E+00  0.00000000000E+00  0.78533403070E+01  0.78533403070E+01  0.00000000000E+00 0.  1.
          2   -1    0    0  501    0  0.00000000000E+00 -0.00000000000E+00 -0.26018492823E+03  0.26018492823E+03  0.00000000000E+00 0. -1.
         23    2    1    2    0    0  0.00000000000E+00  0.00000000000E+00 -0.25233158792E+03  0.26803826854E+03  0.90406211825E+02 0.  0.
          2    1    3    3  502    0 -0.15272649681E+02  0.21295625014E+02 -0.23536476987E+03  0.23681919764E+03  0.00000000000E+00 0. -1.
         -2    1    3    3    0  502  0.15272649681E+02 -0.21295625014E+02 -0.16966818051E+02  0.31219070899E+02  0.00000000000E+00 0.  1.
<mgrwt>
<rscale>  0 0.90406212E+02</rscale>
<asrwt>0</asrwt>
<pdfrwt beam="2">  1        2 0.40028447E-01 0.90406212E+02</pdfrwt>
<pdfrwt beam="1">  1       -2 0.12082063E-02 0.90406212E+02</pdfrwt>
<totfact> 0.17427698E+05</totfact>
</mgrwt>
</event>
<event>
 5    1  0.4067226E+001  0.8954989E+02  0.7546771E-02  0.1303945E+00
          1   -1    0    0  501    0  0.00000000000E+00  0.00000000000E+00  0.23390800454E+03  0.23390800454E+03  0.00000000000E+00 0. -1.
         -1   -1    0    0    0  501 -0.00000000000E+00 -0.00000000000E+00 -0.85708725077E+01  0.85708725077E+01  0.00000000000E+00 0.  1.
         23    2    1    2    0    0  0.00000000000E+00  0.00000000000E+00  0.22533713204E+03  0.24247887705E+03  0.89549889681E+02 0.  0.
          2    1    3    3  502    0 -0.42522450291E+02 -0.10734888168E+02  0.88238839093E+02  0.98536741002E+02  0.00000000000E+00 0.  1.
         -2    1    3    3    0  502  0.42522450291E+02  0.10734888168E+02  0.13709829294E+03  0.14394213605E+03  0.00000000000E+00 0. -1.
<mgrwt>
<rscale>  0 0.89549890E+02</rscale>
<asrwt>0</asrwt>
<pdfrwt beam="1">  1        1 0.35985842E-01 0.89549890E+02</pdfrwt>
<pdfrwt beam="2">  1       -1 0.13185959E-02 0.89549890E+02</pdfrwt>
<totfact> 0.12808812E+05</totfact>
</mgrwt>
</event>
<event>
 5    1  0.4067226E+001  0.9208685E+02  0.7546771E-02  0.1297875E+00
          2   -1    0    0  501    0  0.00000000000E+00  0.00000000000E+00  0.78563934055E+03  0.78563934055E+03  0.00000000000E+00 0. -1.
         -2   -1    0    0    0  501 -0.00000000000E+00 -0.00000000000E+00 -0.26984355881E+01  0.26984355881E+01  0.00000000000E+00 0.  1.
         23    2    1    2    0    0  0.00000000000E+00  0.00000000000E+00  0.78294090497E+03  0.78833777614E+03  0.92086853697E+02 0.  0.
          2    1    3    3  502    0 -0.30783263987E+02 -0.34076471538E+02  0.36284366989E+03  0.36573808119E+03  0.00000000000E+00 0. -1.
         -2    1    3    3    0  502  0.30783263987E+02  0.34076471538E+02  0.42009723507E+03  0.42259969495E+03  0.00000000000E+00 0.  1.
<mgrwt>
<rscale>  0 0.92086854E+02</rscale>
<asrwt>0</asrwt>
<pdfrwt beam="1">  1        2 0.12086741E+00 0.92086854E+02</pdfrwt>
<pdfrwt beam="2">  1       -2 0.41514456E-03 0.92086854E+02</pdfrwt>
<totfact> 0.23666551E+05</totfact>
</mgrwt>
</event>
<event>
 5    1  0.4067226E+001  0.8873083E+02  0.7546771E-02  0.1305955E+00
         -1   -1    0    0    0  501 -0.00000000000E+00  0.00000000000E+00  0.29370552892E+01  0.29370552892E+01  0.00000000000E+00 0.  1.
          1   -1    0    0  501    0  0.00000000000E+00 -0.00000000000E+00 -0.67015771011E+03  0.67015771011E+03  0.00000000000E+00 0. -1.
         23    2    1    2    0    0  0.00000000000E+00  0.00000000000E+00 -0.66722065482E+03  0.67309476540E+03  0.88730834484E+02 0.  0.
          2    1    3    3  502    0 -0.12572612580E+02  0.17403046533E+02 -0.39094103958E+02  0.44601407825E+02  0.00000000000E+00 0.  1.
         -2    1    3    3    0  502  0.12572612580E+02 -0.17403046533E+02 -0.62812655086E+03  0.62849335757E+03  0.00000000000E+00 0. -1.
<mgrwt>
<rscale>  0 0.88730834E+02</rscale>
<asrwt>0</asrwt>
<pdfrwt beam="2">  1        1 0.10310121E+00 0.88730834E+02</pdfrwt>
<pdfrwt beam="1">  1       -1 0.45185455E-03 0.88730834E+02</pdfrwt>
<totfact> 0.15275249E+05</totfact>
</mgrwt>
</event>
<event>
 5    1  0.4067226E+001  0.9019055E+02  0.7546771E-02  0.1302391E+00
          2   -1    0    0  501    0  0.00000000000E+00  0.00000000000E+00  0.63593078714E+02  0.63593078714E+02  0.00000000000E+00 0. -1.
         -2   -1    0    0    0  501 -0.00000000000E+00 -0.00000000000E+00 -0.31978070311E+02  0.31978070311E+02  0.00000000000E+00 0.  1.
         23    2    1    2    0    0  0.00000000000E+00  0.00000000000E+00  0.31615008404E+02  0.95571149025E+02  0.90190552552E+02 0.  0.
          2    1    3    3  502    0  0.19197763866E+02 -0.39445290196E+02  0.47393317186E+01  0.44124214681E+02  0.00000000000E+00 0. -1.
         -2    1    3    3    0  502 -0.19197763866E+02  0.39445290196E+02  0.26875676685E+02  0.51446934344E+02  0.00000000000E+00 0.  1.
<mgrwt>
<rscale>  0 0.90190553E+02</rscale>
<asrwt>0</asrwt>
<pdfrwt beam="1">  1        2 0.97835506E-02 0.90190553E+02</pdfrwt>
<pdfrwt beam="2">  1       -2 0.49197031E-02 0.90190553E+02</pdfrwt>
<totfact> 0.11108703E+05</totfact>
</mgrwt>
</event>
<event>
 5    1  0.4067226E+001  0.9036883E+02  0.7546771E-02  0.1301961E+00
         -1   -1    0    0    0  501 -0.00000000000E+00  0.00000000000E+00  0.29205584694E+01  0.29205584694E+01  0.00000000000E+00 0.  1.
          1   -1    0    0  501    0  0.00000000000E+00 -0.00000000000E+00 -0.69905515596E+03  0.69905515596E+03  0.00000000000E+00 0. -1.
         23    2    1    2    0    0  0.00000000000E+00  0.00000000000E+00 -0.69613459749E+03  0.70197571442E+03  0.90368832156E+02 0.  0.
          2    1    3    3  502    0 -0.83540341496E+01  0.44385466256E+02 -0.35840751812E+03  0.36124203596E+03  0.00000000000E+00 0. -1.
         -2    1    3    3    0  502  0.83540341496E+01 -0.44385466256E+02 -0.33772707936E+03  0.34073367846E+03  0.00000000000E+00 0.  1.
<mgrwt>
<rscale>  0 0.90368832E+02</rscale>
<asrwt>0</asrwt>
<pdfrwt beam="2">  1        1 0.10754699E+00 0.90368832E+02</pdfrwt>
<pdfrwt beam="1">  1       -1 0.44931649E-03 0.90368832E+02</pdfrwt>
<totfact> 0.14556202E+05</totfact>
</mgrwt>
</event>
<event>
 5    1  0.4067226E+001  0.9073056E+02  0.7546771E-02  0.1301092E+00
          1   -1    0    0  501    0  0.00000000000E+00  0.00000000000E+00  0.87933304092E+01  0.87933304092E+01  0.00000000000E+00 0. -1.
         -1   -1    0    0    0  501 -0.00000000000E+00 -0.00000000000E+00 -0.23404199768E+03  0.23404199768E+03  0.00000000000E+00 0.  1.
         23    2    1    2    0    0  0.00000000000E+00  0.00000000000E+00 -0.22524866727E+03  0.24283532809E+03  0.90730559686E+02 0.  0.
          2    1    3    3  502    0  0.13464965645E+02 -0.18147430027E+02 -0.73418938764E+01  0.23760006778E+02  0.00000000000E+00 0. -1.
         -2    1    3    3    0  502 -0.13464965645E+02  0.18147430027E+02 -0.21790677339E+03  0.21907532131E+03  0.00000000000E+00 0.  1.
<mgrwt>
<rscale>  0 0.90730560E+02</rscale>
<asrwt>0</asrwt>
<pdfrwt beam="1">  1        1 0.13528199E-02 0.90730560E+02</pdfrwt>
<pdfrwt beam="2">  1       -1 0.36006465E-01 0.90730560E+02</pdfrwt>
<totfact> 0.67043958E+04</totfact>
</mgrwt>
</event>
<event>
 5    1  0.4067226E+001  0.9378086E+02  0.7546771E-02  0.1293946E+00
         -2   -1    0    0    0  501 -0.00000000000E+00  0.00000000000E+00  0.82374090135E+02  0.82374090135E+02  0.00000000000E+00 0. -1.
          2   -1    0    0  501    0  0.00000000000E+00 -0.00000000000E+00 -0.26691796250E+02  0.26691796250E+02  0.00000000000E+00 0.  1.
         23    2    1    2    0    0  0.00000000000E+00  0.00000000000E+00  0.55682293885E+02  0.10906588639E+03  0.93780860097E+02 0.  0.
          2    1    3    3  502    0 -0.12262073786E+02 -0.29680961475E+02  0.67577091742E+02  0.74819658218E+02  0.00000000000E+00 0. -1.
         -2    1    3    3    0  502  0.12262073786E+02  0.29680961475E+02 -0.11894797856E+02  0.34246228167E+02  0.00000000000E+00 0.  1.
<mgrwt>
<rscale>  0 0.93780860E+02</rscale>
<asrwt>0</asrwt>
<pdfrwt beam="2">  1        2 0.41064302E-02 0.93780860E+02</pdfrwt>
<pdfrwt beam="1">  1       -2 0.12672937E-01 0.93780860E+02</pdfrwt>
<totfact> 0.78738179E+04</totfact>
</mgrwt>
</event>
<event>
 5    1  0.4067226E+001  0.8982405E+02  0.7546771E-02  0.1303278E+00
          1   -1    0    0  501    0  0.00000000000E+00  0.00000000000E+00  0.11066596438E+04  0.11066596438E+04  0.00000000000E+00 0. -1.
         -1   -1    0    0    0  501 -0.00000000000E+00 -0.00000000000E+00 -0.18226831216E+01  0.18226831216E+01  0.00000000000E+00 0.  1.
         23    2    1    2    0    0  0.00000000000E+00  0.00000000000E+00  0.11048369606E+04  0.11084823269E+04  0.89824046981E+02 0.  0.
          2    1    3    3  502    0 -0.31741949466E+02  0.12649170983E+02  0.91210759690E+03  0.91274740274E+03  0.00000000000E+00 0. -1.
         -2    1    3    3    0  502  0.31741949466E+02 -0.12649170983E+02  0.19272936374E+03  0.19573492414E+03  0.00000000000E+00 0.  1.
<mgrwt>
<rscale>  0 0.89824047E+02</rscale>
<asrwt>0</asrwt>
<pdfrwt beam="1">  1        1 0.17025479E+00 0.89824047E+02</pdfrwt>
<pdfrwt beam="2">  1       -1 0.28041367E-03 0.89824047E+02</pdfrwt>
<totfact> 0.13701417E+05</totfact>
</mgrwt>
</event>
<event>
 5    1  0.4067226E+001  0.9475634E+02  0.7546771E-02  0.1291726E+00
          2   -1    0    0  501    0  0.00000000000E+00  0.00000000000E+00  0.40833954979E+03  0.40833954979E+03  0.00000000000E+00 0. -1.
         -2   -1    0    0    0  501 -0.00000000000E+00 -0.00000000000E+00 -0.54971186611E+01  0.54971186611E+01  0.00000000000E+00 0.  1.
         23    2    1    2    0    0  0.00000000000E+00  0.00000000000E+00  0.40284243113E+03  0.41383666845E+03  0.94756339297E+02 0.  0.
          2    1    3    3  502    0  0.82466869975E+01  0.40640095575E+02  0.30149666233E+03  0.30433511564E+03  0.00000000000E+00 0. -1.
         -2    1    3    3    0  502 -0.82466869975E+01 -0.40640095575E+02  0.10134576880E+03  0.10950155281E+03  0.00000000000E+00 0.  1.
<mgrwt>
<rscale>  0 0.94756339E+02</rscale>
<asrwt>0</asrwt>
<pdfrwt beam="1">  1        2 0.62821445E-01 0.94756339E+02</pdfrwt>
<pdfrwt beam="2">  1       -2 0.84571088E-03 0.94756339E+02</pdfrwt>
<totfact> 0.18151477E+05</totfact>
</mgrwt>
</event>
<event>
 5    1  0.4067226E+001  0.9909591E+02  0.7546771E-02  0.1282209E+00
          1   -1    0    0  501    0  0.00000000000E+00  0.00000000000E+00  0.28972563826E+02  0.28972563826E+02  0.00000000000E+00 0. -1.
         -1   -1    0    0    0  501 -0.00000000000E+00 -0.00000000000E+00 -0.84735336306E+02  0.84735336306E+02  0.00000000000E+00 0.  1.
         23    2    1    2    0    0  0.00000000000E+00  0.00000000000E+00 -0.55762772480E+02  0.11370790013E+03  0.99095911912E+02 0.  0.
          2    1    3    3  502    0  0.44017917649E+02 -0.14459932214E+02 -0.77327774758E+01  0.46972998215E+02  0.00000000000E+00 0. -1.
         -2    1    3    3    0  502 -0.44017917649E+02  0.14459932214E+02 -0.48029995005E+02  0.66734901917E+02  0.00000000000E+00 0.  1.
<mgrwt>
<rscale>  0 0.99095912E+02</rscale>
<asrwt>0</asrwt>
<pdfrwt beam="1">  1        1 0.44573176E-02 0.99095912E+02</pdfrwt>
<pdfrwt beam="2">  1       -1 0.13036205E-01 0.99095912E+02</pdfrwt>
<totfact> 0.67680812E+04</totfact>
</mgrwt>
</event>
<event>
 5    1  0.4067226E+001  0.8720197E+02  0.7546771E-02  0.1309773E+00
          3   -1    0    0  501    0  0.00000000000E+00  0.00000000000E+00  0.50281206320E+03  0.50281206320E+03  0.00000000000E+00 0. -1.
         -3   -1    0    0    0  501 -0.00000000000E+00 -0.00000000000E+00 -0.37808275838E+01  0.37808275838E+01  0.00000000000E+00 0.  1.
         23    2    1    2    0    0  0.00000000000E+00  0.00000000000E+00  0.49903123561E+03  0.50659289078E+03  0.87201965987E+02 0.  0.
          2    1    3    3  502    0  0.19655941361E+02 -0.45006320582E+01  0.47409567296E+03  0.47452430795E+03  0.00000000000E+00 0. -1.
         -2    1    3    3    0  502 -0.19655941361E+02  0.45006320582E+01  0.24935562654E+02  0.32068582828E+02  0.00000000000E+00 0.  1.
<mgrwt>
<rscale>  0 0.87201966E+02</rscale>
<asrwt>0</asrwt>
<pdfrwt beam="1">  1        3 0.77355649E-01 0.87201966E+02</pdfrwt>
<pdfrwt beam="2">  1       -3 0.58166618E-03 0.87201966E+02</pdfrwt>
<totfact> 0.19986953E+04</totfact>
</mgrwt>
</event>
<event>
 5    1  0.4067226E+001  0.8876862E+02  0.7546771E-02  0.1305861E+00
          4   -1    0    0  501    0  0.00000000000E+00  0.00000000000E+00  0.10607707133E+01  0.10607707133E+01  0.00000000000E+00 0. -1.
         -4   -1    0    0    0  501 -0.00000000000E+00 -0.00000000000E+00 -0.18571091014E+04  0.18571091014E+04  0.00000000000E+00 0.  1.
         23    2    1    2    0    0  0.00000000000E+00  0.00000000000E+00 -0.18560483306E+04  0.18581698721E+04  0.88768619367E+02 0.  0.
          2    1    3    3  502    0 -0.42669519656E+02 -0.72516809229E+01 -0.72218804627E+03  0.72348382771E+03  0.00000000000E+00 0. -1.
         -2    1    3    3    0  502  0.42669519656E+02  0.72516809229E+01 -0.11338602844E+04  0.11346860444E+04  0.00000000000E+00 0.  1.
<mgrwt>
<rscale>  0 0.88768619E+02</rscale>
<asrwt>0</asrwt>
<pdfrwt beam="1">  1        4 0.16319693E-03 0.88768619E+02</pdfrwt>
<pdfrwt beam="2">  1       -4 0.28570658E+00 0.88768619E+02</pdfrwt>
<totfact> 0.29719052E+03</totfact>
</mgrwt>
</event>
<event>
 5    1  0.4067226E+001  0.9216561E+02  0.7546771E-02  0.1297691E+00
         -1   -1    0    0    0  501 -0.00000000000E+00  0.00000000000E+00  0.10389245506E+03  0.10389245506E+03  0.00000000000E+00 0.  1.
          1   -1    0    0  501    0  0.00000000000E+00 -0.00000000000E+00 -0.20440607881E+02  0.20440607881E+02  0.00000000000E+00 0. -1.
         23    2    1    2    0    0  0.00000000000E+00  0.00000000000E+00  0.83451847178E+02  0.12433306294E+03  0.92165610413E+02 0.  0.
          2    1    3    3  502    0 -0.38425393478E+02 -0.25359627604E+02  0.44425092267E+02  0.63978202531E+02  0.00000000000E+00 0.  1.
         -2    1    3    3    0  502  0.38425393478E+02  0.25359627604E+02  0.39026754911E+02  0.60354860409E+02  0.00000000000E+00 0. -1.
<mgrwt>
<rscale>  0 0.92165610E+02</rscale>
<asrwt>0</asrwt>
<pdfrwt beam="2">  1        1 0.31447090E-02 0.92165610E+02</pdfrwt>
<pdfrwt beam="1">  1       -1 0.15983454E-01 0.92165610E+02</pdfrwt>
<totfact> 0.78571783E+04</totfact>
</mgrwt>
</event>
<event>
 5    1  0.4067226E+001  0.9158085E+02  0.7546771E-02  0.1299068E+00
          1   -1    0    0  501    0  0.00000000000E+00  0.00000000000E+00  0.31194919473E+03  0.31194919473E+03  0.00000000000E+00 0. -1.
         -1   -1    0    0    0  501 -0.00000000000E+00 -0.00000000000E+00 -0.67214891170E+01  0.67214891170E+01  0.00000000000E+00 0.  1.
         23    2    1    2    0    0  0.00000000000E+00  0.00000000000E+00  0.30522770561E+03  0.31867068385E+03  0.91580852091E+02 0.  0.
          2    1    3    3  502    0  0.12328592352E+02 -0.44016926260E+02  0.14322576398E+03  0.15034328537E+03  0.00000000000E+00 0.  1.
         -2    1    3    3    0  502 -0.12328592352E+02  0.44016926260E+02  0.16200194163E+03  0.16832739848E+03  0.00000000000E+00 0. -1.
<mgrwt>
<rscale>  0 0.91580852E+02</rscale>
<asrwt>0</asrwt>
<pdfrwt beam="1">  1        1 0.47992173E-01 0.91580852E+02</pdfrwt>
<pdfrwt beam="2">  1       -1 0.10340755E-02 0.91580852E+02</pdfrwt>
<totfact> 0.12756144E+05</totfact>
</mgrwt>
</event>
<event>
 5    1  0.4067226E+001  0.8833885E+02  0.7546771E-02  0.1306925E+00
          2   -1    0    0  501    0  0.00000000000E+00  0.00000000000E+00  0.51137022958E+02  0.51137022958E+02  0.00000000000E+00 0. -1.
         -2   -1    0    0    0  501 -0.00000000000E+00 -0.00000000000E+00 -0.38151184899E+02  0.38151184899E+02  0.00000000000E+00 0.  1.
         23    2    1    2    0    0  0.00000000000E+00  0.00000000000E+00  0.12985838059E+02  0.89288207858E+02  0.88338848036E+02 0.  0.
          2    1    3    3  502    0 -0.19272193938E+02 -0.22365490370E+02  0.39698765024E+02  0.49473473327E+02  0.00000000000E+00 0. -1.
         -2    1    3    3    0  502  0.19272193938E+02  0.22365490370E+02 -0.26712926965E+02  0.39814734530E+02  0.00000000000E+00 0.  1.
<mgrwt>
<rscale>  0 0.88338848E+02</rscale>
<asrwt>0</asrwt>
<pdfrwt beam="1">  1        2 0.78672343E-02 0.88338848E+02</pdfrwt>
<pdfrwt beam="2">  1       -2 0.58694131E-02 0.88338848E+02</pdfrwt>
<totfact> 0.11121568E+05</totfact>
</mgrwt>
</event>
<event>
 5    1  0.4067226E+001  0.9018213E+02  0.7546771E-02  0.1302411E+00
          1   -1    0    0  501    0  0.00000000000E+00  0.00000000000E+00  0.69111639574E+02  0.69111639574E+02  0.00000000000E+00 0. -1.
         -1   -1    0    0    0  501 -0.00000000000E+00 -0.00000000000E+00 -0.29419129867E+02  0.29419129867E+02  0.00000000000E+00 0.  1.
         23    2    1    2    0    0  0.00000000000E+00  0.00000000000E+00  0.39692509706E+02  0.98530769441E+02  0.90182133484E+02 0.  0.
          2    1    3    3  502    0 -0.54474938464E+01  0.30670820955E+02  0.55465379395E+02  0.63614328250E+02  0.00000000000E+00 0. -1.
         -2    1    3    3    0  502  0.54474938464E+01 -0.30670820955E+02 -0.15772869689E+02  0.34916441191E+02  0.00000000000E+00 0.  1.
<mgrwt>
<rscale>  0 0.90182133E+02</rscale>
<asrwt>0</asrwt>
<pdfrwt beam="1">  1        1 0.10632560E-01 0.90182133E+02</pdfrwt>
<pdfrwt beam="2">  1       -1 0.45260200E-02 0.90182133E+02</pdfrwt>
<totfact> 0.10149424E+05</totfact>
</mgrwt>
</event>
<event>
 5    1  0.4067226E+001  0.8807574E+02  0.7546771E-02  0.1307580E+00
          1   -1    0    0  501    0  0.00000000000E+00  0.00000000000E+00  0.54443953597E+02  0.54443953597E+02  0.00000000000E+00 0. -1.
         -1   -1    0    0    0  501 -0.00000000000E+00 -0.00000000000E+00 -0.35620738102E+02  0.35620738102E+02  0.00000000000E+00 0.  1.
         23    2    1    2    0    0  0.00000000000E+00  0.00000000000E+00  0.18823215495E+02  0.90064691699E+02  0.88075735871E+02 0.  0.
          2    1    3    3  502    0 -0.41819200421E+02 -0.13559662862E+02  0.12043408001E+02  0.45582383188E+02  0.00000000000E+00 0. -1.
         -2    1    3    3    0  502  0.41819200421E+02  0.13559662862E+02  0.67798074938E+01  0.44482308511E+02  0.00000000000E+00 0.  1.
<mgrwt>
<rscale>  0 0.88075736E+02</rscale>
<asrwt>0</asrwt>
<pdfrwt beam="1">  1        1 0.83759928E-02 0.88075736E+02</pdfrwt>
<pdfrwt beam="2">  1       -1 0.54801136E-02 0.88075736E+02</pdfrwt>
<totfact> 0.10454146E+05</totfact>
</mgrwt>
</event>
<event>
 5    1  0.4067226E+001  0.8812294E+02  0.7546771E-02  0.1307462E+00
          2   -1    0    0  501    0  0.00000000000E+00  0.00000000000E+00  0.24448922363E+02  0.24448922363E+02  0.00000000000E+00 0. -1.
         -2   -1    0    0    0  501 -0.00000000000E+00 -0.00000000000E+00 -0.79406905140E+02  0.79406905140E+02  0.00000000000E+00 0.  1.
         23    2    1    2    0    0  0.00000000000E+00  0.00000000000E+00 -0.54957982778E+02  0.10385582750E+03  0.88122942730E+02 0.  0.
          2    1    3    3  502    0  0.20014452023E+02  0.39188781390E+02 -0.24824181247E+02  0.50523052671E+02  0.00000000000E+00 0. -1.
         -2    1    3    3    0  502 -0.20014452023E+02 -0.39188781390E+02 -0.30133801531E+02  0.53332774832E+02  0.00000000000E+00 0.  1.
<mgrwt>
<rscale>  0 0.88122943E+02</rscale>
<asrwt>0</asrwt>
<pdfrwt beam="1">  1        2 0.37613727E-02 0.88122943E+02</pdfrwt>
<pdfrwt beam="2">  1       -2 0.12216447E-01 0.88122943E+02</pdfrwt>
<totfact> 0.92690989E+04</totfact>
</mgrwt>
</event>
<event>
 5    1  0.4067226E+001  0.8974256E+02  0.7546771E-02  0.1303476E+00
          2   -1    0    0  501    0  0.00000000000E+00  0.00000000000E+00  0.47163009171E+03  0.47163009171E+03  0.00000000000E+00 0. -1.
         -2   -1    0    0    0  501 -0.00000000000E+00 -0.00000000000E+00 -0.42690914368E+01  0.42690914368E+01  0.00000000000E+00 0.  1.
         23    2    1    2    0    0  0.00000000000E+00  0.00000000000E+00  0.46736100028E+03  0.47589918315E+03  0.89742564837E+02 0.  0.
          2    1    3    3  502    0 -0.34780990443E+01  0.35754369834E+02  0.37626541205E+03  0.37797636493E+03  0.00000000000E+00 0. -1.
         -2    1    3    3    0  502  0.34780990443E+01 -0.35754369834E+02  0.91095588221E+02  0.97922818222E+02  0.00000000000E+00 0.  1.
<mgrwt>
<rscale>  0 0.89742565E+02</rscale>
<asrwt>0</asrwt>
<pdfrwt beam="1">  1        2 0.72558434E-01 0.89742565E+02</pdfrwt>
<pdfrwt beam="2">  1       -2 0.65678367E-03 0.89742565E+02</pdfrwt>
<totfact> 0.22043425E+05</totfact>
</mgrwt>
</event>
<event>
 5    1  0.4067226E+001  0.8999370E+02  0.7546771E-02  0.1302867E+00
         -2   -1    0    0    0  501 -0.00000000000E+00  0.00000000000E+00  0.18696150925E+01  0.18696150925E+01  0.00000000000E+00 0.  1.
          2   -1    0    0  501    0  0.00000000000E+00 -0.00000000000E+00 -0.10829590661E+04  0.10829590661E+04  0.00000000000E+00 0. -1.
         23    2    1    2    0    0  0.00000000000E+00  0.00000000000E+00 -0.10810894510E+04  0.10848286812E+04  0.89993702326E+02 0.  0.
          2    1    3    3  502    0 -0.30040229780E+02  0.15822878508E+02 -0.89649700124E+03  0.89713970602E+03  0.00000000000E+00 0. -1.
         -2    1    3    3    0  502  0.30040229780E+02 -0.15822878508E+02 -0.18459244981E+03  0.18768897522E+03  0.00000000000E+00 0.  1.
<mgrwt>
<rscale>  0 0.89993702E+02</rscale>
<asrwt>0</asrwt>
<pdfrwt beam="2">  1        2 0.16660907E+00 0.89993702E+02</pdfrwt>
<pdfrwt beam="1">  1       -2 0.28763311E-03 0.89993702E+02</pdfrwt>
<totfact> 0.25903500E+05</totfact>
</mgrwt>
</event>
<event>
 5    1  0.4067226E+001  0.9090599E+02  0.7546771E-02  0.1300672E+00
         -1   -1    0    0    0  501 -0.00000000000E+00  0.00000000000E+00  0.18093810918E+01  0.18093810918E+01  0.00000000000E+00 0.  1.
          1   -1    0    0  501    0  0.00000000000E+00 -0.00000000000E+00 -0.11418128423E+04  0.11418128423E+04  0.00000000000E+00 0. -1.
         23    2    1    2    0    0  0.00000000000E+00  0.00000000000E+00 -0.11400034612E+04  0.11436222234E+04  0.90905985882E+02 0.  0.
          2    1    3    3  502    0  0.34132587283E+02 -0.14769101439E+02 -0.89873339204E+03  0.89950256800E+03  0.00000000000E+00 0. -1.
         -2    1    3    3    0  502 -0.34132587283E+02  0.14769101439E+02 -0.24127006917E+03  0.24411965539E+03  0.00000000000E+00 0.  1.
<mgrwt>
<rscale>  0 0.90905986E+02</rscale>
<asrwt>0</asrwt>
<pdfrwt beam="2">  1        1 0.17566371E+00 0.90905986E+02</pdfrwt>
<pdfrwt beam="1">  1       -1 0.27836602E-03 0.90905986E+02</pdfrwt>
<totfact> 0.13113760E+05</totfact>
</mgrwt>
</event>
<event>
 5    1  0.4067226E+001  0.9132954E+02  0.7546771E-02  0.1299664E+00
          3   -1    0    0  501    0  0.00000000000E+00  0.00000000000E+00  0.73520397901E+01  0.73520397901E+01  0.00000000000E+00 0. -1.
         -3   -1    0    0    0  501 -0.00000000000E+00 -0.00000000000E+00 -0.28363167129E+03  0.28363167129E+03  0.00000000000E+00 0.  1.
         23    2    1    2    0    0  0.00000000000E+00  0.00000000000E+00 -0.27627963150E+03  0.29098371108E+03  0.91329542494E+02 0.  0.
          2    1    3    3  502    0 -0.17500539052E+02  0.12895552560E+02 -0.10191327955E+02  0.24008900609E+02  0.00000000000E+00 0. -1.
         -2    1    3    3    0  502  0.17500539052E+02 -0.12895552560E+02 -0.26608830354E+03  0.26697481047E+03  0.00000000000E+00 0.  1.
<mgrwt>
<rscale>  0 0.91329542E+02</rscale>
<asrwt>0</asrwt>
<pdfrwt beam="1">  1        3 0.11310832E-02 0.91329542E+02</pdfrwt>
<pdfrwt beam="2">  1       -3 0.43635635E-01 0.91329542E+02</pdfrwt>
<totfact> 0.24267741E+04</totfact>
</mgrwt>
</event>
<event>
 5    1  0.4067226E+001  0.9521239E+02  0.7546771E-02  0.1290698E+00
          2   -1    0    0  501    0  0.00000000000E+00  0.00000000000E+00  0.16027570238E+03  0.16027570238E+03  0.00000000000E+00 0. -1.
         -2   -1    0    0    0  501 -0.00000000000E+00 -0.00000000000E+00 -0.14140319354E+02  0.14140319354E+02  0.00000000000E+00 0.  1.
         23    2    1    2    0    0  0.00000000000E+00  0.00000000000E+00  0.14613538303E+03  0.17441602173E+03  0.95212386094E+02 0.  0.
          2    1    3    3  502    0  0.30966329154E+02  0.90402749874E+01  0.13720145178E+03  0.14094281991E+03  0.00000000000E+00 0. -1.
         -2    1    3    3    0  502 -0.30966329154E+02 -0.90402749874E+01  0.89339312473E+01  0.33473201828E+02  0.00000000000E+00 0.  1.
<mgrwt>
<rscale>  0 0.95212386E+02</rscale>
<asrwt>0</asrwt>
<pdfrwt beam="1">  1        2 0.24657799E-01 0.95212386E+02</pdfrwt>
<pdfrwt beam="2">  1       -2 0.21754339E-02 0.95212386E+02</pdfrwt>
<totfact> 0.12713711E+05</totfact>
</mgrwt>
</event>
<event>
 5    1  0.4067226E+001  0.9267990E+02  0.7546771E-02  0.1296489E+00
         -1   -1    0    0    0  501 -0.00000000000E+00  0.00000000000E+00  0.11317949971E+03  0.11317949971E+03  0.00000000000E+00 0.  1.
          1   -1    0    0  501    0  0.00000000000E+00 -0.00000000000E+00 -0.18973322679E+02  0.18973322679E+02  0.00000000000E+00 0. -1.
         23    2    1    2    0    0  0.00000000000E+00  0.00000000000E+00  0.94206177035E+02  0.13215282239E+03  0.92679904374E+02 0.  0.
          2    1    3    3  502    0 -0.59563110286E+01  0.40266666295E+02  0.15522922698E+02  0.43564242042E+02  0.00000000000E+00 0. -1.
         -2    1    3    3    0  502  0.59563110286E+01 -0.40266666295E+02  0.78683254337E+02  0.88588580351E+02  0.00000000000E+00 0.  1.
<mgrwt>
<rscale>  0 0.92679904E+02</rscale>
<asrwt>0</asrwt>
<pdfrwt beam="2">  1        1 0.29189728E-02 0.92679904E+02</pdfrwt>
<pdfrwt beam="1">  1       -1 0.17412230E-01 0.92679904E+02</pdfrwt>
<totfact> 0.76171974E+04</totfact>
</mgrwt>
</event>
<event>
 5    1  0.4067226E+001  0.9623232E+02  0.7546771E-02  0.1288424E+00
         -1   -1    0    0    0  501 -0.00000000000E+00  0.00000000000E+00  0.24666830961E+01  0.24666830961E+01  0.00000000000E+00 0.  1.
          1   -1    0    0  501    0  0.00000000000E+00 -0.00000000000E+00 -0.93857406218E+03  0.93857406218E+03  0.00000000000E+00 0. -1.
         23    2    1    2    0    0  0.00000000000E+00  0.00000000000E+00 -0.93610737908E+03  0.94104074528E+03  0.96232318347E+02 0.  0.
          2    1    3    3  502    0  0.18667538114E+02 -0.33130704097E+02 -0.75632964631E+03  0.75728505493E+03  0.00000000000E+00 0.  1.
         -2    1    3    3    0  502 -0.18667538114E+02  0.33130704097E+02 -0.17977773277E+03  0.18375569034E+03  0.00000000000E+00 0. -1.
<mgrwt>
<rscale>  0 0.96232318E+02</rscale>
<asrwt>0</asrwt>
<pdfrwt beam="2">  1        1 0.14439596E+00 0.96232318E+02</pdfrwt>
<pdfrwt beam="1">  1       -1 0.37948983E-03 0.96232318E+02</pdfrwt>
<totfact> 0.11966983E+05</totfact>
</mgrwt>
</event>
<event>
 5    1  0.4067226E+001  0.8961064E+02  0.7546771E-02  0.1303797E+00
         -1   -1    0    0    0  501 -0.00000000000E+00  0.00000000000E+00  0.16703595781E+01  0.16703595781E+01  0.00000000000E+00 0.  1.
          1   -1    0    0  501    0  0.00000000000E+00 -0.00000000000E+00 -0.12018471430E+04  0.12018471430E+04  0.00000000000E+00 0. -1.
         23    2    1    2    0    0  0.00000000000E+00  0.00000000000E+00 -0.12001767835E+04  0.12035175026E+04  0.89610644163E+02 0.  0.
          2    1    3    3  502    0 -0.44286368017E+02  0.18142427085E+01 -0.68809982498E+03  0.68952588277E+03  0.00000000000E+00 0. -1.
         -2    1    3    3    0  502  0.44286368017E+02 -0.18142427085E+01 -0.51207695848E+03  0.51399161985E+03  0.00000000000E+00 0.  1.
<mgrwt>
<rscale>  0 0.89610644E+02</rscale>
<asrwt>0</asrwt>
<pdfrwt beam="2">  1        1 0.18489951E+00 0.89610644E+02</pdfrwt>
<pdfrwt beam="1">  1       -1 0.25697847E-03 0.89610644E+02</pdfrwt>
<totfact> 0.13317089E+05</totfact>
</mgrwt>
</event>
<event>
 5    1  0.4067226E+001  0.9206429E+02  0.7546771E-02  0.1297928E+00
         -1   -1    0    0    0  501 -0.00000000000E+00  0.00000000000E+00  0.20549194706E+01  0.20549194706E+01  0.00000000000E+00 0.  1.
          1   -1    0    0  501    0  0.00000000000E+00 -0.00000000000E+00 -0.10311636297E+04  0.10311636297E+04  0.00000000000E+00 0. -1.
         23    2    1    2    0    0  0.00000000000E+00  0.00000000000E+00 -0.10291087102E+04  0.10332185492E+04  0.92064286671E+02 0.  0.
          2    1    3    3  502    0 -0.13466012299E+01  0.45005906019E+02 -0.40713555774E+03  0.40961775754E+03  0.00000000000E+00 0.  1.
         -2    1    3    3    0  502  0.13466012299E+01 -0.45005906019E+02 -0.62197315250E+03  0.62360079165E+03  0.00000000000E+00 0. -1.
<mgrwt>
<rscale>  0 0.92064287E+02</rscale>
<asrwt>0</asrwt>
<pdfrwt beam="2">  1        1 0.15864051E+00 0.92064287E+02</pdfrwt>
<pdfrwt beam="1">  1       -1 0.31614155E-03 0.92064287E+02</pdfrwt>
<totfact> 0.13143732E+05</totfact>
</mgrwt>
</event>
<event>
 5    1  0.4067226E+001  0.9542838E+02  0.7546771E-02  0.1290214E+00
          3   -1    0    0  501    0  0.00000000000E+00  0.00000000000E+00  0.47685294360E+01  0.47685294360E+01  0.00000000000E+00 0. -1.
         -3   -1    0    0    0  501 -0.00000000000E+00 -0.00000000000E+00 -0.47743100222E+03  0.47743100222E+03  0.00000000000E+00 0.  1.
         23    2    1    2    0    0  0.00000000000E+00  0.00000000000E+00 -0.47266247278E+03  0.48219953165E+03  0.95428377074E+02 0.  0.
          2    1    3    3  502    0  0.29957118785E+02 -0.36385950624E+02 -0.27389967321E+03  0.27792516502E+03  0.00000000000E+00 0. -1.
         -2    1    3    3    0  502 -0.29957118785E+02  0.36385950624E+02 -0.19876279958E+03  0.20427436664E+03  0.00000000000E+00 0.  1.
<mgrwt>
<rscale>  0 0.95428377E+02</rscale>
<asrwt>0</asrwt>
<pdfrwt beam="1">  1        3 0.73361962E-03 0.95428377E+02</pdfrwt>
<pdfrwt beam="2">  1       -3 0.73450953E-01 0.95428377E+02</pdfrwt>
<totfact> 0.16224324E+04</totfact>
</mgrwt>
</event>
<event>
 5    1  0.4067226E+001  0.9054429E+02  0.7546771E-02  0.1301539E+00
          1   -1    0    0  501    0  0.00000000000E+00  0.00000000000E+00  0.11209812379E+03  0.11209812379E+03  0.00000000000E+00 0. -1.
         -1   -1    0    0    0  501 -0.00000000000E+00 -0.00000000000E+00 -0.18283688952E+02  0.18283688952E+02  0.00000000000E+00 0.  1.
         23    2    1    2    0    0  0.00000000000E+00  0.00000000000E+00  0.93814434838E+02  0.13038181274E+03  0.90544292531E+02 0.  0.
          2    1    3    3  502    0 -0.38001621697E+02  0.23399843836E+02  0.35950952430E+02  0.57307477032E+02  0.00000000000E+00 0. -1.
         -2    1    3    3    0  502  0.38001621697E+02 -0.23399843836E+02  0.57863482408E+02  0.73074335711E+02  0.00000000000E+00 0.  1.
<mgrwt>
<rscale>  0 0.90544293E+02</rscale>
<asrwt>0</asrwt>
<pdfrwt beam="1">  1        1 0.17245865E-01 0.90544293E+02</pdfrwt>
<pdfrwt beam="2">  1       -1 0.28128753E-02 0.90544293E+02</pdfrwt>
<totfact> 0.10851329E+05</totfact>
</mgrwt>
</event>
<event>
 5    1  0.4067226E+001  0.8581630E+02  0.7546771E-02  0.1313312E+00
         -4   -1    0    0    0  501 -0.00000000000E+00  0.00000000000E+00  0.50988474830E+01  0.50988474830E+01  0.00000000000E+00 0.  1.
          4   -1    0    0  501    0  0.00000000000E+00 -0.00000000000E+00 -0.36108342203E+03  0.36108342203E+03  0.00000000000E+00 0. -1.
         23    2    1    2    0    0  0.00000000000E+00  0.00000000000E+00 -0.35598457454E+03  0.36618226951E+03  0.85816299094E+02 0.  0.
          2    1    3    3  502    0 -0.14159401825E+02 -0.20484040698E+02 -0.28888128124E+02  0.38139330485E+02  0.00000000000E+00 0.  1.
         -2    1    3    3    0  502  0.14159401825E+02  0.20484040698E+02 -0.32709644642E+03  0.32804293902E+03  0.00000000000E+00 0. -1.
<mgrwt>
<rscale>  0 0.85816299E+02</rscale>
<asrwt>0</asrwt>
<pdfrwt beam="2">  1        4 0.55551296E-01 0.85816299E+02</pdfrwt>
<pdfrwt beam="1">  1       -4 0.78443807E-03 0.85816299E+02</pdfrwt>
<totfact> 0.18740600E+04</totfact>
</mgrwt>
</event>
<event>
 5    1  0.4067226E+001  0.8822844E+02  0.7546771E-02  0.1307199E+00
          1   -1    0    0  501    0  0.00000000000E+00  0.00000000000E+00  0.15176916580E+02  0.15176916580E+02  0.00000000000E+00 0. -1.
         -1   -1    0    0    0  501 -0.00000000000E+00 -0.00000000000E+00 -0.12822528149E+03  0.12822528149E+03  0.00000000000E+00 0.  1.
         23    2    1    2    0    0  0.00000000000E+00  0.00000000000E+00 -0.11304836491E+03  0.14340219807E+03  0.88228439871E+02 0.  0.
          2    1    3    3  502    0 -0.13430284171E+02 -0.25672055634E+02 -0.11059337520E+03  0.11432550727E+03  0.00000000000E+00 0.  1.
         -2    1    3    3    0  502  0.13430284171E+02  0.25672055634E+02 -0.24549897053E+01  0.29076690799E+02  0.00000000000E+00 0. -1.
<mgrwt>
<rscale>  0 0.88228440E+02</rscale>
<asrwt>0</asrwt>
<pdfrwt beam="1">  1        1 0.23349102E-02 0.88228440E+02</pdfrwt>
<pdfrwt beam="2">  1       -1 0.19726966E-01 0.88228440E+02</pdfrwt>
<totfact> 0.84319458E+04</totfact>
</mgrwt>
</event>
<event>
 4    1  0.4067226E+001  0.4706018E+02  0.7546771E-02  0.1461875E+00
         -1   -1    0    0    0  501 -0.00000000000E+00  0.00000000000E+00  0.61031043726E+02  0.61031043726E+02  0.00000000000E+00 0.  1.
          1   -1    0    0  501    0  0.00000000000E+00 -0.00000000000E+00 -0.90718612075E+01  0.90718612075E+01  0.00000000000E+00 0. -1.
          2    1    1    2  502    0 -0.85475859981E+01 -0.19984944257E+02  0.39403417023E+02  0.45000983283E+02  0.00000000000E+00 0. -1.
         -2    1    1    2    0  502  0.85475859981E+01  0.19984944257E+02  0.12555765495E+02  0.25101921650E+02  0.00000000000E+00 0.  1.
<mgrwt>
<rscale>  0 0.47060181E+02</rscale>
<asrwt>0</asrwt>
<pdfrwt beam="2">  1        1 0.13956710E-02 0.47060181E+02</pdfrwt>
<pdfrwt beam="1">  1       -1 0.93893911E-02 0.47060181E+02</pdfrwt>
<totfact> 0.46340218E+05</totfact>
</mgrwt>
</event>
<event>
 5    1  0.4067226E+001  0.9020715E+02  0.7546771E-02  0.1302351E+00
          1   -1    0    0  501    0  0.00000000000E+00  0.00000000000E+00  0.10746995699E+04  0.10746995699E+04  0.00000000000E+00 0. -1.
         -1   -1    0    0    0  501 -0.00000000000E+00 -0.00000000000E+00 -0.18929312362E+01  0.18929312362E+01  0.00000000000E+00 0.  1.
         23    2    1    2    0    0  0.00000000000E+00  0.00000000000E+00  0.10728066387E+04  0.10765925012E+04  0.90207147954E+02 0.  0.
          2    1    3    3  502    0 -0.28638665664E+02 -0.31082351963E+02  0.72436834451E+03  0.72560029238E+03  0.00000000000E+00 0. -1.
         -2    1    3    3    0  502  0.28638665664E+02  0.31082351963E+02  0.34843829420E+03  0.35099220880E+03  0.00000000000E+00 0.  1.
<mgrwt>
<rscale>  0 0.90207148E+02</rscale>
<asrwt>0</asrwt>
<pdfrwt beam="1">  1        1 0.16533791E+00 0.90207148E+02</pdfrwt>
<pdfrwt beam="2">  1       -1 0.29122105E-03 0.90207148E+02</pdfrwt>
<totfact> 0.13690185E+05</totfact>
</mgrwt>
</event>
<event>
 5    1  0.4067226E+001  0.9093998E+02  0.7546771E-02  0.1300591E+00
         -2   -1    0    0    0  501 -0.00000000000E+00  0.00000000000E+00  0.96307739855E+00  0.96307739855E+00  0.00000000000E+00 0.  1.
          2   -1    0    0  501    0  0.00000000000E+00 -0.00000000000E+00 -0.21467847865E+04  0.21467847865E+04  0.00000000000E+00 0. -1.
         23    2    1    2    0    0  0.00000000000E+00  0.00000000000E+00 -0.21458217091E+04  0.21477478639E+04  0.90939978172E+02 0.  0.
          2    1    3    3  502    0 -0.23105920685E+02 -0.25539915290E+02 -0.37177460067E+03  0.37336647486E+03  0.00000000000E+00 0.  1.
         -2    1    3    3    0  502  0.23105920685E+02  0.25539915290E+02 -0.17740471085E+04  0.17743813891E+04  0.00000000000E+00 0. -1.
<mgrwt>
<rscale>  0 0.90939978E+02</rscale>
<asrwt>0</asrwt>
<pdfrwt beam="2">  1        2 0.33026982E+00 0.90939978E+02</pdfrwt>
<pdfrwt beam="1">  1       -2 0.14816789E-03 0.90939978E+02</pdfrwt>
<totfact> 0.18427700E+05</totfact>
</mgrwt>
</event>
<event>
 5    1  0.4067226E+001  0.8482446E+02  0.7546771E-02  0.1315892E+00
          1   -1    0    0  501    0  0.00000000000E+00  0.00000000000E+00  0.18738436918E+02  0.18738436918E+02  0.00000000000E+00 0. -1.
         -1   -1    0    0    0  501 -0.00000000000E+00 -0.00000000000E+00 -0.95995043969E+02  0.95995043969E+02  0.00000000000E+00 0.  1.
         23    2    1    2    0    0  0.00000000000E+00  0.00000000000E+00 -0.77256607051E+02  0.11473348089E+03  0.84824455809E+02 0.  0.
          2    1    3    3  502    0 -0.31920596229E+02  0.14231238373E+01 -0.90443083454E+00  0.31965101912E+02  0.00000000000E+00 0. -1.
         -2    1    3    3    0  502  0.31920596229E+02 -0.14231238373E+01 -0.76352176217E+02  0.82768378975E+02  0.00000000000E+00 0.  1.
<mgrwt>
<rscale>  0 0.84824456E+02</rscale>
<asrwt>0</asrwt>
<pdfrwt beam="1">  1        1 0.28828365E-02 0.84824456E+02</pdfrwt>
<pdfrwt beam="2">  1       -1 0.14768468E-01 0.84824456E+02</pdfrwt>
<totfact> 0.98687560E+04</totfact>
</mgrwt>
</event>
<event>
 5    1  0.4067226E+001  0.9117444E+02  0.7546771E-02  0.1300032E+00
          1   -1    0    0  501    0  0.00000000000E+00  0.00000000000E+00  0.38484689634E+03  0.38484689634E+03  0.00000000000E+00 0. -1.
         -1   -1    0    0    0  501 -0.00000000000E+00 -0.00000000000E+00 -0.54000557684E+01  0.54000557684E+01  0.00000000000E+00 0.  1.
         23    2    1    2    0    0  0.00000000000E+00  0.00000000000E+00  0.37944684057E+03  0.39024695211E+03  0.91174441650E+02 0.  0.
          2    1    3    3  502    0 -0.41985837419E+01  0.40167270861E+02  0.28023338580E+03  0.28312857198E+03  0.00000000000E+00 0. -1.
         -2    1    3    3    0  502  0.41985837419E+01 -0.40167270861E+02  0.99213454771E+02  0.10711838013E+03  0.00000000000E+00 0.  1.
<mgrwt>
<rscale>  0 0.91174442E+02</rscale>
<asrwt>0</asrwt>
<pdfrwt beam="1">  1        1 0.59207193E-01 0.91174442E+02</pdfrwt>
<pdfrwt beam="2">  1       -1 0.83077811E-03 0.91174442E+02</pdfrwt>
<totfact> 0.13403608E+05</totfact>
</mgrwt>
</event>
<event>
 5    1  0.4067226E+001  0.9035534E+02  0.7546771E-02  0.1301993E+00
          2   -1    0    0  501    0  0.00000000000E+00  0.00000000000E+00  0.37493200487E+02  0.37493200487E+02  0.00000000000E+00 0. -1.
         -2   -1    0    0    0  501 -0.00000000000E+00 -0.00000000000E+00 -0.54437122900E+02  0.54437122900E+02  0.00000000000E+00 0.  1.
         23    2    1    2    0    0  0.00000000000E+00  0.00000000000E+00 -0.16943922413E+02  0.91930323387E+02  0.90355342130E+02 0.  0.
          2    1    3    3  502    0  0.36710160678E+00 -0.41683531942E+02  0.92491736091E+01  0.42698932202E+02  0.00000000000E+00 0. -1.
         -2    1    3    3    0  502 -0.36710160678E+00  0.41683531942E+02 -0.26193096022E+02  0.49231391185E+02  0.00000000000E+00 0.  1.
<mgrwt>
<rscale>  0 0.90355342E+02</rscale>
<asrwt>0</asrwt>
<pdfrwt beam="1">  1        2 0.57681847E-02 0.90355342E+02</pdfrwt>
<pdfrwt beam="2">  1       -2 0.83749420E-02 0.90355342E+02</pdfrwt>
<totfact> 0.96302413E+04</totfact>
</mgrwt>
</event>
<event>
 5    1  0.4067226E+001  0.8697988E+02  0.7546771E-02  0.1310335E+00
          2   -1    0    0  501    0  0.00000000000E+00  0.00000000000E+00  0.13743556470E+03  0.13743556470E+03  0.00000000000E+00 0. -1.
         -2   -1    0    0    0  501 -0.00000000000E+00 -0.00000000000E+00 -0.13761902030E+02  0.13761902030E+02  0.00000000000E+00 0.  1.
         23    2    1    2    0    0  0.00000000000E+00  0.00000000000E+00  0.12367366267E+03  0.15119746673E+03  0.86979877598E+02 0.  0.
          2    1    3    3  502    0  0.39522904439E+02 -0.93850354739E+01  0.88835770569E+02  0.97682818339E+02  0.00000000000E+00 0. -1.
         -2    1    3    3    0  502 -0.39522904439E+02  0.93850354739E+01  0.34837892099E+02  0.53514648388E+02  0.00000000000E+00 0.  1.
<mgrwt>
<rscale>  0 0.86979878E+02</rscale>
<asrwt>0</asrwt>
<pdfrwt beam="1">  1        2 0.21143932E-01 0.86979878E+02</pdfrwt>
<pdfrwt beam="2">  1       -2 0.21172158E-02 0.86979878E+02</pdfrwt>
<totfact> 0.15425424E+05</totfact>
</mgrwt>
</event>
<event>
 5    1  0.4067226E+001  0.8943487E+02  0.7546771E-02  0.1304226E+00
          2   -1    0    0  501    0  0.00000000000E+00  0.00000000000E+00  0.24940349238E+02  0.24940349238E+02  0.00000000000E+00 0.  1.
         -2   -1    0    0    0  501 -0.00000000000E+00 -0.00000000000E+00 -0.80177267409E+02  0.80177267409E+02  0.00000000000E+00 0. -1.
         23    2    1    2    0    0  0.00000000000E+00  0.00000000000E+00 -0.55236918171E+02  0.10511761665E+03  0.89434871277E+02 0.  0.
          2    1    3    3  502    0 -0.31886202832E+02  0.11216224858E+02 -0.62028744364E+02  0.70640631074E+02  0.00000000000E+00 0. -1.
         -2    1    3    3    0  502  0.31886202832E+02 -0.11216224858E+02  0.67918261935E+01  0.34476985572E+02  0.00000000000E+00 0.  1.
<mgrwt>
<rscale>  0 0.89434871E+02</rscale>
<asrwt>0</asrwt>
<pdfrwt beam="1">  1        2 0.38369768E-02 0.89434871E+02</pdfrwt>
<pdfrwt beam="2">  1       -2 0.12334964E-01 0.89434871E+02</pdfrwt>
<totfact> 0.89151807E+04</totfact>
</mgrwt>
</event>
<event>
 5    1  0.4067226E+001  0.9159475E+02  0.7546771E-02  0.1299035E+00
         -2   -1    0    0    0  501 -0.00000000000E+00  0.00000000000E+00  0.49559756518E+01  0.49559756518E+01  0.00000000000E+00 0.  1.
          2   -1    0    0  501    0  0.00000000000E+00 -0.00000000000E+00 -0.42320619043E+03  0.42320619043E+03  0.00000000000E+00 0. -1.
         23    2    1    2    0    0  0.00000000000E+00  0.00000000000E+00 -0.41825021478E+03  0.42816216609E+03  0.91594750406E+02 0.  0.
          2    1    3    3  502    0  0.44124182800E+02 -0.83213106122E+01 -0.25125083615E+03  0.25523160146E+03  0.00000000000E+00 0. -1.
         -2    1    3    3    0  502 -0.44124182800E+02  0.83213106122E+01 -0.16699937864E+03  0.17293056463E+03  0.00000000000E+00 0.  1.
<mgrwt>
<rscale>  0 0.91594750E+02</rscale>
<asrwt>0</asrwt>
<pdfrwt beam="2">  1        2 0.65108655E-01 0.91594750E+02</pdfrwt>
<pdfrwt beam="1">  1       -2 0.76245767E-03 0.91594750E+02</pdfrwt>
<totfact> 0.20119739E+05</totfact>
</mgrwt>
</event>
<event>
 5    1  0.4067226E+001  0.9228269E+02  0.7546771E-02  0.1297416E+00
         -2   -1    0    0    0  501 -0.00000000000E+00  0.00000000000E+00  0.89583582519E+00  0.89583582519E+00  0.00000000000E+00 0.  1.
          2   -1    0    0  501    0  0.00000000000E+00 -0.00000000000E+00 -0.23765779246E+04  0.23765779246E+04  0.00000000000E+00 0. -1.
         23    2    1    2    0    0  0.00000000000E+00  0.00000000000E+00 -0.23756820888E+04  0.23774737604E+04  0.92282688435E+02 0.  0.
          2    1    3    3  502    0  0.21941386628E+02  0.36474195805E+02 -0.72897686880E+03  0.73021850610E+03  0.00000000000E+00 0. -1.
         -2    1    3    3    0  502 -0.21941386628E+02 -0.36474195805E+02 -0.16467052200E+04  0.16472552543E+04  0.00000000000E+00 0.  1.
<mgrwt>
<rscale>  0 0.92282688E+02</rscale>
<asrwt>0</asrwt>
<pdfrwt beam="2">  1        2 0.36562763E+00 0.92282688E+02</pdfrwt>
<pdfrwt beam="1">  1       -2 0.13782080E-03 0.92282688E+02</pdfrwt>
<totfact> 0.15558937E+05</totfact>
</mgrwt>
</event>
<event>
 5    1  0.4067226E+001  0.9098539E+02  0.7546771E-02  0.1300483E+00
          2   -1    0    0  501    0  0.00000000000E+00  0.00000000000E+00  0.93345708202E+02  0.93345708202E+02  0.00000000000E+00 0. -1.
         -2   -1    0    0    0  501 -0.00000000000E+00 -0.00000000000E+00 -0.22171190727E+02  0.22171190727E+02  0.00000000000E+00 0.  1.
         23    2    1    2    0    0  0.00000000000E+00  0.00000000000E+00  0.71174517475E+02  0.11551689893E+03  0.90985394435E+02 0.  0.
          2    1    3    3  502    0 -0.25746248672E+02  0.21105645216E+02  0.74950972390E+02  0.82011985971E+02  0.00000000000E+00 0. -1.
         -2    1    3    3    0  502  0.25746248672E+02 -0.21105645216E+02 -0.37764549151E+01  0.33504912959E+02  0.00000000000E+00 0.  1.
<mgrwt>
<rscale>  0 0.90985394E+02</rscale>
<asrwt>0</asrwt>
<pdfrwt beam="1">  1        2 0.14360878E-01 0.90985394E+02</pdfrwt>
<pdfrwt beam="2">  1       -2 0.34109525E-02 0.90985394E+02</pdfrwt>
<totfact> 0.12085423E+05</totfact>
</mgrwt>
</event>
<event>
 5    1  0.4067226E+001  0.9529392E+02  0.7546771E-02  0.1290515E+00
         -2   -1    0    0    0  501 -0.00000000000E+00  0.00000000000E+00  0.33597704443E+03  0.33597704443E+03  0.00000000000E+00 0.  1.
          2   -1    0    0  501    0  0.00000000000E+00 -0.00000000000E+00 -0.67571068621E+01  0.67571068621E+01  0.00000000000E+00 0. -1.
         23    2    1    2    0    0  0.00000000000E+00  0.00000000000E+00  0.32921993757E+03  0.34273415129E+03  0.95293919899E+02 0.  0.
          2    1    3    3  502    0  0.21179613940E+02 -0.36083764148E+02  0.82624935024E+02  0.92614761078E+02  0.00000000000E+00 0. -1.
         -2    1    3    3    0  502 -0.21179613940E+02  0.36083764148E+02  0.24659500255E+03  0.25011939022E+03  0.00000000000E+00 0.  1.
<mgrwt>
<rscale>  0 0.95293920E+02</rscale>
<asrwt>0</asrwt>
<pdfrwt beam="2">  1        2 0.10395552E-02 0.95293920E+02</pdfrwt>
<pdfrwt beam="1">  1       -2 0.51688763E-01 0.95293920E+02</pdfrwt>
<totfact> 0.42590390E+04</totfact>
</mgrwt>
</event>
<event>
 5    1  0.4067226E+001  0.1043665E+03  0.7546771E-02  0.1271373E+00
         -2   -1    0    0    0  501 -0.00000000000E+00  0.00000000000E+00  0.33594053173E+02  0.33594053173E+02  0.00000000000E+00 0.  1.
          2   -1    0    0  501    0  0.00000000000E+00 -0.00000000000E+00 -0.81058767493E+02  0.81058767493E+02  0.00000000000E+00 0. -1.
         23    2    1    2    0    0  0.00000000000E+00  0.00000000000E+00 -0.47464714320E+02  0.11465282067E+03  0.10436651849E+03 0.  0.
          2    1    3    3  502    0 -0.49966092643E+02 -0.11035608662E+02 -0.34973012886E+02  0.61979889503E+02  0.00000000000E+00 0. -1.
         -2    1    3    3    0  502  0.49966092643E+02  0.11035608662E+02 -0.12491701434E+02  0.52672931163E+02  0.00000000000E+00 0.  1.
<mgrwt>
<rscale>  0 0.10436652E+03</rscale>
<asrwt>0</asrwt>
<pdfrwt beam="2">  1        2 0.12470579E-01 0.10436652E+03</pdfrwt>
<pdfrwt beam="1">  1       -2 0.51683160E-02 0.10436652E+03</pdfrwt>
<totfact> 0.78864853E+04</totfact>
</mgrwt>
</event>
<event>
 5    1  0.4067226E+001  0.9213399E+02  0.7546771E-02  0.1297765E+00
         -1   -1    0    0    0  501 -0.00000000000E+00  0.00000000000E+00  0.12012554515E+01  0.12012554515E+01  0.00000000000E+00 0.  1.
          1   -1    0    0  501    0  0.00000000000E+00 -0.00000000000E+00 -0.17666252124E+04  0.17666252124E+04  0.00000000000E+00 0. -1.
         23    2    1    2    0    0  0.00000000000E+00  0.00000000000E+00 -0.17654239570E+04  0.17678264679E+04  0.92133993013E+02 0.  0.
          2    1    3    3  502    0  0.40990541715E+02  0.38134066695E+01 -0.12793896939E+04  0.12800518566E+04  0.00000000000E+00 0. -1.
         -2    1    3    3    0  502 -0.40990541715E+02 -0.38134066695E+01 -0.48603426307E+03  0.48777461133E+03  0.00000000000E+00 0.  1.
<mgrwt>
<rscale>  0 0.92133993E+02</rscale>
<asrwt>0</asrwt>
<pdfrwt beam="2">  1        1 0.27178814E+00 0.92133993E+02</pdfrwt>
<pdfrwt beam="1">  1       -1 0.18480877E-03 0.92133993E+02</pdfrwt>
<totfact> 0.91483143E+04</totfact>
</mgrwt>
</event>
<event>
 5    1  0.4067226E+001  0.8831723E+02  0.7546771E-02  0.1306979E+00
          2   -1    0    0  501    0  0.00000000000E+00  0.00000000000E+00  0.50077055186E+03  0.50077055186E+03  0.00000000000E+00 0. -1.
         -2   -1    0    0    0  501 -0.00000000000E+00 -0.00000000000E+00 -0.38939653866E+01  0.38939653866E+01  0.00000000000E+00 0.  1.
         23    2    1    2    0    0  0.00000000000E+00  0.00000000000E+00  0.49687658647E+03  0.50466451725E+03  0.88317228117E+02 0.  0.
          2    1    3    3  502    0  0.13097847208E+02 -0.40523479106E+02  0.31514492278E+03  0.31800947834E+03  0.00000000000E+00 0. -1.
         -2    1    3    3    0  502 -0.13097847208E+02  0.40523479106E+02  0.18173166370E+03  0.18665503891E+03  0.00000000000E+00 0.  1.
<mgrwt>
<rscale>  0 0.88317228E+02</rscale>
<asrwt>0</asrwt>
<pdfrwt beam="1">  1        2 0.77041572E-01 0.88317228E+02</pdfrwt>
<pdfrwt beam="2">  1       -2 0.59907200E-03 0.88317228E+02</pdfrwt>
<totfact> 0.23453617E+05</totfact>
</mgrwt>
</event>
<event>
 5    1  0.4067226E+001  0.8785603E+02  0.7546771E-02  0.1308128E+00
         -2   -1    0    0    0  501 -0.00000000000E+00  0.00000000000E+00  0.18619388578E+01  0.18619388578E+01  0.00000000000E+00 0.  1.
          2   -1    0    0  501    0  0.00000000000E+00 -0.00000000000E+00 -0.10363768875E+04  0.10363768875E+04  0.00000000000E+00 0. -1.
         23    2    1    2    0    0  0.00000000000E+00  0.00000000000E+00 -0.10345149486E+04  0.10382388263E+04  0.87856027638E+02 0.  0.
          2    1    3    3  502    0  0.19336844871E+01 -0.35242367645E+02 -0.82630420884E+03  0.82705768188E+03  0.00000000000E+00 0. -1.
         -2    1    3    3    0  502 -0.19336844871E+01  0.35242367645E+02 -0.20821073975E+03  0.21118114443E+03  0.00000000000E+00 0.  1.
<mgrwt>
<rscale>  0 0.87856028E+02</rscale>
<asrwt>0</asrwt>
<pdfrwt beam="2">  1        2 0.15944262E+00 0.87856028E+02</pdfrwt>
<pdfrwt beam="1">  1       -2 0.28645209E-03 0.87856028E+02</pdfrwt>
<totfact> 0.27591841E+05</totfact>
</mgrwt>
</event>
<event>
 5    1  0.4067226E+001  0.9151949E+02  0.7546771E-02  0.1299213E+00
          1   -1    0    0  501    0  0.00000000000E+00  0.00000000000E+00  0.47700140120E+02  0.47700140120E+02  0.00000000000E+00 0. -1.
         -1   -1    0    0    0  501 -0.00000000000E+00 -0.00000000000E+00 -0.43898280446E+02  0.43898280446E+02  0.00000000000E+00 0.  1.
         23    2    1    2    0    0  0.00000000000E+00  0.00000000000E+00  0.38018596747E+01  0.91598420566E+02  0.91519487068E+02 0.  0.
          2    1    3    3  502    0  0.29123924607E+02 -0.33358526934E+02 -0.96398358735E+01  0.45320202332E+02  0.00000000000E+00 0.  1.
         -2    1    3    3    0  502 -0.29123924607E+02  0.33358526934E+02  0.13441695548E+02  0.46278218234E+02  0.00000000000E+00 0. -1.
<mgrwt>
<rscale>  0 0.91519487E+02</rscale>
<asrwt>0</asrwt>
<pdfrwt beam="1">  1        1 0.73384831E-02 0.91519487E+02</pdfrwt>
<pdfrwt beam="2">  1       -1 0.67535816E-02 0.91519487E+02</pdfrwt>
<totfact> 0.92129124E+04</totfact>
</mgrwt>
</event>
<event>
 5    1  0.4067226E+001  0.5727574E+02  0.7546771E-02  0.1409633E+00
         -1   -1    0    0    0  501 -0.00000000000E+00  0.00000000000E+00  0.11821339531E+02  0.11821339531E+02  0.00000000000E+00 0.  1.
          1   -1    0    0  501    0  0.00000000000E+00 -0.00000000000E+00 -0.69376868700E+02  0.69376868700E+02  0.00000000000E+00 0. -1.
         23    2    1    2    0    0  0.00000000000E+00  0.00000000000E+00 -0.57555529169E+02  0.81198208231E+02  0.57275737289E+02 0.  0.
          2    1    3    3  502    0  0.23864400613E+02  0.25476951016E+01 -0.66272509521E+01  0.24898209216E+02  0.00000000000E+00 0.  1.
         -2    1    3    3    0  502 -0.23864400613E+02 -0.25476951016E+01 -0.50928278217E+02  0.56299999015E+02  0.00000000000E+00 0. -1.
<mgrwt>
<rscale>  0 0.57275737E+02</rscale>
<asrwt>0</asrwt>
<pdfrwt beam="2">  1        1 0.10673365E-01 0.57275737E+02</pdfrwt>
<pdfrwt beam="1">  1       -1 0.18186676E-02 0.57275737E+02</pdfrwt>
<totfact> 0.34079791E+05</totfact>
</mgrwt>
</event>
<event>
 5    1  0.4067226E+001  0.9172942E+02  0.7546771E-02  0.1298717E+00
          3   -1    0    0  501    0  0.00000000000E+00  0.00000000000E+00  0.18136796658E+02  0.18136796658E+02  0.00000000000E+00 0. -1.
         -3   -1    0    0    0  501 -0.00000000000E+00 -0.00000000000E+00 -0.11598362895E+03  0.11598362895E+03  0.00000000000E+00 0.  1.
         23    2    1    2    0    0  0.00000000000E+00  0.00000000000E+00 -0.97846832297E+02  0.13412042561E+03  0.91729417178E+02 0.  0.
          2    1    3    3  502    0  0.32663361349E+02  0.17926045012E+02 -0.98176779250E+01  0.38530832644E+02  0.00000000000E+00 0. -1.
         -2    1    3    3    0  502 -0.32663361349E+02 -0.17926045012E+02 -0.88029154372E+02  0.95589592968E+02  0.00000000000E+00 0.  1.
<mgrwt>
<rscale>  0 0.91729417E+02</rscale>
<asrwt>0</asrwt>
<pdfrwt beam="1">  1        3 0.27902765E-02 0.91729417E+02</pdfrwt>
<pdfrwt beam="2">  1       -3 0.17843635E-01 0.91729417E+02</pdfrwt>
<totfact> 0.31782320E+04</totfact>
</mgrwt>
</event>
<event>
 5    1  0.4067226E+001  0.9317403E+02  0.7546771E-02  0.1295342E+00
         -1   -1    0    0    0  501 -0.00000000000E+00  0.00000000000E+00  0.11908212539E+02  0.11908212539E+02  0.00000000000E+00 0.  1.
          1   -1    0    0  501    0  0.00000000000E+00 -0.00000000000E+00 -0.18225656219E+03  0.18225656219E+03  0.00000000000E+00 0. -1.
         23    2    1    2    0    0  0.00000000000E+00  0.00000000000E+00 -0.17034834965E+03  0.19416477473E+03  0.93174028126E+02 0.  0.
          2    1    3    3  502    0 -0.25785328153E+02 -0.96723068375E+01 -0.16347738605E+03  0.16578085660E+03  0.00000000000E+00 0. -1.
         -2    1    3    3    0  502  0.25785328153E+02  0.96723068375E+01 -0.68709636082E+01  0.28383918130E+02  0.00000000000E+00 0.  1.
<mgrwt>
<rscale>  0 0.93174028E+02</rscale>
<asrwt>0</asrwt>
<pdfrwt beam="2">  1        1 0.28039468E-01 0.93174028E+02</pdfrwt>
<pdfrwt beam="1">  1       -1 0.18320329E-02 0.93174028E+02</pdfrwt>
<totfact> 0.10971363E+05</totfact>
</mgrwt>
</event>
<event>
 5    1  0.4067226E+001  0.9240429E+02  0.7546771E-02  0.1297132E+00
          3   -1    0    0  501    0  0.00000000000E+00  0.00000000000E+00  0.44584877150E+03  0.44584877150E+03  0.00000000000E+00 0. -1.
         -3   -1    0    0    0  501 -0.00000000000E+00 -0.00000000000E+00 -0.47878073321E+01  0.47878073321E+01  0.00000000000E+00 0.  1.
         23    2    1    2    0    0  0.00000000000E+00  0.00000000000E+00  0.44106096417E+03  0.45063657883E+03  0.92404285987E+02 0.  0.
          2    1    3    3  502    0 -0.23382888379E+02 -0.24133183647E+02  0.37516927507E+03  0.37667114965E+03  0.00000000000E+00 0. -1.
         -2    1    3    3    0  502  0.23382888379E+02  0.24133183647E+02  0.65891689096E+02  0.73965429181E+02  0.00000000000E+00 0.  1.
<mgrwt>
<rscale>  0 0.92404286E+02</rscale>
<asrwt>0</asrwt>
<pdfrwt beam="1">  1        3 0.68592086E-01 0.92404286E+02</pdfrwt>
<pdfrwt beam="2">  1       -3 0.73658610E-03 0.92404286E+02</pdfrwt>
<totfact> 0.18497626E+04</totfact>
</mgrwt>
</event>
<event>
 5    1  0.4067226E+001  0.9534342E+02  0.7546771E-02  0.1290404E+00
         -2   -1    0    0    0  501 -0.00000000000E+00  0.00000000000E+00  0.13522456731E+02  0.13522456731E+02  0.00000000000E+00 0.  1.
          2   -1    0    0  501    0  0.00000000000E+00 -0.00000000000E+00 -0.16806058780E+03  0.16806058780E+03  0.00000000000E+00 0. -1.
         23    2    1    2    0    0  0.00000000000E+00  0.00000000000E+00 -0.15453813107E+03  0.18158304453E+03  0.95343421937E+02 0.  0.
          2    1    3    3  502    0 -0.15613706803E+02 -0.14680823053E+02  0.38301604514E+01  0.21771185882E+02  0.00000000000E+00 0.  1.
         -2    1    3    3    0  502  0.15613706803E+02  0.14680823053E+02 -0.15836829152E+03  0.15981185865E+03  0.00000000000E+00 0. -1.
<mgrwt>
<rscale>  0 0.95343422E+02</rscale>
<asrwt>0</asrwt>
<pdfrwt beam="2">  1        2 0.25855475E-01 0.95343422E+02</pdfrwt>
<pdfrwt beam="1">  1       -2 0.20803780E-02 0.95343422E+02</pdfrwt>
<totfact> 0.12878636E+05</totfact>
</mgrwt>
</event>
<event>
 5    1  0.4067226E+001  0.9085125E+02  0.7546771E-02  0.1300803E+00
         -1   -1    0    0    0  501 -0.00000000000E+00  0.00000000000E+00  0.39497499652E+01  0.39497499652E+01  0.00000000000E+00 0.  1.
          1   -1    0    0  501    0  0.00000000000E+00 -0.00000000000E+00 -0.52243490527E+03  0.52243490527E+03  0.00000000000E+00 0. -1.
         23    2    1    2    0    0  0.00000000000E+00  0.00000000000E+00 -0.51848515530E+03  0.52638465523E+03  0.90851246528E+02 0.  0.
          2    1    3    3  502    0  0.25690756523E+02 -0.24563058386E+02 -0.42313247532E+03  0.42462271546E+03  0.00000000000E+00 0. -1.
         -2    1    3    3    0  502 -0.25690756523E+02  0.24563058386E+02 -0.95352679980E+02  0.10176193978E+03  0.00000000000E+00 0.  1.
<mgrwt>
<rscale>  0 0.90851247E+02</rscale>
<asrwt>0</asrwt>
<pdfrwt beam="2">  1        1 0.80374644E-01 0.90851247E+02</pdfrwt>
<pdfrwt beam="1">  1       -1 0.60765351E-03 0.90851247E+02</pdfrwt>
<totfact> 0.14128409E+05</totfact>
</mgrwt>
</event>
<event>
 5    1  0.4067226E+001  0.9091835E+02  0.7546771E-02  0.1300643E+00
         -4   -1    0    0    0  501 -0.00000000000E+00  0.00000000000E+00  0.74840097933E+01  0.74840097933E+01  0.00000000000E+00 0. -1.
          4   -1    0    0  501    0  0.00000000000E+00 -0.00000000000E+00 -0.27612691698E+03  0.27612691698E+03  0.00000000000E+00 0.  1.
         23    2    1    2    0    0  0.00000000000E+00  0.00000000000E+00 -0.26864290719E+03  0.28361092677E+03  0.90918349102E+02 0.  0.
          2    1    3    3  502    0  0.69007578060E+01 -0.31671577117E+02 -0.34899714183E+02  0.47630865050E+02  0.00000000000E+00 0. -1.
         -2    1    3    3    0  502 -0.69007578060E+01  0.31671577117E+02 -0.23374319301E+03  0.23598006172E+03  0.00000000000E+00 0.  1.
<mgrwt>
<rscale>  0 0.90918349E+02</rscale>
<asrwt>0</asrwt>
<pdfrwt beam="2">  1        4 0.42481062E-01 0.90918349E+02</pdfrwt>
<pdfrwt beam="1">  1       -4 0.11513862E-02 0.90918349E+02</pdfrwt>
<totfact> 0.18471172E+04</totfact>
</mgrwt>
</event>
<event>
 5    1  0.4067226E+001  0.9154704E+02  0.7546771E-02  0.1299148E+00
          1   -1    0    0  501    0  0.00000000000E+00  0.00000000000E+00  0.33743753271E+02  0.33743753271E+02  0.00000000000E+00 0. -1.
         -1   -1    0    0    0  501 -0.00000000000E+00 -0.00000000000E+00 -0.62091939731E+02  0.62091939731E+02  0.00000000000E+00 0.  1.
         23    2    1    2    0    0  0.00000000000E+00  0.00000000000E+00 -0.28348186460E+02  0.95835693002E+02  0.91547039153E+02 0.  0.
          2    1    3    3  502    0 -0.85023949599E+01  0.19695416054E+02  0.28155476145E+02  0.35396764973E+02  0.00000000000E+00 0. -1.
         -2    1    3    3    0  502  0.85023949599E+01 -0.19695416054E+02 -0.56503662604E+02  0.60438928029E+02  0.00000000000E+00 0.  1.
<mgrwt>
<rscale>  0 0.91547039E+02</rscale>
<asrwt>0</asrwt>
<pdfrwt beam="1">  1        1 0.51913467E-02 0.91547039E+02</pdfrwt>
<pdfrwt beam="2">  1       -1 0.95526061E-02 0.91547039E+02</pdfrwt>
<totfact> 0.87303061E+04</totfact>
</mgrwt>
</event>
<event>
 5    1  0.4067226E+001  0.9310773E+02  0.7546771E-02  0.1295496E+00
          2   -1    0    0  501    0  0.00000000000E+00  0.00000000000E+00  0.33038821346E+03  0.33038821346E+03  0.00000000000E+00 0. -1.
         -2   -1    0    0    0  501 -0.00000000000E+00 -0.00000000000E+00 -0.65597449321E+01  0.65597449321E+01  0.00000000000E+00 0.  1.
         23    2    1    2    0    0  0.00000000000E+00  0.00000000000E+00  0.32382846853E+03  0.33694795839E+03  0.93107731341E+02 0.  0.
          2    1    3    3  502    0  0.18213596406E+02  0.98557322639E+01  0.31280092162E+03  0.31348570481E+03  0.00000000000E+00 0. -1.
         -2    1    3    3    0  502 -0.18213596406E+02 -0.98557322639E+01  0.11027546910E+02  0.23462253587E+02  0.00000000000E+00 0.  1.
<mgrwt>
<rscale>  0 0.93107731E+02</rscale>
<asrwt>0</asrwt>
<pdfrwt beam="1">  1        2 0.50828943E-01 0.93107731E+02</pdfrwt>
<pdfrwt beam="2">  1       -2 0.10091918E-02 0.93107731E+02</pdfrwt>
<totfact> 0.17608169E+05</totfact>
</mgrwt>
</event>
<event>
 5    1  0.4067226E+001  0.9001849E+02  0.7546771E-02  0.1302807E+00
         -2   -1    0    0    0  501 -0.00000000000E+00  0.00000000000E+00  0.11503129292E+01  0.11503129292E+01  0.00000000000E+00 0. -1.
          2   -1    0    0  501    0  0.00000000000E+00 -0.00000000000E+00 -0.17611141172E+04  0.17611141172E+04  0.00000000000E+00 0.  1.
         23    2    1    2    0    0  0.00000000000E+00  0.00000000000E+00 -0.17599638043E+04  0.17622644301E+04  0.90018494520E+02 0.  0.
          2    1    3    3  502    0  0.23883438877E+02  0.36903297405E+02 -0.10693405725E+04  0.10702436788E+04  0.00000000000E+00 0.  1.
         -2    1    3    3    0  502 -0.23883438877E+02 -0.36903297405E+02 -0.69062323176E+03  0.69202075132E+03  0.00000000000E+00 0. -1.
<mgrwt>
<rscale>  0 0.90018495E+02</rscale>
<asrwt>0</asrwt>
<pdfrwt beam="2">  1        2 0.27093834E+00 0.90018495E+02</pdfrwt>
<pdfrwt beam="1">  1       -2 0.17697272E-03 0.90018495E+02</pdfrwt>
<totfact> 0.22496311E+05</totfact>
</mgrwt>
</event>
<event>
 5    1  0.4067226E+001  0.9720882E+02  0.7546771E-02  0.1286277E+00
         -2   -1    0    0    0  501 -0.00000000000E+00  0.00000000000E+00  0.98956747041E+01  0.98956747041E+01  0.00000000000E+00 0.  1.
          2   -1    0    0  501    0  0.00000000000E+00 -0.00000000000E+00 -0.23872941689E+03  0.23872941689E+03  0.00000000000E+00 0. -1.
         23    2    1    2    0    0  0.00000000000E+00  0.00000000000E+00 -0.22883374219E+03  0.24862509160E+03  0.97208819597E+02 0.  0.
          2    1    3    3  502    0  0.36941722179E+02 -0.31552014885E+02 -0.11818292082E+03  0.12777880596E+03  0.00000000000E+00 0. -1.
         -2    1    3    3    0  502 -0.36941722179E+02  0.31552014885E+02 -0.11065082137E+03  0.12084628563E+03  0.00000000000E+00 0.  1.
<mgrwt>
<rscale>  0 0.97208820E+02</rscale>
<asrwt>0</asrwt>
<pdfrwt beam="2">  1        2 0.36727599E-01 0.97208820E+02</pdfrwt>
<pdfrwt beam="1">  1       -2 0.15224116E-02 0.97208820E+02</pdfrwt>
<totfact> 0.13887881E+05</totfact>
</mgrwt>
</event>
<event>
 5    1  0.4067226E+001  0.9041241E+02  0.7546771E-02  0.1301856E+00
          1   -1    0    0  501    0  0.00000000000E+00  0.00000000000E+00  0.49034912274E+02  0.49034912274E+02  0.00000000000E+00 0. -1.
         -1   -1    0    0    0  501 -0.00000000000E+00 -0.00000000000E+00 -0.41676444178E+02  0.41676444178E+02  0.00000000000E+00 0.  1.
         23    2    1    2    0    0  0.00000000000E+00  0.00000000000E+00  0.73584680961E+01  0.90711356453E+02  0.90412405879E+02 0.  0.
          2    1    3    3  502    0 -0.41664900179E+02  0.21766648352E+01  0.21140774739E+02  0.46772151258E+02  0.00000000000E+00 0. -1.
         -2    1    3    3    0  502  0.41664900179E+02 -0.21766648352E+01 -0.13782306643E+02  0.43939205195E+02  0.00000000000E+00 0.  1.
<mgrwt>
<rscale>  0 0.90412406E+02</rscale>
<asrwt>0</asrwt>
<pdfrwt beam="1">  1        1 0.75438327E-02 0.90412406E+02</pdfrwt>
<pdfrwt beam="2">  1       -1 0.64117606E-02 0.90412406E+02</pdfrwt>
<totfact> 0.95715302E+04</totfact>
</mgrwt>
</event>
<event>
 5    1  0.4067226E+001  0.9811845E+02  0.7546771E-02  0.1284303E+00
          1   -1    0    0  501    0  0.00000000000E+00  0.00000000000E+00  0.22451411351E+03  0.22451411351E+03  0.00000000000E+00 0. -1.
         -1   -1    0    0    0  501 -0.00000000000E+00 -0.00000000000E+00 -0.10720072407E+02  0.10720072407E+02  0.00000000000E+00 0.  1.
         23    2    1    2    0    0  0.00000000000E+00  0.00000000000E+00  0.21379404110E+03  0.23523418591E+03  0.98118449911E+02 0.  0.
          2    1    3    3  502    0  0.57655445469E+01 -0.41301914329E+02  0.44946312438E+02  0.61312809697E+02  0.00000000000E+00 0.  1.
         -2    1    3    3    0  502 -0.57655445469E+01  0.41301914329E+02  0.16884772866E+03  0.17392137622E+03  0.00000000000E+00 0. -1.
<mgrwt>
<rscale>  0 0.98118450E+02</rscale>
<asrwt>0</asrwt>
<pdfrwt beam="1">  1        1 0.34540629E-01 0.98118450E+02</pdfrwt>
<pdfrwt beam="2">  1       -1 0.16492421E-02 0.98118450E+02</pdfrwt>
<totfact> 0.99420793E+04</totfact>
</mgrwt>
</event>
<event>
 5    1  0.4067226E+001  0.9261529E+02  0.7546771E-02  0.1296639E+00
         -2   -1    0    0    0  501 -0.00000000000E+00  0.00000000000E+00  0.14232693845E+01  0.14232693845E+01  0.00000000000E+00 0.  1.
          2   -1    0    0  501    0  0.00000000000E+00 -0.00000000000E+00 -0.15066704758E+04  0.15066704758E+04  0.00000000000E+00 0. -1.
         23    2    1    2    0    0  0.00000000000E+00  0.00000000000E+00 -0.15052472065E+04  0.15080937452E+04  0.92615289468E+02 0.  0.
          2    1    3    3  502    0 -0.45527224489E+02 -0.84652580610E+01 -0.75418520556E+03  0.75560552740E+03  0.00000000000E+00 0. -1.
         -2    1    3    3    0  502  0.45527224489E+02  0.84652580610E+01 -0.75106200090E+03  0.75248821782E+03  0.00000000000E+00 0.  1.
<mgrwt>
<rscale>  0 0.92615289E+02</rscale>
<asrwt>0</asrwt>
<pdfrwt beam="2">  1        2 0.23179606E+00 0.92615289E+02</pdfrwt>
<pdfrwt beam="1">  1       -2 0.21896395E-03 0.92615289E+02</pdfrwt>
<totfact> 0.22604273E+05</totfact>
</mgrwt>
</event>
<event>
 5    1  0.4067226E+001  0.9082128E+02  0.7546771E-02  0.1300875E+00
          2   -1    0    0  501    0  0.00000000000E+00  0.00000000000E+00  0.59442218313E+03  0.59442218313E+03  0.00000000000E+00 0. -1.
         -2   -1    0    0    0  501 -0.00000000000E+00 -0.00000000000E+00 -0.34691276022E+01  0.34691276022E+01  0.00000000000E+00 0.  1.
         23    2    1    2    0    0  0.00000000000E+00  0.00000000000E+00  0.59095305553E+03  0.59789131073E+03  0.90821283913E+02 0.  0.
          2    1    3    3  502    0 -0.17698087825E+02  0.36488638147E+02  0.42998641180E+03  0.43189461372E+03  0.00000000000E+00 0. -1.
         -2    1    3    3    0  502  0.17698087825E+02 -0.36488638147E+02  0.16096664373E+03  0.16599669701E+03  0.00000000000E+00 0.  1.
<mgrwt>
<rscale>  0 0.90821284E+02</rscale>
<asrwt>0</asrwt>
<pdfrwt beam="1">  1        2 0.91449486E-01 0.90821284E+02</pdfrwt>
<pdfrwt beam="2">  1       -2 0.53371241E-03 0.90821284E+02</pdfrwt>
<totfact> 0.22960158E+05</totfact>
</mgrwt>
</event>
<event>
 5    1  0.4067226E+001  0.9071905E+02  0.7546771E-02  0.1301120E+00
          2   -1    0    0  501    0  0.00000000000E+00  0.00000000000E+00  0.12201365996E+02  0.12201365996E+02  0.00000000000E+00 0.  1.
         -2   -1    0    0    0  501 -0.00000000000E+00 -0.00000000000E+00 -0.16862755029E+03  0.16862755029E+03  0.00000000000E+00 0. -1.
         23    2    1    2    0    0  0.00000000000E+00  0.00000000000E+00 -0.15642618429E+03  0.18082891629E+03  0.90719048896E+02 0.  0.
          2    1    3    3  502    0  0.35372487767E+02 -0.12517965831E+02 -0.27410749321E+02  0.46467854886E+02  0.00000000000E+00 0. -1.
         -2    1    3    3    0  502 -0.35372487767E+02  0.12517965831E+02 -0.12901543497E+03  0.13436106140E+03  0.00000000000E+00 0.  1.
<mgrwt>
<rscale>  0 0.90719049E+02</rscale>
<asrwt>0</asrwt>
<pdfrwt beam="1">  1        2 0.18771332E-02 0.90719049E+02</pdfrwt>
<pdfrwt beam="2">  1       -2 0.25942701E-01 0.90719049E+02</pdfrwt>
<totfact> 0.67704963E+04</totfact>
</mgrwt>
</event>
<event>
 5    1  0.4067226E+001  0.9159943E+02  0.7546771E-02  0.1299024E+00
         -2   -1    0    0    0  501 -0.00000000000E+00  0.00000000000E+00  0.90791943263E+01  0.90791943263E+01  0.00000000000E+00 0.  1.
          2   -1    0    0  501    0  0.00000000000E+00 -0.00000000000E+00 -0.23103523065E+03  0.23103523065E+03  0.00000000000E+00 0. -1.
         23    2    1    2    0    0  0.00000000000E+00  0.00000000000E+00 -0.22195603632E+03  0.24011442498E+03  0.91599426970E+02 0.  0.
          2    1    3    3  502    0  0.19949267100E+01  0.33185414765E+02 -0.19355530628E+03  0.19638968424E+03  0.00000000000E+00 0. -1.
         -2    1    3    3    0  502 -0.19949267100E+01 -0.33185414765E+02 -0.28400730045E+02  0.43724740740E+02  0.00000000000E+00 0.  1.
<mgrwt>
<rscale>  0 0.91599427E+02</rscale>
<asrwt>0</asrwt>
<pdfrwt beam="2">  1        2 0.35543878E-01 0.91599427E+02</pdfrwt>
<pdfrwt beam="1">  1       -2 0.13967993E-02 0.91599427E+02</pdfrwt>
<totfact> 0.16103134E+05</totfact>
</mgrwt>
</event>
<event>
 5    1  0.4067226E+001  0.9847678E+02  0.7546771E-02  0.1283532E+00
          3   -1    0    0  501    0  0.00000000000E+00  0.00000000000E+00  0.24145317674E+01  0.24145317674E+01  0.00000000000E+00 0. -1.
         -3   -1    0    0    0  501 -0.00000000000E+00 -0.00000000000E+00 -0.10040948213E+04  0.10040948213E+04  0.00000000000E+00 0.  1.
         23    2    1    2    0    0  0.00000000000E+00  0.00000000000E+00 -0.10016802895E+04  0.10065093530E+04  0.98476775809E+02 0.  0.
          2    1    3    3  502    0  0.27851779872E+02  0.29809678241E+02 -0.21905783304E+03  0.22282430921E+03  0.00000000000E+00 0. -1.
         -2    1    3    3    0  502 -0.27851779872E+02 -0.29809678241E+02 -0.78262245644E+03  0.78368504380E+03  0.00000000000E+00 0.  1.
<mgrwt>
<rscale>  0 0.98476776E+02</rscale>
<asrwt>0</asrwt>
<pdfrwt beam="1">  1        3 0.37146548E-03 0.98476776E+02</pdfrwt>
<pdfrwt beam="2">  1       -3 0.15447652E+00 0.98476776E+02</pdfrwt>
<totfact> 0.80707303E+03</totfact>
</mgrwt>
</event>
<event>
 5    1  0.4067226E+001  0.6388403E+02  0.7546771E-02  0.1382219E+00
          1   -1    0    0  501    0  0.00000000000E+00  0.00000000000E+00  0.46879744804E+02  0.46879744804E+02  0.00000000000E+00 0. -1.
         -1   -1    0    0    0  501 -0.00000000000E+00 -0.00000000000E+00 -0.21764032545E+02  0.21764032545E+02  0.00000000000E+00 0.  1.
         23    2    1    2    0    0  0.00000000000E+00  0.00000000000E+00  0.25115712259E+02  0.68643777349E+02  0.63884029041E+02 0.  0.
          2    1    3    3  502    0  0.31759017452E+02 -0.28185419274E+01  0.14628316277E+02  0.35079438496E+02  0.00000000000E+00 0. -1.
         -2    1    3    3    0  502 -0.31759017452E+02  0.28185419274E+01  0.10487395982E+02  0.33564338852E+02  0.00000000000E+00 0.  1.
<mgrwt>
<rscale>  0 0.63884029E+02</rscale>
<asrwt>0</asrwt>
<pdfrwt beam="1">  1        1 0.72122684E-02 0.63884029E+02</pdfrwt>
<pdfrwt beam="2">  1       -1 0.33483127E-02 0.63884029E+02</pdfrwt>
<totfact> 0.24478686E+05</totfact>
</mgrwt>
</event>
<event>
 5    1  0.4067226E+001  0.9032045E+02  0.7546771E-02  0.1302078E+00
         -3   -1    0    0    0  501 -0.00000000000E+00  0.00000000000E+00  0.74121165862E+01  0.74121165862E+01  0.00000000000E+00 0.  1.
          3   -1    0    0  501    0  0.00000000000E+00 -0.00000000000E+00 -0.27515025586E+03  0.27515025586E+03  0.00000000000E+00 0. -1.
         23    2    1    2    0    0  0.00000000000E+00  0.00000000000E+00 -0.26773813928E+03  0.28256237245E+03  0.90320446748E+02 0.  0.
          2    1    3    3  502    0 -0.38912815665E+02  0.12800237808E+02 -0.74396350192E+02  0.84928618456E+02  0.00000000000E+00 0. -1.
         -2    1    3    3    0  502  0.38912815665E+02 -0.12800237808E+02 -0.19334178909E+03  0.19763375399E+03  0.00000000000E+00 0.  1.
<mgrwt>
<rscale>  0 0.90320447E+02</rscale>
<asrwt>0</asrwt>
<pdfrwt beam="2">  1        3 0.42330800E-01 0.90320447E+02</pdfrwt>
<pdfrwt beam="1">  1       -3 0.11403259E-02 0.90320447E+02</pdfrwt>
<totfact> 0.25355550E+04</totfact>
</mgrwt>
</event>
<event>
 5    1  0.4067226E+001  0.8942613E+02  0.7546771E-02  0.1304247E+00
         -2   -1    0    0    0  501 -0.00000000000E+00  0.00000000000E+00  0.11581117694E+02  0.11581117694E+02  0.00000000000E+00 0.  1.
          2   -1    0    0  501    0  0.00000000000E+00 -0.00000000000E+00 -0.17263083888E+03  0.17263083888E+03  0.00000000000E+00 0. -1.
         23    2    1    2    0    0  0.00000000000E+00  0.00000000000E+00 -0.16104972118E+03  0.18421195657E+03  0.89426127337E+02 0.  0.
          2    1    3    3  502    0  0.21451107039E+02 -0.14762077198E+02 -0.15539969764E+03  0.15756628746E+03  0.00000000000E+00 0. -1.
         -2    1    3    3    0  502 -0.21451107039E+02  0.14762077198E+02 -0.56500235418E+01  0.26645669112E+02  0.00000000000E+00 0.  1.
<mgrwt>
<rscale>  0 0.89426127E+02</rscale>
<asrwt>0</asrwt>
<pdfrwt beam="2">  1        2 0.26558590E-01 0.89426127E+02</pdfrwt>
<pdfrwt beam="1">  1       -2 0.17817104E-02 0.89426127E+02</pdfrwt>
<totfact> 0.15464634E+05</totfact>
</mgrwt>
</event>
<event>
 5    1  0.4067226E+001  0.8440544E+02  0.7546771E-02  0.1316995E+00
          1   -1    0    0  501    0  0.00000000000E+00  0.00000000000E+00  0.15580926777E+04  0.15580926777E+04  0.00000000000E+00 0. -1.
         -1   -1    0    0    0  501 -0.00000000000E+00 -0.00000000000E+00 -0.11431088066E+01  0.11431088066E+01  0.00000000000E+00 0.  1.
         23    2    1    2    0    0  0.00000000000E+00  0.00000000000E+00  0.15569495689E+04  0.15592357865E+04  0.84405437298E+02 0.  0.
          2    1    3    3  502    0 -0.67070015301E+01 -0.39404235233E+02  0.10286425622E+04  0.10294188644E+04  0.00000000000E+00 0. -1.
         -2    1    3    3    0  502  0.67070015301E+01  0.39404235233E+02  0.52830700679E+03  0.52981692219E+03  0.00000000000E+00 0.  1.
<mgrwt>
<rscale>  0 0.84405437E+02</rscale>
<asrwt>0</asrwt>
<pdfrwt beam="1">  1        1 0.23970487E+00 0.84405437E+02</pdfrwt>
<pdfrwt beam="2">  1       -1 0.17586414E-03 0.84405437E+02</pdfrwt>
<totfact> 0.13115465E+05</totfact>
</mgrwt>
</event>
<event>
 5    1  0.4067226E+001  0.1033693E+03  0.7546771E-02  0.1273366E+00
         -1   -1    0    0    0  501 -0.00000000000E+00  0.00000000000E+00  0.36183931747E+01  0.36183931747E+01  0.00000000000E+00 0.  1.
          1   -1    0    0  501    0  0.00000000000E+00 -0.00000000000E+00 -0.73825698925E+03  0.73825698925E+03  0.00000000000E+00 0. -1.
         23    2    1    2    0    0  0.00000000000E+00  0.00000000000E+00 -0.73463859608E+03  0.74187538243E+03  0.10336931945E+03 0.  0.
          2    1    3    3  502    0 -0.21914338831E+02 -0.21877923979E+02 -0.66431128629E+03  0.66503260589E+03  0.00000000000E+00 0. -1.
         -2    1    3    3    0  502  0.21914338831E+02  0.21877923979E+02 -0.70327309788E+02  0.76842776538E+02  0.00000000000E+00 0.  1.
<mgrwt>
<rscale>  0 0.10336932E+03</rscale>
<asrwt>0</asrwt>
<pdfrwt beam="2">  1        1 0.11357792E+00 0.10336932E+03</pdfrwt>
<pdfrwt beam="1">  1       -1 0.55667624E-03 0.10336932E+03</pdfrwt>
<totfact> 0.10168901E+05</totfact>
</mgrwt>
</event>
<event>
 5    1  0.4067226E+001  0.9112070E+02  0.7546771E-02  0.1300160E+00
          2   -1    0    0  501    0  0.00000000000E+00  0.00000000000E+00  0.17923231246E+03  0.17923231246E+03  0.00000000000E+00 0. -1.
         -2   -1    0    0    0  501 -0.00000000000E+00 -0.00000000000E+00 -0.11581313151E+02  0.11581313151E+02  0.00000000000E+00 0.  1.
         23    2    1    2    0    0  0.00000000000E+00  0.00000000000E+00  0.16765099931E+03  0.19081362561E+03  0.91120700995E+02 0.  0.
          2    1    3    3  502    0 -0.34626532625E+02  0.28137204553E+02  0.64513798003E+02  0.78439334357E+02  0.00000000000E+00 0. -1.
         -2    1    3    3    0  502  0.34626532625E+02 -0.28137204553E+02  0.10313720131E+03  0.11237429125E+03  0.00000000000E+00 0.  1.
<mgrwt>
<rscale>  0 0.91120701E+02</rscale>
<asrwt>0</asrwt>
<pdfrwt beam="1">  1        2 0.27574200E-01 0.91120701E+02</pdfrwt>
<pdfrwt beam="2">  1       -2 0.17817406E-02 0.91120701E+02</pdfrwt>
<totfact> 0.14896846E+05</totfact>
</mgrwt>
</event>
<event>
 5    1  0.4067226E+001  0.9082083E+02  0.7546771E-02  0.1300876E+00
          1   -1    0    0  501    0  0.00000000000E+00  0.00000000000E+00  0.64157891786E+01  0.64157891786E+01  0.00000000000E+00 0. -1.
         -1   -1    0    0    0  501 -0.00000000000E+00 -0.00000000000E+00 -0.32141108860E+03  0.32141108860E+03  0.00000000000E+00 0.  1.
         23    2    1    2    0    0  0.00000000000E+00  0.00000000000E+00 -0.31499529943E+03  0.32782687778E+03  0.90820829861E+02 0.  0.
          2    1    3    3  502    0 -0.27538216469E+01 -0.22664391900E+02 -0.15807736790E+02  0.27769456895E+02  0.00000000000E+00 0. -1.
         -2    1    3    3    0  502  0.27538216469E+01  0.22664391900E+02 -0.29918756264E+03  0.30005742089E+03  0.00000000000E+00 0.  1.
<mgrwt>
<rscale>  0 0.90820830E+02</rscale>
<asrwt>0</asrwt>
<pdfrwt beam="1">  1        1 0.98704448E-03 0.90820830E+02</pdfrwt>
<pdfrwt beam="2">  1       -1 0.49447860E-01 0.90820830E+02</pdfrwt>
<totfact> 0.59523684E+04</totfact>
</mgrwt>
</event>
<event>
 5    1  0.4067226E+001  0.9149825E+02  0.7546771E-02  0.1299264E+00
         -1   -1    0    0    0  501 -0.00000000000E+00  0.00000000000E+00  0.14246162395E+01  0.14246162395E+01  0.00000000000E+00 0.  1.
          1   -1    0    0  501    0  0.00000000000E+00 -0.00000000000E+00 -0.14691551463E+04  0.14691551463E+04  0.00000000000E+00 0. -1.
         23    2    1    2    0    0  0.00000000000E+00  0.00000000000E+00 -0.14677305300E+04  0.14705797625E+04  0.91498246534E+02 0.  0.
          2    1    3    3  502    0  0.17167813882E+02  0.39036368111E+02 -0.10001069822E+04  0.10010157580E+04  0.00000000000E+00 0. -1.
         -2    1    3    3    0  502 -0.17167813882E+02 -0.39036368111E+02 -0.46762354778E+03  0.46956400448E+03  0.00000000000E+00 0.  1.
<mgrwt>
<rscale>  0 0.91498247E+02</rscale>
<asrwt>0</asrwt>
<pdfrwt beam="2">  1        1 0.22602376E+00 0.91498247E+02</pdfrwt>
<pdfrwt beam="1">  1       -1 0.21917183E-03 0.91498247E+02</pdfrwt>
<totfact> 0.11131930E+05</totfact>
</mgrwt>
</event>
<event>
 5    1  0.4067226E+001  0.9125040E+02  0.7546771E-02  0.1299852E+00
          2   -1    0    0  501    0  0.00000000000E+00  0.00000000000E+00  0.86222316108E+02  0.86222316108E+02  0.00000000000E+00 0. -1.
         -2   -1    0    0    0  501 -0.00000000000E+00 -0.00000000000E+00 -0.24142925486E+02  0.24142925486E+02  0.00000000000E+00 0.  1.
         23    2    1    2    0    0  0.00000000000E+00  0.00000000000E+00  0.62079390622E+02  0.11036524159E+03  0.91250401708E+02 0.  0.
          2    1    3    3  502    0  0.86933009751E+01 -0.36801172831E+02  0.61917122163E+02  0.72550877462E+02  0.00000000000E+00 0. -1.
         -2    1    3    3    0  502 -0.86933009751E+01  0.36801172831E+02  0.16226845885E+00  0.37814364131E+02  0.00000000000E+00 0.  1.
<mgrwt>
<rscale>  0 0.91250402E+02</rscale>
<asrwt>0</asrwt>
<pdfrwt beam="1">  1        2 0.13264972E-01 0.91250402E+02</pdfrwt>
<pdfrwt beam="2">  1       -2 0.37142963E-02 0.91250402E+02</pdfrwt>
<totfact> 0.11710733E+05</totfact>
</mgrwt>
</event>
<event>
 5    1  0.4067226E+001  0.9089644E+02  0.7546771E-02  0.1300695E+00
          1   -1    0    0  501    0  0.00000000000E+00  0.00000000000E+00  0.81499178352E+01  0.81499178352E+01  0.00000000000E+00 0. -1.
         -1   -1    0    0    0  501 -0.00000000000E+00 -0.00000000000E+00 -0.25344312523E+03  0.25344312523E+03  0.00000000000E+00 0.  1.
         23    2    1    2    0    0  0.00000000000E+00  0.00000000000E+00 -0.24529320739E+03  0.26159304306E+03  0.90896438797E+02 0.  0.
          2    1    3    3  502    0 -0.15826997117E+02  0.40924788460E+02 -0.15672400670E+03  0.16275056505E+03  0.00000000000E+00 0.  1.
         -2    1    3    3    0  502  0.15826997117E+02 -0.40924788460E+02 -0.88569200694E+02  0.98842478014E+02  0.00000000000E+00 0. -1.
<mgrwt>
<rscale>  0 0.90896439E+02</rscale>
<asrwt>0</asrwt>
<pdfrwt beam="1">  1        1 0.12538336E-02 0.90896439E+02</pdfrwt>
<pdfrwt beam="2">  1       -1 0.38991247E-01 0.90896439E+02</pdfrwt>
<totfact> 0.64984477E+04</totfact>
</mgrwt>
</event>
<event>
 5    1  0.4067226E+001  0.1127191E+03  0.7546771E-02  0.1255616E+00
         -2   -1    0    0    0  501 -0.00000000000E+00  0.00000000000E+00  0.50814892785E+01  0.50814892785E+01  0.00000000000E+00 0.  1.
          2   -1    0    0  501    0  0.00000000000E+00 -0.00000000000E+00 -0.62509242552E+03  0.62509242552E+03  0.00000000000E+00 0. -1.
         23    2    1    2    0    0  0.00000000000E+00  0.00000000000E+00 -0.62001093624E+03  0.63017391480E+03  0.11271912807E+03 0.  0.
          2    1    3    3  502    0 -0.11301019382E+02 -0.53090222760E+02 -0.39481328720E+03  0.39852705873E+03  0.00000000000E+00 0. -1.
         -2    1    3    3    0  502  0.11301019382E+02  0.53090222760E+02 -0.22519764904E+03  0.23164685607E+03  0.00000000000E+00 0.  1.
<mgrwt>
<rscale>  0 0.11271913E+03</rscale>
<asrwt>0</asrwt>
<pdfrwt beam="2">  1        2 0.96168004E-01 0.11271913E+03</pdfrwt>
<pdfrwt beam="1">  1       -2 0.78176808E-03 0.11271913E+03</pdfrwt>
<totfact> 0.13083652E+05</totfact>
</mgrwt>
</event>
<event>
 5    1  0.4067226E+001  0.9009575E+02  0.7546771E-02  0.1302620E+00
          1   -1    0    0  501    0  0.00000000000E+00  0.00000000000E+00  0.13797610942E+04  0.13797610942E+04  0.00000000000E+00 0. -1.
         -1   -1    0    0    0  501 -0.00000000000E+00 -0.00000000000E+00 -0.14707699744E+01  0.14707699744E+01  0.00000000000E+00 0.  1.
         23    2    1    2    0    0  0.00000000000E+00  0.00000000000E+00  0.13782903242E+04  0.13812318641E+04  0.90095753266E+02 0.  0.
          2    1    3    3  502    0 -0.28159883744E+02 -0.49763338620E+01  0.12227702112E+04  0.12231045468E+04  0.00000000000E+00 0. -1.
         -2    1    3    3    0  502  0.28159883744E+02  0.49763338620E+01  0.15552011298E+03  0.15812731735E+03  0.00000000000E+00 0.  1.
<mgrwt>
<rscale>  0 0.90095753E+02</rscale>
<asrwt>0</asrwt>
<pdfrwt beam="1">  1        1 0.21226990E+00 0.90095753E+02</pdfrwt>
<pdfrwt beam="2">  1       -1 0.22627341E-03 0.90095753E+02</pdfrwt>
<totfact> 0.12137065E+05</totfact>
</mgrwt>
</event>
<event>
 5    1  0.4067226E+001  0.9189381E+02  0.7546771E-02  0.1298329E+00
         -2   -1    0    0    0  501 -0.00000000000E+00  0.00000000000E+00  0.69093431049E+03  0.69093431049E+03  0.00000000000E+00 0.  1.
          2   -1    0    0  501    0  0.00000000000E+00 -0.00000000000E+00 -0.30554542434E+01  0.30554542434E+01  0.00000000000E+00 0. -1.
         23    2    1    2    0    0  0.00000000000E+00  0.00000000000E+00  0.68787885624E+03  0.69398976473E+03  0.91893811998E+02 0.  0.
          2    1    3    3  502    0  0.15817453132E+02  0.37284810374E+02  0.18008022164E+03  0.18457853379E+03  0.00000000000E+00 0. -1.
         -2    1    3    3    0  502 -0.15817453132E+02 -0.37284810374E+02  0.50779863460E+03  0.50941123095E+03  0.00000000000E+00 0.  1.
<mgrwt>
<rscale>  0 0.91893812E+02</rscale>
<asrwt>0</asrwt>
<pdfrwt beam="2">  1        2 0.47007043E-03 0.91893812E+02</pdfrwt>
<pdfrwt beam="1">  1       -2 0.10629746E+00 0.91893812E+02</pdfrwt>
<totfact> 0.26965686E+04</totfact>
</mgrwt>
</event>
<event>
 5    1  0.4067226E+001  0.9046755E+02  0.7546771E-02  0.1301723E+00
          2   -1    0    0  501    0  0.00000000000E+00  0.00000000000E+00  0.28997661822E+03  0.28997661822E+03  0.00000000000E+00 0. -1.
         -2   -1    0    0    0  501 -0.00000000000E+00 -0.00000000000E+00 -0.70560662449E+01  0.70560662449E+01  0.00000000000E+00 0.  1.
         23    2    1    2    0    0  0.00000000000E+00  0.00000000000E+00  0.28292055197E+03  0.29703268446E+03  0.90467546172E+02 0.  0.
          2    1    3    3  502    0  0.29735096957E+02 -0.34086699482E+02  0.14186446960E+03  0.14890133246E+03  0.00000000000E+00 0. -1.
         -2    1    3    3    0  502 -0.29735096957E+02  0.34086699482E+02  0.14105608237E+03  0.14813135200E+03  0.00000000000E+00 0.  1.
<mgrwt>
<rscale>  0 0.90467546E+02</rscale>
<asrwt>0</asrwt>
<pdfrwt beam="1">  1        2 0.44611778E-01 0.90467546E+02</pdfrwt>
<pdfrwt beam="2">  1       -2 0.10855489E-02 0.90467546E+02</pdfrwt>
<totfact> 0.18113389E+05</totfact>
</mgrwt>
</event>
<event>
 5    1  0.4067226E+001  0.8828133E+02  0.7546771E-02  0.1307068E+00
         -2   -1    0    0    0  501 -0.00000000000E+00  0.00000000000E+00  0.90790888597E+00  0.90790888597E+00  0.00000000000E+00 0.  1.
          2   -1    0    0  501    0  0.00000000000E+00 -0.00000000000E+00 -0.21460284022E+04  0.21460284022E+04  0.00000000000E+00 0. -1.
         23    2    1    2    0    0  0.00000000000E+00  0.00000000000E+00 -0.21451204933E+04  0.21469363111E+04  0.88281328851E+02 0.  0.
          2    1    3    3  502    0 -0.41835509869E+02 -0.69514924554E+01 -0.77484533609E+03  0.77600504379E+03  0.00000000000E+00 0. -1.
         -2    1    3    3    0  502  0.41835509869E+02  0.69514924554E+01 -0.13702751572E+04  0.13709312673E+04  0.00000000000E+00 0.  1.
<mgrwt>
<rscale>  0 0.88281329E+02</rscale>
<asrwt>0</asrwt>
<pdfrwt beam="2">  1        2 0.33015928E+00 0.88281329E+02</pdfrwt>
<pdfrwt beam="1">  1       -2 0.13967784E-03 0.88281329E+02</pdfrwt>
<totfact> 0.19939079E+05</totfact>
</mgrwt>
</event>
<event>
 5    1  0.4067226E+001  0.9134440E+02  0.7546771E-02  0.1299628E+00
         -2   -1    0    0    0  501 -0.00000000000E+00  0.00000000000E+00  0.16867310956E+01  0.16867310956E+01  0.00000000000E+00 0.  1.
          2   -1    0    0  501    0  0.00000000000E+00 -0.00000000000E+00 -0.12366820363E+04  0.12366820363E+04  0.00000000000E+00 0. -1.
         23    2    1    2    0    0  0.00000000000E+00  0.00000000000E+00 -0.12349953052E+04  0.12383687674E+04  0.91344404229E+02 0.  0.
          2    1    3    3  502    0  0.55496294758E+01  0.19390434201E+02 -0.11730365014E+04  0.11732098794E+04  0.00000000000E+00 0. -1.
         -2    1    3    3    0  502 -0.55496294758E+01 -0.19390434201E+02 -0.61958803795E+02  0.65158888063E+02  0.00000000000E+00 0.  1.
<mgrwt>
<rscale>  0 0.91344404E+02</rscale>
<asrwt>0</asrwt>
<pdfrwt beam="2">  1        2 0.19025796E+00 0.91344404E+02</pdfrwt>
<pdfrwt beam="1">  1       -2 0.25949821E-03 0.91344404E+02</pdfrwt>
<totfact> 0.24655512E+05</totfact>
</mgrwt>
</event>
<event>
 5    1  0.4067226E+001  0.9034237E+02  0.7546771E-02  0.1302025E+00
          2   -1    0    0  501    0  0.00000000000E+00  0.00000000000E+00  0.52690318425E+03  0.52690318425E+03  0.00000000000E+00 0. -1.
         -2   -1    0    0    0  501 -0.00000000000E+00 -0.00000000000E+00 -0.38725059985E+01  0.38725059985E+01  0.00000000000E+00 0.  1.
         23    2    1    2    0    0  0.00000000000E+00  0.00000000000E+00  0.52303067826E+03  0.53077569025E+03  0.90342365292E+02 0.  0.
          2    1    3    3  502    0 -0.24817588590E+02  0.29926182346E+02  0.39663716396E+03  0.39853798931E+03  0.00000000000E+00 0. -1.
         -2    1    3    3    0  502  0.24817588590E+02 -0.29926182346E+02  0.12639351430E+03  0.13223770094E+03  0.00000000000E+00 0.  1.
<mgrwt>
<rscale>  0 0.90342365E+02</rscale>
<asrwt>0</asrwt>
<pdfrwt beam="1">  1        2 0.81061971E-01 0.90342365E+02</pdfrwt>
<pdfrwt beam="2">  1       -2 0.59577057E-03 0.90342365E+02</pdfrwt>
<totfact> 0.22452941E+05</totfact>
</mgrwt>
</event>
<event>
 5    1  0.4067226E+001  0.9395913E+02  0.7546771E-02  0.1293538E+00
          2   -1    0    0  501    0  0.00000000000E+00  0.00000000000E+00  0.54835976893E+02  0.54835976893E+02  0.00000000000E+00 0. -1.
         -2   -1    0    0    0  501 -0.00000000000E+00 -0.00000000000E+00 -0.40248754045E+02  0.40248754045E+02  0.00000000000E+00 0.  1.
         23    2    1    2    0    0  0.00000000000E+00  0.00000000000E+00  0.14587222848E+02  0.95084730938E+02  0.93959134666E+02 0.  0.
          2    1    3    3  502    0  0.29332811936E+02 -0.26536630824E+02 -0.18357090443E+02  0.43607217305E+02  0.00000000000E+00 0.  1.
         -2    1    3    3    0  502 -0.29332811936E+02  0.26536630824E+02  0.32944313291E+02  0.51477513633E+02  0.00000000000E+00 0. -1.
<mgrwt>
<rscale>  0 0.93959135E+02</rscale>
<asrwt>0</asrwt>
<pdfrwt beam="1">  1        2 0.84363042E-02 0.93959135E+02</pdfrwt>
<pdfrwt beam="2">  1       -2 0.61921160E-02 0.93959135E+02</pdfrwt>
<totfact> 0.95067688E+04</totfact>
</mgrwt>
</event>
<event>
 5    1  0.4067226E+001  0.9091617E+02  0.7546771E-02  0.1300648E+00
         -1   -1    0    0    0  501 -0.00000000000E+00  0.00000000000E+00  0.34871713079E+01  0.34871713079E+01  0.00000000000E+00 0.  1.
          1   -1    0    0  501    0  0.00000000000E+00 -0.00000000000E+00 -0.59258278622E+03  0.59258278622E+03  0.00000000000E+00 0. -1.
         23    2    1    2    0    0  0.00000000000E+00  0.00000000000E+00 -0.58909561491E+03  0.59606995753E+03  0.90916174352E+02 0.  0.
          2    1    3    3  502    0 -0.17257391704E+02 -0.41186943043E+02 -0.35027826002E+03  0.35311335473E+03  0.00000000000E+00 0. -1.
         -2    1    3    3    0  502  0.17257391704E+02  0.41186943043E+02 -0.23881735489E+03  0.24295660280E+03  0.00000000000E+00 0.  1.
<mgrwt>
<rscale>  0 0.90916174E+02</rscale>
<asrwt>0</asrwt>
<pdfrwt beam="2">  1        1 0.91166559E-01 0.90916174E+02</pdfrwt>
<pdfrwt beam="1">  1       -1 0.53648803E-03 0.90916174E+02</pdfrwt>
<totfact> 0.14255405E+05</totfact>
</mgrwt>
</event>
<event>
 5    1  0.4067226E+001  0.9422656E+02  0.7546771E-02  0.1292928E+00
         -3   -1    0    0    0  501 -0.00000000000E+00  0.00000000000E+00  0.10652455036E+03  0.10652455036E+03  0.00000000000E+00 0.  1.
          3   -1    0    0  501    0  0.00000000000E+00 -0.00000000000E+00 -0.20837085524E+02  0.20837085524E+02  0.00000000000E+00 0. -1.
         23    2    1    2    0    0  0.00000000000E+00  0.00000000000E+00  0.85687464835E+02  0.12736163588E+03  0.94226560295E+02 0.  0.
          2    1    3    3  502    0 -0.30012250899E+02  0.18048102270E+02  0.24645030883E+00  0.35021849427E+02  0.00000000000E+00 0. -1.
         -2    1    3    3    0  502  0.30012250899E+02 -0.18048102270E+02  0.85441014526E+02  0.92339786456E+02  0.00000000000E+00 0.  1.
<mgrwt>
<rscale>  0 0.94226560E+02</rscale>
<asrwt>0</asrwt>
<pdfrwt beam="2">  1        3 0.32057055E-02 0.94226560E+02</pdfrwt>
<pdfrwt beam="1">  1       -3 0.16388392E-01 0.94226560E+02</pdfrwt>
<totfact> 0.29944848E+04</totfact>
</mgrwt>
</event>
<event>
 5    1  0.4067226E+001  0.8965678E+02  0.7546771E-02  0.1303685E+00
          2   -1    0    0  501    0  0.00000000000E+00  0.00000000000E+00  0.94108712878E+03  0.94108712878E+03  0.00000000000E+00 0. -1.
         -2   -1    0    0    0  501 -0.00000000000E+00 -0.00000000000E+00 -0.21353860754E+01  0.21353860754E+01  0.00000000000E+00 0.  1.
         23    2    1    2    0    0  0.00000000000E+00  0.00000000000E+00  0.93895174270E+03  0.94322251486E+03  0.89656775551E+02 0.  0.
          2    1    3    3  502    0 -0.34227375823E+02 -0.34170799163E+01  0.77190581894E+03  0.77267184691E+03  0.00000000000E+00 0. -1.
         -2    1    3    3    0  502  0.34227375823E+02  0.34170799163E+01  0.16704592376E+03  0.17055066794E+03  0.00000000000E+00 0.  1.
<mgrwt>
<rscale>  0 0.89656776E+02</rscale>
<asrwt>0</asrwt>
<pdfrwt beam="1">  1        2 0.14478230E+00 0.89656776E+02</pdfrwt>
<pdfrwt beam="2">  1       -2 0.32852168E-03 0.89656776E+02</pdfrwt>
<totfact> 0.26030038E+05</totfact>
</mgrwt>
</event>
<event>
 5    1  0.4067226E+001  0.8422048E+02  0.7546771E-02  0.1317484E+00
         -1   -1    0    0    0  501 -0.00000000000E+00  0.00000000000E+00  0.22953332171E+02  0.22953332171E+02  0.00000000000E+00 0.  1.
          1   -1    0    0  501    0  0.00000000000E+00 -0.00000000000E+00 -0.77255546266E+02  0.77255546266E+02  0.00000000000E+00 0. -1.
         23    2    1    2    0    0  0.00000000000E+00  0.00000000000E+00 -0.54302214095E+02  0.10020887844E+03  0.84220477689E+02 0.  0.
          2    1    3    3  502    0  0.14584070559E+02 -0.28294432636E+02 -0.59952774473E+02  0.67879342950E+02  0.00000000000E+00 0. -1.
         -2    1    3    3    0  502 -0.14584070559E+02  0.28294432636E+02  0.56505603784E+01  0.32329535488E+02  0.00000000000E+00 0.  1.
<mgrwt>
<rscale>  0 0.84220478E+02</rscale>
<asrwt>0</asrwt>
<pdfrwt beam="2">  1        1 0.11885469E-01 0.84220478E+02</pdfrwt>
<pdfrwt beam="1">  1       -1 0.35312819E-02 0.84220478E+02</pdfrwt>
<totfact> 0.12444104E+05</totfact>
</mgrwt>
</event>
<event>
 5    1  0.4067226E+001  0.9374923E+02  0.7546771E-02  0.1294018E+00
          3   -1    0    0  501    0  0.00000000000E+00  0.00000000000E+00  0.78840196486E+03  0.78840196486E+03  0.00000000000E+00 0. -1.
         -3   -1    0    0    0  501 -0.00000000000E+00 -0.00000000000E+00 -0.27869406076E+01  0.27869406076E+01  0.00000000000E+00 0.  1.
         23    2    1    2    0    0  0.00000000000E+00  0.00000000000E+00  0.78561502425E+03  0.79118890546E+03  0.93749228283E+02 0.  0.
          2    1    3    3  502    0 -0.39547780925E+02 -0.24214579832E+02  0.45057691333E+03  0.45295687177E+03  0.00000000000E+00 0. -1.
         -2    1    3    3    0  502  0.39547780925E+02  0.24214579832E+02  0.33503811092E+03  0.33823203370E+03  0.00000000000E+00 0.  1.
<mgrwt>
<rscale>  0 0.93749228E+02</rscale>
<asrwt>0</asrwt>
<pdfrwt beam="1">  1        3 0.12129243E+00 0.93749228E+02</pdfrwt>
<pdfrwt beam="2">  1       -3 0.42876072E-03 0.93749228E+02</pdfrwt>
<totfact> 0.11638671E+04</totfact>
</mgrwt>
</event>
<event>
 5    1  0.4067226E+001  0.9033136E+02  0.7546771E-02  0.1302051E+00
         -1   -1    0    0    0  501 -0.00000000000E+00  0.00000000000E+00  0.40252530211E+01  0.40252530211E+01  0.00000000000E+00 0.  1.
          1   -1    0    0  501    0  0.00000000000E+00 -0.00000000000E+00 -0.50678514988E+03  0.50678514988E+03  0.00000000000E+00 0. -1.
         23    2    1    2    0    0  0.00000000000E+00  0.00000000000E+00 -0.50275989686E+03  0.51081040290E+03  0.90331355699E+02 0.  0.
          2    1    3    3  502    0 -0.30860970893E+02  0.78090084842E+00 -0.43781253205E+03  0.43889955861E+03  0.00000000000E+00 0. -1.
         -2    1    3    3    0  502  0.30860970893E+02 -0.78090084842E+00 -0.64947364806E+02  0.71910844286E+02  0.00000000000E+00 0.  1.
<mgrwt>
<rscale>  0 0.90331356E+02</rscale>
<asrwt>0</asrwt>
<pdfrwt beam="2">  1        1 0.77966905E-01 0.90331356E+02</pdfrwt>
<pdfrwt beam="1">  1       -1 0.61927002E-03 0.90331356E+02</pdfrwt>
<totfact> 0.14296687E+05</totfact>
</mgrwt>
</event>
<event>
 5    1  0.4067226E+001  0.9000617E+02  0.7546771E-02  0.1302837E+00
          3   -1    0    0  501    0  0.00000000000E+00  0.00000000000E+00  0.87791558144E+03  0.87791558144E+03  0.00000000000E+00 0. -1.
         -3   -1    0    0    0  501 -0.00000000000E+00 -0.00000000000E+00 -0.23069164045E+01  0.23069164045E+01  0.00000000000E+00 0.  1.
         23    2    1    2    0    0  0.00000000000E+00  0.00000000000E+00  0.87560866503E+03  0.88022249784E+03  0.90006174379E+02 0.  0.
          2    1    3    3  502    0 -0.34158832832E+02 -0.76699941402E+00  0.72424145978E+03  0.72504696828E+03  0.00000000000E+00 0. -1.
         -2    1    3    3    0  502  0.34158832832E+02  0.76699941402E+00  0.15136720525E+03  0.15517552956E+03  0.00000000000E+00 0.  1.
<mgrwt>
<rscale>  0 0.90006174E+02</rscale>
<asrwt>0</asrwt>
<pdfrwt beam="1">  1        3 0.13506367E+00 0.90006174E+02</pdfrwt>
<pdfrwt beam="2">  1       -3 0.35491092E-03 0.90006174E+02</pdfrwt>
<totfact> 0.11762425E+04</totfact>
</mgrwt>
</event>
<event>
 5    1  0.4067226E+001  0.9252986E+02  0.7546771E-02  0.1296838E+00
         -1   -1    0    0    0  501 -0.00000000000E+00  0.00000000000E+00  0.70992730965E+01  0.70992730965E+01  0.00000000000E+00 0.  1.
          1   -1    0    0  501    0  0.00000000000E+00 -0.00000000000E+00 -0.30150184562E+03  0.30150184562E+03  0.00000000000E+00 0. -1.
         23    2    1    2    0    0  0.00000000000E+00  0.00000000000E+00 -0.29440257252E+03  0.30860111872E+03  0.92529864177E+02 0.  0.
          2    1    3    3  502    0 -0.38454941410E+02 -0.17204693584E+01 -0.23279854709E+03  0.23595954327E+03  0.00000000000E+00 0. -1.
         -2    1    3    3    0  502  0.38454941410E+02  0.17204693584E+01 -0.61604025439E+02  0.72641575450E+02  0.00000000000E+00 0.  1.
<mgrwt>
<rscale>  0 0.92529864E+02</rscale>
<asrwt>0</asrwt>
<pdfrwt beam="2">  1        1 0.46384904E-01 0.92529864E+02</pdfrwt>
<pdfrwt beam="1">  1       -1 0.10921957E-02 0.92529864E+02</pdfrwt>
<totfact> 0.12330143E+05</totfact>
</mgrwt>
</event>
<event>
 5    1  0.4067226E+001  0.9269613E+02  0.7546771E-02  0.1296451E+00
         -1   -1    0    0    0  501 -0.00000000000E+00  0.00000000000E+00  0.43770654952E+02  0.43770654952E+02  0.00000000000E+00 0.  1.
          1   -1    0    0  501    0  0.00000000000E+00 -0.00000000000E+00 -0.49077244296E+02  0.49077244296E+02  0.00000000000E+00 0. -1.
         23    2    1    2    0    0  0.00000000000E+00  0.00000000000E+00 -0.53065893443E+01  0.92847899248E+02  0.92696129931E+02 0.  0.
          2    1    3    3  502    0  0.26575224639E+02  0.40375288390E+01 -0.40472217804E+02  0.48585436272E+02  0.00000000000E+00 0. -1.
         -2    1    3    3    0  502 -0.26575224639E+02 -0.40375288390E+01  0.35165628459E+02  0.44262462976E+02  0.00000000000E+00 0.  1.
<mgrwt>
<rscale>  0 0.92696130E+02</rscale>
<asrwt>0</asrwt>
<pdfrwt beam="2">  1        1 0.75503452E-02 0.92696130E+02</pdfrwt>
<pdfrwt beam="1">  1       -1 0.67339470E-02 0.92696130E+02</pdfrwt>
<totfact> 0.89268332E+04</totfact>
</mgrwt>
</event>
<event>
 5    1  0.4067226E+001  0.9378537E+02  0.7546771E-02  0.1293935E+00
          2   -1    0    0  501    0  0.00000000000E+00  0.00000000000E+00  0.13157603162E+04  0.13157603162E+04  0.00000000000E+00 0. -1.
         -2   -1    0    0    0  501 -0.00000000000E+00 -0.00000000000E+00 -0.16712192769E+01  0.16712192769E+01  0.00000000000E+00 0.  1.
         23    2    1    2    0    0  0.00000000000E+00  0.00000000000E+00  0.13140890969E+04  0.13174315355E+04  0.93785372083E+02 0.  0.
          2    1    3    3  502    0 -0.13087022246E+01  0.26610703944E+02  0.11991106110E+04  0.11994065615E+04  0.00000000000E+00 0. -1.
         -2    1    3    3    0  502  0.13087022246E+01 -0.26610703944E+02  0.11497848591E+03  0.11802497400E+03  0.00000000000E+00 0.  1.
<mgrwt>
<rscale>  0 0.93785372E+02</rscale>
<asrwt>0</asrwt>
<pdfrwt beam="1">  1        2 0.20242384E+00 0.93785372E+02</pdfrwt>
<pdfrwt beam="2">  1       -2 0.25711171E-03 0.93785372E+02</pdfrwt>
<totfact> 0.22753260E+05</totfact>
</mgrwt>
</event>
<event>
 5    1  0.4067226E+001  0.9166495E+02  0.7546771E-02  0.1298869E+00
         -1   -1    0    0    0  501 -0.00000000000E+00  0.00000000000E+00  0.50822256890E+03  0.50822256890E+03  0.00000000000E+00 0.  1.
          1   -1    0    0  501    0  0.00000000000E+00 -0.00000000000E+00 -0.41332591392E+01  0.41332591392E+01  0.00000000000E+00 0. -1.
         23    2    1    2    0    0  0.00000000000E+00  0.00000000000E+00  0.50408930976E+03  0.51235582804E+03  0.91664945920E+02 0.  0.
          2    1    3    3  502    0 -0.38505475884E+02  0.22909441819E+02  0.19811266386E+03  0.20311607956E+03  0.00000000000E+00 0. -1.
         -2    1    3    3    0  502  0.38505475884E+02 -0.22909441819E+02  0.30597664590E+03  0.30923974847E+03  0.00000000000E+00 0.  1.
<mgrwt>
<rscale>  0 0.91664946E+02</rscale>
<asrwt>0</asrwt>
<pdfrwt beam="2">  1        1 0.63588642E-03 0.91664946E+02</pdfrwt>
<pdfrwt beam="1">  1       -1 0.78188038E-01 0.91664946E+02</pdfrwt>
<totfact> 0.45919999E+04</totfact>
</mgrwt>
</event>
<event>
 5    1  0.4067226E+001  0.9069955E+02  0.7546771E-02  0.1301166E+00
          1   -1    0    0  501    0  0.00000000000E+00  0.00000000000E+00  0.77072207702E+01  0.77072207702E+01  0.00000000000E+00 0. -1.
         -1   -1    0    0    0  501 -0.00000000000E+00 -0.00000000000E+00 -0.26684092582E+03  0.26684092582E+03  0.00000000000E+00 0.  1.
         23    2    1    2    0    0  0.00000000000E+00  0.00000000000E+00 -0.25913370505E+03  0.27454814659E+03  0.90699546324E+02 0.  0.
          2    1    3    3  502    0  0.21570175125E+02 -0.37112807026E+02 -0.85288764844E+02  0.95481968502E+02  0.00000000000E+00 0. -1.
         -2    1    3    3    0  502 -0.21570175125E+02  0.37112807026E+02 -0.17384494021E+03  0.17906617809E+03  0.00000000000E+00 0.  1.
<mgrwt>
<rscale>  0 0.90699546E+02</rscale>
<asrwt>0</asrwt>
<pdfrwt beam="1">  1        1 0.11857264E-02 0.90699546E+02</pdfrwt>
<pdfrwt beam="2">  1       -1 0.41052446E-01 0.90699546E+02</pdfrwt>
<totfact> 0.64184213E+04</totfact>
</mgrwt>
</event>
<event>
 5    1  0.4067226E+001  0.8496187E+02  0.7546771E-02  0.1315532E+00
          2   -1    0    0  501    0  0.00000000000E+00  0.00000000000E+00  0.11448535664E+03  0.11448535664E+03  0.00000000000E+00 0. -1.
         -2   -1    0    0    0  501 -0.00000000000E+00 -0.00000000000E+00 -0.15762976329E+02  0.15762976329E+02  0.00000000000E+00 0.  1.
         23    2    1    2    0    0  0.00000000000E+00  0.00000000000E+00  0.98722380309E+02  0.13024833297E+03  0.84961873019E+02 0.  0.
          2    1    3    3  502    0  0.47156811299E+01  0.37716233136E+02  0.78443291972E+02  0.87167092104E+02  0.00000000000E+00 0. -1.
         -2    1    3    3    0  502 -0.47156811299E+01 -0.37716233136E+02  0.20279088337E+02  0.43081240863E+02  0.00000000000E+00 0.  1.
<mgrwt>
<rscale>  0 0.84961873E+02</rscale>
<asrwt>0</asrwt>
<pdfrwt beam="1">  1        2 0.17613131E-01 0.84961873E+02</pdfrwt>
<pdfrwt beam="2">  1       -2 0.24250734E-02 0.84961873E+02</pdfrwt>
<totfact> 0.15505447E+05</totfact>
</mgrwt>
</event>
<event>
 5    1  0.4067226E+001  0.9268787E+02  0.7546771E-02  0.1296470E+00
          1   -1    0    0  501    0  0.00000000000E+00  0.00000000000E+00  0.12930390738E+03  0.12930390738E+03  0.00000000000E+00 0. -1.
         -1   -1    0    0    0  501 -0.00000000000E+00 -0.00000000000E+00 -0.16610174038E+02  0.16610174038E+02  0.00000000000E+00 0.  1.
         23    2    1    2    0    0  0.00000000000E+00  0.00000000000E+00  0.11269373334E+03  0.14591408142E+03  0.92687872032E+02 0.  0.
          2    1    3    3  502    0 -0.15949259501E+02 -0.42642965833E+02  0.69976562448E+02  0.83483655320E+02  0.00000000000E+00 0. -1.
         -2    1    3    3    0  502  0.15949259501E+02  0.42642965833E+02  0.42717170896E+02  0.62430426100E+02  0.00000000000E+00 0.  1.
<mgrwt>
<rscale>  0 0.92687872E+02</rscale>
<asrwt>0</asrwt>
<pdfrwt beam="1">  1        1 0.19892908E-01 0.92687872E+02</pdfrwt>
<pdfrwt beam="2">  1       -1 0.25554115E-02 0.92687872E+02</pdfrwt>
<totfact> 0.10440346E+05</totfact>
</mgrwt>
</event>
<event>
 5    1  0.4067226E+001  0.9164932E+02  0.7546771E-02  0.1298906E+00
          2   -1    0    0  501    0  0.00000000000E+00  0.00000000000E+00  0.69219105678E+01  0.69219105678E+01  0.00000000000E+00 0. -1.
         -2   -1    0    0    0  501 -0.00000000000E+00 -0.00000000000E+00 -0.30336990014E+03  0.30336990014E+03  0.00000000000E+00 0.  1.
         23    2    1    2    0    0  0.00000000000E+00  0.00000000000E+00 -0.29644798957E+03  0.31029181071E+03  0.91649316805E+02 0.  0.
          2    1    3    3  502    0  0.34539209904E+02  0.29814106276E+02 -0.16261252236E+03  0.16889248172E+03  0.00000000000E+00 0. -1.
         -2    1    3    3    0  502 -0.34539209904E+02 -0.29814106276E+02 -0.13383546721E+03  0.14139932899E+03  0.00000000000E+00 0.  1.
<mgrwt>
<rscale>  0 0.91649317E+02</rscale>
<asrwt>0</asrwt>
<pdfrwt beam="1">  1        2 0.10649094E-02 0.91649317E+02</pdfrwt>
<pdfrwt beam="2">  1       -2 0.46672287E-01 0.91649317E+02</pdfrwt>
<totfact> 0.50009998E+04</totfact>
</mgrwt>
</event>
<event>
 5    1  0.4067226E+001  0.9011741E+02  0.7546771E-02  0.1302568E+00
          3   -1    0    0  501    0  0.00000000000E+00  0.00000000000E+00  0.15443451124E+03  0.15443451124E+03  0.00000000000E+00 0. -1.
         -3   -1    0    0    0  501 -0.00000000000E+00 -0.00000000000E+00 -0.13146588849E+02  0.13146588849E+02  0.00000000000E+00 0.  1.
         23    2    1    2    0    0  0.00000000000E+00  0.00000000000E+00  0.14128792240E+03  0.16758110009E+03  0.90117412821E+02 0.  0.
          2    1    3    3  502    0 -0.12000085159E+02  0.40158679379E+02  0.10140117175E+03  0.10972200875E+03  0.00000000000E+00 0. -1.
         -2    1    3    3    0  502  0.12000085159E+02 -0.40158679379E+02  0.39886750648E+02  0.57859091339E+02  0.00000000000E+00 0.  1.
<mgrwt>
<rscale>  0 0.90117413E+02</rscale>
<asrwt>0</asrwt>
<pdfrwt beam="1">  1        3 0.23759154E-01 0.90117413E+02</pdfrwt>
<pdfrwt beam="2">  1       -3 0.20225522E-02 0.90117413E+02</pdfrwt>
<totfact> 0.31234904E+04</totfact>
</mgrwt>
</event>
<event>
 5    1  0.4067226E+001  0.9309565E+02  0.7546771E-02  0.1295524E+00
         -1   -1    0    0    0  501 -0.00000000000E+00  0.00000000000E+00  0.33205502532E+01  0.33205502532E+01  0.00000000000E+00 0.  1.
          1   -1    0    0  501    0  0.00000000000E+00 -0.00000000000E+00 -0.65251228579E+03  0.65251228579E+03  0.00000000000E+00 0. -1.
         23    2    1    2    0    0  0.00000000000E+00  0.00000000000E+00 -0.64919173554E+03  0.65583283604E+03  0.93095646209E+02 0.  0.
          2    1    3    3  502    0 -0.47892606799E+01 -0.25826102631E+02 -0.59531627047E+03  0.59589544928E+03  0.00000000000E+00 0. -1.
         -2    1    3    3    0  502  0.47892606799E+01  0.25826102631E+02 -0.53875465068E+02  0.59937386757E+02  0.00000000000E+00 0.  1.
<mgrwt>
<rscale>  0 0.93095646E+02</rscale>
<asrwt>0</asrwt>
<pdfrwt beam="2">  1        1 0.10038659E+00 0.93095646E+02</pdfrwt>
<pdfrwt beam="1">  1       -1 0.51085346E-03 0.93095646E+02</pdfrwt>
<totfact> 0.13446940E+05</totfact>
</mgrwt>
</event>
<event>
 5    1  0.4067226E+001  0.9180932E+02  0.7546771E-02  0.1298528E+00
          4   -1    0    0  501    0  0.00000000000E+00  0.00000000000E+00  0.20768702302E+03  0.20768702302E+03  0.00000000000E+00 0. -1.
         -4   -1    0    0    0  501 -0.00000000000E+00 -0.00000000000E+00 -0.10146218213E+02  0.10146218213E+02  0.00000000000E+00 0.  1.
         23    2    1    2    0    0  0.00000000000E+00  0.00000000000E+00  0.19754080480E+03  0.21783324123E+03  0.91809320996E+02 0.  0.
          2    1    3    3  502    0 -0.26048931618E+02 -0.30919852962E+02  0.47187127192E+02  0.62138628229E+02  0.00000000000E+00 0.  1.
         -2    1    3    3    0  502  0.26048931618E+02  0.30919852962E+02  0.15035367761E+03  0.15569461300E+03  0.00000000000E+00 0. -1.
<mgrwt>
<rscale>  0 0.91809321E+02</rscale>
<asrwt>0</asrwt>
<pdfrwt beam="1">  1        4 0.31951846E-01 0.91809321E+02</pdfrwt>
<pdfrwt beam="2">  1       -4 0.15609568E-02 0.91809321E+02</pdfrwt>
<totfact> 0.20284493E+04</totfact>
</mgrwt>
</event>
<event>
 5    1  0.4067226E+001  0.8660914E+02  0.7546771E-02  0.1311277E+00
         -1   -1    0    0    0  501 -0.00000000000E+00  0.00000000000E+00  0.93252507244E+03  0.93252507244E+03  0.00000000000E+00 0.  1.
          1   -1    0    0  501    0  0.00000000000E+00 -0.00000000000E+00 -0.20109761601E+01  0.20109761601E+01  0.00000000000E+00 0. -1.
         23    2    1    2    0    0  0.00000000000E+00  0.00000000000E+00  0.93051409627E+03  0.93453604860E+03  0.86609137841E+02 0.  0.
          2    1    3    3  502    0 -0.39218830274E+01 -0.36844881919E+02  0.22341070622E+03  0.22646251377E+03  0.00000000000E+00 0. -1.
         -2    1    3    3    0  502  0.39218830274E+01  0.36844881919E+02  0.70710339005E+03  0.70807353482E+03  0.00000000000E+00 0.  1.
<mgrwt>
<rscale>  0 0.86609138E+02</rscale>
<asrwt>0</asrwt>
<pdfrwt beam="2">  1        1 0.30938169E-03 0.86609138E+02</pdfrwt>
<pdfrwt beam="1">  1       -1 0.14346505E+00 0.86609138E+02</pdfrwt>
<totfact> 0.31842923E+04</totfact>
</mgrwt>
</event>
<event>
 5    1  0.4067226E+001  0.9107142E+02  0.7546771E-02  0.1300278E+00
          1   -1    0    0  501    0  0.00000000000E+00  0.00000000000E+00  0.37783896084E+02  0.37783896084E+02  0.00000000000E+00 0.  1.
         -1   -1    0    0    0  501 -0.00000000000E+00 -0.00000000000E+00 -0.54877900287E+02  0.54877900287E+02  0.00000000000E+00 0. -1.
         23    2    1    2    0    0  0.00000000000E+00  0.00000000000E+00 -0.17094004203E+02  0.92661796372E+02  0.91071419925E+02 0.  0.
          2    1    3    3  502    0 -0.22671820729E+02 -0.21451236848E+02 -0.42282211532E+02  0.52554280792E+02  0.00000000000E+00 0. -1.
         -2    1    3    3    0  502  0.22671820729E+02  0.21451236848E+02  0.25188207329E+02  0.40107515580E+02  0.00000000000E+00 0.  1.
<mgrwt>
<rscale>  0 0.91071420E+02</rscale>
<asrwt>0</asrwt>
<pdfrwt beam="1">  1        1 0.58129071E-02 0.91071420E+02</pdfrwt>
<pdfrwt beam="2">  1       -1 0.84427538E-02 0.91071420E+02</pdfrwt>
<totfact> 0.90174023E+04</totfact>
</mgrwt>
</event>
<event>
 5    1  0.4067226E+001  0.8770700E+02  0.7546771E-02  0.1308501E+00
          2   -1    0    0  501    0  0.00000000000E+00  0.00000000000E+00  0.61068064647E+02  0.61068064647E+02  0.00000000000E+00 0. -1.
         -2   -1    0    0    0  501 -0.00000000000E+00 -0.00000000000E+00 -0.31491572595E+02  0.31491572595E+02  0.00000000000E+00 0.  1.
         23    2    1    2    0    0  0.00000000000E+00  0.00000000000E+00  0.29576492052E+02  0.92559637242E+02  0.87706998377E+02 0.  0.
          2    1    3    3  502    0 -0.33148683267E+02  0.61654693665E+01  0.44380383434E+02  0.55735685594E+02  0.00000000000E+00 0. -1.
         -2    1    3    3    0  502  0.33148683267E+02 -0.61654693665E+01 -0.14803891383E+02  0.36823951648E+02  0.00000000000E+00 0.  1.
<mgrwt>
<rscale>  0 0.87706998E+02</rscale>
<asrwt>0</asrwt>
<pdfrwt beam="1">  1        2 0.93950868E-02 0.87706998E+02</pdfrwt>
<pdfrwt beam="2">  1       -2 0.48448573E-02 0.87706998E+02</pdfrwt>
<totfact> 0.11883094E+05</totfact>
</mgrwt>
</event>
<event>
 5    1  0.4067226E+001  0.9081368E+02  0.7546771E-02  0.1300893E+00
          2   -1    0    0  501    0  0.00000000000E+00  0.00000000000E+00  0.32100845290E+02  0.32100845290E+02  0.00000000000E+00 0. -1.
         -2   -1    0    0    0  501 -0.00000000000E+00 -0.00000000000E+00 -0.64228251260E+02  0.64228251260E+02  0.00000000000E+00 0.  1.
         23    2    1    2    0    0  0.00000000000E+00  0.00000000000E+00 -0.32127405970E+02  0.96329096550E+02  0.90813680840E+02 0.  0.
          2    1    3    3  502    0 -0.19247450419E+02 -0.13333573763E+02  0.25203221294E+02  0.34401321203E+02  0.00000000000E+00 0. -1.
         -2    1    3    3    0  502  0.19247450419E+02  0.13333573763E+02 -0.57330627264E+02  0.61927775347E+02  0.00000000000E+00 0.  1.
<mgrwt>
<rscale>  0 0.90813681E+02</rscale>
<asrwt>0</asrwt>
<pdfrwt beam="1">  1        2 0.49385916E-02 0.90813681E+02</pdfrwt>
<pdfrwt beam="2">  1       -2 0.98812694E-02 0.90813681E+02</pdfrwt>
<totfact> 0.91135719E+04</totfact>
</mgrwt>
</event>
<event>
 5    1  0.4067226E+001  0.9038968E+02  0.7546771E-02  0.1301911E+00
         -2   -1    0    0    0  501 -0.00000000000E+00  0.00000000000E+00  0.44081182166E+01  0.44081182166E+01  0.00000000000E+00 0.  1.
          2   -1    0    0  501    0  0.00000000000E+00 -0.00000000000E+00 -0.46336634417E+03  0.46336634417E+03  0.00000000000E+00 0. -1.
         23    2    1    2    0    0  0.00000000000E+00  0.00000000000E+00 -0.45895822595E+03  0.46777446238E+03  0.90389681328E+02 0.  0.
          2    1    3    3  502    0 -0.27527405203E+02  0.35336384278E+02 -0.19836158929E+03  0.20335618554E+03  0.00000000000E+00 0. -1.
         -2    1    3    3    0  502  0.27527405203E+02 -0.35336384278E+02 -0.26059663666E+03  0.26441827684E+03  0.00000000000E+00 0.  1.
<mgrwt>
<rscale>  0 0.90389681E+02</rscale>
<asrwt>0</asrwt>
<pdfrwt beam="2">  1        2 0.71287156E-01 0.90389681E+02</pdfrwt>
<pdfrwt beam="1">  1       -2 0.67817179E-03 0.90389681E+02</pdfrwt>
<totfact> 0.21500322E+05</totfact>
</mgrwt>
</event>
<event>
 5    1  0.4067226E+001  0.9116928E+02  0.7546771E-02  0.1300045E+00
         -3   -1    0    0    0  501 -0.00000000000E+00  0.00000000000E+00  0.16092249399E+03  0.16092249399E+03  0.00000000000E+00 0.  1.
          3   -1    0    0  501    0  0.00000000000E+00 -0.00000000000E+00 -0.12912797786E+02  0.12912797786E+02  0.00000000000E+00 0. -1.
         23    2    1    2    0    0  0.00000000000E+00  0.00000000000E+00  0.14800969621E+03  0.17383529178E+03  0.91169284833E+02 0.  0.
          2    1    3    3  502    0 -0.45496512632E+02 -0.27203860940E+01  0.75514013308E+02  0.88202604089E+02  0.00000000000E+00 0. -1.
         -2    1    3    3    0  502  0.45496512632E+02  0.27203860940E+01  0.72495682900E+02  0.85632687692E+02  0.00000000000E+00 0.  1.
<mgrwt>
<rscale>  0 0.91169285E+02</rscale>
<asrwt>0</asrwt>
<pdfrwt beam="2">  1        3 0.19865844E-02 0.91169285E+02</pdfrwt>
<pdfrwt beam="1">  1       -3 0.24757305E-01 0.91169285E+02</pdfrwt>
<totfact> 0.29916223E+04</totfact>
</mgrwt>
</event>
<event>
 5    1  0.4067226E+001  0.9118046E+02  0.7546771E-02  0.1300018E+00
         -1   -1    0    0    0  501 -0.00000000000E+00  0.00000000000E+00  0.52644709447E+02  0.52644709447E+02  0.00000000000E+00 0.  1.
          1   -1    0    0  501    0  0.00000000000E+00 -0.00000000000E+00 -0.39481062837E+02  0.39481062837E+02  0.00000000000E+00 0. -1.
         23    2    1    2    0    0  0.00000000000E+00  0.00000000000E+00  0.13163646609E+02  0.92125772284E+02  0.91180460225E+02 0.  0.
          2    1    3    3  502    0  0.15185057348E+02 -0.35195699309E+02 -0.18354935915E+02  0.42499728105E+02  0.00000000000E+00 0. -1.
         -2    1    3    3    0  502 -0.15185057348E+02  0.35195699309E+02  0.31518582524E+02  0.49626044179E+02  0.00000000000E+00 0.  1.
<mgrwt>
<rscale>  0 0.91180460E+02</rscale>
<asrwt>0</asrwt>
<pdfrwt beam="2">  1        1 0.60740097E-02 0.91180460E+02</pdfrwt>
<pdfrwt beam="1">  1       -1 0.80991861E-02 0.91180460E+02</pdfrwt>
<totfact> 0.90473640E+04</totfact>
</mgrwt>
</event>
<event>
 5    1  0.4067226E+001  0.9379052E+02  0.7546771E-02  0.1293924E+00
         -1   -1    0    0    0  501 -0.00000000000E+00  0.00000000000E+00  0.19356977109E+02  0.19356977109E+02  0.00000000000E+00 0.  1.
          1   -1    0    0  501    0  0.00000000000E+00 -0.00000000000E+00 -0.11361098632E+03  0.11361098632E+03  0.00000000000E+00 0. -1.
         23    2    1    2    0    0  0.00000000000E+00  0.00000000000E+00 -0.94254009210E+02  0.13296796343E+03  0.93790516824E+02 0.  0.
          2    1    3    3  502    0 -0.28404800718E+02  0.30993959352E+02 -0.76583607102E+02  0.87364220920E+02  0.00000000000E+00 0. -1.
         -2    1    3    3    0  502  0.28404800718E+02 -0.30993959352E+02 -0.17670402107E+02  0.45603742508E+02  0.00000000000E+00 0.  1.
<mgrwt>
<rscale>  0 0.93790517E+02</rscale>
<asrwt>0</asrwt>
<pdfrwt beam="2">  1        1 0.17478613E-01 0.93790517E+02</pdfrwt>
<pdfrwt beam="1">  1       -1 0.29779965E-02 0.93790517E+02</pdfrwt>
<totfact> 0.98820065E+04</totfact>
</mgrwt>
</event>
<event>
 5    1  0.4067226E+001  0.8911155E+02  0.7546771E-02  0.1305018E+00
         -2   -1    0    0    0  501 -0.00000000000E+00  0.00000000000E+00  0.90965749687E+03  0.90965749687E+03  0.00000000000E+00 0.  1.
          2   -1    0    0  501    0  0.00000000000E+00 -0.00000000000E+00 -0.21823787093E+01  0.21823787093E+01  0.00000000000E+00 0. -1.
         23    2    1    2    0    0  0.00000000000E+00  0.00000000000E+00  0.90747511816E+03  0.91183987558E+03  0.89111551529E+02 0.  0.
          2    1    3    3  502    0 -0.43801573267E+02  0.35768338371E+01  0.52882367804E+03  0.53064663762E+03  0.00000000000E+00 0. -1.
         -2    1    3    3    0  502  0.43801573267E+02 -0.35768338371E+01  0.37865144013E+03  0.38119323797E+03  0.00000000000E+00 0.  1.
<mgrwt>
<rscale>  0 0.89111552E+02</rscale>
<asrwt>0</asrwt>
<pdfrwt beam="2">  1        2 0.33575130E-03 0.89111552E+02</pdfrwt>
<pdfrwt beam="1">  1       -2 0.13994700E+00 0.89111552E+02</pdfrwt>
<totfact> 0.22084563E+04</totfact>
</mgrwt>
</event>
<event>
 5    1  0.4067226E+001  0.9023123E+02  0.7546771E-02  0.1302293E+00
          3   -1    0    0  501    0  0.00000000000E+00  0.00000000000E+00  0.34421505212E+03  0.34421505212E+03  0.00000000000E+00 0. -1.
         -3   -1    0    0    0  501 -0.00000000000E+00 -0.00000000000E+00 -0.59132177816E+01  0.59132177816E+01  0.00000000000E+00 0.  1.
         23    2    1    2    0    0  0.00000000000E+00  0.00000000000E+00  0.33830183434E+03  0.35012826990E+03  0.90231226676E+02 0.  0.
          2    1    3    3  502    0 -0.22669719441E+02 -0.18370181789E+02  0.30267305733E+03  0.30407623944E+03  0.00000000000E+00 0. -1.
         -2    1    3    3    0  502  0.22669719441E+02  0.18370181789E+02  0.35628777008E+02  0.46052030461E+02  0.00000000000E+00 0.  1.
<mgrwt>
<rscale>  0 0.90231227E+02</rscale>
<asrwt>0</asrwt>
<pdfrwt beam="1">  1        3 0.52956146E-01 0.90231227E+02</pdfrwt>
<pdfrwt beam="2">  1       -3 0.90972608E-03 0.90231227E+02</pdfrwt>
<totfact> 0.22840970E+04</totfact>
</mgrwt>
</event>
<event>
 5    1  0.4067226E+001  0.9117999E+02  0.7546771E-02  0.1300019E+00
         -2   -1    0    0    0  501 -0.00000000000E+00  0.00000000000E+00  0.43079645237E+02  0.43079645237E+02  0.00000000000E+00 0.  1.
          2   -1    0    0  501    0  0.00000000000E+00 -0.00000000000E+00 -0.48246628500E+02  0.48246628500E+02  0.00000000000E+00 0. -1.
         23    2    1    2    0    0  0.00000000000E+00  0.00000000000E+00 -0.51669832625E+01  0.91326273737E+02  0.91179989902E+02 0.  0.
          2    1    3    3  502    0  0.40756423512E+02  0.16967829014E+02  0.88125634719E+01  0.45018380178E+02  0.00000000000E+00 0.  1.
         -2    1    3    3    0  502 -0.40756423512E+02 -0.16967829014E+02 -0.13979546734E+02  0.46307893558E+02  0.00000000000E+00 0. -1.
<mgrwt>
<rscale>  0 0.91179990E+02</rscale>
<asrwt>0</asrwt>
<pdfrwt beam="2">  1        2 0.74225582E-02 0.91179990E+02</pdfrwt>
<pdfrwt beam="1">  1       -2 0.66276377E-02 0.91179990E+02</pdfrwt>
<totfact> 0.10012974E+05</totfact>
</mgrwt>
</event>
<event>
 5    1  0.4067226E+001  0.8646051E+02  0.7546771E-02  0.1311657E+00
          4   -1    0    0  501    0  0.00000000000E+00  0.00000000000E+00  0.25108236753E+02  0.25108236753E+02  0.00000000000E+00 0.  1.
         -4   -1    0    0    0  501 -0.00000000000E+00 -0.00000000000E+00 -0.74431949907E+02  0.74431949907E+02  0.00000000000E+00 0. -1.
         23    2    1    2    0    0  0.00000000000E+00  0.00000000000E+00 -0.49323713154E+02  0.99540186660E+02  0.86460511686E+02 0.  0.
          2    1    3    3  502    0 -0.21799534237E+02 -0.34608462746E+02 -0.40775226458E+02  0.57754519124E+02  0.00000000000E+00 0. -1.
         -2    1    3    3    0  502  0.21799534237E+02  0.34608462746E+02 -0.85484866958E+01  0.41785667535E+02  0.00000000000E+00 0.  1.
<mgrwt>
<rscale>  0 0.86460512E+02</rscale>
<asrwt>0</asrwt>
<pdfrwt beam="1">  1        4 0.38628057E-02 0.86460512E+02</pdfrwt>
<pdfrwt beam="2">  1       -4 0.11451069E-01 0.86460512E+02</pdfrwt>
<totfact> 0.30563855E+04</totfact>
</mgrwt>
</event>
<event>
 5    1  0.4067226E+001  0.9147017E+02  0.7546771E-02  0.1299330E+00
         -1   -1    0    0    0  501 -0.00000000000E+00  0.00000000000E+00  0.70017086231E+01  0.70017086231E+01  0.00000000000E+00 0.  1.
          1   -1    0    0  501    0  0.00000000000E+00 -0.00000000000E+00 -0.29874109332E+03  0.29874109332E+03  0.00000000000E+00 0. -1.
         23    2    1    2    0    0  0.00000000000E+00  0.00000000000E+00 -0.29173938469E+03  0.30574280194E+03  0.91470171950E+02 0.  0.
          2    1    3    3  502    0  0.52357173552E+01  0.35006977470E+02 -0.49063051767E+02  0.60498630204E+02  0.00000000000E+00 0. -1.
         -2    1    3    3    0  502 -0.52357173552E+01 -0.35006977470E+02 -0.24267633293E+03  0.24524417173E+03  0.00000000000E+00 0.  1.
<mgrwt>
<rscale>  0 0.91470172E+02</rscale>
<asrwt>0</asrwt>
<pdfrwt beam="2">  1        1 0.45960177E-01 0.91470172E+02</pdfrwt>
<pdfrwt beam="1">  1       -1 0.10771857E-02 0.91470172E+02</pdfrwt>
<totfact> 0.12692725E+05</totfact>
</mgrwt>
</event>
<event>
 5    1  0.4067226E+001  0.9268017E+02  0.7546771E-02  0.1296488E+00
         -2   -1    0    0    0  501 -0.00000000000E+00  0.00000000000E+00  0.60835024859E+01  0.60835024859E+01  0.00000000000E+00 0.  1.
          2   -1    0    0  501    0  0.00000000000E+00 -0.00000000000E+00 -0.35298802237E+03  0.35298802237E+03  0.00000000000E+00 0. -1.
         23    2    1    2    0    0  0.00000000000E+00  0.00000000000E+00 -0.34690451988E+03  0.35907152485E+03  0.92680170728E+02 0.  0.
          2    1    3    3  502    0  0.19621501046E+02  0.15614529781E+02 -0.32443035181E+03  0.32539801785E+03  0.00000000000E+00 0. -1.
         -2    1    3    3    0  502 -0.19621501046E+02 -0.15614529781E+02 -0.22474168072E+02  0.33673507006E+02  0.00000000000E+00 0.  1.
<mgrwt>
<rscale>  0 0.92680171E+02</rscale>
<asrwt>0</asrwt>
<pdfrwt beam="2">  1        2 0.54305845E-01 0.92680171E+02</pdfrwt>
<pdfrwt beam="1">  1       -2 0.93592353E-03 0.92680171E+02</pdfrwt>
<totfact> 0.18265556E+05</totfact>
</mgrwt>
</event>
<event>
 5    1  0.4067226E+001  0.8927049E+02  0.7546771E-02  0.1304628E+00
          1   -1    0    0  501    0  0.00000000000E+00  0.00000000000E+00  0.14739373888E+02  0.14739373888E+02  0.00000000000E+00 0. -1.
         -1   -1    0    0    0  501 -0.00000000000E+00 -0.00000000000E+00 -0.13516890152E+03  0.13516890152E+03  0.00000000000E+00 0.  1.
         23    2    1    2    0    0  0.00000000000E+00  0.00000000000E+00 -0.12042952763E+03  0.14990827541E+03  0.89270487341E+02 0.  0.
          2    1    3    3  502    0  0.23181135465E+02  0.33491841155E+01  0.35909578628E+01  0.23695507044E+02  0.00000000000E+00 0. -1.
         -2    1    3    3    0  502 -0.23181135465E+02 -0.33491841155E+01 -0.12402048549E+03  0.12621276836E+03  0.00000000000E+00 0.  1.
<mgrwt>
<rscale>  0 0.89270487E+02</rscale>
<asrwt>0</asrwt>
<pdfrwt beam="1">  1        1 0.22675960E-02 0.89270487E+02</pdfrwt>
<pdfrwt beam="2">  1       -1 0.20795215E-01 0.89270487E+02</pdfrwt>
<totfact> 0.80877757E+04</totfact>
</mgrwt>
</event>
<event>
 5    1  0.4067226E+001  0.9184805E+02  0.7546771E-02  0.1298437E+00
         -1   -1    0    0    0  501 -0.00000000000E+00  0.00000000000E+00  0.50749329085E+02  0.50749329085E+02  0.00000000000E+00 0.  1.
          1   -1    0    0  501    0  0.00000000000E+00 -0.00000000000E+00 -0.41557512975E+02  0.41557512975E+02  0.00000000000E+00 0. -1.
         23    2    1    2    0    0  0.00000000000E+00  0.00000000000E+00  0.91918161104E+01  0.92306842061E+02  0.91848046293E+02 0.  0.
          2    1    3    3  502    0 -0.23853467310E+02 -0.27250196133E+01  0.43939925365E+02  0.50071255982E+02  0.00000000000E+00 0.  1.
         -2    1    3    3    0  502  0.23853467310E+02  0.27250196133E+01 -0.34748109254E+02  0.42235586078E+02  0.00000000000E+00 0. -1.
<mgrwt>
<rscale>  0 0.91848046E+02</rscale>
<asrwt>0</asrwt>
<pdfrwt beam="2">  1        1 0.63934635E-02 0.91848046E+02</pdfrwt>
<pdfrwt beam="1">  1       -1 0.78075891E-02 0.91848046E+02</pdfrwt>
<totfact> 0.89321056E+04</totfact>
</mgrwt>
</event>
<event>
 5    1  0.4067226E+001  0.9952221E+02  0.7546771E-02  0.1281304E+00
          2   -1    0    0  501    0  0.00000000000E+00  0.00000000000E+00  0.14220299143E+04  0.14220299143E+04  0.00000000000E+00 0. -1.
         -2   -1    0    0    0  501 -0.00000000000E+00 -0.00000000000E+00 -0.17412906518E+01  0.17412906518E+01  0.00000000000E+00 0.  1.
         23    2    1    2    0    0  0.00000000000E+00  0.00000000000E+00  0.14202886237E+04  0.14237712050E+04  0.99522206495E+02 0.  0.
          2    1    3    3  502    0  0.25550860627E+02  0.19635405786E+02  0.12526011439E+04  0.12530155710E+04  0.00000000000E+00 0. -1.
         -2    1    3    3    0  502 -0.25550860627E+02 -0.19635405786E+02  0.16768747981E+03  0.17075563395E+03  0.00000000000E+00 0.  1.
<mgrwt>
<rscale>  0 0.99522206E+02</rscale>
<asrwt>0</asrwt>
<pdfrwt beam="1">  1        2 0.21877290E+00 0.99522206E+02</pdfrwt>
<pdfrwt beam="2">  1       -2 0.26789201E-03 0.99522206E+02</pdfrwt>
<totfact> 0.19060560E+05</totfact>
</mgrwt>
</event>
<event>
 5    1  0.4067226E+001  0.8990464E+02  0.7546771E-02  0.1303083E+00
          3   -1    0    0  501    0  0.00000000000E+00  0.00000000000E+00  0.21097890064E+02  0.21097890064E+02  0.00000000000E+00 0. -1.
         -3   -1    0    0    0  501 -0.00000000000E+00 -0.00000000000E+00 -0.95777884802E+02  0.95777884802E+02  0.00000000000E+00 0.  1.
         23    2    1    2    0    0  0.00000000000E+00  0.00000000000E+00 -0.74679994738E+02  0.11687577487E+03  0.89904644688E+02 0.  0.
          2    1    3    3  502    0 -0.20166226373E+02  0.29264382854E+02 -0.15574629739E+01  0.35573957903E+02  0.00000000000E+00 0. -1.
         -2    1    3    3    0  502  0.20166226373E+02 -0.29264382854E+02 -0.73122531764E+02  0.81301816963E+02  0.00000000000E+00 0.  1.
<mgrwt>
<rscale>  0 0.89904645E+02</rscale>
<asrwt>0</asrwt>
<pdfrwt beam="1">  1        3 0.32458292E-02 0.89904645E+02</pdfrwt>
<pdfrwt beam="2">  1       -3 0.14735059E-01 0.89904645E+02</pdfrwt>
<totfact> 0.34762285E+04</totfact>
</mgrwt>
</event>
<event>
 5    1  0.4067226E+001  0.9053996E+02  0.7546771E-02  0.1301549E+00
         -2   -1    0    0    0  501 -0.00000000000E+00  0.00000000000E+00  0.10751128303E+03  0.10751128303E+03  0.00000000000E+00 0.  1.
          2   -1    0    0  501    0  0.00000000000E+00 -0.00000000000E+00 -0.19061914795E+02  0.19061914795E+02  0.00000000000E+00 0. -1.
         23    2    1    2    0    0  0.00000000000E+00  0.00000000000E+00  0.88449368230E+02  0.12657319782E+03  0.90539956186E+02 0.  0.
          2    1    3    3  502    0 -0.15021899092E+01 -0.44705719724E+02  0.34487567165E+02  0.56482300232E+02  0.00000000000E+00 0. -1.
         -2    1    3    3    0  502  0.15021899092E+01  0.44705719724E+02  0.53961801065E+02  0.70090897589E+02  0.00000000000E+00 0.  1.
<mgrwt>
<rscale>  0 0.90539956E+02</rscale>
<asrwt>0</asrwt>
<pdfrwt beam="2">  1        2 0.29326023E-02 0.90539956E+02</pdfrwt>
<pdfrwt beam="1">  1       -2 0.16540197E-01 0.90539956E+02</pdfrwt>
<totfact> 0.79453091E+04</totfact>
</mgrwt>
</event>
<event>
 5    1  0.4067226E+001  0.8778580E+02  0.7546771E-02  0.1308304E+00
         -1   -1    0    0    0  501 -0.00000000000E+00  0.00000000000E+00  0.10898803598E+01  0.10898803598E+01  0.00000000000E+00 0. -1.
          1   -1    0    0  501    0  0.00000000000E+00 -0.00000000000E+00 -0.17677046593E+04  0.17677046593E+04  0.00000000000E+00 0.  1.
         23    2    1    2    0    0  0.00000000000E+00  0.00000000000E+00 -0.17666147789E+04  0.17687945396E+04  0.87785798168E+02 0.  0.
          2    1    3    3  502    0 -0.41949317780E+02 -0.35269529210E+01 -0.63293900312E+03  0.63433742309E+03  0.00000000000E+00 0. -1.
         -2    1    3    3    0  502  0.41949317780E+02  0.35269529210E+01 -0.11336757758E+04  0.11344571165E+04  0.00000000000E+00 0.  1.
<mgrwt>
<rscale>  0 0.87785798E+02</rscale>
<asrwt>0</asrwt>
<pdfrwt beam="2">  1        1 0.27195270E+00 0.87785798E+02</pdfrwt>
<pdfrwt beam="1">  1       -1 0.16767505E-03 0.87785798E+02</pdfrwt>
<totfact> 0.10391286E+05</totfact>
</mgrwt>
</event>
<event>
 5    1  0.4067226E+001  0.9163244E+02  0.7546771E-02  0.1298946E+00
          2   -1    0    0  501    0  0.00000000000E+00  0.00000000000E+00  0.52972388803E+02  0.52972388803E+02  0.00000000000E+00 0.  1.
         -2   -1    0    0    0  501 -0.00000000000E+00 -0.00000000000E+00 -0.39626797830E+02  0.39626797830E+02  0.00000000000E+00 0. -1.
         23    2    1    2    0    0  0.00000000000E+00  0.00000000000E+00  0.13345590974E+02  0.92599186633E+02  0.91632442763E+02 0.  0.
          2    1    3    3  502    0 -0.79949728420E+01 -0.22158370264E+02 -0.33038269554E+02  0.40576350484E+02  0.00000000000E+00 0. -1.
         -2    1    3    3    0  502  0.79949728420E+01  0.22158370264E+02  0.46383860528E+02  0.52022836149E+02  0.00000000000E+00 0.  1.
<mgrwt>
<rscale>  0 0.91632443E+02</rscale>
<asrwt>0</asrwt>
<pdfrwt beam="1">  1        2 0.81495983E-02 0.91632443E+02</pdfrwt>
<pdfrwt beam="2">  1       -2 0.60964304E-02 0.91632443E+02</pdfrwt>
<totfact> 0.10117427E+05</totfact>
</mgrwt>
</event>
<event>
 5    1  0.4067226E+001  0.9100530E+02  0.7546771E-02  0.1300435E+00
          2   -1    0    0  501    0  0.00000000000E+00  0.00000000000E+00  0.71922728550E+01  0.71922728550E+01  0.00000000000E+00 0. -1.
         -2   -1    0    0    0  501 -0.00000000000E+00 -0.00000000000E+00 -0.28787719316E+03  0.28787719316E+03  0.00000000000E+00 0.  1.
         23    2    1    2    0    0  0.00000000000E+00  0.00000000000E+00 -0.28068492030E+03  0.29506946601E+03  0.91005303624E+02 0.  0.
          2    1    3    3  502    0 -0.28093266531E+02 -0.18967777015E+01 -0.24447234514E+02  0.37289363972E+02  0.00000000000E+00 0. -1.
         -2    1    3    3    0  502  0.28093266531E+02  0.18967777015E+01 -0.25623768579E+03  0.25778010204E+03  0.00000000000E+00 0.  1.
<mgrwt>
<rscale>  0 0.91005304E+02</rscale>
<asrwt>0</asrwt>
<pdfrwt beam="1">  1        2 0.11065037E-02 0.91005304E+02</pdfrwt>
<pdfrwt beam="2">  1       -2 0.44288791E-01 0.91005304E+02</pdfrwt>
<totfact> 0.52435574E+04</totfact>
</mgrwt>
</event>
<event>
 5    1  0.4067226E+001  0.8846464E+02  0.7546771E-02  0.1306613E+00
          2   -1    0    0  501    0  0.00000000000E+00  0.00000000000E+00  0.13710801153E+04  0.13710801153E+04  0.00000000000E+00 0. -1.
         -2   -1    0    0    0  501 -0.00000000000E+00 -0.00000000000E+00 -0.14269757107E+01  0.14269757107E+01  0.00000000000E+00 0.  1.
         23    2    1    2    0    0  0.00000000000E+00  0.00000000000E+00  0.13696531396E+04  0.13725070910E+04  0.88464637501E+02 0.  0.
          2    1    3    3  502    0  0.16192215897E+02  0.35117864780E+02  0.35169414860E+03  0.35381383020E+03  0.00000000000E+00 0. -1.
         -2    1    3    3    0  502 -0.16192215897E+02 -0.35117864780E+02  0.10179589910E+04  0.10186932608E+04  0.00000000000E+00 0.  1.
<mgrwt>
<rscale>  0 0.88464638E+02</rscale>
<asrwt>0</asrwt>
<pdfrwt beam="1">  1        2 0.21093435E+00 0.88464638E+02</pdfrwt>
<pdfrwt beam="2">  1       -2 0.21953582E-03 0.88464638E+02</pdfrwt>
<totfact> 0.26283688E+05</totfact>
</mgrwt>
</event>
<event>
 5    1  0.4067226E+001  0.9109350E+02  0.7546771E-02  0.1300225E+00
          2   -1    0    0  501    0  0.00000000000E+00  0.00000000000E+00  0.64804282879E+03  0.64804282879E+03  0.00000000000E+00 0. -1.
         -2   -1    0    0    0  501 -0.00000000000E+00 -0.00000000000E+00 -0.32011873935E+01  0.32011873935E+01  0.00000000000E+00 0.  1.
         23    2    1    2    0    0  0.00000000000E+00  0.00000000000E+00  0.64484164139E+03  0.65124401618E+03  0.91093502161E+02 0.  0.
          2    1    3    3  502    0  0.92555620141E+01 -0.25781994050E+02  0.58256950934E+03  0.58321317703E+03  0.00000000000E+00 0. -1.
         -2    1    3    3    0  502 -0.92555620141E+01  0.25781994050E+02  0.62272132050E+02  0.68030839150E+02  0.00000000000E+00 0.  1.
<mgrwt>
<rscale>  0 0.91093502E+02</rscale>
<asrwt>0</asrwt>
<pdfrwt beam="1">  1        2 0.99698793E-01 0.91093502E+02</pdfrwt>
<pdfrwt beam="2">  1       -2 0.49249088E-03 0.91093502E+02</pdfrwt>
<totfact> 0.23323522E+05</totfact>
</mgrwt>
</event>
<event>
 5    1  0.4067226E+001  0.9171191E+02  0.7546771E-02  0.1298758E+00
         -1   -1    0    0    0  501 -0.00000000000E+00  0.00000000000E+00  0.75995594629E+01  0.75995594629E+01  0.00000000000E+00 0.  1.
          1   -1    0    0  501    0  0.00000000000E+00 -0.00000000000E+00 -0.27669612142E+03  0.27669612142E+03  0.00000000000E+00 0. -1.
         23    2    1    2    0    0  0.00000000000E+00  0.00000000000E+00 -0.26909656195E+03  0.28429568088E+03  0.91711910412E+02 0.  0.
          2    1    3    3  502    0 -0.22774852771E+02 -0.16788763410E+02 -0.22685557106E+02  0.36265562133E+02  0.00000000000E+00 0.  1.
         -2    1    3    3    0  502  0.22774852771E+02  0.16788763410E+02 -0.24641100485E+03  0.24803011875E+03  0.00000000000E+00 0. -1.
<mgrwt>
<rscale>  0 0.91711910E+02</rscale>
<asrwt>0</asrwt>
<pdfrwt beam="2">  1        1 0.42568633E-01 0.91711910E+02</pdfrwt>
<pdfrwt beam="1">  1       -1 0.11691630E-02 0.91711910E+02</pdfrwt>
<totfact> 0.12418679E+05</totfact>
</mgrwt>
</event>
<event>
 5    1  0.4067226E+001  0.9209626E+02  0.7546771E-02  0.1297853E+00
          1   -1    0    0  501    0  0.00000000000E+00  0.00000000000E+00  0.11180124235E+04  0.11180124235E+04  0.00000000000E+00 0. -1.
         -1   -1    0    0    0  501 -0.00000000000E+00 -0.00000000000E+00 -0.18966069320E+01  0.18966069320E+01  0.00000000000E+00 0.  1.
         23    2    1    2    0    0  0.00000000000E+00  0.00000000000E+00  0.11161158166E+04  0.11199090305E+04  0.92096256440E+02 0.  0.
          2    1    3    3  502    0 -0.42965892051E+01 -0.45808097349E+02  0.58109066211E+03  0.58290925542E+03  0.00000000000E+00 0.  1.
         -2    1    3    3    0  502  0.42965892051E+01  0.45808097349E+02  0.53502515450E+03  0.53699977505E+03  0.00000000000E+00 0. -1.
<mgrwt>
<rscale>  0 0.92096256E+02</rscale>
<asrwt>0</asrwt>
<pdfrwt beam="1">  1        1 0.17200138E+00 0.92096256E+02</pdfrwt>
<pdfrwt beam="2">  1       -1 0.29178658E-03 0.92096256E+02</pdfrwt>
<totfact> 0.12776483E+05</totfact>
</mgrwt>
</event>
<event>
 5    1  0.4067226E+001  0.9009389E+02  0.7546771E-02  0.1302624E+00
          2   -1    0    0  501    0  0.00000000000E+00  0.00000000000E+00  0.15951717424E+02  0.15951717424E+02  0.00000000000E+00 0. -1.
         -2   -1    0    0    0  501 -0.00000000000E+00 -0.00000000000E+00 -0.12721057288E+03  0.12721057288E+03  0.00000000000E+00 0.  1.
         23    2    1    2    0    0  0.00000000000E+00  0.00000000000E+00 -0.11125885545E+03  0.14316229030E+03  0.90093886849E+02 0.  0.
          2    1    3    3  502    0 -0.33157848198E+02  0.27537490281E+02 -0.76437337514E+02  0.87752053163E+02  0.00000000000E+00 0. -1.
         -2    1    3    3    0  502  0.33157848198E+02 -0.27537490281E+02 -0.34821517938E+02  0.55410237137E+02  0.00000000000E+00 0.  1.
<mgrwt>
<rscale>  0 0.90093887E+02</rscale>
<asrwt>0</asrwt>
<pdfrwt beam="1">  1        2 0.24541102E-02 0.90093887E+02</pdfrwt>
<pdfrwt beam="2">  1       -2 0.19570859E-01 0.90093887E+02</pdfrwt>
<totfact> 0.76240280E+04</totfact>
</mgrwt>
</event>
<event>
 5    1  0.4067226E+001  0.9178175E+02  0.7546771E-02  0.1298593E+00
          3   -1    0    0  501    0  0.00000000000E+00  0.00000000000E+00  0.15139094783E+03  0.15139094783E+03  0.00000000000E+00 0. -1.
         -3   -1    0    0    0  501 -0.00000000000E+00 -0.00000000000E+00 -0.13910822211E+02  0.13910822211E+02  0.00000000000E+00 0.  1.
         23    2    1    2    0    0  0.00000000000E+00  0.00000000000E+00  0.13748012562E+03  0.16530177004E+03  0.91781753300E+02 0.  0.
          2    1    3    3  502    0 -0.45008589367E+02 -0.60550673972E+01  0.80623537075E+02  0.92534273048E+02  0.00000000000E+00 0. -1.
         -2    1    3    3    0  502  0.45008589367E+02  0.60550673972E+01  0.56856588544E+02  0.72767496995E+02  0.00000000000E+00 0.  1.
<mgrwt>
<rscale>  0 0.91781753E+02</rscale>
<asrwt>0</asrwt>
<pdfrwt beam="1">  1        3 0.23290914E-01 0.91781753E+02</pdfrwt>
<pdfrwt beam="2">  1       -3 0.21401266E-02 0.91781753E+02</pdfrwt>
<totfact> 0.29856490E+04</totfact>
</mgrwt>
</event>
<event>
 5    1  0.4067226E+001  0.8479989E+02  0.7546771E-02  0.1315957E+00
          1   -1    0    0  501    0  0.00000000000E+00  0.00000000000E+00  0.86275873027E+02  0.86275873027E+02  0.00000000000E+00 0. -1.
         -1   -1    0    0    0  501 -0.00000000000E+00 -0.00000000000E+00 -0.20837286972E+02  0.20837286972E+02  0.00000000000E+00 0.  1.
         23    2    1    2    0    0  0.00000000000E+00  0.00000000000E+00  0.65438586055E+02  0.10711316000E+03  0.84799885024E+02 0.  0.
          2    1    3    3  502    0  0.61744874018E+01 -0.23699064600E+02 -0.11000015949E+02  0.26847165744E+02  0.00000000000E+00 0.  1.
         -2    1    3    3    0  502 -0.61744874018E+01  0.23699064600E+02  0.76438602004E+02  0.80265994256E+02  0.00000000000E+00 0. -1.
<mgrwt>
<rscale>  0 0.84799885E+02</rscale>
<asrwt>0</asrwt>
<pdfrwt beam="1">  1        1 0.13273211E-01 0.84799885E+02</pdfrwt>
<pdfrwt beam="2">  1       -1 0.32057365E-02 0.84799885E+02</pdfrwt>
<totfact> 0.12421743E+05</totfact>
</mgrwt>
</event>
<event>
 5    1  0.4067226E+001  0.9268652E+02  0.7546771E-02  0.1296473E+00
          1   -1    0    0  501    0  0.00000000000E+00  0.00000000000E+00  0.16255605476E+02  0.16255605476E+02  0.00000000000E+00 0. -1.
         -1   -1    0    0    0  501 -0.00000000000E+00 -0.00000000000E+00 -0.13212044831E+03  0.13212044831E+03  0.00000000000E+00 0.  1.
         23    2    1    2    0    0  0.00000000000E+00  0.00000000000E+00 -0.11586484284E+03  0.14837605379E+03  0.92686522927E+02 0.  0.
          2    1    3    3  502    0 -0.24450210666E+02 -0.35284828230E+02 -0.29981141016E+02  0.52361252100E+02  0.00000000000E+00 0. -1.
         -2    1    3    3    0  502  0.24450210666E+02  0.35284828230E+02 -0.85883701820E+02  0.96014801688E+02  0.00000000000E+00 0.  1.
<mgrwt>
<rscale>  0 0.92686523E+02</rscale>
<asrwt>0</asrwt>
<pdfrwt beam="1">  1        1 0.25008624E-02 0.92686523E+02</pdfrwt>
<pdfrwt beam="2">  1       -1 0.20326222E-01 0.92686523E+02</pdfrwt>
<totfact> 0.73747505E+04</totfact>
</mgrwt>
</event>
<event>
 5    1  0.4067226E+001  0.9146495E+02  0.7546771E-02  0.1299342E+00
          1   -1    0    0  501    0  0.00000000000E+00  0.00000000000E+00  0.39288202979E+03  0.39288202979E+03  0.00000000000E+00 0. -1.
         -1   -1    0    0    0  501 -0.00000000000E+00 -0.00000000000E+00 -0.53233777830E+01  0.53233777830E+01  0.00000000000E+00 0.  1.
         23    2    1    2    0    0  0.00000000000E+00  0.00000000000E+00  0.38755865201E+03  0.39820540757E+03  0.91464954354E+02 0.  0.
          2    1    3    3  502    0 -0.41995541508E+01 -0.39704287154E+02  0.29087551327E+03  0.29360284551E+03  0.00000000000E+00 0. -1.
         -2    1    3    3    0  502  0.41995541508E+01  0.39704287154E+02  0.96683138740E+02  0.10460256206E+03  0.00000000000E+00 0.  1.
<mgrwt>
<rscale>  0 0.91464954E+02</rscale>
<asrwt>0</asrwt>
<pdfrwt beam="1">  1        1 0.60443366E-01 0.91464954E+02</pdfrwt>
<pdfrwt beam="2">  1       -1 0.81898151E-03 0.91464954E+02</pdfrwt>
<totfact> 0.13336936E+05</totfact>
</mgrwt>
</event>
<event>
 5    1  0.4067226E+001  0.9423350E+02  0.7546771E-02  0.1292912E+00
         -4   -1    0    0    0  501 -0.00000000000E+00  0.00000000000E+00  0.50972066204E+01  0.50972066204E+01  0.00000000000E+00 0.  1.
          4   -1    0    0  501    0  0.00000000000E+00 -0.00000000000E+00 -0.43553035841E+03  0.43553035841E+03  0.00000000000E+00 0. -1.
         23    2    1    2    0    0  0.00000000000E+00  0.00000000000E+00 -0.43043315179E+03  0.44062756503E+03  0.94233502031E+02 0.  0.
          2    1    3    3  502    0 -0.89787635032E+01  0.40814465295E+02 -0.31696999278E+03  0.31971301991E+03  0.00000000000E+00 0. -1.
         -2    1    3    3    0  502  0.89787635032E+01 -0.40814465295E+02 -0.11346315901E+03  0.12091454513E+03  0.00000000000E+00 0.  1.
<mgrwt>
<rscale>  0 0.94233502E+02</rscale>
<asrwt>0</asrwt>
<pdfrwt beam="2">  1        4 0.67004691E-01 0.94233502E+02</pdfrwt>
<pdfrwt beam="1">  1       -4 0.78418539E-03 0.94233502E+02</pdfrwt>
<totfact> 0.13053228E+04</totfact>
</mgrwt>
</event>
<event>
 5    1  0.4067226E+001  0.8999363E+02  0.7546771E-02  0.1302867E+00
          1   -1    0    0  501    0  0.00000000000E+00  0.00000000000E+00  0.25829800464E+02  0.25829800464E+02  0.00000000000E+00 0. -1.
         -1   -1    0    0    0  501 -0.00000000000E+00 -0.00000000000E+00 -0.78386721789E+02  0.78386721789E+02  0.00000000000E+00 0.  1.
         23    2    1    2    0    0  0.00000000000E+00  0.00000000000E+00 -0.52556921326E+02  0.10421652225E+03  0.89993630504E+02 0.  0.
          2    1    3    3  502    0  0.43364250137E+02 -0.11898381417E+02 -0.24381349394E+02  0.51151538281E+02  0.00000000000E+00 0.  1.
         -2    1    3    3    0  502 -0.43364250137E+02  0.11898381417E+02 -0.28175571932E+02  0.53064983972E+02  0.00000000000E+00 0. -1.
<mgrwt>
<rscale>  0 0.89993631E+02</rscale>
<asrwt>0</asrwt>
<pdfrwt beam="1">  1        1 0.39738155E-02 0.89993631E+02</pdfrwt>
<pdfrwt beam="2">  1       -1 0.12059495E-01 0.89993631E+02</pdfrwt>
<totfact> 0.87825215E+04</totfact>
</mgrwt>
</event>
<event>
 5    1  0.4067226E+001  0.8956096E+02  0.7546771E-02  0.1303918E+00
         -1   -1    0    0    0  501 -0.00000000000E+00  0.00000000000E+00  0.27532207319E+01  0.27532207319E+01  0.00000000000E+00 0.  1.
          1   -1    0    0  501    0  0.00000000000E+00 -0.00000000000E+00 -0.72834386953E+03  0.72834386953E+03  0.00000000000E+00 0. -1.
         23    2    1    2    0    0  0.00000000000E+00  0.00000000000E+00 -0.72559064880E+03  0.73109709026E+03  0.89560961173E+02 0.  0.
          2    1    3    3  502    0 -0.68745703753E+01 -0.40018733989E+02 -0.51693199200E+03  0.51852429368E+03  0.00000000000E+00 0. -1.
         -2    1    3    3    0  502  0.68745703753E+01  0.40018733989E+02 -0.20865865680E+03  0.21257279658E+03  0.00000000000E+00 0.  1.
<mgrwt>
<rscale>  0 0.89560961E+02</rscale>
<asrwt>0</asrwt>
<pdfrwt beam="2">  1        1 0.11205300E+00 0.89560961E+02</pdfrwt>
<pdfrwt beam="1">  1       -1 0.42357207E-03 0.89560961E+02</pdfrwt>
<totfact> 0.14893777E+05</totfact>
</mgrwt>
</event>
<event>
 5    1  0.4067226E+001  0.9077168E+02  0.7546771E-02  0.1300994E+00
          1   -1    0    0  501    0  0.00000000000E+00  0.00000000000E+00  0.12608923428E+04  0.12608923428E+04  0.00000000000E+00 0. -1.
         -1   -1    0    0    0  501 -0.00000000000E+00 -0.00000000000E+00 -0.16336640043E+01  0.16336640043E+01  0.00000000000E+00 0.  1.
         23    2    1    2    0    0  0.00000000000E+00  0.00000000000E+00  0.12592586788E+04  0.12625260068E+04  0.90771679144E+02 0.  0.
          2    1    3    3  502    0 -0.37027859422E+02 -0.22430914553E+02  0.81914988988E+03  0.82029308810E+03  0.00000000000E+00 0. -1.
         -2    1    3    3    0  502  0.37027859422E+02  0.22430914553E+02  0.44010878891E+03  0.44223291870E+03  0.00000000000E+00 0.  1.
<mgrwt>
<rscale>  0 0.90771679E+02</rscale>
<asrwt>0</asrwt>
<pdfrwt beam="1">  1        1 0.19398266E+00 0.90771679E+02</pdfrwt>
<pdfrwt beam="2">  1       -1 0.25133393E-03 0.90771679E+02</pdfrwt>
<totfact> 0.12564120E+05</totfact>
</mgrwt>
</event>
<event>
 5    1  0.4067226E+001  0.9009934E+02  0.7546771E-02  0.1302611E+00
         -3   -1    0    0    0  501 -0.00000000000E+00  0.00000000000E+00  0.41607149272E+01  0.41607149272E+01  0.00000000000E+00 0.  1.
          3   -1    0    0  501    0  0.00000000000E+00 -0.00000000000E+00 -0.48777022251E+03  0.48777022251E+03  0.00000000000E+00 0. -1.
         23    2    1    2    0    0  0.00000000000E+00  0.00000000000E+00 -0.48360950758E+03  0.49193093744E+03  0.90099341748E+02 0.  0.
          2    1    3    3  502    0 -0.22861041536E+02 -0.33764940397E+02 -0.34636871827E+03  0.34876064488E+03  0.00000000000E+00 0. -1.
         -2    1    3    3    0  502  0.22861041536E+02  0.33764940397E+02 -0.13724078931E+03  0.14317029255E+03  0.00000000000E+00 0.  1.
<mgrwt>
<rscale>  0 0.90099342E+02</rscale>
<asrwt>0</asrwt>
<pdfrwt beam="2">  1        3 0.75041578E-01 0.90099342E+02</pdfrwt>
<pdfrwt beam="1">  1       -3 0.64010994E-03 0.90099342E+02</pdfrwt>
<totfact> 0.18691747E+04</totfact>
</mgrwt>
</event>
<event>
 5    1  0.4067226E+001  0.9146278E+02  0.7546771E-02  0.1299348E+00
         -1   -1    0    0    0  501 -0.00000000000E+00  0.00000000000E+00  0.31582434108E+03  0.31582434108E+03  0.00000000000E+00 0.  1.
          1   -1    0    0  501    0  0.00000000000E+00 -0.00000000000E+00 -0.66219091004E+01  0.66219091004E+01  0.00000000000E+00 0. -1.
         23    2    1    2    0    0  0.00000000000E+00  0.00000000000E+00  0.30920243198E+03  0.32244625018E+03  0.91462781028E+02 0.  0.
          2    1    3    3  502    0 -0.29134313639E+02  0.95119520944E+01  0.34940049562E+02  0.46476795579E+02  0.00000000000E+00 0. -1.
         -2    1    3    3    0  502  0.29134313639E+02 -0.95119520944E+01  0.27426238242E+03  0.27596945460E+03  0.00000000000E+00 0.  1.
<mgrwt>
<rscale>  0 0.91462781E+02</rscale>
<asrwt>0</asrwt>
<pdfrwt beam="2">  1        1 0.10187555E-02 0.91462781E+02</pdfrwt>
<pdfrwt beam="1">  1       -1 0.48588349E-01 0.91462781E+02</pdfrwt>
<totfact> 0.58862150E+04</totfact>
</mgrwt>
</event>
<event>
 5    1  0.4067226E+001  0.9088708E+02  0.7546771E-02  0.1300718E+00
         -4   -1    0    0    0  501 -0.00000000000E+00  0.00000000000E+00  0.54216495226E+02  0.54216495226E+02  0.00000000000E+00 0.  1.
          4   -1    0    0  501    0  0.00000000000E+00 -0.00000000000E+00 -0.38090164952E+02  0.38090164952E+02  0.00000000000E+00 0. -1.
         23    2    1    2    0    0  0.00000000000E+00  0.00000000000E+00  0.16126330274E+02  0.92306660178E+02  0.90887078208E+02 0.  0.
          2    1    3    3  502    0  0.20581517439E+02  0.34629477273E+02  0.29422959538E+02  0.49884968721E+02  0.00000000000E+00 0.  1.
         -2    1    3    3    0  502 -0.20581517439E+02 -0.34629477273E+02 -0.13296629264E+02  0.42421691457E+02  0.00000000000E+00 0. -1.
<mgrwt>
<rscale>  0 0.90887078E+02</rscale>
<asrwt>0</asrwt>
<pdfrwt beam="2">  1        4 0.58600253E-02 0.90887078E+02</pdfrwt>
<pdfrwt beam="1">  1       -4 0.83409993E-02 0.90887078E+02</pdfrwt>
<totfact> 0.27177566E+04</totfact>
</mgrwt>
</event>
<event>
 5    1  0.4067226E+001  0.9209945E+02  0.7546771E-02  0.1297846E+00
          1   -1    0    0  501    0  0.00000000000E+00  0.00000000000E+00  0.33248618681E+03  0.33248618681E+03  0.00000000000E+00 0. -1.
         -1   -1    0    0    0  501 -0.00000000000E+00 -0.00000000000E+00 -0.63779403896E+01  0.63779403896E+01  0.00000000000E+00 0.  1.
         23    2    1    2    0    0  0.00000000000E+00  0.00000000000E+00  0.32610824642E+03  0.33886412720E+03  0.92099447986E+02 0.  0.
          2    1    3    3  502    0  0.35157123503E+01 -0.26797881522E+02  0.30023389932E+03  0.30144797393E+03  0.00000000000E+00 0. -1.
         -2    1    3    3    0  502 -0.35157123503E+01  0.26797881522E+02  0.25874347101E+02  0.37416153267E+02  0.00000000000E+00 0.  1.
<mgrwt>
<rscale>  0 0.92099448E+02</rscale>
<asrwt>0</asrwt>
<pdfrwt beam="1">  1        1 0.51151708E-01 0.92099448E+02</pdfrwt>
<pdfrwt beam="2">  1       -1 0.98122185E-03 0.92099448E+02</pdfrwt>
<totfact> 0.12715643E+05</totfact>
</mgrwt>
</event>
<event>
 5    1  0.4067226E+001  0.8825260E+02  0.7546771E-02  0.1307139E+00
          2   -1    0    0  501    0  0.00000000000E+00  0.00000000000E+00  0.53390483420E+02  0.53390483420E+02  0.00000000000E+00 0. -1.
         -2   -1    0    0    0  501 -0.00000000000E+00 -0.00000000000E+00 -0.36469614237E+02  0.36469614237E+02  0.00000000000E+00 0.  1.
         23    2    1    2    0    0  0.00000000000E+00  0.00000000000E+00  0.16920869183E+02  0.89860097657E+02  0.88252599604E+02 0.  0.
          2    1    3    3  502    0  0.11326929318E+02 -0.39021239853E+02  0.25983606933E+02  0.48229703676E+02  0.00000000000E+00 0. -1.
         -2    1    3    3    0  502 -0.11326929318E+02  0.39021239853E+02 -0.90627377500E+01  0.41630393980E+02  0.00000000000E+00 0.  1.
<mgrwt>
<rscale>  0 0.88252600E+02</rscale>
<asrwt>0</asrwt>
<pdfrwt beam="1">  1        2 0.82139206E-02 0.88252600E+02</pdfrwt>
<pdfrwt beam="2">  1       -2 0.56107098E-02 0.88252600E+02</pdfrwt>
<totfact> 0.11276563E+05</totfact>
</mgrwt>
</event>
<event>
 5    1  0.4067226E+001  0.9601828E+02  0.7546771E-02  0.1288899E+00
         -1   -1    0    0    0  501 -0.00000000000E+00  0.00000000000E+00  0.34715146196E+02  0.34715146196E+02  0.00000000000E+00 0. -1.
          1   -1    0    0  501    0  0.00000000000E+00 -0.00000000000E+00 -0.66394005863E+02  0.66394005863E+02  0.00000000000E+00 0.  1.
         23    2    1    2    0    0  0.00000000000E+00  0.00000000000E+00 -0.31678859666E+02  0.10110915206E+03  0.96018282011E+02 0.  0.
          2    1    3    3  502    0  0.12549841194E+02 -0.22953827367E+02  0.26550351610E+02  0.37273286351E+02  0.00000000000E+00 0. -1.
         -2    1    3    3    0  502 -0.12549841194E+02  0.22953827367E+02 -0.58229211277E+02  0.63835865708E+02  0.00000000000E+00 0.  1.
<mgrwt>
<rscale>  0 0.96018282E+02</rscale>
<asrwt>0</asrwt>
<pdfrwt beam="2">  1        1 0.10214462E-01 0.96018282E+02</pdfrwt>
<pdfrwt beam="1">  1       -1 0.53407918E-02 0.96018282E+02</pdfrwt>
<totfact> 0.84774779E+04</totfact>
</mgrwt>
</event>
<event>
 5    1  0.4067226E+001  0.9102554E+02  0.7546771E-02  0.1300387E+00
          2   -1    0    0  501    0  0.00000000000E+00  0.00000000000E+00  0.40208493793E+03  0.40208493793E+03  0.00000000000E+00 0. -1.
         -2   -1    0    0    0  501 -0.00000000000E+00 -0.00000000000E+00 -0.51516778895E+01  0.51516778895E+01  0.00000000000E+00 0.  1.
         23    2    1    2    0    0  0.00000000000E+00  0.00000000000E+00  0.39693326004E+03  0.40723661582E+03  0.91025536735E+02 0.  0.
          2    1    3    3  502    0 -0.19967334285E+01 -0.34014281337E+02  0.33346002791E+03  0.33519628353E+03  0.00000000000E+00 0. -1.
         -2    1    3    3    0  502  0.19967334285E+01  0.34014281337E+02  0.63473232139E+02  0.72040332297E+02  0.00000000000E+00 0.  1.
<mgrwt>
<rscale>  0 0.91025537E+02</rscale>
<asrwt>0</asrwt>
<pdfrwt beam="1">  1        2 0.61859196E-01 0.91025537E+02</pdfrwt>
<pdfrwt beam="2">  1       -2 0.79256615E-03 0.91025537E+02</pdfrwt>
<totfact> 0.20088008E+05</totfact>
</mgrwt>
</event>
<event>
 5    1  0.4067226E+001  0.9308879E+02  0.7546771E-02  0.1295540E+00
         -1   -1    0    0    0  501 -0.00000000000E+00  0.00000000000E+00  0.86333368334E+02  0.86333368334E+02  0.00000000000E+00 0.  1.
          1   -1    0    0  501    0  0.00000000000E+00 -0.00000000000E+00 -0.25093205226E+02  0.25093205226E+02  0.00000000000E+00 0. -1.
         23    2    1    2    0    0  0.00000000000E+00  0.00000000000E+00  0.61240163108E+02  0.11142657356E+03  0.93088794803E+02 0.  0.
          2    1    3    3  502    0  0.44908340109E+02  0.47579998600E+01  0.44108616074E+02  0.63126599670E+02  0.00000000000E+00 0. -1.
         -2    1    3    3    0  502 -0.44908340109E+02 -0.47579998600E+01  0.17131547034E+02  0.48299973890E+02  0.00000000000E+00 0.  1.
<mgrwt>
<rscale>  0 0.93088795E+02</rscale>
<asrwt>0</asrwt>
<pdfrwt beam="2">  1        1 0.38604932E-02 0.93088795E+02</pdfrwt>
<pdfrwt beam="1">  1       -1 0.13282056E-01 0.93088795E+02</pdfrwt>
<totfact> 0.79213798E+04</totfact>
</mgrwt>
</event>
<event>
 5    1  0.4067226E+001  0.9160531E+02  0.7546771E-02  0.1299010E+00
         -3   -1    0    0    0  501 -0.00000000000E+00  0.00000000000E+00  0.51217236200E+01  0.51217236200E+01  0.00000000000E+00 0.  1.
          3   -1    0    0  501    0  0.00000000000E+00 -0.00000000000E+00 -0.40960494365E+03  0.40960494365E+03  0.00000000000E+00 0. -1.
         23    2    1    2    0    0  0.00000000000E+00  0.00000000000E+00 -0.40448322003E+03  0.41472666727E+03  0.91605312395E+02 0.  0.
          2    1    3    3  502    0  0.63602505148E+01 -0.43818495007E+02 -0.25530405873E+03  0.25911517843E+03  0.00000000000E+00 0. -1.
         -2    1    3    3    0  502 -0.63602505148E+01  0.43818495007E+02 -0.14917916130E+03  0.15561148884E+03  0.00000000000E+00 0.  1.
<mgrwt>
<rscale>  0 0.91605312E+02</rscale>
<asrwt>0</asrwt>
<pdfrwt beam="2">  1        3 0.63016183E-01 0.91605312E+02</pdfrwt>
<pdfrwt beam="1">  1       -3 0.78795701E-03 0.91605312E+02</pdfrwt>
<totfact> 0.19926024E+04</totfact>
</mgrwt>
</event>
<event>
 5    1  0.4067226E+001  0.9133751E+02  0.7546771E-02  0.1299645E+00
         -3   -1    0    0    0  501 -0.00000000000E+00  0.00000000000E+00  0.44202610576E+02  0.44202610576E+02  0.00000000000E+00 0.  1.
          3   -1    0    0  501    0  0.00000000000E+00 -0.00000000000E+00 -0.47183532664E+02  0.47183532664E+02  0.00000000000E+00 0. -1.
         23    2    1    2    0    0  0.00000000000E+00  0.00000000000E+00 -0.29809220880E+01  0.91386143240E+02  0.91337512993E+02 0.  0.
          2    1    3    3  502    0 -0.41922101841E+02 -0.15501428912E+02  0.78888779963E+01  0.45387127218E+02  0.00000000000E+00 0. -1.
         -2    1    3    3    0  502  0.41922101841E+02  0.15501428912E+02 -0.10869800084E+02  0.45999016022E+02  0.00000000000E+00 0.  1.
<mgrwt>
<rscale>  0 0.91337513E+02</rscale>
<asrwt>0</asrwt>
<pdfrwt beam="2">  1        3 0.72590050E-02 0.91337513E+02</pdfrwt>
<pdfrwt beam="1">  1       -3 0.68004017E-02 0.91337513E+02</pdfrwt>
<totfact> 0.35153077E+04</totfact>
</mgrwt>
</event>
<event>
 5    1  0.4067226E+001  0.8760678E+02  0.7546771E-02  0.1308753E+00
         -1   -1    0    0    0  501 -0.00000000000E+00  0.00000000000E+00  0.16245372145E+01  0.16245372145E+01  0.00000000000E+00 0.  1.
          1   -1    0    0  501    0  0.00000000000E+00 -0.00000000000E+00 -0.11810976661E+04  0.11810976661E+04  0.00000000000E+00 0. -1.
         23    2    1    2    0    0  0.00000000000E+00  0.00000000000E+00 -0.11794731289E+04  0.11827222033E+04  0.87606783128E+02 0.  0.
          2    1    3    3  502    0 -0.19615448675E+02  0.39109528203E+02 -0.61810686590E+03  0.61965346662E+03  0.00000000000E+00 0. -1.
         -2    1    3    3    0  502  0.19615448675E+02 -0.39109528203E+02 -0.56136626301E+03  0.56306873671E+03  0.00000000000E+00 0.  1.
<mgrwt>
<rscale>  0 0.87606783E+02</rscale>
<asrwt>0</asrwt>
<pdfrwt beam="2">  1        1 0.18170805E+00 0.87606783E+02</pdfrwt>
<pdfrwt beam="1">  1       -1 0.24992781E-03 0.87606783E+02</pdfrwt>
<totfact> 0.14249645E+05</totfact>
</mgrwt>
</event>
<event>
 5    1  0.4067226E+001  0.8895161E+02  0.7546771E-02  0.1305411E+00
         -2   -1    0    0    0  501 -0.00000000000E+00  0.00000000000E+00  0.32018587106E+01  0.32018587106E+01  0.00000000000E+00 0. -1.
          2   -1    0    0  501    0  0.00000000000E+00 -0.00000000000E+00 -0.61779654779E+03  0.61779654779E+03  0.00000000000E+00 0.  1.
         23    2    1    2    0    0  0.00000000000E+00  0.00000000000E+00 -0.61459468908E+03  0.62099840650E+03  0.88951610619E+02 0.  0.
          2    1    3    3  502    0 -0.33004515184E+02 -0.50315568885E+01 -0.10215114175E+03  0.10746846211E+03  0.00000000000E+00 0. -1.
         -2    1    3    3    0  502  0.33004515184E+02  0.50315568885E+01 -0.51244354733E+03  0.51352994439E+03  0.00000000000E+00 0.  1.
<mgrwt>
<rscale>  0 0.88951611E+02</rscale>
<asrwt>0</asrwt>
<pdfrwt beam="2">  1        2 0.95045671E-01 0.88951611E+02</pdfrwt>
<pdfrwt beam="1">  1       -2 0.49259340E-03 0.88951611E+02</pdfrwt>
<totfact> 0.24517963E+05</totfact>
</mgrwt>
</event>
<event>
 5    1  0.4067226E+001  0.8926974E+02  0.7546771E-02  0.1304630E+00
         -2   -1    0    0    0  501 -0.00000000000E+00  0.00000000000E+00  0.65075465095E+01  0.65075465095E+01  0.00000000000E+00 0.  1.
          2   -1    0    0  501    0  0.00000000000E+00 -0.00000000000E+00 -0.30614788280E+03  0.30614788280E+03  0.00000000000E+00 0. -1.
         23    2    1    2    0    0  0.00000000000E+00  0.00000000000E+00 -0.29964033629E+03  0.31265542931E+03  0.89269739242E+02 0.  0.
          2    1    3    3  502    0 -0.14030561619E+02 -0.28365502415E+02 -0.39575498537E+02  0.50672265304E+02  0.00000000000E+00 0.  1.
         -2    1    3    3    0  502  0.14030561619E+02  0.28365502415E+02 -0.26006483775E+03  0.26198316400E+03  0.00000000000E+00 0. -1.
<mgrwt>
<rscale>  0 0.89269739E+02</rscale>
<asrwt>0</asrwt>
<pdfrwt beam="2">  1        2 0.47099665E-01 0.89269739E+02</pdfrwt>
<pdfrwt beam="1">  1       -2 0.10011612E-02 0.89269739E+02</pdfrwt>
<totfact> 0.19150227E+05</totfact>
</mgrwt>
</event>
<event>
 5    1  0.4067226E+001  0.9039070E+02  0.7546771E-02  0.1301908E+00
         -2   -1    0    0    0  501 -0.00000000000E+00  0.00000000000E+00  0.13410649053E+02  0.13410649053E+02  0.00000000000E+00 0.  1.
          2   -1    0    0  501    0  0.00000000000E+00 -0.00000000000E+00 -0.15231325865E+03  0.15231325865E+03  0.00000000000E+00 0. -1.
         23    2    1    2    0    0  0.00000000000E+00  0.00000000000E+00 -0.13890260960E+03  0.16572390770E+03  0.90390699918E+02 0.  0.
          2    1    3    3  502    0 -0.19575433435E+02  0.26195722263E+02 -0.12664706666E+03  0.13080096694E+03  0.00000000000E+00 0. -1.
         -2    1    3    3    0  502  0.19575433435E+02 -0.26195722263E+02 -0.12255542942E+02  0.34922940767E+02  0.00000000000E+00 0.  1.
<mgrwt>
<rscale>  0 0.90390700E+02</rscale>
<asrwt>0</asrwt>
<pdfrwt beam="2">  1        2 0.23432810E-01 0.90390700E+02</pdfrwt>
<pdfrwt beam="1">  1       -2 0.20631767E-02 0.90390700E+02</pdfrwt>
<totfact> 0.14387771E+05</totfact>
</mgrwt>
</event>
<event>
 5    1  0.4067226E+001  0.9252290E+02  0.7546771E-02  0.1296855E+00
         -1   -1    0    0    0  501 -0.00000000000E+00  0.00000000000E+00  0.27739815013E+01  0.27739815013E+01  0.00000000000E+00 0.  1.
          1   -1    0    0  501    0  0.00000000000E+00 -0.00000000000E+00 -0.77149815463E+03  0.77149815463E+03  0.00000000000E+00 0. -1.
         23    2    1    2    0    0  0.00000000000E+00  0.00000000000E+00 -0.76872417312E+03  0.77427213613E+03  0.92522896825E+02 0.  0.
          2    1    3    3  502    0 -0.39654174234E+02 -0.23547159473E+02 -0.35395878295E+03  0.35695061603E+03  0.00000000000E+00 0. -1.
         -2    1    3    3    0  502  0.39654174234E+02  0.23547159473E+02 -0.41476539017E+03  0.41732152010E+03  0.00000000000E+00 0.  1.
<mgrwt>
<rscale>  0 0.92522897E+02</rscale>
<asrwt>0</asrwt>
<pdfrwt beam="2">  1        1 0.11869205E+00 0.92522897E+02</pdfrwt>
<pdfrwt beam="1">  1       -1 0.42676630E-03 0.92522897E+02</pdfrwt>
<totfact> 0.13629781E+05</totfact>
</mgrwt>
</event>
<event>
 5    1  0.4067226E+001  0.9083648E+02  0.7546771E-02  0.1300839E+00
         -1   -1    0    0    0  501 -0.00000000000E+00  0.00000000000E+00  0.51436856956E+01  0.51436856956E+01  0.00000000000E+00 0.  1.
          1   -1    0    0  501    0  0.00000000000E+00 -0.00000000000E+00 -0.40103860892E+03  0.40103860892E+03  0.00000000000E+00 0. -1.
         23    2    1    2    0    0  0.00000000000E+00  0.00000000000E+00 -0.39589492322E+03  0.40618229461E+03  0.90836480690E+02 0.  0.
          2    1    3    3  502    0 -0.33084380586E+02  0.23498787379E+01 -0.33669021921E+03  0.33831996968E+03  0.00000000000E+00 0. -1.
         -2    1    3    3    0  502  0.33084380586E+02 -0.23498787379E+01 -0.59204704009E+02  0.67862324935E+02  0.00000000000E+00 0.  1.
<mgrwt>
<rscale>  0 0.90836481E+02</rscale>
<asrwt>0</asrwt>
<pdfrwt beam="2">  1        1 0.61698258E-01 0.90836481E+02</pdfrwt>
<pdfrwt beam="1">  1       -1 0.79133613E-03 0.90836481E+02</pdfrwt>
<totfact> 0.13629519E+05</totfact>
</mgrwt>
</event>
<event>
 5    1  0.4067226E+001  0.9229250E+02  0.7546771E-02  0.1297393E+00
          1   -1    0    0  501    0  0.00000000000E+00  0.00000000000E+00  0.94283590051E+03  0.94283590051E+03  0.00000000000E+00 0. -1.
         -1   -1    0    0    0  501 -0.00000000000E+00 -0.00000000000E+00 -0.22585862870E+01  0.22585862870E+01  0.00000000000E+00 0.  1.
         23    2    1    2    0    0  0.00000000000E+00  0.00000000000E+00  0.94057731423E+03  0.94509448680E+03  0.92292496679E+02 0.  0.
          2    1    3    3  502    0  0.22282583695E+02  0.25585816752E+01  0.88326455126E+03  0.88354927841E+03  0.00000000000E+00 0. -1.
         -2    1    3    3    0  502 -0.22282583695E+02 -0.25585816752E+01  0.57312762969E+02  0.61545208387E+02  0.00000000000E+00 0.  1.
<mgrwt>
<rscale>  0 0.92292497E+02</rscale>
<asrwt>0</asrwt>
<pdfrwt beam="1">  1        1 0.14505136E+00 0.92292497E+02</pdfrwt>
<pdfrwt beam="2">  1       -1 0.34747557E-03 0.92292497E+02</pdfrwt>
<totfact> 0.13357111E+05</totfact>
</mgrwt>
</event>
<event>
 5    1  0.4067226E+001  0.1197920E+03  0.7546771E-02  0.1243441E+00
         -1   -1    0    0    0  501 -0.00000000000E+00  0.00000000000E+00  0.38749329449E+02  0.38749329449E+02  0.00000000000E+00 0.  1.
          1   -1    0    0  501    0  0.00000000000E+00 -0.00000000000E+00 -0.92583021876E+02  0.92583021876E+02  0.00000000000E+00 0. -1.
         23    2    1    2    0    0  0.00000000000E+00  0.00000000000E+00 -0.53833692427E+02  0.13133235132E+03  0.11979198664E+03 0.  0.
          2    1    3    3  502    0  0.26330088729E+02  0.40804535576E+02 -0.65355078844E+02  0.81422171591E+02  0.00000000000E+00 0. -1.
         -2    1    3    3    0  502 -0.26330088729E+02 -0.40804535576E+02  0.11521386417E+02  0.49910179733E+02  0.00000000000E+00 0.  1.
<mgrwt>
<rscale>  0 0.11979199E+03</rscale>
<asrwt>0</asrwt>
<pdfrwt beam="2">  1        1 0.14243542E-01 0.11979199E+03</pdfrwt>
<pdfrwt beam="1">  1       -1 0.59614354E-02 0.11979199E+03</pdfrwt>
<totfact> 0.48210435E+04</totfact>
</mgrwt>
</event>
<event>
 5    1  0.4067226E+001  0.9190209E+02  0.7546771E-02  0.1298310E+00
         -1   -1    0    0    0  501 -0.00000000000E+00  0.00000000000E+00  0.43710325527E+03  0.43710325527E+03  0.00000000000E+00 0.  1.
          1   -1    0    0  501    0  0.00000000000E+00 -0.00000000000E+00 -0.48306633552E+01  0.48306633552E+01  0.00000000000E+00 0. -1.
         23    2    1    2    0    0  0.00000000000E+00  0.00000000000E+00  0.43227259191E+03  0.44193391862E+03  0.91902093070E+02 0.  0.
          2    1    3    3  502    0  0.13823422389E+02 -0.34391100786E+02  0.85530880397E+02  0.93216770601E+02  0.00000000000E+00 0. -1.
         -2    1    3    3    0  502 -0.13823422389E+02  0.34391100786E+02  0.34674171151E+03  0.34871714802E+03  0.00000000000E+00 0.  1.
<mgrwt>
<rscale>  0 0.91902093E+02</rscale>
<asrwt>0</asrwt>
<pdfrwt beam="2">  1        1 0.74317932E-03 0.91902093E+02</pdfrwt>
<pdfrwt beam="1">  1       -1 0.67246624E-01 0.91902093E+02</pdfrwt>
<totfact> 0.49816593E+04</totfact>
</mgrwt>
</event>
<event>
 5    1  0.4067226E+001  0.9132845E+02  0.7546771E-02  0.1299666E+00
         -4   -1    0    0    0  501 -0.00000000000E+00  0.00000000000E+00  0.14994562844E+03  0.14994562844E+03  0.00000000000E+00 0.  1.
          4   -1    0    0  501    0  0.00000000000E+00 -0.00000000000E+00 -0.13906516228E+02  0.13906516228E+02  0.00000000000E+00 0. -1.
         23    2    1    2    0    0  0.00000000000E+00  0.00000000000E+00  0.13603911221E+03  0.16385214467E+03  0.91328447160E+02 0.  0.
          2    1    3    3  502    0  0.35025734607E+02 -0.25844400471E+02  0.92781105139E+02  0.10248447976E+03  0.00000000000E+00 0. -1.
         -2    1    3    3    0  502 -0.35025734607E+02  0.25844400471E+02  0.43258007074E+02  0.61367664910E+02  0.00000000000E+00 0.  1.
<mgrwt>
<rscale>  0 0.91328447E+02</rscale>
<asrwt>0</asrwt>
<pdfrwt beam="2">  1        4 0.21394641E-02 0.91328447E+02</pdfrwt>
<pdfrwt beam="1">  1       -4 0.23068557E-01 0.91328447E+02</pdfrwt>
<totfact> 0.22893859E+04</totfact>
</mgrwt>
</event>
<event>
 5    1  0.4067226E+001  0.9131607E+02  0.7546771E-02  0.1299696E+00
         -1   -1    0    0    0  501 -0.00000000000E+00  0.00000000000E+00  0.11473827612E+02  0.11473827612E+02  0.00000000000E+00 0.  1.
          1   -1    0    0  501    0  0.00000000000E+00 -0.00000000000E+00 -0.18168796353E+03  0.18168796353E+03  0.00000000000E+00 0. -1.
         23    2    1    2    0    0  0.00000000000E+00  0.00000000000E+00 -0.17021413592E+03  0.19316179114E+03  0.91316074659E+02 0.  0.
          2    1    3    3  502    0 -0.95713116314E+01  0.29726697165E+02 -0.15556212440E+03  0.15866587874E+03  0.00000000000E+00 0. -1.
         -2    1    3    3    0  502  0.95713116314E+01 -0.29726697165E+02 -0.14652011522E+02  0.34495912400E+02  0.00000000000E+00 0.  1.
<mgrwt>
<rscale>  0 0.91316075E+02</rscale>
<asrwt>0</asrwt>
<pdfrwt beam="2">  1        1 0.27951991E-01 0.91316075E+02</pdfrwt>
<pdfrwt beam="1">  1       -1 0.17652045E-02 0.91316075E+02</pdfrwt>
<totfact> 0.11575766E+05</totfact>
</mgrwt>
</event>
<event>
 5    1  0.4067226E+001  0.9075061E+02  0.7546771E-02  0.1301044E+00
          3   -1    0    0  501    0  0.00000000000E+00  0.00000000000E+00  0.93662937952E+03  0.93662937952E+03  0.00000000000E+00 0. -1.
         -3   -1    0    0    0  501 -0.00000000000E+00 -0.00000000000E+00 -0.21982210013E+01  0.21982210013E+01  0.00000000000E+00 0.  1.
         23    2    1    2    0    0  0.00000000000E+00  0.00000000000E+00  0.93443115852E+03  0.93882760052E+03  0.90750611513E+02 0.  0.
          2    1    3    3  502    0 -0.44865617508E+02  0.55996131912E+01  0.42763400745E+03  0.43001758525E+03  0.00000000000E+00 0. -1.
         -2    1    3    3    0  502  0.44865617508E+02 -0.55996131912E+01  0.50679715107E+03  0.50881001527E+03  0.00000000000E+00 0.  1.
<mgrwt>
<rscale>  0 0.90750612E+02</rscale>
<asrwt>0</asrwt>
<pdfrwt beam="1">  1        3 0.14409651E+00 0.90750612E+02</pdfrwt>
<pdfrwt beam="2">  1       -3 0.33818859E-03 0.90750612E+02</pdfrwt>
<totfact> 0.10811439E+04</totfact>
</mgrwt>
</event>
<event>
 5    1  0.4067226E+001  0.9155994E+02  0.7546771E-02  0.1299117E+00
          1   -1    0    0  501    0  0.00000000000E+00  0.00000000000E+00  0.30495270414E+02  0.30495270414E+02  0.00000000000E+00 0. -1.
         -1   -1    0    0    0  501 -0.00000000000E+00 -0.00000000000E+00 -0.68725598212E+02  0.68725598212E+02  0.00000000000E+00 0.  1.
         23    2    1    2    0    0  0.00000000000E+00  0.00000000000E+00 -0.38230327799E+02  0.99220868626E+02  0.91559941062E+02 0.  0.
          2    1    3    3  502    0 -0.33049056764E+02 -0.64352017638E+01 -0.52729129674E+02  0.62562073902E+02  0.00000000000E+00 0.  1.
         -2    1    3    3    0  502  0.33049056764E+02  0.64352017638E+01  0.14498801876E+02  0.36658794724E+02  0.00000000000E+00 0. -1.
<mgrwt>
<rscale>  0 0.91559941E+02</rscale>
<asrwt>0</asrwt>
<pdfrwt beam="1">  1        1 0.46915801E-02 0.91559941E+02</pdfrwt>
<pdfrwt beam="2">  1       -1 0.10573169E-01 0.91559941E+02</pdfrwt>
<totfact> 0.85872890E+04</totfact>
</mgrwt>
</event>
<event>
 5    1  0.4067226E+001  0.8803919E+02  0.7546771E-02  0.1307671E+00
         -1   -1    0    0    0  501 -0.00000000000E+00  0.00000000000E+00  0.45078389185E+01  0.45078389185E+01  0.00000000000E+00 0.  1.
          1   -1    0    0  501    0  0.00000000000E+00 -0.00000000000E+00 -0.42985674295E+03  0.42985674295E+03  0.00000000000E+00 0. -1.
         23    2    1    2    0    0  0.00000000000E+00  0.00000000000E+00 -0.42534890403E+03  0.43436458187E+03  0.88039194800E+02 0.  0.
          2    1    3    3  502    0 -0.30112122585E+02 -0.31063299552E+02 -0.17257522899E+03  0.17791536799E+03  0.00000000000E+00 0.  1.
         -2    1    3    3    0  502  0.30112122585E+02  0.31063299552E+02 -0.25277367504E+03  0.25644921388E+03  0.00000000000E+00 0. -1.
<mgrwt>
<rscale>  0 0.88039195E+02</rscale>
<asrwt>0</asrwt>
<pdfrwt beam="2">  1        1 0.66131791E-01 0.88039195E+02</pdfrwt>
<pdfrwt beam="1">  1       -1 0.69351384E-03 0.88039195E+02</pdfrwt>
<totfact> 0.14968956E+05</totfact>
</mgrwt>
</event>
<event>
 5    1  0.4067226E+001  0.9051860E+02  0.7546771E-02  0.1301601E+00
         -1   -1    0    0    0  501 -0.00000000000E+00  0.00000000000E+00  0.19779770430E+01  0.19779770430E+01  0.00000000000E+00 0.  1.
          1   -1    0    0  501    0  0.00000000000E+00 -0.00000000000E+00 -0.10356057573E+04  0.10356057573E+04  0.00000000000E+00 0. -1.
         23    2    1    2    0    0  0.00000000000E+00  0.00000000000E+00 -0.10336277802E+04  0.10375837343E+04  0.90518603909E+02 0.  0.
          2    1    3    3  502    0 -0.24618866502E+02  0.24620089573E+02 -0.84827442249E+03  0.84898865319E+03  0.00000000000E+00 0. -1.
         -2    1    3    3    0  502  0.24618866502E+02 -0.24620089573E+02 -0.18535335772E+03  0.18859508110E+03  0.00000000000E+00 0.  1.
<mgrwt>
<rscale>  0 0.90518604E+02</rscale>
<asrwt>0</asrwt>
<pdfrwt beam="2">  1        1 0.15932403E+00 0.90518604E+02</pdfrwt>
<pdfrwt beam="1">  1       -1 0.30430403E-03 0.90518604E+02</pdfrwt>
<totfact> 0.13727831E+05</totfact>
</mgrwt>
</event>
<event>
 5    1  0.4067226E+001  0.9136252E+02  0.7546771E-02  0.1299585E+00
         -1   -1    0    0    0  501 -0.00000000000E+00  0.00000000000E+00  0.24981040877E+02  0.24981040877E+02  0.00000000000E+00 0.  1.
          1   -1    0    0  501    0  0.00000000000E+00 -0.00000000000E+00 -0.83534443668E+02  0.83534443668E+02  0.00000000000E+00 0. -1.
         23    2    1    2    0    0  0.00000000000E+00  0.00000000000E+00 -0.58553402791E+02  0.10851548454E+03  0.91362516426E+02 0.  0.
          2    1    3    3  502    0 -0.16441865410E+02 -0.25752256980E+02 -0.69612249925E+02  0.76022227127E+02  0.00000000000E+00 0. -1.
         -2    1    3    3    0  502  0.16441865410E+02  0.25752256980E+02  0.11058847134E+02  0.32493257418E+02  0.00000000000E+00 0.  1.
<mgrwt>
<rscale>  0 0.91362516E+02</rscale>
<asrwt>0</asrwt>
<pdfrwt beam="2">  1        1 0.12851453E-01 0.91362516E+02</pdfrwt>
<pdfrwt beam="1">  1       -1 0.38432371E-02 0.91362516E+02</pdfrwt>
<totfact> 0.10087238E+05</totfact>
</mgrwt>
</event>
<event>
 5    1  0.4067226E+001  0.9101293E+02  0.7546771E-02  0.1300417E+00
          2   -1    0    0  501    0  0.00000000000E+00  0.00000000000E+00  0.55315837406E+02  0.55315837406E+02  0.00000000000E+00 0. -1.
         -2   -1    0    0    0  501 -0.00000000000E+00 -0.00000000000E+00 -0.37436628017E+02  0.37436628017E+02  0.00000000000E+00 0.  1.
         23    2    1    2    0    0  0.00000000000E+00  0.00000000000E+00  0.17879209389E+02  0.92752465423E+02  0.91012931573E+02 0.  0.
          2    1    3    3  502    0 -0.24891330513E+02 -0.22278742489E+01  0.47696684924E+02  0.53847149518E+02  0.00000000000E+00 0. -1.
         -2    1    3    3    0  502  0.24891330513E+02  0.22278742489E+01 -0.29817475535E+02  0.38905315905E+02  0.00000000000E+00 0.  1.
<mgrwt>
<rscale>  0 0.91012932E+02</rscale>
<asrwt>0</asrwt>
<pdfrwt beam="1">  1        2 0.85101288E-02 0.91012932E+02</pdfrwt>
<pdfrwt beam="2">  1       -2 0.57594812E-02 0.91012932E+02</pdfrwt>
<totfact> 0.10432858E+05</totfact>
</mgrwt>
</event>
<event>
 5    1  0.4067226E+001  0.9363337E+02  0.7546771E-02  0.1294284E+00
          2   -1    0    0  501    0  0.00000000000E+00  0.00000000000E+00  0.28562432636E+02  0.28562432636E+02  0.00000000000E+00 0. -1.
         -2   -1    0    0    0  501 -0.00000000000E+00 -0.00000000000E+00 -0.76737234568E+02  0.76737234568E+02  0.00000000000E+00 0.  1.
         23    2    1    2    0    0  0.00000000000E+00  0.00000000000E+00 -0.48174801932E+02  0.10529966720E+03  0.93633372107E+02 0.  0.
          2    1    3    3  502    0  0.24469849981E+02 -0.61859432447E+01  0.20255937086E+02  0.32362670458E+02  0.00000000000E+00 0. -1.
         -2    1    3    3    0  502 -0.24469849981E+02  0.61859432447E+01 -0.68430739018E+02  0.72936996747E+02  0.00000000000E+00 0.  1.
<mgrwt>
<rscale>  0 0.93633372E+02</rscale>
<asrwt>0</asrwt>
<pdfrwt beam="1">  1        2 0.43942205E-02 0.93633372E+02</pdfrwt>
<pdfrwt beam="2">  1       -2 0.11805728E-01 0.93633372E+02</pdfrwt>
<totfact> 0.80627517E+04</totfact>
</mgrwt>
</event>
<event>
 5    1  0.4067226E+001  0.9163693E+02  0.7546771E-02  0.1298935E+00
          2   -1    0    0  501    0  0.00000000000E+00  0.00000000000E+00  0.36554518822E+03  0.36554518822E+03  0.00000000000E+00 0. -1.
         -2   -1    0    0    0  501 -0.00000000000E+00 -0.00000000000E+00 -0.57430160076E+01  0.57430160076E+01  0.00000000000E+00 0.  1.
         23    2    1    2    0    0  0.00000000000E+00  0.00000000000E+00  0.35980217222E+03  0.37128820423E+03  0.91636932892E+02 0.  0.
          2    1    3    3  502    0  0.37834931894E+02  0.23918484061E+02  0.21954928062E+03  0.22406575502E+03  0.00000000000E+00 0. -1.
         -2    1    3    3    0  502 -0.37834931894E+02 -0.23918484061E+02  0.14025289160E+03  0.14722244921E+03  0.00000000000E+00 0.  1.
<mgrwt>
<rscale>  0 0.91636933E+02</rscale>
<asrwt>0</asrwt>
<pdfrwt beam="1">  1        2 0.56237703E-01 0.91636933E+02</pdfrwt>
<pdfrwt beam="2">  1       -2 0.88354121E-03 0.91636933E+02</pdfrwt>
<totfact> 0.19066351E+05</totfact>
</mgrwt>
</event>
<event>
 5    1  0.4067226E+001  0.8897571E+02  0.7546771E-02  0.1305351E+00
          2   -1    0    0  501    0  0.00000000000E+00  0.00000000000E+00  0.30299085848E+04  0.30299085848E+04  0.00000000000E+00 0. -1.
         -2   -1    0    0    0  501 -0.00000000000E+00 -0.00000000000E+00 -0.65321093345E+00  0.65321093345E+00  0.00000000000E+00 0.  1.
         23    2    1    2    0    0  0.00000000000E+00  0.00000000000E+00  0.30292553739E+04  0.30305617958E+04  0.88975713876E+02 0.  0.
          2    1    3    3  502    0 -0.11674925577E+02 -0.36316632823E+02  0.22942853003E+04  0.22946024146E+04  0.00000000000E+00 0. -1.
         -2    1    3    3    0  502  0.11674925577E+02  0.36316632823E+02  0.73497007357E+03  0.73595938118E+03  0.00000000000E+00 0.  1.
<mgrwt>
<rscale>  0 0.88975714E+02</rscale>
<asrwt>0</asrwt>
<pdfrwt beam="1">  1        2 0.46612853E+00 0.88975714E+02</pdfrwt>
<pdfrwt beam="2">  1       -2 0.10049642E-03 0.88975714E+02</pdfrwt>
<totfact> 0.10603698E+05</totfact>
</mgrwt>
</event>
<event>
 5    1  0.4067226E+001  0.9065352E+02  0.7546771E-02  0.1301277E+00
          1   -1    0    0  501    0  0.00000000000E+00  0.00000000000E+00  0.94819147058E+01  0.94819147058E+01  0.00000000000E+00 0. -1.
         -1   -1    0    0    0  501 -0.00000000000E+00 -0.00000000000E+00 -0.21667726360E+03  0.21667726360E+03  0.00000000000E+00 0.  1.
         23    2    1    2    0    0  0.00000000000E+00  0.00000000000E+00 -0.20719534890E+03  0.22615917831E+03  0.90653523532E+02 0.  0.
          2    1    3    3  502    0  0.28198843358E+02 -0.30918853453E+02 -0.14704992881E+03  0.15288829853E+03  0.00000000000E+00 0.  1.
         -2    1    3    3    0  502 -0.28198843358E+02  0.30918853453E+02 -0.60145420091E+02  0.73270879778E+02  0.00000000000E+00 0. -1.
<mgrwt>
<rscale>  0 0.90653524E+02</rscale>
<asrwt>0</asrwt>
<pdfrwt beam="1">  1        1 0.14587563E-02 0.90653524E+02</pdfrwt>
<pdfrwt beam="2">  1       -1 0.33334960E-01 0.90653524E+02</pdfrwt>
<totfact> 0.68830352E+04</totfact>
</mgrwt>
</event>
<event>
 5    1  0.4067226E+001  0.9044613E+02  0.7546771E-02  0.1301775E+00
         -2   -1    0    0    0  501 -0.00000000000E+00  0.00000000000E+00  0.17427765675E+02  0.17427765675E+02  0.00000000000E+00 0.  1.
          2   -1    0    0  501    0  0.00000000000E+00 -0.00000000000E+00 -0.11734868720E+03  0.11734868720E+03  0.00000000000E+00 0. -1.
         23    2    1    2    0    0  0.00000000000E+00  0.00000000000E+00 -0.99920921529E+02  0.13477645288E+03  0.90446125907E+02 0.  0.
          2    1    3    3  502    0 -0.72262369782E+01 -0.30842507359E+02 -0.98053726222E+02  0.10304373822E+03  0.00000000000E+00 0. -1.
         -2    1    3    3    0  502  0.72262369782E+01  0.30842507359E+02 -0.18671953065E+01  0.31732714655E+02  0.00000000000E+00 0.  1.
<mgrwt>
<rscale>  0 0.90446126E+02</rscale>
<asrwt>0</asrwt>
<pdfrwt beam="2">  1        2 0.18053644E-01 0.90446126E+02</pdfrwt>
<pdfrwt beam="1">  1       -2 0.26811947E-02 0.90446126E+02</pdfrwt>
<totfact> 0.13180823E+05</totfact>
</mgrwt>
</event>
<event>
 5    1  0.4067226E+001  0.9107082E+02  0.7546771E-02  0.1300279E+00
         -2   -1    0    0    0  501 -0.00000000000E+00  0.00000000000E+00  0.82626124115E+01  0.82626124115E+01  0.00000000000E+00 0.  1.
          2   -1    0    0  501    0  0.00000000000E+00 -0.00000000000E+00 -0.25094648334E+03  0.25094648334E+03  0.00000000000E+00 0. -1.
         23    2    1    2    0    0  0.00000000000E+00  0.00000000000E+00 -0.24268387093E+03  0.25920909575E+03  0.91070819209E+02 0.  0.
          2    1    3    3  502    0  0.44362530715E+02 -0.78661632897E+01 -0.10255615497E+03  0.11201640763E+03  0.00000000000E+00 0. -1.
         -2    1    3    3    0  502 -0.44362530715E+02  0.78661632897E+01 -0.14012771596E+03  0.14719268812E+03  0.00000000000E+00 0.  1.
<mgrwt>
<rscale>  0 0.91070819E+02</rscale>
<asrwt>0</asrwt>
<pdfrwt beam="2">  1        2 0.38607148E-01 0.91070819E+02</pdfrwt>
<pdfrwt beam="1">  1       -2 0.12711712E-02 0.91070819E+02</pdfrwt>
<totfact> 0.16862023E+05</totfact>
</mgrwt>
</event>
<event>
 5    1  0.4067226E+001  0.9133501E+02  0.7546771E-02  0.1299651E+00
          2   -1    0    0  501    0  0.00000000000E+00  0.00000000000E+00  0.66253798256E+03  0.66253798256E+03  0.00000000000E+00 0.  1.
         -2   -1    0    0    0  501 -0.00000000000E+00 -0.00000000000E+00 -0.31477760243E+01  0.31477760243E+01  0.00000000000E+00 0. -1.
         23    2    1    2    0    0  0.00000000000E+00  0.00000000000E+00  0.65939020654E+03  0.66568575858E+03  0.91335013587E+02 0.  0.
          2    1    3    3  502    0  0.36927466246E+02 -0.26844284510E+02  0.32148860707E+03  0.32471399392E+03  0.00000000000E+00 0. -1.
         -2    1    3    3    0  502 -0.36927466246E+02  0.26844284510E+02  0.33790159947E+03  0.34097176466E+03  0.00000000000E+00 0.  1.
<mgrwt>
<rscale>  0 0.91335014E+02</rscale>
<asrwt>0</asrwt>
<pdfrwt beam="1">  1        2 0.10192881E+00 0.91335014E+02</pdfrwt>
<pdfrwt beam="2">  1       -2 0.48427376E-03 0.91335014E+02</pdfrwt>
<totfact> 0.23292741E+05</totfact>
</mgrwt>
</event>
<event>
 5    1  0.4067226E+001  0.9289594E+02  0.7546771E-02  0.1295987E+00
         -2   -1    0    0    0  501 -0.00000000000E+00  0.00000000000E+00  0.29609340682E+01  0.29609340682E+01  0.00000000000E+00 0.  1.
          2   -1    0    0  501    0  0.00000000000E+00 -0.00000000000E+00 -0.72862609012E+03  0.72862609012E+03  0.00000000000E+00 0. -1.
         23    2    1    2    0    0  0.00000000000E+00  0.00000000000E+00 -0.72566515606E+03  0.73158702419E+03  0.92895937763E+02 0.  0.
          2    1    3    3  502    0 -0.31067208876E+02 -0.26815083007E+00 -0.63475088378E+03  0.63551076139E+03  0.00000000000E+00 0. -1.
         -2    1    3    3    0  502  0.31067208876E+02  0.26815083007E+00 -0.90914272272E+02  0.96076262807E+02  0.00000000000E+00 0.  1.
<mgrwt>
<rscale>  0 0.92895938E+02</rscale>
<asrwt>0</asrwt>
<pdfrwt beam="2">  1        2 0.11209637E+00 0.92895938E+02</pdfrwt>
<pdfrwt beam="1">  1       -2 0.45552812E-03 0.92895938E+02</pdfrwt>
<totfact> 0.22777914E+05</totfact>
</mgrwt>
</event>
<event>
 5    1  0.4067226E+001  0.8533156E+02  0.7546771E-02  0.1314568E+00
          2   -1    0    0  501    0  0.00000000000E+00  0.00000000000E+00  0.53499711736E+02  0.53499711736E+02  0.00000000000E+00 0. -1.
         -2   -1    0    0    0  501 -0.00000000000E+00 -0.00000000000E+00 -0.34025768106E+02  0.34025768106E+02  0.00000000000E+00 0.  1.
         23    2    1    2    0    0  0.00000000000E+00  0.00000000000E+00  0.19473943630E+02  0.87525479842E+02  0.85331560053E+02 0.  0.
          2    1    3    3  502    0 -0.57043019198E+01  0.31069611265E+02  0.39153752258E+02  0.50307813712E+02  0.00000000000E+00 0. -1.
         -2    1    3    3    0  502  0.57043019198E+01 -0.31069611265E+02 -0.19679808628E+02  0.37217666130E+02  0.00000000000E+00 0.  1.
<mgrwt>
<rscale>  0 0.85331560E+02</rscale>
<asrwt>0</asrwt>
<pdfrwt beam="1">  1        2 0.82307249E-02 0.85331560E+02</pdfrwt>
<pdfrwt beam="2">  1       -2 0.52347336E-02 0.85331560E+02</pdfrwt>
<totfact> 0.12402368E+05</totfact>
</mgrwt>
</event>
<event>
 5    1  0.4067226E+001  0.8687657E+02  0.7546771E-02  0.1310597E+00
         -2   -1    0    0    0  501 -0.00000000000E+00  0.00000000000E+00  0.19250492470E+01  0.19250492470E+01  0.00000000000E+00 0.  1.
          2   -1    0    0  501    0  0.00000000000E+00 -0.00000000000E+00 -0.98017465925E+03  0.98017465925E+03  0.00000000000E+00 0. -1.
         23    2    1    2    0    0  0.00000000000E+00  0.00000000000E+00 -0.97824961000E+03  0.98209970849E+03  0.86876567375E+02 0.  0.
          2    1    3    3  502    0 -0.13879908089E+02  0.21806525842E+02 -0.94483286994E+02  0.97955438538E+02  0.00000000000E+00 0.  1.
         -2    1    3    3    0  502  0.13879908089E+02 -0.21806525842E+02 -0.88376632301E+03  0.88414426996E+03  0.00000000000E+00 0. -1.
<mgrwt>
<rscale>  0 0.86876567E+02</rscale>
<asrwt>0</asrwt>
<pdfrwt beam="2">  1        2 0.15079605E+00 0.86876567E+02</pdfrwt>
<pdfrwt beam="1">  1       -2 0.29616153E-03 0.86876567E+02</pdfrwt>
<totfact> 0.28355534E+05</totfact>
</mgrwt>
</event>
<event>
 5    1  0.4067226E+001  0.9033536E+02  0.7546771E-02  0.1302042E+00
         -2   -1    0    0    0  501 -0.00000000000E+00  0.00000000000E+00  0.10545496125E+01  0.10545496125E+01  0.00000000000E+00 0. -1.
          2   -1    0    0  501    0  0.00000000000E+00 -0.00000000000E+00 -0.19345884484E+04  0.19345884484E+04  0.00000000000E+00 0.  1.
         23    2    1    2    0    0  0.00000000000E+00  0.00000000000E+00 -0.19335338988E+04  0.19356429980E+04  0.90335364031E+02 0.  0.
          2    1    3    3  502    0  0.34071485087E+02  0.27800443194E+02 -0.74575521278E+03  0.74705057937E+03  0.00000000000E+00 0. -1.
         -2    1    3    3    0  502 -0.34071485087E+02 -0.27800443194E+02 -0.11877786860E+04  0.11885924186E+04  0.00000000000E+00 0.  1.
<mgrwt>
<rscale>  0 0.90335364E+02</rscale>
<asrwt>0</asrwt>
<pdfrwt beam="2">  1        2 0.29762960E+00 0.90335364E+02</pdfrwt>
<pdfrwt beam="1">  1       -2 0.16223807E-03 0.90335364E+02</pdfrwt>
<totfact> 0.20776005E+05</totfact>
</mgrwt>
</event>
<event>
 5    1  0.4067226E+001  0.9262557E+02  0.7546771E-02  0.1296615E+00
         -1   -1    0    0    0  501 -0.00000000000E+00  0.00000000000E+00  0.89226386145E+02  0.89226386145E+02  0.00000000000E+00 0.  1.
          1   -1    0    0  501    0  0.00000000000E+00 -0.00000000000E+00 -0.24038564349E+02  0.24038564349E+02  0.00000000000E+00 0. -1.
         23    2    1    2    0    0  0.00000000000E+00  0.00000000000E+00  0.65187821796E+02  0.11326495049E+03  0.92625573682E+02 0.  0.
          2    1    3    3  502    0 -0.30280671785E+02  0.26696064450E+02  0.48361593369E+01  0.40656947475E+02  0.00000000000E+00 0. -1.
         -2    1    3    3    0  502  0.30280671785E+02 -0.26696064450E+02  0.60351662459E+02  0.72608003019E+02  0.00000000000E+00 0.  1.
<mgrwt>
<rscale>  0 0.92625574E+02</rscale>
<asrwt>0</asrwt>
<pdfrwt beam="2">  1        1 0.36982407E-02 0.92625574E+02</pdfrwt>
<pdfrwt beam="1">  1       -1 0.13727136E-01 0.92625574E+02</pdfrwt>
<totfact> 0.79769678E+04</totfact>
</mgrwt>
</event>
<event>
 5    1  0.4067226E+001  0.9122065E+02  0.7546771E-02  0.1299922E+00
          1   -1    0    0  501    0  0.00000000000E+00  0.00000000000E+00  0.12256828579E+03  0.12256828579E+03  0.00000000000E+00 0. -1.
         -1   -1    0    0    0  501 -0.00000000000E+00 -0.00000000000E+00 -0.16972594727E+02  0.16972594727E+02  0.00000000000E+00 0.  1.
         23    2    1    2    0    0  0.00000000000E+00  0.00000000000E+00  0.10559569106E+03  0.13954088052E+03  0.91220652070E+02 0.  0.
          2    1    3    3  502    0 -0.31829648570E+01  0.45457882281E+02  0.55760708657E+02  0.72012547217E+02  0.00000000000E+00 0. -1.
         -2    1    3    3    0  502  0.31829648570E+01 -0.45457882281E+02  0.49834982406E+02  0.67528333299E+02  0.00000000000E+00 0.  1.
<mgrwt>
<rscale>  0 0.91220652E+02</rscale>
<asrwt>0</asrwt>
<pdfrwt beam="1">  1        1 0.18856659E-01 0.91220652E+02</pdfrwt>
<pdfrwt beam="2">  1       -1 0.26111685E-02 0.91220652E+02</pdfrwt>
<totfact> 0.10799650E+05</totfact>
</mgrwt>
</event>
<event>
 5    1  0.4067226E+001  0.9152907E+02  0.7546771E-02  0.1299191E+00
         -3   -1    0    0    0  501 -0.00000000000E+00  0.00000000000E+00  0.55681783969E+01  0.55681783969E+01  0.00000000000E+00 0.  1.
          3   -1    0    0  501    0  0.00000000000E+00 -0.00000000000E+00 -0.37613606318E+03  0.37613606318E+03  0.00000000000E+00 0. -1.
         23    2    1    2    0    0  0.00000000000E+00  0.00000000000E+00 -0.37056788478E+03  0.38170424158E+03  0.91529070820E+02 0.  0.
          2    1    3    3  502    0 -0.39149620053E+02  0.17735328130E+02 -0.25084641817E+03  0.25450178805E+03  0.00000000000E+00 0. -1.
         -2    1    3    3    0  502  0.39149620053E+02 -0.17735328130E+02 -0.11972146662E+03  0.12720245353E+03  0.00000000000E+00 0.  1.
<mgrwt>
<rscale>  0 0.91529071E+02</rscale>
<asrwt>0</asrwt>
<pdfrwt beam="2">  1        3 0.57867095E-01 0.91529071E+02</pdfrwt>
<pdfrwt beam="1">  1       -3 0.85664271E-03 0.91529071E+02</pdfrwt>
<totfact> 0.20961330E+04</totfact>
</mgrwt>
</event>
<event>
 5    1  0.4067226E+001  0.9029883E+02  0.7546771E-02  0.1302130E+00
         -4   -1    0    0    0  501 -0.00000000000E+00  0.00000000000E+00  0.46018958391E+02  0.46018958391E+02  0.00000000000E+00 0.  1.
          4   -1    0    0  501    0  0.00000000000E+00 -0.00000000000E+00 -0.44296301299E+02  0.44296301299E+02  0.00000000000E+00 0. -1.
         23    2    1    2    0    0  0.00000000000E+00  0.00000000000E+00  0.17226570915E+01  0.90315259690E+02  0.90298829369E+02 0.  0.
          2    1    3    3  502    0 -0.44608400289E+02  0.13173627713E+01  0.77054403899E+01  0.45288173209E+02  0.00000000000E+00 0. -1.
         -2    1    3    3    0  502  0.44608400289E+02 -0.13173627713E+01 -0.59827832984E+01  0.45027086481E+02  0.00000000000E+00 0.  1.
<mgrwt>
<rscale>  0 0.90298829E+02</rscale>
<asrwt>0</asrwt>
<pdfrwt beam="2">  1        4 0.68148156E-02 0.90298829E+02</pdfrwt>
<pdfrwt beam="1">  1       -4 0.70798398E-02 0.90298829E+02</pdfrwt>
<totfact> 0.27791027E+04</totfact>
</mgrwt>
</event>
<event>
 5    1  0.4067226E+001  0.8982658E+02  0.7546771E-02  0.1303272E+00
         -1   -1    0    0    0  501 -0.00000000000E+00  0.00000000000E+00  0.69383155219E+01  0.69383155219E+01  0.00000000000E+00 0.  1.
          1   -1    0    0  501    0  0.00000000000E+00 -0.00000000000E+00 -0.29073394299E+03  0.29073394299E+03  0.00000000000E+00 0. -1.
         23    2    1    2    0    0  0.00000000000E+00  0.00000000000E+00 -0.28379562747E+03  0.29767225852E+03  0.89826584693E+02 0.  0.
          2    1    3    3  502    0 -0.35097135262E+02 -0.10443412158E+02 -0.55716557013E+02  0.66672396735E+02  0.00000000000E+00 0.  1.
         -2    1    3    3    0  502  0.35097135262E+02  0.10443412158E+02 -0.22807907046E+03  0.23099986178E+03  0.00000000000E+00 0. -1.
<mgrwt>
<rscale>  0 0.89826585E+02</rscale>
<asrwt>0</asrwt>
<pdfrwt beam="2">  1        1 0.44728301E-01 0.89826585E+02</pdfrwt>
<pdfrwt beam="1">  1       -1 0.10674331E-02 0.89826585E+02</pdfrwt>
<totfact> 0.13251504E+05</totfact>
</mgrwt>
</event>
<event>
 5    1  0.4067226E+001  0.8879985E+02  0.7546771E-02  0.1305784E+00
          2   -1    0    0  501    0  0.00000000000E+00  0.00000000000E+00  0.24669688628E+04  0.24669688628E+04  0.00000000000E+00 0. -1.
         -2   -1    0    0    0  501 -0.00000000000E+00 -0.00000000000E+00 -0.79909941298E+00  0.79909941298E+00  0.00000000000E+00 0.  1.
         23    2    1    2    0    0  0.00000000000E+00  0.00000000000E+00  0.24661697634E+04  0.24677679623E+04  0.88799850678E+02 0.  0.
          2    1    3    3  502    0 -0.38187083451E+02 -0.19869879044E+02  0.15353320984E+04  0.15359354536E+04  0.00000000000E+00 0.  1.
         -2    1    3    3    0  502  0.38187083451E+02  0.19869879044E+02  0.93083766507E+03  0.93183250863E+03  0.00000000000E+00 0. -1.
<mgrwt>
<rscale>  0 0.88799851E+02</rscale>
<asrwt>0</asrwt>
<pdfrwt beam="1">  1        2 0.37952757E+00 0.88799851E+02</pdfrwt>
<pdfrwt beam="2">  1       -2 0.12294035E-03 0.88799851E+02</pdfrwt>
<totfact> 0.16280284E+05</totfact>
</mgrwt>
</event>
<event>
 5    1  0.4067226E+001  0.8953346E+02  0.7546771E-02  0.1303985E+00
          1   -1    0    0  501    0  0.00000000000E+00  0.00000000000E+00  0.56563585795E+03  0.56563585795E+03  0.00000000000E+00 0. -1.
         -1   -1    0    0    0  501 -0.00000000000E+00 -0.00000000000E+00 -0.35430215924E+01  0.35430215924E+01  0.00000000000E+00 0.  1.
         23    2    1    2    0    0  0.00000000000E+00  0.00000000000E+00  0.56209283636E+03  0.56917887955E+03  0.89533458733E+02 0.  0.
          2    1    3    3  502    0 -0.33231977082E+02  0.17419832244E+02  0.43627649169E+03  0.43788696265E+03  0.00000000000E+00 0. -1.
         -2    1    3    3    0  502  0.33231977082E+02 -0.17419832244E+02  0.12581634467E+03  0.13129191690E+03  0.00000000000E+00 0.  1.
<mgrwt>
<rscale>  0 0.89533459E+02</rscale>
<asrwt>0</asrwt>
<pdfrwt beam="1">  1        1 0.87020829E-01 0.89533459E+02</pdfrwt>
<pdfrwt beam="2">  1       -1 0.54508069E-03 0.89533459E+02</pdfrwt>
<totfact> 0.14794704E+05</totfact>
</mgrwt>
</event>
<event>
 5    1  0.4067226E+001  0.1043938E+03  0.7546771E-02  0.1271319E+00
         -2   -1    0    0    0  501 -0.00000000000E+00  0.00000000000E+00  0.19956484935E+02  0.19956484935E+02  0.00000000000E+00 0.  1.
          2   -1    0    0  501    0  0.00000000000E+00 -0.00000000000E+00 -0.13652293079E+03  0.13652293079E+03  0.00000000000E+00 0. -1.
         23    2    1    2    0    0  0.00000000000E+00  0.00000000000E+00 -0.11656644586E+03  0.15647941573E+03  0.10439382763E+03 0.  0.
          2    1    3    3  502    0  0.45457600028E+01 -0.22208329866E+02 -0.12875931198E+03  0.13073956659E+03  0.00000000000E+00 0. -1.
         -2    1    3    3    0  502 -0.45457600028E+01  0.22208329866E+02  0.12192866124E+02  0.25739849140E+02  0.00000000000E+00 0.  1.
<mgrwt>
<rscale>  0 0.10439383E+03</rscale>
<asrwt>0</asrwt>
<pdfrwt beam="2">  1        2 0.21003527E-01 0.10439383E+03</pdfrwt>
<pdfrwt beam="1">  1       -2 0.30702285E-02 0.10439383E+03</pdfrwt>
<totfact> 0.93366729E+04</totfact>
</mgrwt>
</event>
<event>
 5    1  0.4067226E+001  0.9114766E+02  0.7546771E-02  0.1300096E+00
         -1   -1    0    0    0  501 -0.00000000000E+00  0.00000000000E+00  0.47200531263E+02  0.47200531263E+02  0.00000000000E+00 0.  1.
          1   -1    0    0  501    0  0.00000000000E+00 -0.00000000000E+00 -0.44003189807E+02  0.44003189807E+02  0.00000000000E+00 0. -1.
         23    2    1    2    0    0  0.00000000000E+00  0.00000000000E+00  0.31973414554E+01  0.91203721070E+02  0.91147659019E+02 0.  0.
          2    1    3    3  502    0  0.42521516730E+02  0.59671801484E+01 -0.13684469520E+02  0.45066077375E+02  0.00000000000E+00 0. -1.
         -2    1    3    3    0  502 -0.42521516730E+02 -0.59671801484E+01  0.16881810975E+02  0.46137643695E+02  0.00000000000E+00 0.  1.
<mgrwt>
<rscale>  0 0.91147659E+02</rscale>
<asrwt>0</asrwt>
<pdfrwt beam="2">  1        1 0.67697215E-02 0.91147659E+02</pdfrwt>
<pdfrwt beam="1">  1       -1 0.72616202E-02 0.91147659E+02</pdfrwt>
<totfact> 0.92063965E+04</totfact>
</mgrwt>
</event>
<event>
 5    1  0.4067226E+001  0.9505199E+02  0.7546771E-02  0.1291059E+00
         -1   -1    0    0    0  501 -0.00000000000E+00  0.00000000000E+00  0.11968987337E+01  0.11968987337E+01  0.00000000000E+00 0.  1.
          1   -1    0    0  501    0  0.00000000000E+00 -0.00000000000E+00 -0.18871437865E+04  0.18871437865E+04  0.00000000000E+00 0. -1.
         23    2    1    2    0    0  0.00000000000E+00  0.00000000000E+00 -0.18859468878E+04  0.18883406853E+04  0.95051985955E+02 0.  0.
          2    1    3    3  502    0  0.37010912574E+02 -0.29472331961E+02 -0.85347755916E+03  0.85478790936E+03  0.00000000000E+00 0. -1.
         -2    1    3    3    0  502 -0.37010912574E+02  0.29472331961E+02 -0.10324693286E+04  0.10335527759E+04  0.00000000000E+00 0.  1.
<mgrwt>
<rscale>  0 0.95051986E+02</rscale>
<asrwt>0</asrwt>
<pdfrwt beam="2">  1        1 0.29033084E+00 0.95051986E+02</pdfrwt>
<pdfrwt beam="1">  1       -1 0.18413762E-03 0.95051986E+02</pdfrwt>
<totfact> 0.77524757E+04</totfact>
</mgrwt>
</event>
<event>
 5    1  0.4067226E+001  0.9073599E+02  0.7546771E-02  0.1301079E+00
          1   -1    0    0  501    0  0.00000000000E+00  0.00000000000E+00  0.27254379014E+03  0.27254379014E+03  0.00000000000E+00 0. -1.
         -1   -1    0    0    0  501 -0.00000000000E+00 -0.00000000000E+00 -0.75520156912E+01  0.75520156912E+01  0.00000000000E+00 0.  1.
         23    2    1    2    0    0  0.00000000000E+00  0.00000000000E+00  0.26499177445E+03  0.28009580583E+03  0.90735990207E+02 0.  0.
          2    1    3    3  502    0  0.39587320578E+02  0.98957940770E+01  0.71286437813E+02  0.82139143573E+02  0.00000000000E+00 0.  1.
         -2    1    3    3    0  502 -0.39587320578E+02 -0.98957940770E+01  0.19370533664E+03  0.19795666226E+03  0.00000000000E+00 0. -1.
<mgrwt>
<rscale>  0 0.90735990E+02</rscale>
<asrwt>0</asrwt>
<pdfrwt beam="1">  1        1 0.41929806E-01 0.90735990E+02</pdfrwt>
<pdfrwt beam="2">  1       -1 0.11618488E-02 0.90735990E+02</pdfrwt>
<totfact> 0.12740809E+05</totfact>
</mgrwt>
</event>
<event>
 5    1  0.4067226E+001  0.8984870E+02  0.7546771E-02  0.1303219E+00
          1   -1    0    0  501    0  0.00000000000E+00  0.00000000000E+00  0.20932801207E+04  0.20932801207E+04  0.00000000000E+00 0. -1.
         -1   -1    0    0    0  501 -0.00000000000E+00 -0.00000000000E+00 -0.96413149261E+00  0.96413149261E+00  0.00000000000E+00 0.  1.
         23    2    1    2    0    0  0.00000000000E+00  0.00000000000E+00  0.20923159892E+04  0.20942442522E+04  0.89848701431E+02 0.  0.
          2    1    3    3  502    0 -0.19208362356E+02 -0.40602691556E+02  0.10272573323E+04  0.10282388665E+04  0.00000000000E+00 0.  1.
         -2    1    3    3    0  502  0.19208362356E+02  0.40602691556E+02  0.10650586569E+04  0.10660053857E+04  0.00000000000E+00 0. -1.
<mgrwt>
<rscale>  0 0.89848701E+02</rscale>
<asrwt>0</asrwt>
<pdfrwt beam="1">  1        1 0.32203946E+00 0.89848701E+02</pdfrwt>
<pdfrwt beam="2">  1       -1 0.14832960E-03 0.89848701E+02</pdfrwt>
<totfact> 0.77165030E+04</totfact>
</mgrwt>
</event>
<event>
 5    1  0.4067226E+001  0.9146148E+02  0.7546771E-02  0.1299351E+00
          2   -1    0    0  501    0  0.00000000000E+00  0.00000000000E+00  0.56914836265E+03  0.56914836265E+03  0.00000000000E+00 0.  1.
         -2   -1    0    0    0  501 -0.00000000000E+00 -0.00000000000E+00 -0.36744380597E+01  0.36744380597E+01  0.00000000000E+00 0. -1.
         23    2    1    2    0    0  0.00000000000E+00  0.00000000000E+00  0.56547392459E+03  0.57282280071E+03  0.91461476160E+02 0.  0.
          2    1    3    3  502    0  0.25165093304E+02  0.77567846434E+01  0.48577077439E+02  0.55255606788E+02  0.00000000000E+00 0. -1.
         -2    1    3    3    0  502 -0.25165093304E+02 -0.77567846434E+01  0.51689684715E+03  0.51756719392E+03  0.00000000000E+00 0.  1.
<mgrwt>
<rscale>  0 0.91461476E+02</rscale>
<asrwt>0</asrwt>
<pdfrwt beam="1">  1        2 0.87561216E-01 0.91461476E+02</pdfrwt>
<pdfrwt beam="2">  1       -2 0.56529862E-03 0.91461476E+02</pdfrwt>
<totfact> 0.22253937E+05</totfact>
</mgrwt>
</event>
<event>
 5    1  0.4067226E+001  0.9190077E+02  0.7546771E-02  0.1298313E+00
         -2   -1    0    0    0  501 -0.00000000000E+00  0.00000000000E+00  0.16688961368E+01  0.16688961368E+01  0.00000000000E+00 0.  1.
          2   -1    0    0  501    0  0.00000000000E+00 -0.00000000000E+00 -0.12651703869E+04  0.12651703869E+04  0.00000000000E+00 0. -1.
         23    2    1    2    0    0  0.00000000000E+00  0.00000000000E+00 -0.12635014908E+04  0.12668392831E+04  0.91900771947E+02 0.  0.
          2    1    3    3  502    0  0.23634165158E+02 -0.28068945809E+02 -0.10130207602E+04  0.10136851089E+04  0.00000000000E+00 0. -1.
         -2    1    3    3    0  502 -0.23634165158E+02  0.28068945809E+02 -0.25048073060E+03  0.25315417414E+03  0.00000000000E+00 0.  1.
<mgrwt>
<rscale>  0 0.91900772E+02</rscale>
<asrwt>0</asrwt>
<pdfrwt beam="2">  1        2 0.19464139E+00 0.91900772E+02</pdfrwt>
<pdfrwt beam="1">  1       -2 0.25675353E-03 0.91900772E+02</pdfrwt>
<totfact> 0.24180325E+05</totfact>
</mgrwt>
</event>
<event>
 5    1  0.4067226E+001  0.9246576E+02  0.7546771E-02  0.1296988E+00
         -3   -1    0    0    0  501 -0.00000000000E+00  0.00000000000E+00  0.41534862330E+03  0.41534862330E+03  0.00000000000E+00 0.  1.
          3   -1    0    0  501    0  0.00000000000E+00 -0.00000000000E+00 -0.51462286917E+01  0.51462286917E+01  0.00000000000E+00 0. -1.
         23    2    1    2    0    0  0.00000000000E+00  0.00000000000E+00  0.41020239461E+03  0.42049485199E+03  0.92465755873E+02 0.  0.
          2    1    3    3  502    0 -0.27965481061E+02 -0.14162541062E+02  0.50561730827E+02  0.59490623838E+02  0.00000000000E+00 0. -1.
         -2    1    3    3    0  502  0.27965481061E+02  0.14162541062E+02  0.35964066378E+03  0.36100422815E+03  0.00000000000E+00 0.  1.
<mgrwt>
<rscale>  0 0.92465756E+02</rscale>
<asrwt>0</asrwt>
<pdfrwt beam="2">  1        3 0.79172782E-03 0.92465756E+02</pdfrwt>
<pdfrwt beam="1">  1       -3 0.63899762E-01 0.92465756E+02</pdfrwt>
<totfact> 0.19256787E+04</totfact>
</mgrwt>
</event>
<event>
 5    1  0.4067226E+001  0.9075139E+02  0.7546771E-02  0.1301042E+00
          2   -1    0    0  501    0  0.00000000000E+00  0.00000000000E+00  0.11671631909E+04  0.11671631909E+04  0.00000000000E+00 0.  1.
         -2   -1    0    0    0  501 -0.00000000000E+00 -0.00000000000E+00 -0.17640667510E+01  0.17640667510E+01  0.00000000000E+00 0. -1.
         23    2    1    2    0    0  0.00000000000E+00  0.00000000000E+00  0.11653991242E+04  0.11689272577E+04  0.90751391793E+02 0.  0.
          2    1    3    3  502    0 -0.22951020877E+02 -0.32940692524E+02  0.31033919789E+03  0.31292532069E+03  0.00000000000E+00 0. -1.
         -2    1    3    3    0  502  0.22951020877E+02  0.32940692524E+02  0.85505992629E+03  0.85600193699E+03  0.00000000000E+00 0.  1.
<mgrwt>
<rscale>  0 0.90751392E+02</rscale>
<asrwt>0</asrwt>
<pdfrwt beam="1">  1        2 0.17956295E+00 0.90751392E+02</pdfrwt>
<pdfrwt beam="2">  1       -2 0.27139582E-03 0.90751392E+02</pdfrwt>
<totfact> 0.25244051E+05</totfact>
</mgrwt>
</event>
<event>
 5    1  0.4067226E+001  0.9019659E+02  0.7546771E-02  0.1302376E+00
          1   -1    0    0  501    0  0.00000000000E+00  0.00000000000E+00  0.13225496343E+03  0.13225496343E+03  0.00000000000E+00 0. -1.
         -1   -1    0    0    0  501 -0.00000000000E+00 -0.00000000000E+00 -0.15378298718E+02  0.15378298718E+02  0.00000000000E+00 0.  1.
         23    2    1    2    0    0  0.00000000000E+00  0.00000000000E+00  0.11687666471E+03  0.14763326215E+03  0.90196592721E+02 0.  0.
          2    1    3    3  502    0 -0.25454700893E+02  0.17054700712E+02  0.11260241602E+03  0.11669665251E+03  0.00000000000E+00 0. -1.
         -2    1    3    3    0  502  0.25454700893E+02 -0.17054700712E+02  0.42742486917E+01  0.30936609637E+02  0.00000000000E+00 0.  1.
<mgrwt>
<rscale>  0 0.90196593E+02</rscale>
<asrwt>0</asrwt>
<pdfrwt beam="1">  1        1 0.20346917E-01 0.90196593E+02</pdfrwt>
<pdfrwt beam="2">  1       -1 0.23658922E-02 0.90196593E+02</pdfrwt>
<totfact> 0.11285106E+05</totfact>
</mgrwt>
</event>
<event>
 5    1  0.4067226E+001  0.9091280E+02  0.7546771E-02  0.1300656E+00
          2   -1    0    0  501    0  0.00000000000E+00  0.00000000000E+00  0.36151115292E+03  0.36151115292E+03  0.00000000000E+00 0. -1.
         -2   -1    0    0    0  501 -0.00000000000E+00 -0.00000000000E+00 -0.57156858810E+01  0.57156858810E+01  0.00000000000E+00 0.  1.
         23    2    1    2    0    0  0.00000000000E+00  0.00000000000E+00  0.35579546704E+03  0.36722683880E+03  0.90912797615E+02 0.  0.
          2    1    3    3  502    0 -0.27210103266E+02 -0.18442214173E+02  0.30472108301E+03  0.30648889607E+03  0.00000000000E+00 0. -1.
         -2    1    3    3    0  502  0.27210103266E+02  0.18442214173E+02  0.51074384034E+02  0.60737942736E+02  0.00000000000E+00 0.  1.
<mgrwt>
<rscale>  0 0.90912798E+02</rscale>
<asrwt>0</asrwt>
<pdfrwt beam="1">  1        2 0.55617083E-01 0.90912798E+02</pdfrwt>
<pdfrwt beam="2">  1       -2 0.87933657E-03 0.90912798E+02</pdfrwt>
<totfact> 0.19394619E+05</totfact>
</mgrwt>
</event>
<event>
 5    1  0.4067226E+001  0.9324879E+02  0.7546771E-02  0.1295170E+00
          2   -1    0    0  501    0  0.00000000000E+00  0.00000000000E+00  0.12921152812E+03  0.12921152812E+03  0.00000000000E+00 0. -1.
         -2   -1    0    0    0  501 -0.00000000000E+00 -0.00000000000E+00 -0.16823840064E+02  0.16823840064E+02  0.00000000000E+00 0.  1.
         23    2    1    2    0    0  0.00000000000E+00  0.00000000000E+00  0.11238768805E+03  0.14603536818E+03  0.93248787305E+02 0.  0.
          2    1    3    3  502    0  0.16918195254E+02 -0.26357894815E+02  0.21045341954E+01  0.31390970261E+02  0.00000000000E+00 0.  1.
         -2    1    3    3    0  502 -0.16918195254E+02  0.26357894815E+02  0.11028315386E+03  0.11464439792E+03  0.00000000000E+00 0. -1.
<mgrwt>
<rscale>  0 0.93248787E+02</rscale>
<asrwt>0</asrwt>
<pdfrwt beam="1">  1        2 0.19878696E-01 0.93248787E+02</pdfrwt>
<pdfrwt beam="2">  1       -2 0.25882832E-02 0.93248787E+02</pdfrwt>
<totfact> 0.12509081E+05</totfact>
</mgrwt>
</event>
<event>
 5    1  0.4067226E+001  0.8936994E+02  0.7546771E-02  0.1304385E+00
          2   -1    0    0  501    0  0.00000000000E+00  0.00000000000E+00  0.11017672879E+04  0.11017672879E+04  0.00000000000E+00 0.  1.
         -2   -1    0    0    0  501 -0.00000000000E+00 -0.00000000000E+00 -0.18123125851E+01  0.18123125851E+01  0.00000000000E+00 0. -1.
         23    2    1    2    0    0  0.00000000000E+00  0.00000000000E+00  0.10999549753E+04  0.11035796004E+04  0.89369943977E+02 0.  0.
          2    1    3    3  502    0 -0.22623170579E+02  0.24255467600E+01  0.75075018069E+02  0.78447112517E+02  0.00000000000E+00 0. -1.
         -2    1    3    3    0  502  0.22623170579E+02 -0.24255467600E+01  0.10248799572E+04  0.10251324879E+04  0.00000000000E+00 0.  1.
<mgrwt>
<rscale>  0 0.89369944E+02</rscale>
<asrwt>0</asrwt>
<pdfrwt beam="1">  1        2 0.16950212E+00 0.89369944E+02</pdfrwt>
<pdfrwt beam="2">  1       -2 0.27881820E-03 0.89369944E+02</pdfrwt>
<totfact> 0.26370119E+05</totfact>
</mgrwt>
</event>
<event>
 5    1  0.4067226E+001  0.9025852E+02  0.7546771E-02  0.1302227E+00
         -2   -1    0    0    0  501 -0.00000000000E+00  0.00000000000E+00  0.48937901934E+02  0.48937901934E+02  0.00000000000E+00 0. -1.
          2   -1    0    0  501    0  0.00000000000E+00 -0.00000000000E+00 -0.41617026496E+02  0.41617026496E+02  0.00000000000E+00 0.  1.
         23    2    1    2    0    0  0.00000000000E+00  0.00000000000E+00  0.73208754377E+01  0.90554928431E+02  0.90258516750E+02 0.  0.
          2    1    3    3  502    0  0.18491485326E+02  0.23540009258E+02  0.37543864554E+02  0.48016755732E+02  0.00000000000E+00 0. -1.
         -2    1    3    3    0  502 -0.18491485326E+02 -0.23540009258E+02 -0.30222989116E+02  0.42538172698E+02  0.00000000000E+00 0.  1.
<mgrwt>
<rscale>  0 0.90258517E+02</rscale>
<asrwt>0</asrwt>
<pdfrwt beam="2">  1        2 0.64026194E-02 0.90258517E+02</pdfrwt>
<pdfrwt beam="1">  1       -2 0.75289081E-02 0.90258517E+02</pdfrwt>
<totfact> 0.99225955E+04</totfact>
</mgrwt>
</event>
<event>
 5    1  0.4067226E+001  0.8584348E+02  0.7546771E-02  0.1313241E+00
         -4   -1    0    0    0  501 -0.00000000000E+00  0.00000000000E+00  0.88630870071E+03  0.88630870071E+03  0.00000000000E+00 0.  1.
          4   -1    0    0  501    0  0.00000000000E+00 -0.00000000000E+00 -0.20785937978E+01  0.20785937978E+01  0.00000000000E+00 0. -1.
         23    2    1    2    0    0  0.00000000000E+00  0.00000000000E+00  0.88423010691E+03  0.88838729450E+03  0.85843480084E+02 0.  0.
          2    1    3    3  502    0 -0.13489292953E+02 -0.38620605809E+02  0.57655686333E+03  0.57800633982E+03  0.00000000000E+00 0. -1.
         -2    1    3    3    0  502  0.13489292953E+02  0.38620605809E+02  0.30767324358E+03  0.31038095468E+03  0.00000000000E+00 0.  1.
<mgrwt>
<rscale>  0 0.85843480E+02</rscale>
<asrwt>0</asrwt>
<pdfrwt beam="2">  1        4 0.31978437E-03 0.85843480E+02</pdfrwt>
<pdfrwt beam="1">  1       -4 0.13635488E+00 0.85843480E+02</pdfrwt>
<totfact> 0.94222038E+03</totfact>
</mgrwt>
</event>
<event>
 5    1  0.4067226E+001  0.9758115E+02  0.7546771E-02  0.1285466E+00
         -2   -1    0    0    0  501 -0.00000000000E+00  0.00000000000E+00  0.77401694100E+02  0.77401694100E+02  0.00000000000E+00 0.  1.
          2   -1    0    0  501    0  0.00000000000E+00 -0.00000000000E+00 -0.30755404164E+02  0.30755404164E+02  0.00000000000E+00 0. -1.
         23    2    1    2    0    0  0.00000000000E+00  0.00000000000E+00  0.46646289936E+02  0.10815709826E+03  0.97581153611E+02 0.  0.
          2    1    3    3  502    0  0.25463968215E+02 -0.14057541766E+02  0.66741306046E+02  0.72804052706E+02  0.00000000000E+00 0.  1.
         -2    1    3    3    0  502 -0.25463968215E+02  0.14057541766E+02 -0.20095016110E+02  0.35353045558E+02  0.00000000000E+00 0. -1.
<mgrwt>
<rscale>  0 0.97581154E+02</rscale>
<asrwt>0</asrwt>
<pdfrwt beam="2">  1        2 0.47316007E-02 0.97581154E+02</pdfrwt>
<pdfrwt beam="1">  1       -2 0.11907953E-01 0.97581154E+02</pdfrwt>
<totfact> 0.72701559E+04</totfact>
</mgrwt>
</event>
<event>
 5    1  0.4067226E+001  0.8819498E+02  0.7546771E-02  0.1307283E+00
         -1   -1    0    0    0  501 -0.00000000000E+00  0.00000000000E+00  0.52887340997E+02  0.52887340997E+02  0.00000000000E+00 0.  1.
          1   -1    0    0  501    0  0.00000000000E+00 -0.00000000000E+00 -0.36768506242E+02  0.36768506242E+02  0.00000000000E+00 0. -1.
         23    2    1    2    0    0  0.00000000000E+00  0.00000000000E+00  0.16118834754E+02  0.89655847239E+02  0.88194977806E+02 0.  0.
          2    1    3    3  502    0 -0.17595833436E+02  0.14336492719E+02  0.46493609064E+02  0.51737839746E+02  0.00000000000E+00 0.  1.
         -2    1    3    3    0  502  0.17595833436E+02 -0.14336492719E+02 -0.30374774310E+02  0.37918007492E+02  0.00000000000E+00 0. -1.
<mgrwt>
<rscale>  0 0.88194978E+02</rscale>
<asrwt>0</asrwt>
<pdfrwt beam="2">  1        1 0.56566932E-02 0.88194978E+02</pdfrwt>
<pdfrwt beam="1">  1       -1 0.81365141E-02 0.88194978E+02</pdfrwt>
<totfact> 0.98323298E+04</totfact>
</mgrwt>
</event>
<event>
 5    1  0.4067226E+001  0.8728034E+02  0.7546771E-02  0.1309575E+00
         -3   -1    0    0    0  501 -0.00000000000E+00  0.00000000000E+00  0.72979432622E+01  0.72979432622E+01  0.00000000000E+00 0.  1.
          3   -1    0    0  501    0  0.00000000000E+00 -0.00000000000E+00 -0.26095906864E+03  0.26095906864E+03  0.00000000000E+00 0. -1.
         23    2    1    2    0    0  0.00000000000E+00  0.00000000000E+00 -0.25366112537E+03  0.26825701190E+03  0.87280340894E+02 0.  0.
          2    1    3    3  502    0  0.35942526819E+02 -0.16759468044E+02 -0.18280891775E+03  0.18706107402E+03  0.00000000000E+00 0. -1.
         -2    1    3    3    0  502 -0.35942526819E+02  0.16759468044E+02 -0.70852207622E+02  0.81195937880E+02  0.00000000000E+00 0.  1.
<mgrwt>
<rscale>  0 0.87280341E+02</rscale>
<asrwt>0</asrwt>
<pdfrwt beam="2">  1        3 0.40147551E-01 0.87280341E+02</pdfrwt>
<pdfrwt beam="1">  1       -3 0.11227605E-02 0.87280341E+02</pdfrwt>
<totfact> 0.28453870E+04</totfact>
</mgrwt>
</event>
<event>
 5    1  0.4067226E+001  0.8708358E+02  0.7546771E-02  0.1310072E+00
          2   -1    0    0  501    0  0.00000000000E+00  0.00000000000E+00  0.47110991931E+02  0.47110991931E+02  0.00000000000E+00 0.  1.
         -2   -1    0    0    0  501 -0.00000000000E+00 -0.00000000000E+00 -0.40242992410E+02  0.40242992410E+02  0.00000000000E+00 0. -1.
         23    2    1    2    0    0  0.00000000000E+00  0.00000000000E+00  0.68679995211E+01  0.87353984341E+02  0.87083575735E+02 0.  0.
          2    1    3    3  502    0 -0.36484047802E+02 -0.21455545169E+02 -0.68183596196E+01  0.42870924767E+02  0.00000000000E+00 0. -1.
         -2    1    3    3    0  502  0.36484047802E+02  0.21455545169E+02  0.13686359141E+02  0.44483059574E+02  0.00000000000E+00 0.  1.
<mgrwt>
<rscale>  0 0.87083576E+02</rscale>
<asrwt>0</asrwt>
<pdfrwt beam="1">  1        2 0.72478449E-02 0.87083576E+02</pdfrwt>
<pdfrwt beam="2">  1       -2 0.61912296E-02 0.87083576E+02</pdfrwt>
<totfact> 0.11342943E+05</totfact>
</mgrwt>
</event>
<event>
 5    1  0.4067226E+001  0.8749331E+02  0.7546771E-02  0.1309038E+00
         -2   -1    0    0    0  501 -0.00000000000E+00  0.00000000000E+00  0.47978927906E+01  0.47978927906E+01  0.00000000000E+00 0.  1.
          2   -1    0    0  501    0  0.00000000000E+00 -0.00000000000E+00 -0.39887718795E+03  0.39887718795E+03  0.00000000000E+00 0. -1.
         23    2    1    2    0    0  0.00000000000E+00  0.00000000000E+00 -0.39407929516E+03  0.40367508074E+03  0.87493313674E+02 0.  0.
          2    1    3    3  502    0  0.30439978547E+02 -0.23242145116E+02 -0.99495480126E+02  0.10661210142E+03  0.00000000000E+00 0. -1.
         -2    1    3    3    0  502 -0.30439978547E+02  0.23242145116E+02 -0.29458381503E+03  0.29706297932E+03  0.00000000000E+00 0.  1.
<mgrwt>
<rscale>  0 0.87493314E+02</rscale>
<asrwt>0</asrwt>
<pdfrwt beam="2">  1        2 0.61365727E-01 0.87493314E+02</pdfrwt>
<pdfrwt beam="1">  1       -2 0.73813728E-03 0.87493314E+02</pdfrwt>
<totfact> 0.22243487E+05</totfact>
</mgrwt>
</event>
<event>
 5    1  0.4067226E+001  0.9327150E+02  0.7546771E-02  0.1295117E+00
         -2   -1    0    0    0  501 -0.00000000000E+00  0.00000000000E+00  0.34366688022E+01  0.34366688022E+01  0.00000000000E+00 0.  1.
          2   -1    0    0  501    0  0.00000000000E+00 -0.00000000000E+00 -0.63284926488E+03  0.63284926488E+03  0.00000000000E+00 0. -1.
         23    2    1    2    0    0  0.00000000000E+00  0.00000000000E+00 -0.62941259607E+03  0.63628593368E+03  0.93271503153E+02 0.  0.
          2    1    3    3  502    0  0.13076112666E+02  0.44495901564E+02 -0.34814274334E+03  0.35121822236E+03  0.00000000000E+00 0. -1.
         -2    1    3    3    0  502 -0.13076112666E+02 -0.44495901564E+02 -0.28126985274E+03  0.28506771132E+03  0.00000000000E+00 0.  1.
<mgrwt>
<rscale>  0 0.93271503E+02</rscale>
<asrwt>0</asrwt>
<pdfrwt beam="2">  1        2 0.97361421E-01 0.93271503E+02</pdfrwt>
<pdfrwt beam="1">  1       -2 0.52871830E-03 0.93271503E+02</pdfrwt>
<totfact> 0.21774519E+05</totfact>
</mgrwt>
</event>
<event>
 5    1  0.4067226E+001  0.8978563E+02  0.7546771E-02  0.1303372E+00
          2   -1    0    0  501    0  0.00000000000E+00  0.00000000000E+00  0.15821084719E+02  0.15821084719E+02  0.00000000000E+00 0.  1.
         -2   -1    0    0    0  501 -0.00000000000E+00 -0.00000000000E+00 -0.12738473394E+03  0.12738473394E+03  0.00000000000E+00 0. -1.
         23    2    1    2    0    0  0.00000000000E+00  0.00000000000E+00 -0.11156364922E+03  0.14320581866E+03  0.89785626190E+02 0.  0.
          2    1    3    3  502    0 -0.48866069244E+00  0.44182040083E+02 -0.68448899083E+02  0.81471119060E+02  0.00000000000E+00 0. -1.
         -2    1    3    3    0  502  0.48866069244E+00 -0.44182040083E+02 -0.43114750138E+02  0.61734699599E+02  0.00000000000E+00 0.  1.
<mgrwt>
<rscale>  0 0.89785626E+02</rscale>
<asrwt>0</asrwt>
<pdfrwt beam="1">  1        2 0.24340130E-02 0.89785626E+02</pdfrwt>
<pdfrwt beam="2">  1       -2 0.19597652E-01 0.89785626E+02</pdfrwt>
<totfact> 0.76864923E+04</totfact>
</mgrwt>
</event>
<event>
 5    1  0.4067226E+001  0.9115523E+02  0.7546771E-02  0.1300078E+00
          2   -1    0    0  501    0  0.00000000000E+00  0.00000000000E+00  0.16601118861E+03  0.16601118861E+03  0.00000000000E+00 0. -1.
         -2   -1    0    0    0  501 -0.00000000000E+00 -0.00000000000E+00 -0.12513126869E+02  0.12513126869E+02  0.00000000000E+00 0.  1.
         23    2    1    2    0    0  0.00000000000E+00  0.00000000000E+00  0.15349806174E+03  0.17852431548E+03  0.91155231658E+02 0.  0.
          2    1    3    3  502    0 -0.19131055190E+02 -0.36936591374E+02  0.40266347113E+02  0.57893762746E+02  0.00000000000E+00 0. -1.
         -2    1    3    3    0  502  0.19131055190E+02  0.36936591374E+02  0.11323171463E+03  0.12063055273E+03  0.00000000000E+00 0.  1.
<mgrwt>
<rscale>  0 0.91155232E+02</rscale>
<asrwt>0</asrwt>
<pdfrwt beam="1">  1        2 0.25540181E-01 0.91155232E+02</pdfrwt>
<pdfrwt beam="2">  1       -2 0.19250966E-02 0.91155232E+02</pdfrwt>
<totfact> 0.14486760E+05</totfact>
</mgrwt>
</event>
<event>
 5    1  0.4067226E+001  0.9058439E+02  0.7546771E-02  0.1301443E+00
         -2   -1    0    0    0  501 -0.00000000000E+00  0.00000000000E+00  0.16388092758E+02  0.16388092758E+02  0.00000000000E+00 0.  1.
          2   -1    0    0  501    0  0.00000000000E+00 -0.00000000000E+00 -0.12517521492E+03  0.12517521492E+03  0.00000000000E+00 0. -1.
         23    2    1    2    0    0  0.00000000000E+00  0.00000000000E+00 -0.10878712216E+03  0.14156330768E+03  0.90584392322E+02 0.  0.
          2    1    3    3  502    0 -0.35672669287E+02  0.27759419945E+02 -0.58884557849E+02  0.74232849082E+02  0.00000000000E+00 0. -1.
         -2    1    3    3    0  502  0.35672669287E+02 -0.27759419945E+02 -0.49902564313E+02  0.67330458596E+02  0.00000000000E+00 0.  1.
<mgrwt>
<rscale>  0 0.90584392E+02</rscale>
<asrwt>0</asrwt>
<pdfrwt beam="2">  1        2 0.19257725E-01 0.90584392E+02</pdfrwt>
<pdfrwt beam="1">  1       -2 0.25212451E-02 0.90584392E+02</pdfrwt>
<totfact> 0.13400688E+05</totfact>
</mgrwt>
</event>
<event>
 5    1  0.4067226E+001  0.9077141E+02  0.7546771E-02  0.1300994E+00
          4   -1    0    0  501    0  0.00000000000E+00  0.00000000000E+00  0.34888288976E+03  0.34888288976E+03  0.00000000000E+00 0. -1.
         -4   -1    0    0    0  501 -0.00000000000E+00 -0.00000000000E+00 -0.59041654860E+01  0.59041654860E+01  0.00000000000E+00 0.  1.
         23    2    1    2    0    0  0.00000000000E+00  0.00000000000E+00  0.34297872428E+03  0.35478705525E+03  0.90771412160E+02 0.  0.
          2    1    3    3  502    0  0.33115163191E+02 -0.10653562265E+02  0.57552505564E+02  0.67248816486E+02  0.00000000000E+00 0.  1.
         -2    1    3    3    0  502 -0.33115163191E+02  0.10653562265E+02  0.28542621871E+03  0.28753823876E+03  0.00000000000E+00 0. -1.
<mgrwt>
<rscale>  0 0.90771412E+02</rscale>
<asrwt>0</asrwt>
<pdfrwt beam="1">  1        4 0.53674275E-01 0.90771412E+02</pdfrwt>
<pdfrwt beam="2">  1       -4 0.90833342E-03 0.90771412E+02</pdfrwt>
<totfact> 0.16463245E+04</totfact>
</mgrwt>
</event>
<event>
 5    1  0.4067226E+001  0.9301790E+02  0.7546771E-02  0.1295704E+00
         -1   -1    0    0    0  501 -0.00000000000E+00  0.00000000000E+00  0.20195733961E+01  0.20195733961E+01  0.00000000000E+00 0.  1.
          1   -1    0    0  501    0  0.00000000000E+00 -0.00000000000E+00 -0.10710589882E+04  0.10710589882E+04  0.00000000000E+00 0. -1.
         23    2    1    2    0    0  0.00000000000E+00  0.00000000000E+00 -0.10690394148E+04  0.10730785616E+04  0.93017895874E+02 0.  0.
          2    1    3    3  502    0  0.43193212446E+02 -0.35212171854E+01 -0.72928431463E+03  0.73057077969E+03  0.00000000000E+00 0. -1.
         -2    1    3    3    0  502 -0.43193212446E+02  0.35212171854E+01 -0.33975510018E+03  0.34250778191E+03  0.00000000000E+00 0.  1.
<mgrwt>
<rscale>  0 0.93017896E+02</rscale>
<asrwt>0</asrwt>
<pdfrwt beam="2">  1        1 0.16477825E+00 0.93017896E+02</pdfrwt>
<pdfrwt beam="1">  1       -1 0.31070371E-03 0.93017896E+02</pdfrwt>
<totfact> 0.12637584E+05</totfact>
</mgrwt>
</event>
<event>
 5    1  0.4067226E+001  0.9245461E+02  0.7546771E-02  0.1297014E+00
         -2   -1    0    0    0  501 -0.00000000000E+00  0.00000000000E+00  0.11415965583E+02  0.11415965583E+02  0.00000000000E+00 0.  1.
          2   -1    0    0  501    0  0.00000000000E+00 -0.00000000000E+00 -0.18719079403E+03  0.18719079403E+03  0.00000000000E+00 0. -1.
         23    2    1    2    0    0  0.00000000000E+00  0.00000000000E+00 -0.17577482844E+03  0.19860675961E+03  0.92454608582E+02 0.  0.
          2    1    3    3  502    0  0.23975855939E+02 -0.35528490996E+02 -0.50689698382E+02  0.66381931748E+02  0.00000000000E+00 0. -1.
         -2    1    3    3    0  502 -0.23975855939E+02  0.35528490996E+02 -0.12508513006E+03  0.13222482786E+03  0.00000000000E+00 0.  1.
<mgrwt>
<rscale>  0 0.92454609E+02</rscale>
<asrwt>0</asrwt>
<pdfrwt beam="2">  1        2 0.28798579E-01 0.92454609E+02</pdfrwt>
<pdfrwt beam="1">  1       -2 0.17563027E-02 0.92454609E+02</pdfrwt>
<totfact> 0.14546768E+05</totfact>
</mgrwt>
</event>
<event>
 5    1  0.4067226E+001  0.9084829E+02  0.7546771E-02  0.1300810E+00
          1   -1    0    0  501    0  0.00000000000E+00  0.00000000000E+00  0.35845154643E+01  0.35845154643E+01  0.00000000000E+00 0. -1.
         -1   -1    0    0    0  501 -0.00000000000E+00 -0.00000000000E+00 -0.57562953481E+03  0.57562953481E+03  0.00000000000E+00 0.  1.
         23    2    1    2    0    0  0.00000000000E+00  0.00000000000E+00 -0.57204501935E+03  0.57921405028E+03  0.90848290446E+02 0.  0.
          2    1    3    3  502    0  0.25194366960E+02  0.12967912187E+01 -0.45186508687E+02  0.51751892345E+02  0.00000000000E+00 0. -1.
         -2    1    3    3    0  502 -0.25194366960E+02 -0.12967912187E+01 -0.52685851066E+03  0.52746215793E+03  0.00000000000E+00 0.  1.
<mgrwt>
<rscale>  0 0.90848290E+02</rscale>
<asrwt>0</asrwt>
<pdfrwt beam="1">  1        1 0.55146346E-03 0.90848290E+02</pdfrwt>
<pdfrwt beam="2">  1       -1 0.88558463E-01 0.90848290E+02</pdfrwt>
<totfact> 0.43280106E+04</totfact>
</mgrwt>
</event>
<event>
 5    1  0.4067226E+001  0.9176782E+02  0.7546771E-02  0.1298626E+00
         -2   -1    0    0    0  501 -0.00000000000E+00  0.00000000000E+00  0.86210487227E+01  0.86210487227E+01  0.00000000000E+00 0.  1.
          2   -1    0    0  501    0  0.00000000000E+00 -0.00000000000E+00 -0.24420848358E+03  0.24420848358E+03  0.00000000000E+00 0. -1.
         23    2    1    2    0    0  0.00000000000E+00  0.00000000000E+00 -0.23558743485E+03  0.25282953230E+03  0.91767820839E+02 0.  0.
          2    1    3    3  502    0 -0.19752956778E+02 -0.10796672562E+02 -0.22794900719E+03  0.22905784710E+03  0.00000000000E+00 0. -1.
         -2    1    3    3    0  502  0.19752956778E+02  0.10796672562E+02 -0.76384276613E+01  0.23771685195E+02  0.00000000000E+00 0.  1.
<mgrwt>
<rscale>  0 0.91767821E+02</rscale>
<asrwt>0</asrwt>
<pdfrwt beam="2">  1        2 0.37570531E-01 0.91767821E+02</pdfrwt>
<pdfrwt beam="1">  1       -2 0.13263154E-02 0.91767821E+02</pdfrwt>
<totfact> 0.16355266E+05</totfact>
</mgrwt>
</event>
<event>
 5    1  0.4067226E+001  0.9163453E+02  0.7546771E-02  0.1298941E+00
          3   -1    0    0  501    0  0.00000000000E+00  0.00000000000E+00  0.12852443059E+02  0.12852443059E+02  0.00000000000E+00 0. -1.
         -3   -1    0    0    0  501 -0.00000000000E+00 -0.00000000000E+00 -0.16333250776E+03  0.16333250776E+03  0.00000000000E+00 0.  1.
         23    2    1    2    0    0  0.00000000000E+00  0.00000000000E+00 -0.15048006470E+03  0.17618495082E+03  0.91634529643E+02 0.  0.
          2    1    3    3  502    0 -0.51984700006E+01  0.32335010332E+02 -0.13634494355E+02  0.35475011203E+02  0.00000000000E+00 0. -1.
         -2    1    3    3    0  502  0.51984700006E+01 -0.32335010332E+02 -0.13684557035E+03  0.14070993962E+03  0.00000000000E+00 0.  1.
<mgrwt>
<rscale>  0 0.91634530E+02</rscale>
<asrwt>0</asrwt>
<pdfrwt beam="1">  1        3 0.19772989E-02 0.91634530E+02</pdfrwt>
<pdfrwt beam="2">  1       -3 0.25128078E-01 0.91634530E+02</pdfrwt>
<totfact> 0.29376776E+04</totfact>
</mgrwt>
</event>
<event>
 5    1  0.4067226E+001  0.9144858E+02  0.7546771E-02  0.1299381E+00
         -3   -1    0    0    0  501 -0.00000000000E+00  0.00000000000E+00  0.37988883870E+02  0.37988883870E+02  0.00000000000E+00 0.  1.
          3   -1    0    0  501    0  0.00000000000E+00 -0.00000000000E+00 -0.55034802829E+02  0.55034802829E+02  0.00000000000E+00 0. -1.
         23    2    1    2    0    0  0.00000000000E+00  0.00000000000E+00 -0.17045918960E+02  0.93023686699E+02  0.91448580820E+02 0.  0.
          2    1    3    3  502    0 -0.34741391247E+02 -0.27336250115E+02  0.33605456112E+01  0.44334276840E+02  0.00000000000E+00 0. -1.
         -2    1    3    3    0  502  0.34741391247E+02  0.27336250115E+02 -0.20406464571E+02  0.48689409859E+02  0.00000000000E+00 0.  1.
<mgrwt>
<rscale>  0 0.91448581E+02</rscale>
<asrwt>0</asrwt>
<pdfrwt beam="2">  1        3 0.84668927E-02 0.91448581E+02</pdfrwt>
<pdfrwt beam="1">  1       -3 0.58444437E-02 0.91448581E+02</pdfrwt>
<totfact> 0.34912567E+04</totfact>
</mgrwt>
</event>
<event>
 5    1  0.4067226E+001  0.9212558E+02  0.7546771E-02  0.1297784E+00
         -2   -1    0    0    0  501 -0.00000000000E+00  0.00000000000E+00  0.26446338212E+01  0.26446338212E+01  0.00000000000E+00 0.  1.
          2   -1    0    0  501    0  0.00000000000E+00 -0.00000000000E+00 -0.80229651956E+03  0.80229651956E+03  0.00000000000E+00 0. -1.
         23    2    1    2    0    0  0.00000000000E+00  0.00000000000E+00 -0.79965188574E+03  0.80494115338E+03  0.92125577561E+02 0.  0.
          2    1    3    3  502    0  0.32818090954E+02 -0.13852889979E+02 -0.65499056049E+03  0.65595850783E+03  0.00000000000E+00 0. -1.
         -2    1    3    3    0  502 -0.32818090954E+02  0.13852889979E+02 -0.14466132524E+03  0.14898264555E+03  0.00000000000E+00 0.  1.
<mgrwt>
<rscale>  0 0.92125578E+02</rscale>
<asrwt>0</asrwt>
<pdfrwt beam="2">  1        2 0.12343048E+00 0.92125578E+02</pdfrwt>
<pdfrwt beam="1">  1       -2 0.40686594E-03 0.92125578E+02</pdfrwt>
<totfact> 0.23729495E+05</totfact>
</mgrwt>
</event>
<event>
 5    1  0.4067226E+001  0.9228443E+02  0.7546771E-02  0.1297412E+00
          2   -1    0    0  501    0  0.00000000000E+00  0.00000000000E+00  0.13607506203E+04  0.13607506203E+04  0.00000000000E+00 0.  1.
         -2   -1    0    0    0  501 -0.00000000000E+00 -0.00000000000E+00 -0.15646540867E+01  0.15646540867E+01  0.00000000000E+00 0. -1.
         23    2    1    2    0    0  0.00000000000E+00  0.00000000000E+00  0.13591859662E+04  0.13623152744E+04  0.92284430301E+02 0.  0.
          2    1    3    3  502    0 -0.36679701718E+02  0.24948785967E+02  0.86705558701E+03  0.86818962986E+03  0.00000000000E+00 0. -1.
         -2    1    3    3    0  502  0.36679701718E+02 -0.24948785967E+02  0.49213037920E+03  0.49412564452E+03  0.00000000000E+00 0.  1.
<mgrwt>
<rscale>  0 0.92284430E+02</rscale>
<asrwt>0</asrwt>
<pdfrwt beam="1">  1        2 0.20934530E+00 0.92284430E+02</pdfrwt>
<pdfrwt beam="2">  1       -2 0.24071710E-03 0.92284430E+02</pdfrwt>
<totfact> 0.23561350E+05</totfact>
</mgrwt>
</event>
<event>
 5    1  0.4067226E+001  0.9149183E+02  0.7546771E-02  0.1299279E+00
         -1   -1    0    0    0  501 -0.00000000000E+00  0.00000000000E+00  0.31941651074E+03  0.31941651074E+03  0.00000000000E+00 0.  1.
          1   -1    0    0  501    0  0.00000000000E+00 -0.00000000000E+00 -0.65515991422E+01  0.65515991422E+01  0.00000000000E+00 0. -1.
         23    2    1    2    0    0  0.00000000000E+00  0.00000000000E+00  0.31286491160E+03  0.32596810989E+03  0.91491834341E+02 0.  0.
          2    1    3    3  502    0 -0.34559493160E+02  0.30268505324E+01  0.50193247666E+02  0.61015428400E+02  0.00000000000E+00 0. -1.
         -2    1    3    3    0  502  0.34559493160E+02 -0.30268505324E+01  0.26267166394E+03  0.26495268149E+03  0.00000000000E+00 0.  1.
<mgrwt>
<rscale>  0 0.91491834E+02</rscale>
<asrwt>0</asrwt>
<pdfrwt beam="2">  1        1 0.10079386E-02 0.91491834E+02</pdfrwt>
<pdfrwt beam="1">  1       -1 0.49140989E-01 0.91491834E+02</pdfrwt>
<totfact> 0.58539274E+04</totfact>
</mgrwt>
</event>
<event>
 5    1  0.4067226E+001  0.9136526E+02  0.7546771E-02  0.1299579E+00
          4   -1    0    0  501    0  0.00000000000E+00  0.00000000000E+00  0.36231435059E+02  0.36231435059E+02  0.00000000000E+00 0.  1.
         -4   -1    0    0    0  501 -0.00000000000E+00 -0.00000000000E+00 -0.57599225943E+02  0.57599225943E+02  0.00000000000E+00 0. -1.
         23    2    1    2    0    0  0.00000000000E+00  0.00000000000E+00 -0.21367790884E+02  0.93830661002E+02  0.91365258478E+02 0.  0.
          2    1    3    3  502    0 -0.33212482225E+02 -0.12431343352E+02  0.18890665191E+02  0.40180399505E+02  0.00000000000E+00 0.  1.
         -2    1    3    3    0  502  0.33212482225E+02  0.12431343352E+02 -0.40258456075E+02  0.53650261496E+02  0.00000000000E+00 0. -1.
<mgrwt>
<rscale>  0 0.91365258E+02</rscale>
<asrwt>0</asrwt>
<pdfrwt beam="1">  1        4 0.55740670E-02 0.91365258E+02</pdfrwt>
<pdfrwt beam="2">  1       -4 0.88614193E-02 0.91365258E+02</pdfrwt>
<totfact> 0.26696208E+04</totfact>
</mgrwt>
</event>
<event>
 5    1  0.4067226E+001  0.6634122E+02  0.7546771E-02  0.1372996E+00
         -1   -1    0    0    0  501 -0.00000000000E+00  0.00000000000E+00  0.33670947173E+01  0.33670947173E+01  0.00000000000E+00 0.  1.
          1   -1    0    0  501    0  0.00000000000E+00 -0.00000000000E+00 -0.32677709073E+03  0.32677709073E+03  0.00000000000E+00 0. -1.
         23    2    1    2    0    0  0.00000000000E+00  0.00000000000E+00 -0.32340999601E+03  0.33014418545E+03  0.66341221452E+02 0.  0.
          2    1    3    3  502    0  0.27706513842E+02  0.78360910911E+01 -0.79746800135E+02  0.84785655418E+02  0.00000000000E+00 0.  1.
         -2    1    3    3    0  502 -0.27706513842E+02 -0.78360910911E+01 -0.24366319588E+03  0.24535853003E+03  0.00000000000E+00 0. -1.
<mgrwt>
<rscale>  0 0.66341221E+02</rscale>
<asrwt>0</asrwt>
<pdfrwt beam="2">  1        1 0.50273402E-01 0.66341221E+02</pdfrwt>
<pdfrwt beam="1">  1       -1 0.51801454E-03 0.66341221E+02</pdfrwt>
<totfact> 0.29925663E+05</totfact>
</mgrwt>
</event>
<event>
 5    1  0.4067226E+001  0.9123240E+02  0.7546771E-02  0.1299894E+00
          1   -1    0    0  501    0  0.00000000000E+00  0.00000000000E+00  0.30319543465E+01  0.30319543465E+01  0.00000000000E+00 0. -1.
         -1   -1    0    0    0  501 -0.00000000000E+00 -0.00000000000E+00 -0.68630239175E+03  0.68630239175E+03  0.00000000000E+00 0.  1.
         23    2    1    2    0    0  0.00000000000E+00  0.00000000000E+00 -0.68327043740E+03  0.68933434609E+03  0.91232395993E+02 0.  0.
          2    1    3    3  502    0 -0.55503763841E+01  0.26791175307E+02 -0.61742358710E+03  0.61802949740E+03  0.00000000000E+00 0.  1.
         -2    1    3    3    0  502  0.55503763841E+01 -0.26791175307E+02 -0.65846850300E+02  0.71304848691E+02  0.00000000000E+00 0. -1.
<mgrwt>
<rscale>  0 0.91232396E+02</rscale>
<asrwt>0</asrwt>
<pdfrwt beam="1">  1        1 0.46645445E-03 0.91232396E+02</pdfrwt>
<pdfrwt beam="2">  1       -1 0.10558500E+00 0.91232396E+02</pdfrwt>
<totfact> 0.37404255E+04</totfact>
</mgrwt>
</event>
<event>
 5    1  0.4067226E+001  0.9130182E+02  0.7546771E-02  0.1299729E+00
          3   -1    0    0  501    0  0.00000000000E+00  0.00000000000E+00  0.89836485493E+01  0.89836485493E+01  0.00000000000E+00 0. -1.
         -3   -1    0    0    0  501 -0.00000000000E+00 -0.00000000000E+00 -0.23197764241E+03  0.23197764241E+03  0.00000000000E+00 0.  1.
         23    2    1    2    0    0  0.00000000000E+00  0.00000000000E+00 -0.22299399386E+03  0.24096129096E+03  0.91301820588E+02 0.  0.
          2    1    3    3  502    0  0.59499814086E+01 -0.23482392090E+02 -0.93783766894E+01  0.25976507971E+02  0.00000000000E+00 0. -1.
         -2    1    3    3    0  502 -0.59499814086E+01  0.23482392090E+02 -0.21361561717E+03  0.21498478299E+03  0.00000000000E+00 0.  1.
<mgrwt>
<rscale>  0 0.91301821E+02</rscale>
<asrwt>0</asrwt>
<pdfrwt beam="1">  1        3 0.13820996E-02 0.91301821E+02</pdfrwt>
<pdfrwt beam="2">  1       -3 0.35688873E-01 0.91301821E+02</pdfrwt>
<totfact> 0.26409173E+04</totfact>
</mgrwt>
</event>
<event>
 5    1  0.4067226E+001  0.8962566E+02  0.7546771E-02  0.1303761E+00
         -1   -1    0    0    0  501 -0.00000000000E+00  0.00000000000E+00  0.17027869319E+01  0.17027869319E+01  0.00000000000E+00 0.  1.
          1   -1    0    0  501    0  0.00000000000E+00 -0.00000000000E+00 -0.11793545958E+04  0.11793545958E+04  0.00000000000E+00 0. -1.
         23    2    1    2    0    0  0.00000000000E+00  0.00000000000E+00 -0.11776518089E+04  0.11810573827E+04  0.89625656903E+02 0.  0.
          2    1    3    3  502    0 -0.32914663912E+02  0.10820413275E+02 -0.96334382242E+03  0.96396668855E+03  0.00000000000E+00 0. -1.
         -2    1    3    3    0  502  0.32914663912E+02 -0.10820413275E+02 -0.21430798643E+03  0.21709069416E+03  0.00000000000E+00 0.  1.
<mgrwt>
<rscale>  0 0.89625657E+02</rscale>
<asrwt>0</asrwt>
<pdfrwt beam="2">  1        1 0.18143867E+00 0.89625657E+02</pdfrwt>
<pdfrwt beam="1">  1       -1 0.26196793E-03 0.89625657E+02</pdfrwt>
<totfact> 0.13427402E+05</totfact>
</mgrwt>
</event>
<event>
 5    1  0.4067226E+001  0.8995011E+02  0.7546771E-02  0.1302973E+00
         -1   -1    0    0    0  501 -0.00000000000E+00  0.00000000000E+00  0.16189064353E+01  0.16189064353E+01  0.00000000000E+00 0.  1.
          1   -1    0    0  501    0  0.00000000000E+00 -0.00000000000E+00 -0.12494580104E+04  0.12494580104E+04  0.00000000000E+00 0. -1.
         23    2    1    2    0    0  0.00000000000E+00  0.00000000000E+00 -0.12478391040E+04  0.12510769168E+04  0.89950110921E+02 0.  0.
          2    1    3    3  502    0 -0.33391824217E+02 -0.24856703179E+02 -0.86072730989E+03  0.86173335296E+03  0.00000000000E+00 0.  1.
         -2    1    3    3    0  502  0.33391824217E+02  0.24856703179E+02 -0.38711179408E+03  0.38934356388E+03  0.00000000000E+00 0. -1.
<mgrwt>
<rscale>  0 0.89950111E+02</rscale>
<asrwt>0</asrwt>
<pdfrwt beam="2">  1        1 0.19222438E+00 0.89950111E+02</pdfrwt>
<pdfrwt beam="1">  1       -1 0.24906244E-03 0.89950111E+02</pdfrwt>
<totfact> 0.12932122E+05</totfact>
</mgrwt>
</event>
<event>
 5    1  0.4067226E+001  0.9440018E+02  0.7546771E-02  0.1292533E+00
         -3   -1    0    0    0  501 -0.00000000000E+00  0.00000000000E+00  0.98023154675E+02  0.98023154675E+02  0.00000000000E+00 0.  1.
          3   -1    0    0  501    0  0.00000000000E+00 -0.00000000000E+00 -0.22727777740E+02  0.22727777740E+02  0.00000000000E+00 0. -1.
         23    2    1    2    0    0  0.00000000000E+00  0.00000000000E+00  0.75295376935E+02  0.12075093242E+03  0.94400179510E+02 0.  0.
          2    1    3    3  502    0 -0.24884328148E+01 -0.44309206355E+02  0.58207647644E+02  0.73195821670E+02  0.00000000000E+00 0. -1.
         -2    1    3    3    0  502  0.24884328148E+01  0.44309206355E+02  0.17087729291E+02  0.47555110746E+02  0.00000000000E+00 0.  1.
<mgrwt>
<rscale>  0 0.94400180E+02</rscale>
<asrwt>0</asrwt>
<pdfrwt beam="2">  1        3 0.34965812E-02 0.94400180E+02</pdfrwt>
<pdfrwt beam="1">  1       -3 0.15080485E-01 0.94400180E+02</pdfrwt>
<totfact> 0.30197747E+04</totfact>
</mgrwt>
</event>
<event>
 5    1  0.4067226E+001  0.8969783E+02  0.7546771E-02  0.1303585E+00
          2   -1    0    0  501    0  0.00000000000E+00  0.00000000000E+00  0.14954730826E+03  0.14954730826E+03  0.00000000000E+00 0.  1.
         -2   -1    0    0    0  501 -0.00000000000E+00 -0.00000000000E+00 -0.13450091320E+02  0.13450091320E+02  0.00000000000E+00 0. -1.
         23    2    1    2    0    0  0.00000000000E+00  0.00000000000E+00  0.13609721694E+03  0.16299739958E+03  0.89697825007E+02 0.  0.
          2    1    3    3  502    0  0.29683580996E+02  0.28072656679E+02  0.34431406943E+02  0.53429493895E+02  0.00000000000E+00 0. -1.
         -2    1    3    3    0  502 -0.29683580996E+02 -0.28072656679E+02  0.10166581000E+03  0.10956790569E+03  0.00000000000E+00 0.  1.
<mgrwt>
<rscale>  0 0.89697825E+02</rscale>
<asrwt>0</asrwt>
<pdfrwt beam="1">  1        2 0.23007277E-01 0.89697825E+02</pdfrwt>
<pdfrwt beam="2">  1       -2 0.20692449E-02 0.89697825E+02</pdfrwt>
<totfact> 0.14599461E+05</totfact>
</mgrwt>
</event>
<event>
 5    1  0.4067226E+001  0.9121855E+02  0.7546771E-02  0.1299927E+00
         -2   -1    0    0    0  501 -0.00000000000E+00  0.00000000000E+00  0.62674655565E+00  0.62674655565E+00  0.00000000000E+00 0.  1.
          2   -1    0    0  501    0  0.00000000000E+00 -0.00000000000E+00 -0.33190541908E+04  0.33190541908E+04  0.00000000000E+00 0. -1.
         23    2    1    2    0    0  0.00000000000E+00  0.00000000000E+00 -0.33184274443E+04  0.33196809374E+04  0.91218545968E+02 0.  0.
          2    1    3    3  502    0 -0.45337385542E+02  0.44138520973E+01 -0.17425612524E+04  0.17431565274E+04  0.00000000000E+00 0.  1.
         -2    1    3    3    0  502  0.45337385542E+02 -0.44138520973E+01 -0.15758661919E+04  0.15765244100E+04  0.00000000000E+00 0. -1.
<mgrwt>
<rscale>  0 0.91218546E+02</rscale>
<asrwt>0</asrwt>
<pdfrwt beam="2">  1        2 0.51063118E+00 0.91218546E+02</pdfrwt>
<pdfrwt beam="1">  1       -2 0.96421138E-04 0.91218546E+02</pdfrwt>
<totfact> 0.75890161E+04</totfact>
</mgrwt>
</event>
<event>
 5    1  0.4067226E+001  0.9089778E+02  0.7546771E-02  0.1300692E+00
         -2   -1    0    0    0  501 -0.00000000000E+00  0.00000000000E+00  0.13626446752E+03  0.13626446752E+03  0.00000000000E+00 0.  1.
          2   -1    0    0  501    0  0.00000000000E+00 -0.00000000000E+00 -0.15158770159E+02  0.15158770159E+02  0.00000000000E+00 0. -1.
         23    2    1    2    0    0  0.00000000000E+00  0.00000000000E+00  0.12110569736E+03  0.15142323768E+03  0.90897783119E+02 0.  0.
          2    1    3    3  502    0  0.20661454095E+02 -0.27757527969E+02  0.10963861267E+03  0.11496956742E+03  0.00000000000E+00 0. -1.
         -2    1    3    3    0  502 -0.20661454095E+02  0.27757527969E+02  0.11467084694E+02  0.36453670263E+02  0.00000000000E+00 0.  1.
<mgrwt>
<rscale>  0 0.90897783E+02</rscale>
<asrwt>0</asrwt>
<pdfrwt beam="2">  1        2 0.23321186E-02 0.90897783E+02</pdfrwt>
<pdfrwt beam="1">  1       -2 0.20963763E-01 0.90897783E+02</pdfrwt>
<totfact> 0.72838160E+04</totfact>
</mgrwt>
</event>
<event>
 5    1  0.4067226E+001  0.9056021E+02  0.7546771E-02  0.1301501E+00
          1   -1    0    0  501    0  0.00000000000E+00  0.00000000000E+00  0.10773808386E+04  0.10773808386E+04  0.00000000000E+00 0. -1.
         -1   -1    0    0    0  501 -0.00000000000E+00 -0.00000000000E+00 -0.19030299393E+01  0.19030299393E+01  0.00000000000E+00 0.  1.
         23    2    1    2    0    0  0.00000000000E+00  0.00000000000E+00  0.10754778086E+04  0.10792838685E+04  0.90560211832E+02 0.  0.
          2    1    3    3  502    0  0.39104913205E+02  0.81713839511E+01  0.79176612368E+03  0.79277333479E+03  0.00000000000E+00 0. -1.
         -2    1    3    3    0  502 -0.39104913205E+02 -0.81713839511E+01  0.28371168494E+03  0.28651053371E+03  0.00000000000E+00 0.  1.
<mgrwt>
<rscale>  0 0.90560212E+02</rscale>
<asrwt>0</asrwt>
<pdfrwt beam="1">  1        1 0.16575041E+00 0.90560212E+02</pdfrwt>
<pdfrwt beam="2">  1       -1 0.29277470E-03 0.90560212E+02</pdfrwt>
<totfact> 0.13538117E+05</totfact>
</mgrwt>
</event>
<event>
 5    1  0.4067226E+001  0.9379880E+02  0.7546771E-02  0.1293905E+00
          2   -1    0    0  501    0  0.00000000000E+00  0.00000000000E+00  0.78422584804E+03  0.78422584804E+03  0.00000000000E+00 0. -1.
         -2   -1    0    0    0  501 -0.00000000000E+00 -0.00000000000E+00 -0.28047449628E+01  0.28047449628E+01  0.00000000000E+00 0.  1.
         23    2    1    2    0    0  0.00000000000E+00  0.00000000000E+00  0.78142110307E+03  0.78703059300E+03  0.93798795238E+02 0.  0.
          2    1    3    3  502    0 -0.19909895969E+02  0.38964825444E+02  0.24908734659E+03  0.25290149823E+03  0.00000000000E+00 0. -1.
         -2    1    3    3    0  502  0.19909895969E+02 -0.38964825444E+02  0.53233375649E+03  0.53412909476E+03  0.00000000000E+00 0.  1.
<mgrwt>
<rscale>  0 0.93798795E+02</rscale>
<asrwt>0</asrwt>
<pdfrwt beam="1">  1        2 0.12064996E+00 0.93798795E+02</pdfrwt>
<pdfrwt beam="2">  1       -2 0.43149985E-03 0.93798795E+02</pdfrwt>
<totfact> 0.22535263E+05</totfact>
</mgrwt>
</event>
<event>
 5    1  0.4067226E+001  0.9400746E+02  0.7546771E-02  0.1293427E+00
         -3   -1    0    0    0  501 -0.00000000000E+00  0.00000000000E+00  0.43041666058E+02  0.43041666058E+02  0.00000000000E+00 0.  1.
          3   -1    0    0  501    0  0.00000000000E+00 -0.00000000000E+00 -0.51330507691E+02  0.51330507691E+02  0.00000000000E+00 0. -1.
         23    2    1    2    0    0  0.00000000000E+00  0.00000000000E+00 -0.82888416330E+01  0.94372173749E+02  0.94007458654E+02 0.  0.
          2    1    3    3  502    0 -0.54073399519E+01  0.23760259537E+02 -0.44494404972E+02  0.50730083111E+02  0.00000000000E+00 0. -1.
         -2    1    3    3    0  502  0.54073399519E+01 -0.23760259537E+02  0.36205563339E+02  0.43642090638E+02  0.00000000000E+00 0.  1.
<mgrwt>
<rscale>  0 0.94007459E+02</rscale>
<asrwt>0</asrwt>
<pdfrwt beam="2">  1        3 0.78970012E-02 0.94007459E+02</pdfrwt>
<pdfrwt beam="1">  1       -3 0.66217948E-02 0.94007459E+02</pdfrwt>
<totfact> 0.32281302E+04</totfact>
</mgrwt>
</event>
<event>
 5    1  0.4067226E+001  0.9619961E+02  0.7546771E-02  0.1288497E+00
         -3   -1    0    0    0  501 -0.00000000000E+00  0.00000000000E+00  0.18044594987E+01  0.18044594987E+01  0.00000000000E+00 0.  1.
          3   -1    0    0  501    0  0.00000000000E+00 -0.00000000000E+00 -0.12821518787E+04  0.12821518787E+04  0.00000000000E+00 0. -1.
         23    2    1    2    0    0  0.00000000000E+00  0.00000000000E+00 -0.12803474192E+04  0.12839563382E+04  0.96199607825E+02 0.  0.
          2    1    3    3  502    0  0.37302354061E+02 -0.46685547547E+01 -0.10406509525E+04  0.10413297585E+04  0.00000000000E+00 0. -1.
         -2    1    3    3    0  502 -0.37302354061E+02  0.46685547547E+01 -0.23969646673E+03  0.24262657972E+03  0.00000000000E+00 0.  1.
<mgrwt>
<rscale>  0 0.96199608E+02</rscale>
<asrwt>0</asrwt>
<pdfrwt beam="2">  1        3 0.19725343E+00 0.96199608E+02</pdfrwt>
<pdfrwt beam="1">  1       -3 0.27761015E-03 0.96199608E+02</pdfrwt>
<totfact> 0.65394742E+03</totfact>
</mgrwt>
</event>
<event>
 5    1  0.4067226E+001  0.9015068E+02  0.7546771E-02  0.1302487E+00
         -4   -1    0    0    0  501 -0.00000000000E+00  0.00000000000E+00  0.59737179660E+01  0.59737179660E+01  0.00000000000E+00 0.  1.
          4   -1    0    0  501    0  0.00000000000E+00 -0.00000000000E+00 -0.34012088858E+03  0.34012088858E+03  0.00000000000E+00 0. -1.
         23    2    1    2    0    0  0.00000000000E+00  0.00000000000E+00 -0.33414717061E+03  0.34609460654E+03  0.90150679702E+02 0.  0.
          2    1    3    3  502    0 -0.25337584985E+02 -0.65946238405E+01 -0.30793673396E+03  0.30904775423E+03  0.00000000000E+00 0. -1.
         -2    1    3    3    0  502  0.25337584985E+02  0.65946238405E+01 -0.26210436653E+02  0.37046852309E+02  0.00000000000E+00 0.  1.
<mgrwt>
<rscale>  0 0.90150680E+02</rscale>
<asrwt>0</asrwt>
<pdfrwt beam="2">  1        4 0.52326285E-01 0.90150680E+02</pdfrwt>
<pdfrwt beam="1">  1       -4 0.91903363E-03 0.90150680E+02</pdfrwt>
<totfact> 0.17002556E+04</totfact>
</mgrwt>
</event>
<event>
 5    1  0.4067226E+001  0.9712385E+02  0.7546771E-02  0.1286463E+00
         -2   -1    0    0    0  501 -0.00000000000E+00  0.00000000000E+00  0.12487169883E+03  0.12487169883E+03  0.00000000000E+00 0. -1.
          2   -1    0    0  501    0  0.00000000000E+00 -0.00000000000E+00 -0.18885468221E+02  0.18885468221E+02  0.00000000000E+00 0.  1.
         23    2    1    2    0    0  0.00000000000E+00  0.00000000000E+00  0.10598623061E+03  0.14375716705E+03  0.97123848770E+02 0.  0.
          2    1    3    3  502    0  0.43397437286E+02  0.20928313329E+02  0.43998444615E+02  0.65247183773E+02  0.00000000000E+00 0. -1.
         -2    1    3    3    0  502 -0.43397437286E+02 -0.20928313329E+02  0.61987785995E+02  0.78509983279E+02  0.00000000000E+00 0.  1.
<mgrwt>
<rscale>  0 0.97123849E+02</rscale>
<asrwt>0</asrwt>
<pdfrwt beam="2">  1        2 0.29054567E-02 0.97123849E+02</pdfrwt>
<pdfrwt beam="1">  1       -2 0.19211030E-01 0.97123849E+02</pdfrwt>
<totfact> 0.63502911E+04</totfact>
</mgrwt>
</event>
<event>
 5    1  0.4067226E+001  0.9032548E+02  0.7546771E-02  0.1302065E+00
         -2   -1    0    0    0  501 -0.00000000000E+00  0.00000000000E+00  0.55075067253E+02  0.55075067253E+02  0.00000000000E+00 0.  1.
          2   -1    0    0  501    0  0.00000000000E+00 -0.00000000000E+00 -0.37034421137E+02  0.37034421137E+02  0.00000000000E+00 0. -1.
         23    2    1    2    0    0  0.00000000000E+00  0.00000000000E+00  0.18040646116E+02  0.92109488391E+02  0.90325483333E+02 0.  0.
          2    1    3    3  502    0 -0.33268072404E+02  0.24518106631E+02 -0.95540136233E+01  0.42416758134E+02  0.00000000000E+00 0. -1.
         -2    1    3    3    0  502  0.33268072404E+02 -0.24518106631E+02  0.27594659739E+02  0.49692730257E+02  0.00000000000E+00 0.  1.
<mgrwt>
<rscale>  0 0.90325483E+02</rscale>
<asrwt>0</asrwt>
<pdfrwt beam="2">  1        2 0.56976032E-02 0.90325483E+02</pdfrwt>
<pdfrwt beam="1">  1       -2 0.84730873E-02 0.90325483E+02</pdfrwt>
<totfact> 0.96089859E+04</totfact>
</mgrwt>
</event>
<event>
 5    1  0.4067226E+001  0.9343792E+02  0.7546771E-02  0.1294734E+00
          2   -1    0    0  501    0  0.00000000000E+00  0.00000000000E+00  0.27679421657E+02  0.27679421657E+02  0.00000000000E+00 0. -1.
         -2   -1    0    0    0  501 -0.00000000000E+00 -0.00000000000E+00 -0.78855010555E+02  0.78855010555E+02  0.00000000000E+00 0.  1.
         23    2    1    2    0    0  0.00000000000E+00  0.00000000000E+00 -0.51175588897E+02  0.10653443221E+03  0.93437917077E+02 0.  0.
          2    1    3    3  502    0 -0.22477573162E+02  0.92709820760E+01  0.19896964297E+02  0.31417854671E+02  0.00000000000E+00 0. -1.
         -2    1    3    3    0  502  0.22477573162E+02 -0.92709820760E+01 -0.71072553194E+02  0.75116577541E+02  0.00000000000E+00 0.  1.
<mgrwt>
<rscale>  0 0.93437917E+02</rscale>
<asrwt>0</asrwt>
<pdfrwt beam="1">  1        2 0.42583726E-02 0.93437917E+02</pdfrwt>
<pdfrwt beam="2">  1       -2 0.12131540E-01 0.93437917E+02</pdfrwt>
<totfact> 0.80430451E+04</totfact>
</mgrwt>
</event>
<event>
 5    1  0.4067226E+001  0.9582897E+02  0.7546771E-02  0.1289320E+00
         -1   -1    0    0    0  501 -0.00000000000E+00  0.00000000000E+00  0.46025061497E+01  0.46025061497E+01  0.00000000000E+00 0.  1.
          1   -1    0    0  501    0  0.00000000000E+00 -0.00000000000E+00 -0.49881469851E+03  0.49881469851E+03  0.00000000000E+00 0. -1.
         23    2    1    2    0    0  0.00000000000E+00  0.00000000000E+00 -0.49421219236E+03  0.50341720466E+03  0.95828966758E+02 0.  0.
          2    1    3    3  502    0 -0.37611742463E+02  0.15081201599E+02 -0.11279111820E+03  0.11984958138E+03  0.00000000000E+00 0.  1.
         -2    1    3    3    0  502  0.37611742463E+02 -0.15081201599E+02 -0.38142107416E+03  0.38356762328E+03  0.00000000000E+00 0. -1.
<mgrwt>
<rscale>  0 0.95828967E+02</rscale>
<asrwt>0</asrwt>
<pdfrwt beam="2">  1        1 0.76740689E-01 0.95828967E+02</pdfrwt>
<pdfrwt beam="1">  1       -1 0.70807818E-03 0.95828967E+02</pdfrwt>
<totfact> 0.12197982E+05</totfact>
</mgrwt>
</event>
<event>
 5    1  0.4067226E+001  0.9043530E+02  0.7546771E-02  0.1301801E+00
          2   -1    0    0  501    0  0.00000000000E+00  0.00000000000E+00  0.31900552370E+02  0.31900552370E+02  0.00000000000E+00 0. -1.
         -2   -1    0    0    0  501 -0.00000000000E+00 -0.00000000000E+00 -0.64094053646E+02  0.64094053646E+02  0.00000000000E+00 0.  1.
         23    2    1    2    0    0  0.00000000000E+00  0.00000000000E+00 -0.32193501276E+02  0.95994606017E+02  0.90435296538E+02 0.  0.
          2    1    3    3  502    0 -0.31553482584E+02  0.22279548385E+02  0.88565572845E+01  0.39628766652E+02  0.00000000000E+00 0. -1.
         -2    1    3    3    0  502  0.31553482584E+02 -0.22279548385E+02 -0.41050058560E+02  0.56365839364E+02  0.00000000000E+00 0.  1.
<mgrwt>
<rscale>  0 0.90435297E+02</rscale>
<asrwt>0</asrwt>
<pdfrwt beam="1">  1        2 0.49077773E-02 0.90435297E+02</pdfrwt>
<pdfrwt beam="2">  1       -2 0.98606236E-02 0.90435297E+02</pdfrwt>
<totfact> 0.92111166E+04</totfact>
</mgrwt>
</event>
<event>
 5    1  0.4067226E+001  0.9194070E+02  0.7546771E-02  0.1298219E+00
          1   -1    0    0  501    0  0.00000000000E+00  0.00000000000E+00  0.92234655981E+03  0.92234655981E+03  0.00000000000E+00 0. -1.
         -1   -1    0    0    0  501 -0.00000000000E+00 -0.00000000000E+00 -0.22911921220E+01  0.22911921220E+01  0.00000000000E+00 0.  1.
         23    2    1    2    0    0  0.00000000000E+00  0.00000000000E+00  0.92005536768E+03  0.92463775193E+03  0.91940702012E+02 0.  0.
          2    1    3    3  502    0  0.32610589780E+02  0.87380941592E+01  0.77380729194E+03  0.77454343320E+03  0.00000000000E+00 0. -1.
         -2    1    3    3    0  502 -0.32610589780E+02 -0.87380941592E+01  0.14624807575E+03  0.15009431873E+03  0.00000000000E+00 0.  1.
<mgrwt>
<rscale>  0 0.91940702E+02</rscale>
<asrwt>0</asrwt>
<pdfrwt beam="1">  1        1 0.14189918E+00 0.91940702E+02</pdfrwt>
<pdfrwt beam="2">  1       -1 0.35249183E-03 0.91940702E+02</pdfrwt>
<totfact> 0.13552938E+05</totfact>
</mgrwt>
</event>
<event>
 5    1  0.4067226E+001  0.8483903E+02  0.7546771E-02  0.1315854E+00
         -2   -1    0    0    0  501 -0.00000000000E+00  0.00000000000E+00  0.76240425482E+02  0.76240425482E+02  0.00000000000E+00 0.  1.
          2   -1    0    0  501    0  0.00000000000E+00 -0.00000000000E+00 -0.23601852452E+02  0.23601852452E+02  0.00000000000E+00 0. -1.
         23    2    1    2    0    0  0.00000000000E+00  0.00000000000E+00  0.52638573031E+02  0.99842277934E+02  0.84839030477E+02 0.  0.
          2    1    3    3  502    0  0.23020403894E+02 -0.24285854158E+02 -0.43616755561E+01  0.33745605956E+02  0.00000000000E+00 0. -1.
         -2    1    3    3    0  502 -0.23020403894E+02  0.24285854158E+02  0.57000248587E+02  0.66096671978E+02  0.00000000000E+00 0.  1.
<mgrwt>
<rscale>  0 0.84839030E+02</rscale>
<asrwt>0</asrwt>
<pdfrwt beam="2">  1        2 0.36310543E-02 0.84839030E+02</pdfrwt>
<pdfrwt beam="1">  1       -2 0.11729296E-01 0.84839030E+02</pdfrwt>
<totfact> 0.10286028E+05</totfact>
</mgrwt>
</event>
<event>
 5    1  0.4067226E+001  0.9042477E+02  0.7546771E-02  0.1301826E+00
         -1   -1    0    0    0  501 -0.00000000000E+00  0.00000000000E+00  0.17522724733E+02  0.17522724733E+02  0.00000000000E+00 0.  1.
          1   -1    0    0  501    0  0.00000000000E+00 -0.00000000000E+00 -0.11665763279E+03  0.11665763279E+03  0.00000000000E+00 0. -1.
         23    2    1    2    0    0  0.00000000000E+00  0.00000000000E+00 -0.99134908057E+02  0.13418035752E+03  0.90424766240E+02 0.  0.
          2    1    3    3  502    0 -0.29823921239E+02 -0.33891722410E+02 -0.45919239615E+02  0.64394811071E+02  0.00000000000E+00 0. -1.
         -2    1    3    3    0  502  0.29823921239E+02  0.33891722410E+02 -0.53215668441E+02  0.69785546452E+02  0.00000000000E+00 0.  1.
<mgrwt>
<rscale>  0 0.90424766E+02</rscale>
<asrwt>0</asrwt>
<pdfrwt beam="2">  1        1 0.17947328E-01 0.90424766E+02</pdfrwt>
<pdfrwt beam="1">  1       -1 0.26958039E-02 0.90424766E+02</pdfrwt>
<totfact> 0.10964791E+05</totfact>
</mgrwt>
</event>
<event>
 5    1  0.4067226E+001  0.9492520E+02  0.7546771E-02  0.1291345E+00
         -2   -1    0    0    0  501 -0.00000000000E+00  0.00000000000E+00  0.21307419113E+01  0.21307419113E+01  0.00000000000E+00 0.  1.
          2   -1    0    0  501    0  0.00000000000E+00 -0.00000000000E+00 -0.10572365274E+04  0.10572365274E+04  0.00000000000E+00 0. -1.
         23    2    1    2    0    0  0.00000000000E+00  0.00000000000E+00 -0.10551057855E+04  0.10593672693E+04  0.94925195374E+02 0.  0.
          2    1    3    3  502    0 -0.17948321113E+02  0.39200353445E+02 -0.74904158419E+03  0.75028135042E+03  0.00000000000E+00 0. -1.
         -2    1    3    3    0  502  0.17948321113E+02 -0.39200353445E+02 -0.30606420133E+03  0.30908591892E+03  0.00000000000E+00 0.  1.
<mgrwt>
<rscale>  0 0.94925195E+02</rscale>
<asrwt>0</asrwt>
<pdfrwt beam="2">  1        2 0.16265236E+00 0.94925195E+02</pdfrwt>
<pdfrwt beam="1">  1       -2 0.32780527E-03 0.94925195E+02</pdfrwt>
<totfact> 0.22509258E+05</totfact>
</mgrwt>
</event>
<event>
 5    1  0.4067226E+001  0.9023119E+02  0.7546771E-02  0.1302293E+00
          1   -1    0    0  501    0  0.00000000000E+00  0.00000000000E+00  0.67690123044E+02  0.67690123044E+02  0.00000000000E+00 0.  1.
         -1   -1    0    0    0  501 -0.00000000000E+00 -0.00000000000E+00 -0.30069626066E+02  0.30069626066E+02  0.00000000000E+00 0. -1.
         23    2    1    2    0    0  0.00000000000E+00  0.00000000000E+00  0.37620496978E+02  0.97759749110E+02  0.90231185037E+02 0.  0.
          2    1    3    3  502    0  0.20957074708E+02 -0.46287518249E+01 -0.24184465810E+02  0.32334388974E+02  0.00000000000E+00 0. -1.
         -2    1    3    3    0  502 -0.20957074708E+02  0.46287518249E+01  0.61804962788E+02  0.65425360136E+02  0.00000000000E+00 0.  1.
<mgrwt>
<rscale>  0 0.90231185E+02</rscale>
<asrwt>0</asrwt>
<pdfrwt beam="1">  1        1 0.10413865E-01 0.90231185E+02</pdfrwt>
<pdfrwt beam="2">  1       -1 0.46260963E-02 0.90231185E+02</pdfrwt>
<totfact> 0.10102120E+05</totfact>
</mgrwt>
</event>
<event>
 5    1  0.4067226E+001  0.9146779E+02  0.7546771E-02  0.1299336E+00
         -1   -1    0    0    0  501 -0.00000000000E+00  0.00000000000E+00  0.19505979309E+02  0.19505979309E+02  0.00000000000E+00 0.  1.
          1   -1    0    0  501    0  0.00000000000E+00 -0.00000000000E+00 -0.10722811427E+03  0.10722811427E+03  0.00000000000E+00 0. -1.
         23    2    1    2    0    0  0.00000000000E+00  0.00000000000E+00 -0.87722134961E+02  0.12673409358E+03  0.91467794951E+02 0.  0.
          2    1    3    3  502    0 -0.91830838548E+01 -0.28779133465E+02 -0.91436875826E+02  0.96297818319E+02  0.00000000000E+00 0. -1.
         -2    1    3    3    0  502  0.91830838548E+01  0.28779133465E+02  0.37147408648E+01  0.30436275261E+02  0.00000000000E+00 0.  1.
<mgrwt>
<rscale>  0 0.91467795E+02</rscale>
<asrwt>0</asrwt>
<pdfrwt beam="2">  1        1 0.16496633E-01 0.91467795E+02</pdfrwt>
<pdfrwt beam="1">  1       -1 0.30009198E-02 0.91467795E+02</pdfrwt>
<totfact> 0.10476809E+05</totfact>
</mgrwt>
</event>
<event>
 5    1  0.4067226E+001  0.9220860E+02  0.7546771E-02  0.1297590E+00
         -1   -1    0    0    0  501 -0.00000000000E+00  0.00000000000E+00  0.17071270673E+03  0.17071270673E+03  0.00000000000E+00 0.  1.
          1   -1    0    0  501    0  0.00000000000E+00 -0.00000000000E+00 -0.12451366678E+02  0.12451366678E+02  0.00000000000E+00 0. -1.
         23    2    1    2    0    0  0.00000000000E+00  0.00000000000E+00  0.15826134005E+03  0.18316407340E+03  0.92208600640E+02 0.  0.
          2    1    3    3  502    0 -0.21257334768E+00  0.27532947902E+02  0.56738323581E+01  0.28112288794E+02  0.00000000000E+00 0. -1.
         -2    1    3    3    0  502  0.21257334768E+00 -0.27532947902E+02  0.15258750769E+03  0.15505178461E+03  0.00000000000E+00 0.  1.
<mgrwt>
<rscale>  0 0.92208601E+02</rscale>
<asrwt>0</asrwt>
<pdfrwt beam="2">  1        1 0.19155950E-02 0.92208601E+02</pdfrwt>
<pdfrwt beam="1">  1       -1 0.26263492E-01 0.92208601E+02</pdfrwt>
<totfact> 0.70369242E+04</totfact>
</mgrwt>
</event>
<event>
 5    1  0.4067226E+001  0.9577888E+02  0.7546771E-02  0.1289431E+00
         -2   -1    0    0    0  501 -0.00000000000E+00  0.00000000000E+00  0.14080975669E+01  0.14080975669E+01  0.00000000000E+00 0.  1.
          2   -1    0    0  501    0  0.00000000000E+00 -0.00000000000E+00 -0.16287213074E+04  0.16287213074E+04  0.00000000000E+00 0. -1.
         23    2    1    2    0    0  0.00000000000E+00  0.00000000000E+00 -0.16273132099E+04  0.16301294050E+04  0.95778880974E+02 0.  0.
          2    1    3    3  502    0  0.19972078430E+02 -0.41266097159E+02 -0.57805563830E+03  0.57987075773E+03  0.00000000000E+00 0.  1.
         -2    1    3    3    0  502 -0.19972078430E+02  0.41266097159E+02 -0.10492575716E+04  0.10502586473E+04  0.00000000000E+00 0. -1.
<mgrwt>
<rscale>  0 0.95778881E+02</rscale>
<asrwt>0</asrwt>
<pdfrwt beam="2">  1        2 0.25057204E+00 0.95778881E+02</pdfrwt>
<pdfrwt beam="1">  1       -2 0.21663080E-03 0.95778881E+02</pdfrwt>
<totfact> 0.19978429E+05</totfact>
</mgrwt>
</event>
<event>
 5    1  0.4067226E+001  0.9148058E+02  0.7546771E-02  0.1299305E+00
         -1   -1    0    0    0  501 -0.00000000000E+00  0.00000000000E+00  0.18947476861E+02  0.18947476861E+02  0.00000000000E+00 0.  1.
          1   -1    0    0  501    0  0.00000000000E+00 -0.00000000000E+00 -0.11041966360E+03  0.11041966360E+03  0.00000000000E+00 0. -1.
         23    2    1    2    0    0  0.00000000000E+00  0.00000000000E+00 -0.91472186742E+02  0.12936714046E+03  0.91480577636E+02 0.  0.
          2    1    3    3  502    0  0.20244516521E+02  0.39846888148E+02 -0.59487486324E+02  0.74406827465E+02  0.00000000000E+00 0. -1.
         -2    1    3    3    0  502 -0.20244516521E+02 -0.39846888148E+02 -0.31984700418E+02  0.54960313000E+02  0.00000000000E+00 0.  1.
<mgrwt>
<rscale>  0 0.91480578E+02</rscale>
<asrwt>0</asrwt>
<pdfrwt beam="2">  1        1 0.16987641E-01 0.91480578E+02</pdfrwt>
<pdfrwt beam="1">  1       -1 0.29149964E-02 0.91480578E+02</pdfrwt>
<totfact> 0.10525168E+05</totfact>
</mgrwt>
</event>
<event>
 5    1  0.4067226E+001  0.9038055E+02  0.7546771E-02  0.1301933E+00
         -2   -1    0    0    0  501 -0.00000000000E+00  0.00000000000E+00  0.45076357325E+02  0.45076357325E+02  0.00000000000E+00 0.  1.
          2   -1    0    0  501    0  0.00000000000E+00 -0.00000000000E+00 -0.45304478722E+02  0.45304478722E+02  0.00000000000E+00 0. -1.
         23    2    1    2    0    0  0.00000000000E+00  0.00000000000E+00 -0.22812139670E+00  0.90380836048E+02  0.90380548158E+02 0.  0.
          2    1    3    3  502    0 -0.41962139734E+02 -0.11983184651E+01  0.16616316354E+02  0.45148190521E+02  0.00000000000E+00 0. -1.
         -2    1    3    3    0  502  0.41962139734E+02  0.11983184651E+01 -0.16844437751E+02  0.45232645526E+02  0.00000000000E+00 0.  1.
<mgrwt>
<rscale>  0 0.90380548E+02</rscale>
<asrwt>0</asrwt>
<pdfrwt beam="2">  1        2 0.69699198E-02 0.90380548E+02</pdfrwt>
<pdfrwt beam="1">  1       -2 0.69348242E-02 0.90380548E+02</pdfrwt>
<totfact> 0.10102333E+05</totfact>
</mgrwt>
</event>
<event>
 5    1  0.4067226E+001  0.1141039E+03  0.7546771E-02  0.1253153E+00
          2   -1    0    0  501    0  0.00000000000E+00  0.00000000000E+00  0.56562152414E+03  0.56562152414E+03  0.00000000000E+00 0. -1.
         -2   -1    0    0    0  501 -0.00000000000E+00 -0.00000000000E+00 -0.57546027491E+01  0.57546027491E+01  0.00000000000E+00 0.  1.
         23    2    1    2    0    0  0.00000000000E+00  0.00000000000E+00  0.55986692140E+03  0.57137612689E+03  0.11410393819E+03 0.  0.
          2    1    3    3  502    0  0.55400986209E+01  0.23619600794E+02  0.53850454058E+03  0.53905075685E+03  0.00000000000E+00 0. -1.
         -2    1    3    3    0  502 -0.55400986209E+01 -0.23619600794E+02  0.21362380815E+02  0.32325370044E+02  0.00000000000E+00 0.  1.
<mgrwt>
<rscale>  0 0.11410394E+03</rscale>
<asrwt>0</asrwt>
<pdfrwt beam="1">  1        2 0.87018652E-01 0.11410394E+03</pdfrwt>
<pdfrwt beam="2">  1       -2 0.88532395E-03 0.11410394E+03</pdfrwt>
<totfact> 0.12294462E+05</totfact>
</mgrwt>
</event>
<event>
 5    1  0.4067226E+001  0.7680579E+02  0.7546771E-02  0.1338369E+00
         -1   -1    0    0    0  501 -0.00000000000E+00  0.00000000000E+00  0.21016846046E+01  0.21016846046E+01  0.00000000000E+00 0.  1.
          1   -1    0    0  501    0  0.00000000000E+00 -0.00000000000E+00 -0.70171444597E+03  0.70171444597E+03  0.00000000000E+00 0. -1.
         23    2    1    2    0    0  0.00000000000E+00  0.00000000000E+00 -0.69961276137E+03  0.70381613058E+03  0.76805792695E+02 0.  0.
          2    1    3    3  502    0 -0.23527087714E+02  0.28194806387E+02 -0.24681837227E+03  0.24953512749E+03  0.00000000000E+00 0. -1.
         -2    1    3    3    0  502  0.23527087714E+02 -0.28194806387E+02 -0.45279438910E+03  0.45428100308E+03  0.00000000000E+00 0.  1.
<mgrwt>
<rscale>  0 0.76805793E+02</rscale>
<asrwt>0</asrwt>
<pdfrwt beam="2">  1        1 0.10795620E+00 0.76805793E+02</pdfrwt>
<pdfrwt beam="1">  1       -1 0.32333571E-03 0.76805793E+02</pdfrwt>
<totfact> 0.22292861E+05</totfact>
</mgrwt>
</event>
<event>
 5    1  0.4067226E+001  0.9154823E+02  0.7546771E-02  0.1299145E+00
          4   -1    0    0  501    0  0.00000000000E+00  0.00000000000E+00  0.14588412242E+02  0.14588412242E+02  0.00000000000E+00 0. -1.
         -4   -1    0    0    0  501 -0.00000000000E+00 -0.00000000000E+00 -0.14362560801E+03  0.14362560801E+03  0.00000000000E+00 0.  1.
         23    2    1    2    0    0  0.00000000000E+00  0.00000000000E+00 -0.12903719576E+03  0.15821402025E+03  0.91548229434E+02 0.  0.
          2    1    3    3  502    0  0.34542841555E+02 -0.25037214066E+01 -0.12793792859E+02  0.36920965037E+02  0.00000000000E+00 0. -1.
         -2    1    3    3    0  502 -0.34542841555E+02  0.25037214066E+01 -0.11624340291E+03  0.12129305521E+03  0.00000000000E+00 0.  1.
<mgrwt>
<rscale>  0 0.91548229E+02</rscale>
<asrwt>0</asrwt>
<pdfrwt beam="1">  1        4 0.22443711E-02 0.91548229E+02</pdfrwt>
<pdfrwt beam="2">  1       -4 0.22096248E-01 0.91548229E+02</pdfrwt>
<totfact> 0.23014042E+04</totfact>
</mgrwt>
</event>
<event>
 5    1  0.4067226E+001  0.8940396E+02  0.7546771E-02  0.1304302E+00
         -2   -1    0    0    0  501 -0.00000000000E+00  0.00000000000E+00  0.73989596290E+03  0.73989596290E+03  0.00000000000E+00 0.  1.
          2   -1    0    0  501    0  0.00000000000E+00 -0.00000000000E+00 -0.27007405039E+01  0.27007405039E+01  0.00000000000E+00 0. -1.
         23    2    1    2    0    0  0.00000000000E+00  0.00000000000E+00  0.73719522239E+03  0.74259670340E+03  0.89403959548E+02 0.  0.
          2    1    3    3  502    0  0.24371220977E+02  0.37238633271E+02  0.33375681001E+03  0.33671097465E+03  0.00000000000E+00 0. -1.
         -2    1    3    3    0  502 -0.24371220977E+02 -0.37238633271E+02  0.40343841238E+03  0.40588572875E+03  0.00000000000E+00 0.  1.
<mgrwt>
<rscale>  0 0.89403960E+02</rscale>
<asrwt>0</asrwt>
<pdfrwt beam="2">  1        2 0.41549913E-03 0.89403960E+02</pdfrwt>
<pdfrwt beam="1">  1       -2 0.11382999E+00 0.89403960E+02</pdfrwt>
<totfact> 0.27122087E+04</totfact>
</mgrwt>
</event>
<event>
 5    1  0.4067226E+001  0.8701407E+02  0.7546771E-02  0.1310248E+00
         -1   -1    0    0    0  501 -0.00000000000E+00  0.00000000000E+00  0.93438053220E+02  0.93438053220E+02  0.00000000000E+00 0.  1.
          1   -1    0    0  501    0  0.00000000000E+00 -0.00000000000E+00 -0.20257935193E+02  0.20257935193E+02  0.00000000000E+00 0. -1.
         23    2    1    2    0    0  0.00000000000E+00  0.00000000000E+00  0.73180118026E+02  0.11369598841E+03  0.87014068442E+02 0.  0.
          2    1    3    3  502    0 -0.26858397574E+02  0.26596556137E+02  0.64739315532E+02  0.74966187673E+02  0.00000000000E+00 0.  1.
         -2    1    3    3    0  502  0.26858397574E+02 -0.26596556137E+02  0.84408024943E+01  0.38729800740E+02  0.00000000000E+00 0. -1.
<mgrwt>
<rscale>  0 0.87014068E+02</rscale>
<asrwt>0</asrwt>
<pdfrwt beam="2">  1        1 0.31166055E-02 0.87014068E+02</pdfrwt>
<pdfrwt beam="1">  1       -1 0.14375085E-01 0.87014068E+02</pdfrwt>
<totfact> 0.92887365E+04</totfact>
</mgrwt>
</event>
<event>
 5    1  0.4067226E+001  0.9142444E+02  0.7546771E-02  0.1299438E+00
         -2   -1    0    0    0  501 -0.00000000000E+00  0.00000000000E+00  0.90231818757E+01  0.90231818757E+01  0.00000000000E+00 0.  1.
          2   -1    0    0  501    0  0.00000000000E+00 -0.00000000000E+00 -0.23158204672E+03  0.23158204672E+03  0.00000000000E+00 0. -1.
         23    2    1    2    0    0  0.00000000000E+00  0.00000000000E+00 -0.22255886485E+03  0.24060522860E+03  0.91424437143E+02 0.  0.
          2    1    3    3  502    0 -0.19029156583E+02 -0.37930590263E+02 -0.15600106358E+03  0.16166994253E+03  0.00000000000E+00 0. -1.
         -2    1    3    3    0  502  0.19029156583E+02  0.37930590263E+02 -0.66557801263E+02  0.78935286069E+02  0.00000000000E+00 0.  1.
<mgrwt>
<rscale>  0 0.91424437E+02</rscale>
<asrwt>0</asrwt>
<pdfrwt beam="2">  1        2 0.35628011E-01 0.91424437E+02</pdfrwt>
<pdfrwt beam="1">  1       -2 0.13881817E-02 0.91424437E+02</pdfrwt>
<totfact> 0.16200159E+05</totfact>
</mgrwt>
</event>
<event>
 5    1  0.4067226E+001  0.9133122E+02  0.7546771E-02  0.1299660E+00
         -1   -1    0    0    0  501 -0.00000000000E+00  0.00000000000E+00  0.41950214438E+01  0.41950214438E+01  0.00000000000E+00 0.  1.
          1   -1    0    0  501    0  0.00000000000E+00 -0.00000000000E+00 -0.49710065203E+03  0.49710065203E+03  0.00000000000E+00 0. -1.
         23    2    1    2    0    0  0.00000000000E+00  0.00000000000E+00 -0.49290563058E+03  0.50129567347E+03  0.91331219087E+02 0.  0.
          2    1    3    3  502    0 -0.42954723564E+02 -0.97714040117E+01 -0.18041420702E+03  0.18571449783E+03  0.00000000000E+00 0. -1.
         -2    1    3    3    0  502  0.42954723564E+02  0.97714040117E+01 -0.31249142357E+03  0.31558117564E+03  0.00000000000E+00 0.  1.
<mgrwt>
<rscale>  0 0.91331219E+02</rscale>
<asrwt>0</asrwt>
<pdfrwt beam="2">  1        1 0.76477037E-01 0.91331219E+02</pdfrwt>
<pdfrwt beam="1">  1       -1 0.64538780E-03 0.91331219E+02</pdfrwt>
<totfact> 0.13854611E+05</totfact>
</mgrwt>
</event>
<event>
 5    1  0.4067226E+001  0.9121290E+02  0.7546771E-02  0.1299941E+00
         -2   -1    0    0    0  501 -0.00000000000E+00  0.00000000000E+00  0.33047689642E+01  0.33047689642E+01  0.00000000000E+00 0.  1.
          2   -1    0    0  501    0  0.00000000000E+00 -0.00000000000E+00 -0.62937786708E+03  0.62937786708E+03  0.00000000000E+00 0. -1.
         23    2    1    2    0    0  0.00000000000E+00  0.00000000000E+00 -0.62607309812E+03  0.63268263605E+03  0.91212903515E+02 0.  0.
          2    1    3    3  502    0  0.16071891788E+02 -0.12964906512E+02 -0.59509480586E+03  0.59545295571E+03  0.00000000000E+00 0. -1.
         -2    1    3    3    0  502 -0.16071891788E+02  0.12964906512E+02 -0.30978292261E+02  0.37229680336E+02  0.00000000000E+00 0.  1.
<mgrwt>
<rscale>  0 0.91212904E+02</rscale>
<asrwt>0</asrwt>
<pdfrwt beam="2">  1        2 0.96827292E-01 0.91212904E+02</pdfrwt>
<pdfrwt beam="1">  1       -2 0.50842637E-03 0.91212904E+02</pdfrwt>
<totfact> 0.23063942E+05</totfact>
</mgrwt>
</event>
<event>
 5    1  0.4067226E+001  0.8820085E+02  0.7546771E-02  0.1307268E+00
         -1   -1    0    0    0  501 -0.00000000000E+00  0.00000000000E+00  0.28000357147E+01  0.28000357147E+01  0.00000000000E+00 0.  1.
          1   -1    0    0  501    0  0.00000000000E+00 -0.00000000000E+00 -0.69457950661E+03  0.69457950661E+03  0.00000000000E+00 0. -1.
         23    2    1    2    0    0  0.00000000000E+00  0.00000000000E+00 -0.69177947090E+03  0.69737954233E+03  0.88200848641E+02 0.  0.
          2    1    3    3  502    0  0.42978924860E+02 -0.87764231577E+01 -0.30997385929E+03  0.31306230535E+03  0.00000000000E+00 0.  1.
         -2    1    3    3    0  502 -0.42978924860E+02  0.87764231577E+01 -0.38180561161E+03  0.38431723698E+03  0.00000000000E+00 0. -1.
<mgrwt>
<rscale>  0 0.88200849E+02</rscale>
<asrwt>0</asrwt>
<pdfrwt beam="2">  1        1 0.10685856E+00 0.88200849E+02</pdfrwt>
<pdfrwt beam="1">  1       -1 0.43077401E-03 0.88200849E+02</pdfrwt>
<totfact> 0.15520258E+05</totfact>
</mgrwt>
</event>
<event>
 5    1  0.4067226E+001  0.9130897E+02  0.7546771E-02  0.1299712E+00
          1   -1    0    0  501    0  0.00000000000E+00  0.00000000000E+00  0.13937768087E+02  0.13937768087E+02  0.00000000000E+00 0. -1.
         -1   -1    0    0    0  501 -0.00000000000E+00 -0.00000000000E+00 -0.14954561947E+03  0.14954561947E+03  0.00000000000E+00 0.  1.
         23    2    1    2    0    0  0.00000000000E+00  0.00000000000E+00 -0.13560785138E+03  0.16348338756E+03  0.91308973549E+02 0.  0.
          2    1    3    3  502    0  0.34238319683E+02  0.96151533558E+01 -0.11906244203E+03  0.12426012559E+03  0.00000000000E+00 0.  1.
         -2    1    3    3    0  502 -0.34238319683E+02 -0.96151533558E+01 -0.16545409349E+02  0.39223261967E+02  0.00000000000E+00 0. -1.
<mgrwt>
<rscale>  0 0.91308974E+02</rscale>
<asrwt>0</asrwt>
<pdfrwt beam="1">  1        1 0.21442721E-02 0.91308974E+02</pdfrwt>
<pdfrwt beam="2">  1       -1 0.23007018E-01 0.91308974E+02</pdfrwt>
<totfact> 0.74560549E+04</totfact>
</mgrwt>
</event>
<event>
 5    1  0.4067226E+001  0.9162042E+02  0.7546771E-02  0.1298974E+00
          2   -1    0    0  501    0  0.00000000000E+00  0.00000000000E+00  0.13964588953E+03  0.13964588953E+03  0.00000000000E+00 0. -1.
         -2   -1    0    0    0  501 -0.00000000000E+00 -0.00000000000E+00 -0.15027833184E+02  0.15027833184E+02  0.00000000000E+00 0.  1.
         23    2    1    2    0    0  0.00000000000E+00  0.00000000000E+00  0.12461805634E+03  0.15467372271E+03  0.91620415469E+02 0.  0.
          2    1    3    3  502    0  0.27164882300E+01  0.36697796617E+02  0.16246564036E+02  0.40225096989E+02  0.00000000000E+00 0.  1.
         -2    1    3    3    0  502 -0.27164882300E+01 -0.36697796617E+02  0.10837149231E+03  0.11444862572E+03  0.00000000000E+00 0. -1.
<mgrwt>
<rscale>  0 0.91620415E+02</rscale>
<asrwt>0</asrwt>
<pdfrwt beam="1">  1        2 0.21483982E-01 0.91620415E+02</pdfrwt>
<pdfrwt beam="2">  1       -2 0.23119744E-02 0.91620415E+02</pdfrwt>
<totfact> 0.13468577E+05</totfact>
</mgrwt>
</event>
<event>
 5    1  0.4067226E+001  0.9060096E+02  0.7546771E-02  0.1301403E+00
          2   -1    0    0  501    0  0.00000000000E+00  0.00000000000E+00  0.25441352854E+03  0.25441352854E+03  0.00000000000E+00 0. -1.
         -2   -1    0    0    0  501 -0.00000000000E+00 -0.00000000000E+00 -0.80661338408E+01  0.80661338408E+01  0.00000000000E+00 0.  1.
         23    2    1    2    0    0  0.00000000000E+00  0.00000000000E+00  0.24634739470E+03  0.26247966238E+03  0.90600961851E+02 0.  0.
          2    1    3    3  502    0  0.15876027031E+02 -0.42376592387E+02  0.12918805385E+03  0.13688453921E+03  0.00000000000E+00 0. -1.
         -2    1    3    3    0  502 -0.15876027031E+02  0.42376592387E+02  0.11715934084E+03  0.12559512317E+03  0.00000000000E+00 0.  1.
<mgrwt>
<rscale>  0 0.90600962E+02</rscale>
<asrwt>0</asrwt>
<pdfrwt beam="1">  1        2 0.39140537E-01 0.90600962E+02</pdfrwt>
<pdfrwt beam="2">  1       -2 0.12409439E-02 0.90600962E+02</pdfrwt>
<totfact> 0.17183966E+05</totfact>
</mgrwt>
</event>
<event>
 5    1  0.4067226E+001  0.9377428E+02  0.7546771E-02  0.1293961E+00
          3   -1    0    0  501    0  0.00000000000E+00  0.00000000000E+00  0.42386009976E+02  0.42386009976E+02  0.00000000000E+00 0. -1.
         -3   -1    0    0    0  501 -0.00000000000E+00 -0.00000000000E+00 -0.51866256454E+02  0.51866256454E+02  0.00000000000E+00 0.  1.
         23    2    1    2    0    0  0.00000000000E+00  0.00000000000E+00 -0.94802464783E+01  0.94252266430E+02  0.93774275011E+02 0.  0.
          2    1    3    3  502    0  0.26961600364E+01  0.43091200130E+02  0.13636475774E+02  0.45277745959E+02  0.00000000000E+00 0. -1.
         -2    1    3    3    0  502 -0.26961600364E+01 -0.43091200130E+02 -0.23116722253E+02  0.48974520470E+02  0.00000000000E+00 0.  1.
<mgrwt>
<rscale>  0 0.93774275E+02</rscale>
<asrwt>0</asrwt>
<pdfrwt beam="1">  1        3 0.65209246E-02 0.93774275E+02</pdfrwt>
<pdfrwt beam="2">  1       -3 0.79794241E-02 0.93774275E+02</pdfrwt>
<totfact> 0.32510270E+04</totfact>
</mgrwt>
</event>
<event>
 5    1  0.4067226E+001  0.9087501E+02  0.7546771E-02  0.1300746E+00
          2   -1    0    0  501    0  0.00000000000E+00  0.00000000000E+00  0.29664358368E+03  0.29664358368E+03  0.00000000000E+00 0. -1.
         -2   -1    0    0    0  501 -0.00000000000E+00 -0.00000000000E+00 -0.69597554067E+01  0.69597554067E+01  0.00000000000E+00 0.  1.
         23    2    1    2    0    0  0.00000000000E+00  0.00000000000E+00  0.28968382827E+03  0.30360333908E+03  0.90875008343E+02 0.  0.
          2    1    3    3  502    0 -0.84626381845E+01 -0.39516203873E+02  0.75449450953E+02  0.85590690281E+02  0.00000000000E+00 0.  1.
         -2    1    3    3    0  502  0.84626381845E+01  0.39516203873E+02  0.21423437732E+03  0.21801264880E+03  0.00000000000E+00 0. -1.
<mgrwt>
<rscale>  0 0.90875008E+02</rscale>
<asrwt>0</asrwt>
<pdfrwt beam="1">  1        2 0.45637465E-01 0.90875008E+02</pdfrwt>
<pdfrwt beam="2">  1       -2 0.10707318E-02 0.90875008E+02</pdfrwt>
<totfact> 0.18049870E+05</totfact>
</mgrwt>
</event>
<event>
 5    1  0.4067226E+001  0.9284543E+02  0.7546771E-02  0.1296104E+00
          2   -1    0    0  501    0  0.00000000000E+00  0.00000000000E+00  0.40116811806E+04  0.40116811806E+04  0.00000000000E+00 0. -1.
         -2   -1    0    0    0  501 -0.00000000000E+00 -0.00000000000E+00 -0.53719833041E+00  0.53719833041E+00  0.00000000000E+00 0.  1.
         23    2    1    2    0    0  0.00000000000E+00  0.00000000000E+00  0.40111439823E+04  0.40122183789E+04  0.92845429232E+02 0.  0.
          2    1    3    3  502    0 -0.30569375839E+02  0.31051001332E+02  0.26975582173E+04  0.26979101147E+04  0.00000000000E+00 0. -1.
         -2    1    3    3    0  502  0.30569375839E+02 -0.31051001332E+02  0.13135857650E+04  0.13143082642E+04  0.00000000000E+00 0.  1.
<mgrwt>
<rscale>  0 0.92845429E+02</rscale>
<asrwt>0</asrwt>
<pdfrwt beam="1">  1        2 0.61715773E+00 0.92845429E+02</pdfrwt>
<pdfrwt beam="2">  1       -2 0.82649110E-04 0.92845429E+02</pdfrwt>
<totfact> 0.32242932E+04</totfact>
</mgrwt>
</event>
<event>
 5    1  0.4067226E+001  0.9103857E+02  0.7546771E-02  0.1300356E+00
          1   -1    0    0  501    0  0.00000000000E+00  0.00000000000E+00  0.22161192401E+03  0.22161192401E+03  0.00000000000E+00 0. -1.
         -1   -1    0    0    0  501 -0.00000000000E+00 -0.00000000000E+00 -0.93497019271E+01  0.93497019271E+01  0.00000000000E+00 0.  1.
         23    2    1    2    0    0  0.00000000000E+00  0.00000000000E+00  0.21226222208E+03  0.23096162593E+03  0.91038572769E+02 0.  0.
          2    1    3    3  502    0  0.16353315959E+02 -0.33722545840E+02  0.17166952136E+03  0.17571302059E+03  0.00000000000E+00 0. -1.
         -2    1    3    3    0  502 -0.16353315959E+02  0.33722545840E+02  0.40592700721E+02  0.55248605346E+02  0.00000000000E+00 0.  1.
<mgrwt>
<rscale>  0 0.91038573E+02</rscale>
<asrwt>0</asrwt>
<pdfrwt beam="1">  1        1 0.34094138E-01 0.91038573E+02</pdfrwt>
<pdfrwt beam="2">  1       -1 0.14384158E-02 0.91038573E+02</pdfrwt>
<totfact> 0.12128740E+05</totfact>
</mgrwt>
</event>
<event>
 5    1  0.4067226E+001  0.9139152E+02  0.7546771E-02  0.1299516E+00
         -1   -1    0    0    0  501 -0.00000000000E+00  0.00000000000E+00  0.47852125643E+01  0.47852125643E+01  0.00000000000E+00 0.  1.
          1   -1    0    0  501    0  0.00000000000E+00 -0.00000000000E+00 -0.43636565586E+03  0.43636565586E+03  0.00000000000E+00 0. -1.
         23    2    1    2    0    0  0.00000000000E+00  0.00000000000E+00 -0.43158044329E+03  0.44115086842E+03  0.91391518622E+02 0.  0.
          2    1    3    3  502    0 -0.14075997618E+02 -0.14845347312E+02 -0.41302587824E+03  0.41353221657E+03  0.00000000000E+00 0. -1.
         -2    1    3    3    0  502  0.14075997618E+02  0.14845347312E+02 -0.18554565053E+02  0.27618651851E+02  0.00000000000E+00 0.  1.
<mgrwt>
<rscale>  0 0.91391519E+02</rscale>
<asrwt>0</asrwt>
<pdfrwt beam="2">  1        1 0.67133200E-01 0.91391519E+02</pdfrwt>
<pdfrwt beam="1">  1       -1 0.73618631E-03 0.91391519E+02</pdfrwt>
<totfact> 0.13589133E+05</totfact>
</mgrwt>
</event>
<event>
 5    1  0.4067226E+001  0.8489518E+02  0.7546771E-02  0.1315707E+00
         -1   -1    0    0    0  501 -0.00000000000E+00  0.00000000000E+00  0.54392000054E+02  0.54392000054E+02  0.00000000000E+00 0.  1.
          1   -1    0    0  501    0  0.00000000000E+00 -0.00000000000E+00 -0.33126156477E+02  0.33126156477E+02  0.00000000000E+00 0. -1.
         23    2    1    2    0    0  0.00000000000E+00  0.00000000000E+00  0.21265843578E+02  0.87518156531E+02  0.84895180190E+02 0.  0.
          2    1    3    3  502    0 -0.16847851359E+02  0.29645725963E+02  0.36693995969E+02  0.50091601126E+02  0.00000000000E+00 0.  1.
         -2    1    3    3    0  502  0.16847851359E+02 -0.29645725963E+02 -0.15428152391E+02  0.37426555405E+02  0.00000000000E+00 0. -1.
<mgrwt>
<rscale>  0 0.84895180E+02</rscale>
<asrwt>0</asrwt>
<pdfrwt beam="2">  1        1 0.50963318E-02 0.84895180E+02</pdfrwt>
<pdfrwt beam="1">  1       -1 0.83680000E-02 0.84895180E+02</pdfrwt>
<totfact> 0.10780202E+05</totfact>
</mgrwt>
</event>
<event>
 5    1  0.4067226E+001  0.9598369E+02  0.7546771E-02  0.1288976E+00
          1   -1    0    0  501    0  0.00000000000E+00  0.00000000000E+00  0.59279364795E+03  0.59279364795E+03  0.00000000000E+00 0. -1.
         -1   -1    0    0    0  501 -0.00000000000E+00 -0.00000000000E+00 -0.38853605018E+01  0.38853605018E+01  0.00000000000E+00 0.  1.
         23    2    1    2    0    0  0.00000000000E+00  0.00000000000E+00  0.58890828745E+03  0.59667900846E+03  0.95983686645E+02 0.  0.
          2    1    3    3  502    0 -0.47934895917E+02  0.10716600941E+01  0.28154196028E+03  0.28559547983E+03  0.00000000000E+00 0. -1.
         -2    1    3    3    0  502  0.47934895917E+02 -0.10716600941E+01  0.30736632717E+03  0.31108352862E+03  0.00000000000E+00 0.  1.
<mgrwt>
<rscale>  0 0.95983687E+02</rscale>
<asrwt>0</asrwt>
<pdfrwt beam="1">  1        1 0.91198951E-01 0.95983687E+02</pdfrwt>
<pdfrwt beam="2">  1       -1 0.59774824E-03 0.95983687E+02</pdfrwt>
<totfact> 0.12344597E+05</totfact>
</mgrwt>
</event>
<event>
 5    1  0.4067226E+001  0.9077381E+02  0.7546771E-02  0.1300989E+00
         -2   -1    0    0    0  501 -0.00000000000E+00  0.00000000000E+00  0.66740823159E+00  0.66740823159E+00  0.00000000000E+00 0.  1.
          2   -1    0    0  501    0  0.00000000000E+00 -0.00000000000E+00 -0.30865237359E+04  0.30865237359E+04  0.00000000000E+00 0. -1.
         23    2    1    2    0    0  0.00000000000E+00  0.00000000000E+00 -0.30858563276E+04  0.30871911441E+04  0.90773814469E+02 0.  0.
          2    1    3    3  502    0 -0.36452995802E+02  0.26922162201E+02 -0.16286139256E+04  0.16292442857E+04  0.00000000000E+00 0. -1.
         -2    1    3    3    0  502  0.36452995802E+02 -0.26922162201E+02 -0.14572424021E+04  0.14579468585E+04  0.00000000000E+00 0.  1.
<mgrwt>
<rscale>  0 0.90773814E+02</rscale>
<asrwt>0</asrwt>
<pdfrwt beam="2">  1        2 0.47485118E+00 0.90773814E+02</pdfrwt>
<pdfrwt beam="1">  1       -2 0.10267789E-03 0.90773814E+02</pdfrwt>
<totfact> 0.95645089E+04</totfact>
</mgrwt>
</event>
<event>
 5    1  0.4067226E+001  0.7380774E+02  0.7546771E-02  0.1347603E+00
          1   -1    0    0  501    0  0.00000000000E+00  0.00000000000E+00  0.21188096473E+03  0.21188096473E+03  0.00000000000E+00 0. -1.
         -1   -1    0    0    0  501 -0.00000000000E+00 -0.00000000000E+00 -0.64276445920E+01  0.64276445920E+01  0.00000000000E+00 0.  1.
         23    2    1    2    0    0  0.00000000000E+00  0.00000000000E+00  0.20545332014E+03  0.21830860933E+03  0.73807737728E+02 0.  0.
          2    1    3    3  502    0  0.12282748466E+02  0.27041504339E+02  0.16751443400E+03  0.17012699511E+03  0.00000000000E+00 0. -1.
         -2    1    3    3    0  502 -0.12282748466E+02 -0.27041504339E+02  0.37938886142E+02  0.48181614217E+02  0.00000000000E+00 0.  1.
<mgrwt>
<rscale>  0 0.73807738E+02</rscale>
<asrwt>0</asrwt>
<pdfrwt beam="1">  1        1 0.32597066E-01 0.73807738E+02</pdfrwt>
<pdfrwt beam="2">  1       -1 0.98886856E-03 0.73807738E+02</pdfrwt>
<totfact> 0.20952325E+05</totfact>
</mgrwt>
</event>
<event>
 5    1  0.4067226E+001  0.8736743E+02  0.7546771E-02  0.1309355E+00
         -2   -1    0    0    0  501 -0.00000000000E+00  0.00000000000E+00  0.40692117019E+01  0.40692117019E+01  0.00000000000E+00 0.  1.
          2   -1    0    0  501    0  0.00000000000E+00 -0.00000000000E+00 -0.46895251081E+03  0.46895251081E+03  0.00000000000E+00 0. -1.
         23    2    1    2    0    0  0.00000000000E+00  0.00000000000E+00 -0.46488329911E+03  0.47302172252E+03  0.87367432024E+02 0.  0.
          2    1    3    3  502    0  0.16845571896E+02 -0.28549343973E+02 -0.38647714755E+03  0.38789615094E+03  0.00000000000E+00 0. -1.
         -2    1    3    3    0  502 -0.16845571896E+02  0.28549343973E+02 -0.78406151564E+02  0.85125571580E+02  0.00000000000E+00 0.  1.
<mgrwt>
<rscale>  0 0.87367432E+02</rscale>
<asrwt>0</asrwt>
<pdfrwt beam="2">  1        2 0.72146487E-01 0.87367432E+02</pdfrwt>
<pdfrwt beam="1">  1       -2 0.62603303E-03 0.87367432E+02</pdfrwt>
<totfact> 0.23615605E+05</totfact>
</mgrwt>
</event>
<event>
 5    1  0.4067226E+001  0.9156403E+02  0.7546771E-02  0.1299108E+00
          2   -1    0    0  501    0  0.00000000000E+00  0.00000000000E+00  0.11218253359E+03  0.11218253359E+03  0.00000000000E+00 0. -1.
         -2   -1    0    0    0  501 -0.00000000000E+00 -0.00000000000E+00 -0.18683770778E+02  0.18683770778E+02  0.00000000000E+00 0.  1.
         23    2    1    2    0    0  0.00000000000E+00  0.00000000000E+00  0.93498762807E+02  0.13086630436E+03  0.91564026622E+02 0.  0.
          2    1    3    3  502    0  0.93202303048E+01 -0.23469589442E+02  0.10132856705E+03  0.10442780675E+03  0.00000000000E+00 0. -1.
         -2    1    3    3    0  502 -0.93202303048E+01  0.23469589442E+02 -0.78298042465E+01  0.26438497613E+02  0.00000000000E+00 0.  1.
<mgrwt>
<rscale>  0 0.91564027E+02</rscale>
<asrwt>0</asrwt>
<pdfrwt beam="1">  1        2 0.17258851E-01 0.91564027E+02</pdfrwt>
<pdfrwt beam="2">  1       -2 0.28744263E-02 0.91564027E+02</pdfrwt>
<totfact> 0.12564883E+05</totfact>
</mgrwt>
</event>
<event>
 5    1  0.4067226E+001  0.8982678E+02  0.7546771E-02  0.1303272E+00
          2   -1    0    0  501    0  0.00000000000E+00  0.00000000000E+00  0.11361867797E+02  0.11361867797E+02  0.00000000000E+00 0. -1.
         -2   -1    0    0    0  501 -0.00000000000E+00 -0.00000000000E+00 -0.17754235286E+03  0.17754235286E+03  0.00000000000E+00 0.  1.
         23    2    1    2    0    0  0.00000000000E+00  0.00000000000E+00 -0.16618048506E+03  0.18890422066E+03  0.89826783121E+02 0.  0.
          2    1    3    3  502    0  0.12354596867E+02 -0.31082592604E+02 -0.20055126447E+02  0.38999637479E+02  0.00000000000E+00 0. -1.
         -2    1    3    3    0  502 -0.12354596867E+02  0.31082592604E+02 -0.14612535862E+03  0.14990458318E+03  0.00000000000E+00 0.  1.
<mgrwt>
<rscale>  0 0.89826783E+02</rscale>
<asrwt>0</asrwt>
<pdfrwt beam="1">  1        2 0.17479798E-02 0.89826783E+02</pdfrwt>
<pdfrwt beam="2">  1       -2 0.27314207E-01 0.89826783E+02</pdfrwt>
<totfact> 0.68028749E+04</totfact>
</mgrwt>
</event>
<event>
 5    1  0.4067226E+001  0.9189050E+02  0.7546771E-02  0.1298337E+00
         -1   -1    0    0    0  501 -0.00000000000E+00  0.00000000000E+00  0.78436271487E+02  0.78436271487E+02  0.00000000000E+00 0.  1.
          1   -1    0    0  501    0  0.00000000000E+00 -0.00000000000E+00 -0.26913138271E+02  0.26913138271E+02  0.00000000000E+00 0. -1.
         23    2    1    2    0    0  0.00000000000E+00  0.00000000000E+00  0.51523133217E+02  0.10534940976E+03  0.91890504841E+02 0.  0.
          2    1    3    3  502    0  0.14267206276E+02 -0.14691671039E+02 -0.21391091502E+02  0.29613800305E+02  0.00000000000E+00 0. -1.
         -2    1    3    3    0  502 -0.14267206276E+02  0.14691671039E+02  0.72914224719E+02  0.75735609453E+02  0.00000000000E+00 0.  1.
<mgrwt>
<rscale>  0 0.91890505E+02</rscale>
<asrwt>0</asrwt>
<pdfrwt beam="2">  1        1 0.41404828E-02 0.91890505E+02</pdfrwt>
<pdfrwt beam="1">  1       -1 0.12067119E-01 0.91890505E+02</pdfrwt>
<totfact> 0.83253408E+04</totfact>
</mgrwt>
</event>
<event>
 5    1  0.4067226E+001  0.9313343E+02  0.7546771E-02  0.1295436E+00
         -1   -1    0    0    0  501 -0.00000000000E+00  0.00000000000E+00  0.96161430611E+00  0.96161430611E+00  0.00000000000E+00 0.  1.
          1   -1    0    0  501    0  0.00000000000E+00 -0.00000000000E+00 -0.22550192643E+04  0.22550192643E+04  0.00000000000E+00 0. -1.
         23    2    1    2    0    0  0.00000000000E+00  0.00000000000E+00 -0.22540576500E+04  0.22559808786E+04  0.93133426548E+02 0.  0.
          2    1    3    3  502    0 -0.29246437651E+02 -0.23797808878E+02 -0.17889754348E+04  0.17893727382E+04  0.00000000000E+00 0. -1.
         -2    1    3    3    0  502  0.29246437651E+02  0.23797808878E+02 -0.46508221520E+03  0.46660814044E+03  0.00000000000E+00 0.  1.
<mgrwt>
<rscale>  0 0.93133427E+02</rscale>
<asrwt>0</asrwt>
<pdfrwt beam="2">  1        1 0.34692920E+00 0.93133427E+02</pdfrwt>
<pdfrwt beam="1">  1       -1 0.14793932E-03 0.93133427E+02</pdfrwt>
<totfact> 0.61455579E+04</totfact>
</mgrwt>
</event>
<event>
 5    1  0.4067226E+001  0.9201966E+02  0.7546771E-02  0.1298033E+00
         -1   -1    0    0    0  501 -0.00000000000E+00  0.00000000000E+00  0.97925919865E+03  0.97925919865E+03  0.00000000000E+00 0.  1.
          1   -1    0    0  501    0  0.00000000000E+00 -0.00000000000E+00 -0.21617405432E+01  0.21617405432E+01  0.00000000000E+00 0. -1.
         23    2    1    2    0    0  0.00000000000E+00  0.00000000000E+00  0.97709745811E+03  0.98142093920E+03  0.92019656857E+02 0.  0.
          2    1    3    3  502    0  0.39780032363E+01  0.36417192493E+02  0.19166353235E+03  0.19513314954E+03  0.00000000000E+00 0. -1.
         -2    1    3    3    0  502 -0.39780032363E+01 -0.36417192493E+02  0.78543392576E+03  0.78628778965E+03  0.00000000000E+00 0.  1.
<mgrwt>
<rscale>  0 0.92019657E+02</rscale>
<asrwt>0</asrwt>
<pdfrwt beam="2">  1        1 0.33257625E-03 0.92019657E+02</pdfrwt>
<pdfrwt beam="1">  1       -1 0.15065491E+00 0.92019657E+02</pdfrwt>
<totfact> 0.25667932E+04</totfact>
</mgrwt>
</event>
<event>
 5    1  0.4067226E+001  0.8959974E+02  0.7546771E-02  0.1303824E+00
          3   -1    0    0  501    0  0.00000000000E+00  0.00000000000E+00  0.86218244291E+03  0.86218244291E+03  0.00000000000E+00 0. -1.
         -3   -1    0    0    0  501 -0.00000000000E+00 -0.00000000000E+00 -0.23278466780E+01  0.23278466780E+01  0.00000000000E+00 0.  1.
         23    2    1    2    0    0  0.00000000000E+00  0.00000000000E+00  0.85985459623E+03  0.86451028959E+03  0.89599744097E+02 0.  0.
          2    1    3    3  502    0 -0.13949827459E+02  0.35987394748E+02  0.64938493585E+03  0.65053092561E+03  0.00000000000E+00 0. -1.
         -2    1    3    3    0  502  0.13949827459E+02 -0.35987394748E+02  0.21046966038E+03  0.21397936398E+03  0.00000000000E+00 0.  1.
<mgrwt>
<rscale>  0 0.89599744E+02</rscale>
<asrwt>0</asrwt>
<pdfrwt beam="1">  1        3 0.13264320E+00 0.89599744E+02</pdfrwt>
<pdfrwt beam="2">  1       -3 0.35813095E-03 0.89599744E+02</pdfrwt>
<totfact> 0.12107007E+04</totfact>
</mgrwt>
</event>
<event>
 5    1  0.4067226E+001  0.9126872E+02  0.7546771E-02  0.1299808E+00
         -2   -1    0    0    0  501 -0.00000000000E+00  0.00000000000E+00  0.21118515809E+02  0.21118515809E+02  0.00000000000E+00 0.  1.
          2   -1    0    0  501    0  0.00000000000E+00 -0.00000000000E+00 -0.98609912433E+02  0.98609912433E+02  0.00000000000E+00 0. -1.
         23    2    1    2    0    0  0.00000000000E+00  0.00000000000E+00 -0.77491396625E+02  0.11972842824E+03  0.91268723989E+02 0.  0.
          2    1    3    3  502    0 -0.42566369372E+02 -0.75359831413E+01 -0.57927413207E+02  0.72279125923E+02  0.00000000000E+00 0. -1.
         -2    1    3    3    0  502  0.42566369372E+02  0.75359831413E+01 -0.19563983418E+02  0.47449302319E+02  0.00000000000E+00 0.  1.
<mgrwt>
<rscale>  0 0.91268724E+02</rscale>
<asrwt>0</asrwt>
<pdfrwt beam="2">  1        2 0.15170756E-01 0.91268724E+02</pdfrwt>
<pdfrwt beam="1">  1       -2 0.32490024E-02 0.91268724E+02</pdfrwt>
<totfact> 0.12181660E+05</totfact>
</mgrwt>
</event>
<event>
 5    1  0.4067226E+001  0.8876030E+02  0.7546771E-02  0.1305882E+00
         -2   -1    0    0    0  501 -0.00000000000E+00  0.00000000000E+00  0.20713500496E+01  0.20713500496E+01  0.00000000000E+00 0.  1.
          2   -1    0    0  501    0  0.00000000000E+00 -0.00000000000E+00 -0.95087634287E+03  0.95087634287E+03  0.00000000000E+00 0. -1.
         23    2    1    2    0    0  0.00000000000E+00  0.00000000000E+00 -0.94880499282E+03  0.95294769292E+03  0.88760301036E+02 0.  0.
          2    1    3    3  502    0  0.29344756004E+01 -0.43115712245E+02 -0.36596058838E+03  0.36850336232E+03  0.00000000000E+00 0. -1.
         -2    1    3    3    0  502 -0.29344756004E+01  0.43115712245E+02 -0.58284440444E+03  0.58444433060E+03  0.00000000000E+00 0.  1.
<mgrwt>
<rscale>  0 0.88760301E+02</rscale>
<asrwt>0</asrwt>
<pdfrwt beam="2">  1        2 0.14628907E+00 0.88760301E+02</pdfrwt>
<pdfrwt beam="1">  1       -2 0.31866837E-03 0.88760301E+02</pdfrwt>
<totfact> 0.26749017E+05</totfact>
</mgrwt>
</event>
<event>
 5    1  0.4067226E+001  0.9105207E+02  0.7546771E-02  0.1300324E+00
         -3   -1    0    0    0  501 -0.00000000000E+00  0.00000000000E+00  0.27260257765E+02  0.27260257765E+02  0.00000000000E+00 0.  1.
          3   -1    0    0  501    0  0.00000000000E+00 -0.00000000000E+00 -0.76030817766E+02  0.76030817766E+02  0.00000000000E+00 0. -1.
         23    2    1    2    0    0  0.00000000000E+00  0.00000000000E+00 -0.48770560001E+02  0.10329107553E+03  0.91052066213E+02 0.  0.
          2    1    3    3  502    0 -0.14988122531E+02 -0.27308680191E+02 -0.62047466869E+02  0.69428351382E+02  0.00000000000E+00 0. -1.
         -2    1    3    3    0  502  0.14988122531E+02  0.27308680191E+02  0.13276906869E+02  0.33862724149E+02  0.00000000000E+00 0.  1.
<mgrwt>
<rscale>  0 0.91052066E+02</rscale>
<asrwt>0</asrwt>
<pdfrwt beam="2">  1        3 0.11697049E-01 0.91052066E+02</pdfrwt>
<pdfrwt beam="1">  1       -3 0.41938859E-02 0.91052066E+02</pdfrwt>
<totfact> 0.34557650E+04</totfact>
</mgrwt>
</event>
<event>
 5    1  0.4067226E+001  0.8947440E+02  0.7546771E-02  0.1304130E+00
         -2   -1    0    0    0  501 -0.00000000000E+00  0.00000000000E+00  0.19632828951E+02  0.19632828951E+02  0.00000000000E+00 0.  1.
          2   -1    0    0  501    0  0.00000000000E+00 -0.00000000000E+00 -0.10194236466E+03  0.10194236466E+03  0.00000000000E+00 0. -1.
         23    2    1    2    0    0  0.00000000000E+00  0.00000000000E+00 -0.82309535711E+02  0.12157519361E+03  0.89474398759E+02 0.  0.
          2    1    3    3  502    0  0.81757973118E+01 -0.26334578638E+02 -0.89022532854E+02  0.93195305941E+02  0.00000000000E+00 0. -1.
         -2    1    3    3    0  502 -0.81757973118E+01  0.26334578638E+02  0.67129971427E+01  0.28379887673E+02  0.00000000000E+00 0.  1.
<mgrwt>
<rscale>  0 0.89474399E+02</rscale>
<asrwt>0</asrwt>
<pdfrwt beam="2">  1        2 0.15683441E-01 0.89474399E+02</pdfrwt>
<pdfrwt beam="1">  1       -2 0.30204352E-02 0.89474399E+02</pdfrwt>
<totfact> 0.12995152E+05</totfact>
</mgrwt>
</event>
<event>
 5    1  0.4067226E+001  0.9083225E+02  0.7546771E-02  0.1300849E+00
         -2   -1    0    0    0  501 -0.00000000000E+00  0.00000000000E+00  0.72033208496E+00  0.72033208496E+00  0.00000000000E+00 0.  1.
          2   -1    0    0  501    0  0.00000000000E+00 -0.00000000000E+00 -0.28634353263E+04  0.28634353263E+04  0.00000000000E+00 0. -1.
         23    2    1    2    0    0  0.00000000000E+00  0.00000000000E+00 -0.28627149942E+04  0.28641556584E+04  0.90832248431E+02 0.  0.
          2    1    3    3  502    0 -0.18932046400E+02  0.30084545488E+02 -0.23227379735E+04  0.23230099431E+04  0.00000000000E+00 0. -1.
         -2    1    3    3    0  502  0.18932046400E+02 -0.30084545488E+02 -0.53997702073E+03  0.54114571529E+03  0.00000000000E+00 0.  1.
<mgrwt>
<rscale>  0 0.90832248E+02</rscale>
<asrwt>0</asrwt>
<pdfrwt beam="2">  1        2 0.44053367E+00 0.90832248E+02</pdfrwt>
<pdfrwt beam="1">  1       -2 0.11081902E-03 0.90832248E+02</pdfrwt>
<totfact> 0.11521673E+05</totfact>
</mgrwt>
</event>
<event>
 5    1  0.4067226E+001  0.9025346E+02  0.7546771E-02  0.1302239E+00
         -2   -1    0    0    0  501 -0.00000000000E+00  0.00000000000E+00  0.60461859269E+01  0.60461859269E+01  0.00000000000E+00 0.  1.
          2   -1    0    0  501    0  0.00000000000E+00 -0.00000000000E+00 -0.33681096143E+03  0.33681096143E+03  0.00000000000E+00 0. -1.
         23    2    1    2    0    0  0.00000000000E+00  0.00000000000E+00 -0.33076477550E+03  0.34285714735E+03  0.90253458549E+02 0.  0.
          2    1    3    3  502    0  0.16232201031E+02 -0.23534772461E+02 -0.29801808950E+03  0.29938629150E+03  0.00000000000E+00 0. -1.
         -2    1    3    3    0  502 -0.16232201031E+02  0.23534772461E+02 -0.32746685994E+02  0.43470855854E+02  0.00000000000E+00 0.  1.
<mgrwt>
<rscale>  0 0.90253459E+02</rscale>
<asrwt>0</asrwt>
<pdfrwt beam="2">  1        2 0.51817089E-01 0.90253459E+02</pdfrwt>
<pdfrwt beam="1">  1       -2 0.93018213E-03 0.90253459E+02</pdfrwt>
<totfact> 0.19268026E+05</totfact>
</mgrwt>
</event>
<event>
 5    1  0.4067226E+001  0.8880331E+02  0.7546771E-02  0.1305776E+00
         -1   -1    0    0    0  501 -0.00000000000E+00  0.00000000000E+00  0.85383042525E+03  0.85383042525E+03  0.00000000000E+00 0.  1.
          1   -1    0    0  501    0  0.00000000000E+00 -0.00000000000E+00 -0.23090147158E+01  0.23090147158E+01  0.00000000000E+00 0. -1.
         23    2    1    2    0    0  0.00000000000E+00  0.00000000000E+00  0.85152141054E+03  0.85613943997E+03  0.88803311125E+02 0.  0.
          2    1    3    3  502    0  0.36357681403E+01  0.29368623583E+02  0.10662494195E+03  0.11065537992E+03  0.00000000000E+00 0. -1.
         -2    1    3    3    0  502 -0.36357681403E+01 -0.29368623583E+02  0.74489646859E+03  0.74548406004E+03  0.00000000000E+00 0.  1.
<mgrwt>
<rscale>  0 0.88803311E+02</rscale>
<asrwt>0</asrwt>
<pdfrwt beam="2">  1        1 0.35523371E-03 0.88803311E+02</pdfrwt>
<pdfrwt beam="1">  1       -1 0.13135827E+00 0.88803311E+02</pdfrwt>
<totfact> 0.32791677E+04</totfact>
</mgrwt>
</event>
<event>
 5    1  0.4067226E+001  0.9077989E+02  0.7546771E-02  0.1300974E+00
          1   -1    0    0  501    0  0.00000000000E+00  0.00000000000E+00  0.99906149365E+02  0.99906149365E+02  0.00000000000E+00 0. -1.
         -1   -1    0    0    0  501 -0.00000000000E+00 -0.00000000000E+00 -0.20621822621E+02  0.20621822621E+02  0.00000000000E+00 0.  1.
         23    2    1    2    0    0  0.00000000000E+00  0.00000000000E+00  0.79284326744E+02  0.12052797199E+03  0.90779885237E+02 0.  0.
          2    1    3    3  502    0 -0.30931763918E+02 -0.32697592110E+02  0.31861788402E+02  0.55145989057E+02  0.00000000000E+00 0. -1.
         -2    1    3    3    0  502  0.30931763918E+02  0.32697592110E+02  0.47422538342E+02  0.65381982929E+02  0.00000000000E+00 0.  1.
<mgrwt>
<rscale>  0 0.90779885E+02</rscale>
<asrwt>0</asrwt>
<pdfrwt beam="1">  1        1 0.15370177E-01 0.90779885E+02</pdfrwt>
<pdfrwt beam="2">  1       -1 0.31725882E-02 0.90779885E+02</pdfrwt>
<totfact> 0.10568438E+05</totfact>
</mgrwt>
</event>
<event>
 5    1  0.4067226E+001  0.9577556E+02  0.7546771E-02  0.1289439E+00
         -1   -1    0    0    0  501 -0.00000000000E+00  0.00000000000E+00  0.21369013942E+01  0.21369013942E+01  0.00000000000E+00 0.  1.
          1   -1    0    0  501    0  0.00000000000E+00 -0.00000000000E+00 -0.10731611610E+04  0.10731611610E+04  0.00000000000E+00 0. -1.
         23    2    1    2    0    0  0.00000000000E+00  0.00000000000E+00 -0.10710242596E+04  0.10752980624E+04  0.95775562251E+02 0.  0.
          2    1    3    3  502    0  0.36767386115E+02 -0.26925397302E+01 -0.87866075218E+03  0.87943379959E+03  0.00000000000E+00 0. -1.
         -2    1    3    3    0  502 -0.36767386115E+02  0.26925397302E+01 -0.19236350742E+03  0.19586426279E+03  0.00000000000E+00 0.  1.
<mgrwt>
<rscale>  0 0.95775562E+02</rscale>
<asrwt>0</asrwt>
<pdfrwt beam="2">  1        1 0.16510160E+00 0.95775562E+02</pdfrwt>
<pdfrwt beam="1">  1       -1 0.32875430E-03 0.95775562E+02</pdfrwt>
<totfact> 0.11687576E+05</totfact>
</mgrwt>
</event>
<event>
 5    1  0.4067226E+001  0.9023265E+02  0.7546771E-02  0.1302289E+00
          2   -1    0    0  501    0  0.00000000000E+00  0.00000000000E+00  0.19690127853E+04  0.19690127853E+04  0.00000000000E+00 0. -1.
         -2   -1    0    0    0  501 -0.00000000000E+00 -0.00000000000E+00 -0.10337581149E+01  0.10337581149E+01  0.00000000000E+00 0.  1.
         23    2    1    2    0    0  0.00000000000E+00  0.00000000000E+00  0.19679790272E+04  0.19700465435E+04  0.90232653628E+02 0.  0.
          2    1    3    3  502    0 -0.15927371892E+02 -0.36519297461E+02  0.14461799044E+04  0.14467286048E+04  0.00000000000E+00 0. -1.
         -2    1    3    3    0  502  0.15927371892E+02  0.36519297461E+02  0.52179912286E+03  0.52331793862E+03  0.00000000000E+00 0.  1.
<mgrwt>
<rscale>  0 0.90232654E+02</rscale>
<asrwt>0</asrwt>
<pdfrwt beam="1">  1        2 0.30292204E+00 0.90232654E+02</pdfrwt>
<pdfrwt beam="2">  1       -2 0.15904129E-03 0.90232654E+02</pdfrwt>
<totfact> 0.20520385E+05</totfact>
</mgrwt>
</event>
<event>
 5    1  0.4067226E+001  0.9043552E+02  0.7546771E-02  0.1301800E+00
         -1   -1    0    0    0  501 -0.00000000000E+00  0.00000000000E+00  0.24520097780E+03  0.24520097780E+03  0.00000000000E+00 0. -1.
          1   -1    0    0  501    0  0.00000000000E+00 -0.00000000000E+00 -0.83386520955E+01  0.83386520955E+01  0.00000000000E+00 0.  1.
         23    2    1    2    0    0  0.00000000000E+00  0.00000000000E+00  0.23686232571E+03  0.25353962990E+03  0.90435516195E+02 0.  0.
          2    1    3    3  502    0 -0.40937873948E+02 -0.17676337144E+02  0.13946392611E+03  0.14641908722E+03  0.00000000000E+00 0.  1.
         -2    1    3    3    0  502  0.40937873948E+02  0.17676337144E+02  0.97398399598E+02  0.10712054267E+03  0.00000000000E+00 0. -1.
<mgrwt>
<rscale>  0 0.90435516E+02</rscale>
<asrwt>0</asrwt>
<pdfrwt beam="2">  1        1 0.12828697E-02 0.90435516E+02</pdfrwt>
<pdfrwt beam="1">  1       -1 0.37723222E-01 0.90435516E+02</pdfrwt>
<totfact> 0.66591767E+04</totfact>
</mgrwt>
</event>
<event>
 5    1  0.4067226E+001  0.8873687E+02  0.7546771E-02  0.1305940E+00
         -2   -1    0    0    0  501 -0.00000000000E+00  0.00000000000E+00  0.23216640578E+01  0.23216640578E+01  0.00000000000E+00 0.  1.
          2   -1    0    0  501    0  0.00000000000E+00 -0.00000000000E+00 -0.84790814560E+03  0.84790814560E+03  0.00000000000E+00 0. -1.
         23    2    1    2    0    0  0.00000000000E+00  0.00000000000E+00 -0.84558648155E+03  0.85022980966E+03  0.88736866430E+02 0.  0.
          2    1    3    3  502    0  0.15726701660E+02 -0.29637879080E+02 -0.70095722851E+03  0.70175976603E+03  0.00000000000E+00 0. -1.
         -2    1    3    3    0  502 -0.15726701660E+02  0.29637879080E+02 -0.14462925304E+03  0.14847004363E+03  0.00000000000E+00 0.  1.
<mgrwt>
<rscale>  0 0.88736866E+02</rscale>
<asrwt>0</asrwt>
<pdfrwt beam="2">  1        2 0.13044753E+00 0.88736866E+02</pdfrwt>
<pdfrwt beam="1">  1       -2 0.35717876E-03 0.88736866E+02</pdfrwt>
<totfact> 0.26423220E+05</totfact>
</mgrwt>
</event>
<event>
 5    1  0.4067226E+001  0.8847139E+02  0.7546771E-02  0.1306596E+00
          2   -1    0    0  501    0  0.00000000000E+00  0.00000000000E+00  0.97701621423E+02  0.97701621423E+02  0.00000000000E+00 0. -1.
         -2   -1    0    0    0  501 -0.00000000000E+00 -0.00000000000E+00 -0.20028291553E+02  0.20028291553E+02  0.00000000000E+00 0.  1.
         23    2    1    2    0    0  0.00000000000E+00  0.00000000000E+00  0.77673329871E+02  0.11772991298E+03  0.88471386539E+02 0.  0.
          2    1    3    3  502    0  0.27184485132E+02  0.16370233038E+01  0.85223384434E+02  0.89468996482E+02  0.00000000000E+00 0. -1.
         -2    1    3    3    0  502 -0.27184485132E+02 -0.16370233038E+01 -0.75500545631E+01  0.28260916494E+02  0.00000000000E+00 0.  1.
<mgrwt>
<rscale>  0 0.88471387E+02</rscale>
<asrwt>0</asrwt>
<pdfrwt beam="1">  1        2 0.15031018E-01 0.88471387E+02</pdfrwt>
<pdfrwt beam="2">  1       -2 0.30812757E-02 0.88471387E+02</pdfrwt>
<totfact> 0.13232252E+05</totfact>
</mgrwt>
</event>
<event>
 5    1  0.4067226E+001  0.9268264E+02  0.7546771E-02  0.1296482E+00
         -2   -1    0    0    0  501 -0.00000000000E+00  0.00000000000E+00  0.53120335754E+02  0.53120335754E+02  0.00000000000E+00 0.  1.
          2   -1    0    0  501    0  0.00000000000E+00 -0.00000000000E+00 -0.40427420327E+02  0.40427420327E+02  0.00000000000E+00 0. -1.
         23    2    1    2    0    0  0.00000000000E+00  0.00000000000E+00  0.12692915427E+02  0.93547756081E+02  0.92682644361E+02 0.  0.
          2    1    3    3  502    0  0.26394279829E+02 -0.20124912136E+02 -0.26294978009E+02  0.42344963864E+02  0.00000000000E+00 0. -1.
         -2    1    3    3    0  502 -0.26394279829E+02  0.20124912136E+02  0.38987893436E+02  0.51202792216E+02  0.00000000000E+00 0.  1.
<mgrwt>
<rscale>  0 0.92682644E+02</rscale>
<asrwt>0</asrwt>
<pdfrwt beam="2">  1        2 0.62196031E-02 0.92682644E+02</pdfrwt>
<pdfrwt beam="1">  1       -2 0.81723594E-02 0.92682644E+02</pdfrwt>
<totfact> 0.91210405E+04</totfact>
</mgrwt>
</event>
<event>
 5    1  0.4067226E+001  0.9141721E+02  0.7546771E-02  0.1299456E+00
          2   -1    0    0  501    0  0.00000000000E+00  0.00000000000E+00  0.14226496349E+03  0.14226496349E+03  0.00000000000E+00 0. -1.
         -2   -1    0    0    0  501 -0.00000000000E+00 -0.00000000000E+00 -0.14685813980E+02  0.14685813980E+02  0.00000000000E+00 0.  1.
         23    2    1    2    0    0  0.00000000000E+00  0.00000000000E+00  0.12757914951E+03  0.15695077747E+03  0.91417214781E+02 0.  0.
          2    1    3    3  502    0  0.18565896437E+02  0.30730549773E+02  0.11235637959E+03  0.11795344520E+03  0.00000000000E+00 0. -1.
         -2    1    3    3    0  502 -0.18565896437E+02 -0.30730549773E+02  0.15222769914E+02  0.38997332264E+02  0.00000000000E+00 0.  1.
<mgrwt>
<rscale>  0 0.91417215E+02</rscale>
<asrwt>0</asrwt>
<pdfrwt beam="1">  1        2 0.21886916E-01 0.91417215E+02</pdfrwt>
<pdfrwt beam="2">  1       -2 0.22593561E-02 0.91417215E+02</pdfrwt>
<totfact> 0.13634956E+05</totfact>
</mgrwt>
</event>
<event>
 5    1  0.4067226E+001  0.9088870E+02  0.7546771E-02  0.1300714E+00
          1   -1    0    0  501    0  0.00000000000E+00  0.00000000000E+00  0.93429787516E+03  0.93429787516E+03  0.00000000000E+00 0. -1.
         -1   -1    0    0    0  501 -0.00000000000E+00 -0.00000000000E+00 -0.22104179602E+01  0.22104179602E+01  0.00000000000E+00 0.  1.
         23    2    1    2    0    0  0.00000000000E+00  0.00000000000E+00  0.93208745720E+03  0.93650829312E+03  0.90888696843E+02 0.  0.
          2    1    3    3  502    0  0.55673962722E+01  0.40581113978E+02  0.66884120727E+03  0.67009430923E+03  0.00000000000E+00 0. -1.
         -2    1    3    3    0  502 -0.55673962722E+01 -0.40581113978E+02  0.26324624993E+03  0.26641398389E+03  0.00000000000E+00 0.  1.
<mgrwt>
<rscale>  0 0.90888697E+02</rscale>
<asrwt>0</asrwt>
<pdfrwt beam="1">  1        1 0.14373782E+00 0.90888697E+02</pdfrwt>
<pdfrwt beam="2">  1       -1 0.34006505E-03 0.90888697E+02</pdfrwt>
<totfact> 0.13935973E+05</totfact>
</mgrwt>
</event>
<event>
 5    1  0.4067226E+001  0.9141424E+02  0.7546771E-02  0.1299463E+00
          1   -1    0    0  501    0  0.00000000000E+00  0.00000000000E+00  0.37276714643E+02  0.37276714643E+02  0.00000000000E+00 0. -1.
         -1   -1    0    0    0  501 -0.00000000000E+00 -0.00000000000E+00 -0.56044118276E+02  0.56044118276E+02  0.00000000000E+00 0.  1.
         23    2    1    2    0    0  0.00000000000E+00  0.00000000000E+00 -0.18767403633E+02  0.93320832919E+02  0.91414235312E+02 0.  0.
          2    1    3    3  502    0  0.42042489624E+02  0.63659351061E+01 -0.26497734324E+02  0.50102155521E+02  0.00000000000E+00 0.  1.
         -2    1    3    3    0  502 -0.42042489624E+02 -0.63659351061E+01  0.77303306908E+01  0.43218677399E+02  0.00000000000E+00 0. -1.
<mgrwt>
<rscale>  0 0.91414235E+02</rscale>
<asrwt>0</asrwt>
<pdfrwt beam="1">  1        1 0.57348792E-02 0.91414235E+02</pdfrwt>
<pdfrwt beam="2">  1       -1 0.86221720E-02 0.91414235E+02</pdfrwt>
<totfact> 0.89033010E+04</totfact>
</mgrwt>
</event>
<event>
 5    1  0.4067226E+001  0.9149128E+02  0.7546771E-02  0.1299280E+00
         -2   -1    0    0    0  501 -0.00000000000E+00  0.00000000000E+00  0.24060317076E+02  0.24060317076E+02  0.00000000000E+00 0.  1.
          2   -1    0    0  501    0  0.00000000000E+00 -0.00000000000E+00 -0.86975729654E+02  0.86975729654E+02  0.00000000000E+00 0. -1.
         23    2    1    2    0    0  0.00000000000E+00  0.00000000000E+00 -0.62915412578E+02  0.11103604673E+03  0.91491281188E+02 0.  0.
          2    1    3    3  502    0 -0.13467990054E+02 -0.27962114192E+02 -0.72243376732E+02  0.78628061580E+02  0.00000000000E+00 0. -1.
         -2    1    3    3    0  502  0.13467990054E+02  0.27962114192E+02  0.93279641539E+01  0.32407985149E+02  0.00000000000E+00 0.  1.
<mgrwt>
<rscale>  0 0.91491281E+02</rscale>
<asrwt>0</asrwt>
<pdfrwt beam="2">  1        2 0.13380881E-01 0.91491281E+02</pdfrwt>
<pdfrwt beam="1">  1       -2 0.37015873E-02 0.91491281E+02</pdfrwt>
<totfact> 0.11655093E+05</totfact>
</mgrwt>
</event>
<event>
 5    1  0.4067226E+001  0.8915923E+02  0.7546771E-02  0.1304901E+00
          2   -1    0    0  501    0  0.00000000000E+00  0.00000000000E+00  0.41157142255E+02  0.41157142255E+02  0.00000000000E+00 0. -1.
         -2   -1    0    0    0  501 -0.00000000000E+00 -0.00000000000E+00 -0.48286691691E+02  0.48286691691E+02  0.00000000000E+00 0.  1.
         23    2    1    2    0    0  0.00000000000E+00  0.00000000000E+00 -0.71295494370E+01  0.89443833946E+02  0.89159233710E+02 0.  0.
          2    1    3    3  502    0  0.29779461513E+02  0.20073473441E+01  0.29654312729E+02  0.42074030408E+02  0.00000000000E+00 0. -1.
         -2    1    3    3    0  502 -0.29779461513E+02 -0.20073473441E+01 -0.36783862166E+02  0.47369803538E+02  0.00000000000E+00 0.  1.
<mgrwt>
<rscale>  0 0.89159234E+02</rscale>
<asrwt>0</asrwt>
<pdfrwt beam="1">  1        2 0.63318680E-02 0.89159234E+02</pdfrwt>
<pdfrwt beam="2">  1       -2 0.74287218E-02 0.89159234E+02</pdfrwt>
<totfact> 0.10249496E+05</totfact>
</mgrwt>
</event>
<event>
 5    1  0.4067226E+001  0.1014120E+03  0.7546771E-02  0.1277354E+00
          1   -1    0    0  501    0  0.00000000000E+00  0.00000000000E+00  0.26005635384E+03  0.26005635384E+03  0.00000000000E+00 0. -1.
         -1   -1    0    0    0  501 -0.00000000000E+00 -0.00000000000E+00 -0.98866940877E+01  0.98866940877E+01  0.00000000000E+00 0.  1.
         23    2    1    2    0    0  0.00000000000E+00  0.00000000000E+00  0.25016965976E+03  0.26994304793E+03  0.10141198383E+03 0.  0.
          2    1    3    3  502    0 -0.20841835714E+02 -0.41663211722E+02  0.17838108818E+03  0.18436381952E+03  0.00000000000E+00 0. -1.
         -2    1    3    3    0  502  0.20841835714E+02  0.41663211722E+02  0.71788571574E+02  0.85579228412E+02  0.00000000000E+00 0.  1.
<mgrwt>
<rscale>  0 0.10141198E+03</rscale>
<asrwt>0</asrwt>
<pdfrwt beam="1">  1        1 0.40008665E-01 0.10141198E+03</pdfrwt>
<pdfrwt beam="2">  1       -1 0.15210301E-02 0.10141198E+03</pdfrwt>
<totfact> 0.93645491E+04</totfact>
</mgrwt>
</event>
<event>
 5    1  0.4067226E+001  0.9341769E+02  0.7546771E-02  0.1294780E+00
         -2   -1    0    0    0  501 -0.00000000000E+00  0.00000000000E+00  0.75324341461E+01  0.75324341461E+01  0.00000000000E+00 0.  1.
          2   -1    0    0  501    0  0.00000000000E+00 -0.00000000000E+00 -0.28964292251E+03  0.28964292251E+03  0.00000000000E+00 0. -1.
         23    2    1    2    0    0  0.00000000000E+00  0.00000000000E+00 -0.28211048837E+03  0.29717535666E+03  0.93417690824E+02 0.  0.
          2    1    3    3  502    0  0.19358707331E+02  0.41107740754E+02 -0.10662966258E+03  0.11590725103E+03  0.00000000000E+00 0. -1.
         -2    1    3    3    0  502 -0.19358707331E+02 -0.41107740754E+02 -0.17548082579E+03  0.18126810563E+03  0.00000000000E+00 0.  1.
<mgrwt>
<rscale>  0 0.93417691E+02</rscale>
<asrwt>0</asrwt>
<pdfrwt beam="2">  1        2 0.44560451E-01 0.93417691E+02</pdfrwt>
<pdfrwt beam="1">  1       -2 0.11588360E-02 0.93417691E+02</pdfrwt>
<totfact> 0.16617116E+05</totfact>
</mgrwt>
</event>
<event>
 5    1  0.4067226E+001  0.9246905E+02  0.7546771E-02  0.1296980E+00
         -1   -1    0    0    0  501 -0.00000000000E+00  0.00000000000E+00  0.86858605724E+01  0.86858605724E+01  0.00000000000E+00 0.  1.
          1   -1    0    0  501    0  0.00000000000E+00 -0.00000000000E+00 -0.24610471483E+03  0.24610471483E+03  0.00000000000E+00 0. -1.
         23    2    1    2    0    0  0.00000000000E+00  0.00000000000E+00 -0.23741885425E+03  0.25479057540E+03  0.92469048642E+02 0.  0.
          2    1    3    3  502    0  0.65796264794E+01  0.44815079292E+02 -0.93164426043E+02  0.10359195479E+03  0.00000000000E+00 0.  1.
         -2    1    3    3    0  502 -0.65796264794E+01 -0.44815079292E+02 -0.14425442821E+03  0.15119862061E+03  0.00000000000E+00 0. -1.
<mgrwt>
<rscale>  0 0.92469049E+02</rscale>
<asrwt>0</asrwt>
<pdfrwt beam="2">  1        1 0.37862270E-01 0.92469049E+02</pdfrwt>
<pdfrwt beam="1">  1       -1 0.13362860E-02 0.92469049E+02</pdfrwt>
<totfact> 0.11873545E+05</totfact>
</mgrwt>
</event>
<event>
 5    1  0.4067226E+001  0.9078980E+02  0.7546771E-02  0.1300950E+00
          1   -1    0    0  501    0  0.00000000000E+00  0.00000000000E+00  0.68094124052E+02  0.68094124052E+02  0.00000000000E+00 0. -1.
         -1   -1    0    0    0  501 -0.00000000000E+00 -0.00000000000E+00 -0.30262476908E+02  0.30262476908E+02  0.00000000000E+00 0.  1.
         23    2    1    2    0    0  0.00000000000E+00  0.00000000000E+00  0.37831647144E+02  0.98356600960E+02  0.90789798032E+02 0.  0.
          2    1    3    3  502    0  0.14783134725E+02 -0.37663255815E+02  0.41213640778E+02  0.57754879422E+02  0.00000000000E+00 0.  1.
         -2    1    3    3    0  502 -0.14783134725E+02  0.37663255815E+02 -0.33819936340E+01  0.40601721538E+02  0.00000000000E+00 0. -1.
<mgrwt>
<rscale>  0 0.90789798E+02</rscale>
<asrwt>0</asrwt>
<pdfrwt beam="1">  1        1 0.10476019E-01 0.90789798E+02</pdfrwt>
<pdfrwt beam="2">  1       -1 0.46557657E-02 0.90789798E+02</pdfrwt>
<totfact> 0.99408300E+04</totfact>
</mgrwt>
</event>
<event>
 5    1  0.4067226E+001  0.9256224E+02  0.7546771E-02  0.1296763E+00
         -1   -1    0    0    0  501 -0.00000000000E+00  0.00000000000E+00  0.40680044148E+03  0.40680044148E+03  0.00000000000E+00 0.  1.
          1   -1    0    0  501    0  0.00000000000E+00 -0.00000000000E+00 -0.52653382900E+01  0.52653382900E+01  0.00000000000E+00 0. -1.
         23    2    1    2    0    0  0.00000000000E+00  0.00000000000E+00  0.40153510319E+03  0.41206577977E+03  0.92562237244E+02 0.  0.
          2    1    3    3  502    0  0.25201267828E+02 -0.29274857936E+02  0.87284896341E+02  0.95450376304E+02  0.00000000000E+00 0. -1.
         -2    1    3    3    0  502 -0.25201267828E+02  0.29274857936E+02  0.31425020685E+03  0.31661540347E+03  0.00000000000E+00 0.  1.
<mgrwt>
<rscale>  0 0.92562237E+02</rscale>
<asrwt>0</asrwt>
<pdfrwt beam="2">  1        1 0.81005236E-03 0.92562237E+02</pdfrwt>
<pdfrwt beam="1">  1       -1 0.62584659E-01 0.92562237E+02</pdfrwt>
<totfact> 0.50785397E+04</totfact>
</mgrwt>
</event>
<event>
 5    1  0.4067226E+001  0.8539705E+02  0.7546771E-02  0.1314397E+00
          2   -1    0    0  501    0  0.00000000000E+00  0.00000000000E+00  0.10694829152E+02  0.10694829152E+02  0.00000000000E+00 0. -1.
         -2   -1    0    0    0  501 -0.00000000000E+00 -0.00000000000E+00 -0.17047155587E+03  0.17047155587E+03  0.00000000000E+00 0.  1.
         23    2    1    2    0    0  0.00000000000E+00  0.00000000000E+00 -0.15977672672E+03  0.18116638502E+03  0.85397053003E+02 0.  0.
          2    1    3    3  502    0  0.37151889601E+02  0.69933363149E+01 -0.37778888939E+02  0.53445431078E+02  0.00000000000E+00 0. -1.
         -2    1    3    3    0  502 -0.37151889601E+02 -0.69933363149E+01 -0.12199783778E+03  0.12772095395E+03  0.00000000000E+00 0.  1.
<mgrwt>
<rscale>  0 0.85397053E+02</rscale>
<asrwt>0</asrwt>
<pdfrwt beam="1">  1        2 0.16453582E-02 0.85397053E+02</pdfrwt>
<pdfrwt beam="2">  1       -2 0.26226395E-01 0.85397053E+02</pdfrwt>
<totfact> 0.78599165E+04</totfact>
</mgrwt>
</event>
<event>
 5    1  0.4067226E+001  0.1043801E+03  0.7546771E-02  0.1271346E+00
          2   -1    0    0  501    0  0.00000000000E+00  0.00000000000E+00  0.31910503197E+03  0.31910503197E+03  0.00000000000E+00 0. -1.
         -2   -1    0    0    0  501 -0.00000000000E+00 -0.00000000000E+00 -0.85357590165E+01  0.85357590165E+01  0.00000000000E+00 0.  1.
         23    2    1    2    0    0  0.00000000000E+00  0.00000000000E+00  0.31056927295E+03  0.32764079098E+03  0.10438014474E+03 0.  0.
          2    1    3    3  502    0 -0.45814545110E+02  0.18290339287E+02  0.20876564013E+03  0.21451480497E+03  0.00000000000E+00 0. -1.
         -2    1    3    3    0  502  0.45814545110E+02 -0.18290339287E+02  0.10180363282E+03  0.11312598601E+03  0.00000000000E+00 0.  1.
<mgrwt>
<rscale>  0 0.10438014E+03</rscale>
<asrwt>0</asrwt>
<pdfrwt beam="1">  1        2 0.49093073E-01 0.10438014E+03</pdfrwt>
<pdfrwt beam="2">  1       -2 0.13131939E-02 0.10438014E+03</pdfrwt>
<totfact> 0.12783890E+05</totfact>
</mgrwt>
</event>
<event>
 5    1  0.4067226E+001  0.9144332E+02  0.7546771E-02  0.1299394E+00
         -1   -1    0    0    0  501 -0.00000000000E+00  0.00000000000E+00  0.33519175101E+01  0.33519175101E+01  0.00000000000E+00 0.  1.
          1   -1    0    0  501    0  0.00000000000E+00 -0.00000000000E+00 -0.62366391579E+03  0.62366391579E+03  0.00000000000E+00 0. -1.
         23    2    1    2    0    0  0.00000000000E+00  0.00000000000E+00 -0.62031199828E+03  0.62701583330E+03  0.91443315770E+02 0.  0.
          2    1    3    3  502    0 -0.28001836259E+02  0.18828329666E+02 -0.52170615381E+03  0.52279625071E+03  0.00000000000E+00 0. -1.
         -2    1    3    3    0  502  0.28001836259E+02 -0.18828329666E+02 -0.98605844469E+02  0.10421958259E+03  0.00000000000E+00 0.  1.
<mgrwt>
<rscale>  0 0.91443316E+02</rscale>
<asrwt>0</asrwt>
<pdfrwt beam="2">  1        1 0.95948331E-01 0.91443316E+02</pdfrwt>
<pdfrwt beam="1">  1       -1 0.51567942E-03 0.91443316E+02</pdfrwt>
<totfact> 0.14078136E+05</totfact>
</mgrwt>
</event>
<event>
 5    1  0.4067226E+001  0.9177179E+02  0.7546771E-02  0.1298617E+00
         -1   -1    0    0    0  501 -0.00000000000E+00  0.00000000000E+00  0.12140661956E+01  0.12140661956E+01  0.00000000000E+00 0.  1.
          1   -1    0    0  501    0  0.00000000000E+00 -0.00000000000E+00 -0.17342672499E+04  0.17342672499E+04  0.00000000000E+00 0. -1.
         23    2    1    2    0    0  0.00000000000E+00  0.00000000000E+00 -0.17330531837E+04  0.17354813161E+04  0.91771787437E+02 0.  0.
          2    1    3    3  502    0 -0.36908225188E+02  0.21647562294E+02 -0.11799455207E+04  0.11807210787E+04  0.00000000000E+00 0. -1.
         -2    1    3    3    0  502  0.36908225188E+02 -0.21647562294E+02 -0.55310766304E+03  0.55476023736E+03  0.00000000000E+00 0.  1.
<mgrwt>
<rscale>  0 0.91771787E+02</rscale>
<asrwt>0</asrwt>
<pdfrwt beam="2">  1        1 0.26680974E+00 0.91771787E+02</pdfrwt>
<pdfrwt beam="1">  1       -1 0.18677984E-03 0.91771787E+02</pdfrwt>
<totfact> 0.94423614E+04</totfact>
</mgrwt>
</event>
<event>
 5    1  0.4067226E+001  0.9115813E+02  0.7546771E-02  0.1300071E+00
         -1   -1    0    0    0  501 -0.00000000000E+00  0.00000000000E+00  0.25259213494E+02  0.25259213494E+02  0.00000000000E+00 0.  1.
          1   -1    0    0  501    0  0.00000000000E+00 -0.00000000000E+00 -0.82245289573E+02  0.82245289573E+02  0.00000000000E+00 0. -1.
         23    2    1    2    0    0  0.00000000000E+00  0.00000000000E+00 -0.56986076080E+02  0.10750450307E+03  0.91158133552E+02 0.  0.
          2    1    3    3  502    0 -0.17888129108E+02  0.16903151175E+02 -0.73735705388E+02  0.77734522136E+02  0.00000000000E+00 0. -1.
         -2    1    3    3    0  502  0.17888129108E+02 -0.16903151175E+02  0.16749629309E+02  0.29769980931E+02  0.00000000000E+00 0.  1.
<mgrwt>
<rscale>  0 0.91158134E+02</rscale>
<asrwt>0</asrwt>
<pdfrwt beam="2">  1        1 0.12653121E-01 0.91158134E+02</pdfrwt>
<pdfrwt beam="1">  1       -1 0.38860329E-02 0.91158134E+02</pdfrwt>
<totfact> 0.10124353E+05</totfact>
</mgrwt>
</event>
<event>
 5    1  0.4067226E+001  0.9107324E+02  0.7546771E-02  0.1300273E+00
          2   -1    0    0  501    0  0.00000000000E+00  0.00000000000E+00  0.25972601164E+03  0.25972601164E+03  0.00000000000E+00 0. -1.
         -2   -1    0    0    0  501 -0.00000000000E+00 -0.00000000000E+00 -0.79837352644E+01  0.79837352644E+01  0.00000000000E+00 0.  1.
         23    2    1    2    0    0  0.00000000000E+00  0.00000000000E+00  0.25174227638E+03  0.26770974691E+03  0.91073239061E+02 0.  0.
          2    1    3    3  502    0 -0.40890117373E+02 -0.85619114428E+00  0.67018792232E+02  0.78512758672E+02  0.00000000000E+00 0. -1.
         -2    1    3    3    0  502  0.40890117373E+02  0.85619114428E+00  0.18472348415E+03  0.18919698824E+03  0.00000000000E+00 0.  1.
<mgrwt>
<rscale>  0 0.91073239E+02</rscale>
<asrwt>0</asrwt>
<pdfrwt beam="1">  1        2 0.39957841E-01 0.91073239E+02</pdfrwt>
<pdfrwt beam="2">  1       -2 0.12282672E-02 0.91073239E+02</pdfrwt>
<totfact> 0.17077406E+05</totfact>
</mgrwt>
</event>
<event>
 5    1  0.4067226E+001  0.9130979E+02  0.7546771E-02  0.1299711E+00
          1   -1    0    0  501    0  0.00000000000E+00  0.00000000000E+00  0.38584427227E+03  0.38584427227E+03  0.00000000000E+00 0. -1.
         -1   -1    0    0    0  501 -0.00000000000E+00 -0.00000000000E+00 -0.54020996918E+01  0.54020996918E+01  0.00000000000E+00 0.  1.
         23    2    1    2    0    0  0.00000000000E+00  0.00000000000E+00  0.38044217258E+03  0.39124637197E+03  0.91309785332E+02 0.  0.
          2    1    3    3  502    0  0.45057805093E+02 -0.73077982162E+01  0.19395530443E+03  0.19925428435E+03  0.00000000000E+00 0. -1.
         -2    1    3    3    0  502 -0.45057805093E+02  0.73077982162E+01  0.18648686815E+03  0.19199208762E+03  0.00000000000E+00 0.  1.
<mgrwt>
<rscale>  0 0.91309785E+02</rscale>
<asrwt>0</asrwt>
<pdfrwt beam="1">  1        1 0.59360636E-01 0.91309785E+02</pdfrwt>
<pdfrwt beam="2">  1       -1 0.83109256E-03 0.91309785E+02</pdfrwt>
<totfact> 0.13356711E+05</totfact>
</mgrwt>
</event>
<event>
 5    1  0.4067226E+001  0.9172471E+02  0.7546771E-02  0.1298728E+00
          2   -1    0    0  501    0  0.00000000000E+00  0.00000000000E+00  0.83246084781E+02  0.83246084781E+02  0.00000000000E+00 0. -1.
         -2   -1    0    0    0  501 -0.00000000000E+00 -0.00000000000E+00 -0.25266723078E+02  0.25266723078E+02  0.00000000000E+00 0.  1.
         23    2    1    2    0    0  0.00000000000E+00  0.00000000000E+00  0.57979361703E+02  0.10851280786E+03  0.91724713606E+02 0.  0.
          2    1    3    3  502    0 -0.18615147383E+02  0.30794045073E+02 -0.46498905423E+01  0.36282480705E+02  0.00000000000E+00 0.  1.
         -2    1    3    3    0  502  0.18615147383E+02 -0.30794045073E+02  0.62629252245E+02  0.72230327155E+02  0.00000000000E+00 0. -1.
<mgrwt>
<rscale>  0 0.91724714E+02</rscale>
<asrwt>0</asrwt>
<pdfrwt beam="1">  1        2 0.12807090E-01 0.91724714E+02</pdfrwt>
<pdfrwt beam="2">  1       -2 0.38871882E-02 0.91724714E+02</pdfrwt>
<totfact> 0.11425920E+05</totfact>
</mgrwt>
</event>
<event>
 5    1  0.4067226E+001  0.9078624E+02  0.7546771E-02  0.1300959E+00
         -1   -1    0    0    0  501 -0.00000000000E+00  0.00000000000E+00  0.37214275408E+02  0.37214275408E+02  0.00000000000E+00 0.  1.
          1   -1    0    0  501    0  0.00000000000E+00 -0.00000000000E+00 -0.55369491739E+02  0.55369491739E+02  0.00000000000E+00 0. -1.
         23    2    1    2    0    0  0.00000000000E+00  0.00000000000E+00 -0.18155216331E+02  0.92583767148E+02  0.90786243778E+02 0.  0.
          2    1    3    3  502    0 -0.26406287370E+02 -0.18117076940E+02 -0.41886240543E+02  0.52725493230E+02  0.00000000000E+00 0. -1.
         -2    1    3    3    0  502  0.26406287370E+02  0.18117076940E+02  0.23731024212E+02  0.39858273918E+02  0.00000000000E+00 0.  1.
<mgrwt>
<rscale>  0 0.90786244E+02</rscale>
<asrwt>0</asrwt>
<pdfrwt beam="2">  1        1 0.85183834E-02 0.90786244E+02</pdfrwt>
<pdfrwt beam="1">  1       -1 0.57252731E-02 0.90786244E+02</pdfrwt>
<totfact> 0.96354554E+04</totfact>
</mgrwt>
</event>
<event>
 5    1  0.4067226E+001  0.9096400E+02  0.7546771E-02  0.1300534E+00
          1   -1    0    0  501    0  0.00000000000E+00  0.00000000000E+00  0.51952676223E+02  0.51952676223E+02  0.00000000000E+00 0. -1.
         -1   -1    0    0    0  501 -0.00000000000E+00 -0.00000000000E+00 -0.39817245133E+02  0.39817245133E+02  0.00000000000E+00 0.  1.
         23    2    1    2    0    0  0.00000000000E+00  0.00000000000E+00  0.12135431090E+02  0.91769921356E+02  0.90964002649E+02 0.  0.
          2    1    3    3  502    0  0.29583639342E+02  0.13173704302E+02 -0.26150694848E+02  0.41624476487E+02  0.00000000000E+00 0.  1.
         -2    1    3    3    0  502 -0.29583639342E+02 -0.13173704302E+02  0.38286125938E+02  0.50145444869E+02  0.00000000000E+00 0. -1.
<mgrwt>
<rscale>  0 0.90964003E+02</rscale>
<asrwt>0</asrwt>
<pdfrwt beam="1">  1        1 0.79927194E-02 0.90964003E+02</pdfrwt>
<pdfrwt beam="2">  1       -1 0.61257301E-02 0.90964003E+02</pdfrwt>
<totfact> 0.94921823E+04</totfact>
</mgrwt>
</event>
<event>
 5    1  0.4067226E+001  0.9210720E+02  0.7546771E-02  0.1297828E+00
          2   -1    0    0  501    0  0.00000000000E+00  0.00000000000E+00  0.61507774426E+02  0.61507774426E+02  0.00000000000E+00 0.  1.
         -2   -1    0    0    0  501 -0.00000000000E+00 -0.00000000000E+00 -0.34482375519E+02  0.34482375519E+02  0.00000000000E+00 0. -1.
         23    2    1    2    0    0  0.00000000000E+00  0.00000000000E+00  0.27025398906E+02  0.95990149945E+02  0.92107202218E+02 0.  0.
          2    1    3    3  502    0 -0.24878614191E+02 -0.38750688258E+02  0.14149090114E+02  0.48174246601E+02  0.00000000000E+00 0. -1.
         -2    1    3    3    0  502  0.24878614191E+02  0.38750688258E+02  0.12876308793E+02  0.47815903344E+02  0.00000000000E+00 0.  1.
<mgrwt>
<rscale>  0 0.92107202E+02</rscale>
<asrwt>0</asrwt>
<pdfrwt beam="1">  1        2 0.94627346E-02 0.92107202E+02</pdfrwt>
<pdfrwt beam="2">  1       -2 0.53049808E-02 0.92107202E+02</pdfrwt>
<totfact> 0.10376383E+05</totfact>
</mgrwt>
</event>
<event>
 5    1  0.4067226E+001  0.6134441E+02  0.7546771E-02  0.1392275E+00
          1   -1    0    0  501    0  0.00000000000E+00  0.00000000000E+00  0.21674696079E+04  0.21674696079E+04  0.00000000000E+00 0. -1.
         -1   -1    0    0    0  501 -0.00000000000E+00 -0.00000000000E+00 -0.43404715931E+00  0.43404715931E+00  0.00000000000E+00 0.  1.
         23    2    1    2    0    0  0.00000000000E+00  0.00000000000E+00  0.21670355608E+04  0.21679036551E+04  0.61344405653E+02 0.  0.
          2    1    3    3  502    0 -0.21566997135E+02 -0.20272514061E+02  0.13677212136E+04  0.13680414570E+04  0.00000000000E+00 0. -1.
         -2    1    3    3    0  502  0.21566997135E+02  0.20272514061E+02  0.79931434723E+03  0.79986219806E+03  0.00000000000E+00 0.  1.
<mgrwt>
<rscale>  0 0.61344406E+02</rscale>
<asrwt>0</asrwt>
<pdfrwt beam="1">  1        1 0.33344820E+00 0.61344406E+02</pdfrwt>
<pdfrwt beam="2">  1       -1 0.66778222E-04 0.61344406E+02</pdfrwt>
<totfact> 0.19688753E+05</totfact>
</mgrwt>
</event>
<event>
 5    1  0.4067226E+001  0.9128595E+02  0.7546771E-02  0.1299767E+00
          1   -1    0    0  501    0  0.00000000000E+00  0.00000000000E+00  0.16678530554E+02  0.16678530554E+02  0.00000000000E+00 0. -1.
         -1   -1    0    0    0  501 -0.00000000000E+00 -0.00000000000E+00 -0.12490795277E+03  0.12490795277E+03  0.00000000000E+00 0.  1.
         23    2    1    2    0    0  0.00000000000E+00  0.00000000000E+00 -0.10822942221E+03  0.14158648332E+03  0.91285948681E+02 0.  0.
          2    1    3    3  502    0 -0.41520636533E+01  0.38366111119E+02 -0.16310391930E+02  0.41895429344E+02  0.00000000000E+00 0. -1.
         -2    1    3    3    0  502  0.41520636533E+01 -0.38366111119E+02 -0.91919030282E+02  0.99691053976E+02  0.00000000000E+00 0.  1.
<mgrwt>
<rscale>  0 0.91285949E+02</rscale>
<asrwt>0</asrwt>
<pdfrwt beam="1">  1        1 0.25659278E-02 0.91285949E+02</pdfrwt>
<pdfrwt beam="2">  1       -1 0.19216608E-01 0.91285949E+02</pdfrwt>
<totfact> 0.77640805E+04</totfact>
</mgrwt>
</event>
<event>
 5    1  0.4067226E+001  0.9353653E+02  0.7546771E-02  0.1294507E+00
         -2   -1    0    0    0  501 -0.00000000000E+00  0.00000000000E+00  0.17751247454E+01  0.17751247454E+01  0.00000000000E+00 0. -1.
          2   -1    0    0  501    0  0.00000000000E+00 -0.00000000000E+00 -0.12321785793E+04  0.12321785793E+04  0.00000000000E+00 0.  1.
         23    2    1    2    0    0  0.00000000000E+00  0.00000000000E+00 -0.12304034546E+04  0.12339537041E+04  0.93536531621E+02 0.  0.
          2    1    3    3  502    0 -0.32211373768E+02 -0.16140885636E+02 -0.22182380722E+03  0.22473073275E+03  0.00000000000E+00 0. -1.
         -2    1    3    3    0  502  0.32211373768E+02  0.16140885636E+02 -0.10085796474E+04  0.10092229713E+04  0.00000000000E+00 0.  1.
<mgrwt>
<rscale>  0 0.93536532E+02</rscale>
<asrwt>0</asrwt>
<pdfrwt beam="2">  1        2 0.18956678E+00 0.93536532E+02</pdfrwt>
<pdfrwt beam="1">  1       -2 0.27309490E-03 0.93536532E+02</pdfrwt>
<totfact> 0.23173047E+05</totfact>
</mgrwt>
</event>
<event>
 5    1  0.4067226E+001  0.9074501E+02  0.7546771E-02  0.1301058E+00
         -1   -1    0    0    0  501 -0.00000000000E+00  0.00000000000E+00  0.75079888239E+03  0.75079888239E+03  0.00000000000E+00 0.  1.
          1   -1    0    0  501    0  0.00000000000E+00 -0.00000000000E+00 -0.27419648606E+01  0.27419648606E+01  0.00000000000E+00 0. -1.
         23    2    1    2    0    0  0.00000000000E+00  0.00000000000E+00  0.74805691753E+03  0.75354084725E+03  0.90745008741E+02 0.  0.
          2    1    3    3  502    0  0.27322400450E+02  0.60687818191E+01  0.77481333574E+02  0.82381434386E+02  0.00000000000E+00 0. -1.
         -2    1    3    3    0  502 -0.27322400450E+02 -0.60687818191E+01  0.67057558395E+03  0.67115941286E+03  0.00000000000E+00 0.  1.
<mgrwt>
<rscale>  0 0.90745009E+02</rscale>
<asrwt>0</asrwt>
<pdfrwt beam="2">  1        1 0.42184134E-03 0.90745009E+02</pdfrwt>
<pdfrwt beam="1">  1       -1 0.11550736E+00 0.90745009E+02</pdfrwt>
<totfact> 0.35087076E+04</totfact>
</mgrwt>
</event>
<event>
 5    1  0.4067226E+001  0.8713531E+02  0.7546771E-02  0.1309941E+00
          2   -1    0    0  501    0  0.00000000000E+00  0.00000000000E+00  0.70638525157E+02  0.70638525157E+02  0.00000000000E+00 0. -1.
         -2   -1    0    0    0  501 -0.00000000000E+00 -0.00000000000E+00 -0.26871182191E+02  0.26871182191E+02  0.00000000000E+00 0.  1.
         23    2    1    2    0    0  0.00000000000E+00  0.00000000000E+00  0.43767342966E+02  0.97509707348E+02  0.87135312686E+02 0.  0.
          2    1    3    3  502    0 -0.25120974461E+02  0.13750695232E+02  0.58625619100E+02  0.65246518620E+02  0.00000000000E+00 0. -1.
         -2    1    3    3    0  502  0.25120974461E+02 -0.13750695232E+02 -0.14858276134E+02  0.32263188728E+02  0.00000000000E+00 0.  1.
<mgrwt>
<rscale>  0 0.87135313E+02</rscale>
<asrwt>0</asrwt>
<pdfrwt beam="1">  1        2 0.10867465E-01 0.87135313E+02</pdfrwt>
<pdfrwt beam="2">  1       -2 0.41340281E-02 0.87135313E+02</pdfrwt>
<totfact> 0.12581502E+05</totfact>
</mgrwt>
</event>
<event>
 5    1  0.4067226E+001  0.1129583E+03  0.7546771E-02  0.1255188E+00
          2   -1    0    0  501    0  0.00000000000E+00  0.00000000000E+00  0.11680088944E+04  0.11680088944E+04  0.00000000000E+00 0.  1.
         -2   -1    0    0    0  501 -0.00000000000E+00 -0.00000000000E+00 -0.27310526287E+01  0.27310526287E+01  0.00000000000E+00 0. -1.
         23    2    1    2    0    0  0.00000000000E+00  0.00000000000E+00  0.11652778417E+04  0.11707399470E+04  0.11295828896E+03 0.  0.
          2    1    3    3  502    0 -0.48098000506E+02  0.12205166553E+02  0.86219041706E+03  0.86361721787E+03  0.00000000000E+00 0. -1.
         -2    1    3    3    0  502  0.48098000506E+02 -0.12205166553E+02  0.30308742467E+03  0.30712272911E+03  0.00000000000E+00 0.  1.
<mgrwt>
<rscale>  0 0.11295829E+03</rscale>
<asrwt>0</asrwt>
<pdfrwt beam="1">  1        2 0.17969328E+00 0.11295829E+03</pdfrwt>
<pdfrwt beam="2">  1       -2 0.42016288E-03 0.11295829E+03</pdfrwt>
<totfact> 0.14102371E+05</totfact>
</mgrwt>
</event>
<event>
 5    1  0.4067226E+001  0.8901373E+02  0.7546771E-02  0.1305258E+00
         -2   -1    0    0    0  501 -0.00000000000E+00  0.00000000000E+00  0.15524004018E+02  0.15524004018E+02  0.00000000000E+00 0. -1.
          2   -1    0    0  501    0  0.00000000000E+00 -0.00000000000E+00 -0.12759986838E+03  0.12759986838E+03  0.00000000000E+00 0.  1.
         23    2    1    2    0    0  0.00000000000E+00  0.00000000000E+00 -0.11207586436E+03  0.14312387239E+03  0.89013726343E+02 0.  0.
          2    1    3    3  502    0  0.93705300274E+01  0.40007598411E+02 -0.28541394135E+02  0.50030250277E+02  0.00000000000E+00 0. -1.
         -2    1    3    3    0  502 -0.93705300274E+01 -0.40007598411E+02 -0.83534470222E+02  0.93093622117E+02  0.00000000000E+00 0.  1.
<mgrwt>
<rscale>  0 0.89013726E+02</rscale>
<asrwt>0</asrwt>
<pdfrwt beam="2">  1        2 0.19630749E-01 0.89013726E+02</pdfrwt>
<pdfrwt beam="1">  1       -2 0.23883083E-02 0.89013726E+02</pdfrwt>
<totfact> 0.14141630E+05</totfact>
</mgrwt>
</event>
<event>
 5    1  0.4067226E+001  0.9760940E+02  0.7546771E-02  0.1285405E+00
         -2   -1    0    0    0  501 -0.00000000000E+00  0.00000000000E+00  0.55626711194E+02  0.55626711194E+02  0.00000000000E+00 0. -1.
          2   -1    0    0  501    0  0.00000000000E+00 -0.00000000000E+00 -0.42819333771E+02  0.42819333771E+02  0.00000000000E+00 0.  1.
         23    2    1    2    0    0  0.00000000000E+00  0.00000000000E+00  0.12807377422E+02  0.98446044965E+02  0.97609399408E+02 0.  0.
          2    1    3    3  502    0 -0.40919077787E+02 -0.55261527601E+01  0.32645727558E+02  0.52636990976E+02  0.00000000000E+00 0. -1.
         -2    1    3    3    0  502  0.40919077787E+02  0.55261527601E+01 -0.19838350136E+02  0.45809053989E+02  0.00000000000E+00 0.  1.
<mgrwt>
<rscale>  0 0.97609399E+02</rscale>
<asrwt>0</asrwt>
<pdfrwt beam="2">  1        2 0.65875898E-02 0.97609399E+02</pdfrwt>
<pdfrwt beam="1">  1       -2 0.85579556E-02 0.97609399E+02</pdfrwt>
<totfact> 0.79638746E+04</totfact>
</mgrwt>
</event>
<event>
 5    1  0.4067226E+001  0.7991651E+02  0.7546771E-02  0.1329289E+00
          2   -1    0    0  501    0  0.00000000000E+00  0.00000000000E+00  0.10131798955E+03  0.10131798955E+03  0.00000000000E+00 0. -1.
         -2   -1    0    0    0  501 -0.00000000000E+00 -0.00000000000E+00 -0.15758920496E+02  0.15758920496E+02  0.00000000000E+00 0.  1.
         23    2    1    2    0    0  0.00000000000E+00  0.00000000000E+00  0.85559069050E+02  0.11707691004E+03  0.79916509984E+02 0.  0.
          2    1    3    3  502    0  0.32428922650E+02 -0.20502542242E+02  0.59137177955E+02  0.70492517895E+02  0.00000000000E+00 0. -1.
         -2    1    3    3    0  502 -0.32428922650E+02  0.20502542242E+02  0.26421891095E+02  0.46584392147E+02  0.00000000000E+00 0.  1.
<mgrwt>
<rscale>  0 0.79916510E+02</rscale>
<asrwt>0</asrwt>
<pdfrwt beam="1">  1        2 0.15587383E-01 0.79916510E+02</pdfrwt>
<pdfrwt beam="2">  1       -2 0.24244494E-02 0.79916510E+02</pdfrwt>
<totfact> 0.17637363E+05</totfact>
</mgrwt>
</event>
<event>
 5    1  0.4067226E+001  0.8573082E+02  0.7546771E-02  0.1313532E+00
          2   -1    0    0  501    0  0.00000000000E+00  0.00000000000E+00  0.34661173380E+03  0.34661173380E+03  0.00000000000E+00 0. -1.
         -2   -1    0    0    0  501 -0.00000000000E+00 -0.00000000000E+00 -0.53011569919E+01  0.53011569919E+01  0.00000000000E+00 0.  1.
         23    2    1    2    0    0  0.00000000000E+00  0.00000000000E+00  0.34131057681E+03  0.35191289079E+03  0.85730816306E+02 0.  0.
          2    1    3    3  502    0 -0.39350187294E+02  0.16821122008E+02  0.16055380699E+03  0.16615929804E+03  0.00000000000E+00 0. -1.
         -2    1    3    3    0  502  0.39350187294E+02 -0.16821122008E+02  0.18075676981E+03  0.18575359275E+03  0.00000000000E+00 0.  1.
<mgrwt>
<rscale>  0 0.85730816E+02</rscale>
<asrwt>0</asrwt>
<pdfrwt beam="1">  1        2 0.53324864E-01 0.85730816E+02</pdfrwt>
<pdfrwt beam="2">  1       -2 0.81556289E-03 0.85730816E+02</pdfrwt>
<totfact> 0.22313195E+05</totfact>
</mgrwt>
</event>
<event>
 5    1  0.4067226E+001  0.9199002E+02  0.7546771E-02  0.1298103E+00
          2   -1    0    0  501    0  0.00000000000E+00  0.00000000000E+00  0.13864791928E+04  0.13864791928E+04  0.00000000000E+00 0. -1.
         -2   -1    0    0    0  501 -0.00000000000E+00 -0.00000000000E+00 -0.15258369025E+01  0.15258369025E+01  0.00000000000E+00 0.  1.
         23    2    1    2    0    0  0.00000000000E+00  0.00000000000E+00  0.13849533559E+04  0.13880050297E+04  0.91990023740E+02 0.  0.
          2    1    3    3  502    0  0.23784619685E+02  0.38210404803E+01  0.12836807348E+04  0.12839067479E+04  0.00000000000E+00 0. -1.
         -2    1    3    3    0  502 -0.23784619685E+02 -0.38210404803E+01  0.10127262108E+03  0.10409828175E+03  0.00000000000E+00 0.  1.
<mgrwt>
<rscale>  0 0.91990024E+02</rscale>
<asrwt>0</asrwt>
<pdfrwt beam="1">  1        2 0.21330348E+00 0.91990024E+02</pdfrwt>
<pdfrwt beam="2">  1       -2 0.23474525E-03 0.91990024E+02</pdfrwt>
<totfact> 0.23645379E+05</totfact>
</mgrwt>
</event>
<event>
 5    1  0.4067226E+001  0.9132669E+02  0.7546771E-02  0.1299670E+00
          1   -1    0    0  501    0  0.00000000000E+00  0.00000000000E+00  0.78691204600E+01  0.78691204600E+01  0.00000000000E+00 0. -1.
         -1   -1    0    0    0  501 -0.00000000000E+00 -0.00000000000E+00 -0.26497768072E+03  0.26497768072E+03  0.00000000000E+00 0.  1.
         23    2    1    2    0    0  0.00000000000E+00  0.00000000000E+00 -0.25710856026E+03  0.27284680118E+03  0.91326694647E+02 0.  0.
          2    1    3    3  502    0  0.31393151062E+02  0.32380764897E+02 -0.14991031458E+03  0.15654758474E+03  0.00000000000E+00 0. -1.
         -2    1    3    3    0  502 -0.31393151062E+02 -0.32380764897E+02 -0.10719824568E+03  0.11629921644E+03  0.00000000000E+00 0.  1.
<mgrwt>
<rscale>  0 0.91326695E+02</rscale>
<asrwt>0</asrwt>
<pdfrwt beam="1">  1        1 0.12106340E-02 0.91326695E+02</pdfrwt>
<pdfrwt beam="2">  1       -1 0.40765793E-01 0.91326695E+02</pdfrwt>
<totfact> 0.63197091E+04</totfact>
</mgrwt>
</event>
<event>
 5    1  0.4067226E+001  0.9045967E+02  0.7546771E-02  0.1301742E+00
         -2   -1    0    0    0  501 -0.00000000000E+00  0.00000000000E+00  0.12095710318E+02  0.12095710318E+02  0.00000000000E+00 0.  1.
          2   -1    0    0  501    0  0.00000000000E+00 -0.00000000000E+00 -0.16912922186E+03  0.16912922186E+03  0.00000000000E+00 0. -1.
         23    2    1    2    0    0  0.00000000000E+00  0.00000000000E+00 -0.15703351154E+03  0.18122493217E+03  0.90459672204E+02 0.  0.
          2    1    3    3  502    0 -0.39287464569E+02 -0.98868732147E+01 -0.11880821908E+03  0.12552548767E+03  0.00000000000E+00 0. -1.
         -2    1    3    3    0  502  0.39287464569E+02  0.98868732147E+01 -0.38225292454E+02  0.55699444498E+02  0.00000000000E+00 0.  1.
<mgrwt>
<rscale>  0 0.90459672E+02</rscale>
<asrwt>0</asrwt>
<pdfrwt beam="2">  1        2 0.26019880E-01 0.90459672E+02</pdfrwt>
<pdfrwt beam="1">  1       -2 0.18608786E-02 0.90459672E+02</pdfrwt>
<totfact> 0.14885889E+05</totfact>
</mgrwt>
</event>
<event>
 5    1  0.4067226E+001  0.9107898E+02  0.7546771E-02  0.1300260E+00
         -3   -1    0    0    0  501 -0.00000000000E+00  0.00000000000E+00  0.55792976053E+01  0.55792976053E+01  0.00000000000E+00 0.  1.
          3   -1    0    0  501    0  0.00000000000E+00 -0.00000000000E+00 -0.37170359711E+03  0.37170359711E+03  0.00000000000E+00 0. -1.
         23    2    1    2    0    0  0.00000000000E+00  0.00000000000E+00 -0.36612429950E+03  0.37728289472E+03  0.91078976481E+02 0.  0.
          2    1    3    3  502    0  0.35749108024E+02  0.11062755141E+02 -0.29056139858E+03  0.29296127666E+03  0.00000000000E+00 0. -1.
         -2    1    3    3    0  502 -0.35749108024E+02 -0.11062755141E+02 -0.75562900926E+02  0.84321618060E+02  0.00000000000E+00 0.  1.
<mgrwt>
<rscale>  0 0.91078976E+02</rscale>
<asrwt>0</asrwt>
<pdfrwt beam="2">  1        3 0.57185184E-01 0.91078976E+02</pdfrwt>
<pdfrwt beam="1">  1       -3 0.85835326E-03 0.91078976E+02</pdfrwt>
<totfact> 0.21380577E+04</totfact>
</mgrwt>
</event>
<event>
 5    1  0.4067226E+001  0.9077821E+02  0.7546771E-02  0.1300978E+00
         -1   -1    0    0    0  501 -0.00000000000E+00  0.00000000000E+00  0.18011926680E+02  0.18011926680E+02  0.00000000000E+00 0.  1.
          1   -1    0    0  501    0  0.00000000000E+00 -0.00000000000E+00 -0.11437813770E+03  0.11437813770E+03  0.00000000000E+00 0. -1.
         23    2    1    2    0    0  0.00000000000E+00  0.00000000000E+00 -0.96366211015E+02  0.13239006438E+03  0.90778205093E+02 0.  0.
          2    1    3    3  502    0  0.15885234389E+01 -0.44509192053E+02 -0.35420810543E+02  0.56905407507E+02  0.00000000000E+00 0. -1.
         -2    1    3    3    0  502 -0.15885234389E+01  0.44509192053E+02 -0.60945400472E+02  0.75484656869E+02  0.00000000000E+00 0.  1.
<mgrwt>
<rscale>  0 0.90778205E+02</rscale>
<asrwt>0</asrwt>
<pdfrwt beam="2">  1        1 0.17596637E-01 0.90778205E+02</pdfrwt>
<pdfrwt beam="1">  1       -1 0.27710656E-02 0.90778205E+02</pdfrwt>
<totfact> 0.10812797E+05</totfact>
</mgrwt>
</event>
<event>
 5    1  0.4067226E+001  0.9168249E+02  0.7546771E-02  0.1298828E+00
          2   -1    0    0  501    0  0.00000000000E+00  0.00000000000E+00  0.14353274301E+02  0.14353274301E+02  0.00000000000E+00 0. -1.
         -2   -1    0    0    0  501 -0.00000000000E+00 -0.00000000000E+00 -0.14640700273E+03  0.14640700273E+03  0.00000000000E+00 0.  1.
         23    2    1    2    0    0  0.00000000000E+00  0.00000000000E+00 -0.13205372843E+03  0.16076027703E+03  0.91682492765E+02 0.  0.
          2    1    3    3  502    0 -0.17896948721E+02 -0.15542234409E+02  0.27734413273E+01  0.23865326327E+02  0.00000000000E+00 0. -1.
         -2    1    3    3    0  502  0.17896948721E+02  0.15542234409E+02 -0.13482716976E+03  0.13689495071E+03  0.00000000000E+00 0.  1.
<mgrwt>
<rscale>  0 0.91682493E+02</rscale>
<asrwt>0</asrwt>
<pdfrwt beam="1">  1        2 0.22081960E-02 0.91682493E+02</pdfrwt>
<pdfrwt beam="2">  1       -2 0.22524155E-01 0.91682493E+02</pdfrwt>
<totfact> 0.69491763E+04</totfact>
</mgrwt>
</event>
<event>
 5    1  0.4067226E+001  0.9686060E+02  0.7546771E-02  0.1287040E+00
         -1   -1    0    0    0  501 -0.00000000000E+00  0.00000000000E+00  0.13403668808E+03  0.13403668808E+03  0.00000000000E+00 0.  1.
          1   -1    0    0  501    0  0.00000000000E+00 -0.00000000000E+00 -0.17498894608E+02  0.17498894608E+02  0.00000000000E+00 0. -1.
         23    2    1    2    0    0  0.00000000000E+00  0.00000000000E+00  0.11653779348E+03  0.15153558269E+03  0.96860598353E+02 0.  0.
          2    1    3    3  502    0 -0.25777197106E+02 -0.40568304241E+02  0.67556463119E+02  0.82910354654E+02  0.00000000000E+00 0. -1.
         -2    1    3    3    0  502  0.25777197106E+02  0.40568304241E+02  0.48981330357E+02  0.68625228037E+02  0.00000000000E+00 0.  1.
<mgrwt>
<rscale>  0 0.96860598E+02</rscale>
<asrwt>0</asrwt>
<pdfrwt beam="2">  1        1 0.26921377E-02 0.96860598E+02</pdfrwt>
<pdfrwt beam="1">  1       -1 0.20621028E-01 0.96860598E+02</pdfrwt>
<totfact> 0.65570313E+04</totfact>
</mgrwt>
</event>
<event>
 5    1  0.4067226E+001  0.9179793E+02  0.7546771E-02  0.1298555E+00
          2   -1    0    0  501    0  0.00000000000E+00  0.00000000000E+00  0.22641820224E+03  0.22641820224E+03  0.00000000000E+00 0.  1.
         -2   -1    0    0    0  501 -0.00000000000E+00 -0.00000000000E+00 -0.93045302547E+01  0.93045302547E+01  0.00000000000E+00 0. -1.
         23    2    1    2    0    0  0.00000000000E+00  0.00000000000E+00  0.21711367198E+03  0.23572273249E+03  0.91797930541E+02 0.  0.
          2    1    3    3  502    0 -0.41499647058E+02 -0.18985844080E+02  0.95968630641E+02  0.10626693300E+03  0.00000000000E+00 0. -1.
         -2    1    3    3    0  502  0.41499647058E+02  0.18985844080E+02  0.12114504134E+03  0.12945579949E+03  0.00000000000E+00 0.  1.
<mgrwt>
<rscale>  0 0.91797931E+02</rscale>
<asrwt>0</asrwt>
<pdfrwt beam="1">  1        2 0.34833566E-01 0.91797931E+02</pdfrwt>
<pdfrwt beam="2">  1       -2 0.14314664E-02 0.91797931E+02</pdfrwt>
<totfact> 0.15891226E+05</totfact>
</mgrwt>
</event>
<event>
 5    1  0.4067226E+001  0.1036618E+03  0.7546771E-02  0.1272779E+00
          4   -1    0    0  501    0  0.00000000000E+00  0.00000000000E+00  0.17097177152E+03  0.17097177152E+03  0.00000000000E+00 0.  1.
         -4   -1    0    0    0  501 -0.00000000000E+00 -0.00000000000E+00 -0.15712777150E+02  0.15712777150E+02  0.00000000000E+00 0. -1.
         23    2    1    2    0    0  0.00000000000E+00  0.00000000000E+00  0.15525899437E+03  0.18668454867E+03  0.10366178360E+03 0.  0.
          2    1    3    3  502    0 -0.41239614595E+02  0.31259229967E+02  0.72349425852E+02  0.88951024116E+02  0.00000000000E+00 0. -1.
         -2    1    3    3    0  502  0.41239614595E+02 -0.31259229967E+02  0.82909568517E+02  0.97733524554E+02  0.00000000000E+00 0.  1.
<mgrwt>
<rscale>  0 0.10366178E+03</rscale>
<asrwt>0</asrwt>
<pdfrwt beam="1">  1        4 0.26303348E-01 0.10366178E+03</pdfrwt>
<pdfrwt beam="2">  1       -4 0.24173505E-02 0.10366178E+03</pdfrwt>
<totfact> 0.15512618E+04</totfact>
</mgrwt>
</event>
<event>
 5    1  0.4067226E+001  0.6401678E+02  0.7546771E-02  0.1381709E+00
          2   -1    0    0  501    0  0.00000000000E+00  0.00000000000E+00  0.39120476512E+02  0.39120476512E+02  0.00000000000E+00 0. -1.
         -2   -1    0    0    0  501 -0.00000000000E+00 -0.00000000000E+00 -0.26189280760E+02  0.26189280760E+02  0.00000000000E+00 0.  1.
         23    2    1    2    0    0  0.00000000000E+00  0.00000000000E+00  0.12931195753E+02  0.65309757272E+02  0.64016783513E+02 0.  0.
          2    1    3    3  502    0  0.21350671075E+02  0.11074561706E+02  0.28011821258E+02  0.36920985936E+02  0.00000000000E+00 0. -1.
         -2    1    3    3    0  502 -0.21350671075E+02 -0.11074561706E+02 -0.15080625505E+02  0.28388771336E+02  0.00000000000E+00 0.  1.
<mgrwt>
<rscale>  0 0.64016784E+02</rscale>
<asrwt>0</asrwt>
<pdfrwt beam="1">  1        2 0.60185348E-02 0.64016784E+02</pdfrwt>
<pdfrwt beam="2">  1       -2 0.40291201E-02 0.64016784E+02</pdfrwt>
<totfact> 0.25509906E+05</totfact>
</mgrwt>
</event>
<event>
 5    1  0.4067226E+001  0.9244805E+02  0.7546771E-02  0.1297029E+00
         -2   -1    0    0    0  501 -0.00000000000E+00  0.00000000000E+00  0.52730027076E+01  0.52730027076E+01  0.00000000000E+00 0. -1.
          2   -1    0    0  501    0  0.00000000000E+00 -0.00000000000E+00 -0.40520753864E+03  0.40520753864E+03  0.00000000000E+00 0.  1.
         23    2    1    2    0    0  0.00000000000E+00  0.00000000000E+00 -0.39993453593E+03  0.41048054135E+03  0.92448049160E+02 0.  0.
          2    1    3    3  502    0  0.39740253288E+02  0.14725872982E+00 -0.95143630007E+02  0.10310974613E+03  0.00000000000E+00 0. -1.
         -2    1    3    3    0  502 -0.39740253288E+02 -0.14725872982E+00 -0.30479090592E+03  0.30737079521E+03  0.00000000000E+00 0.  1.
<mgrwt>
<rscale>  0 0.92448049E+02</rscale>
<asrwt>0</asrwt>
<pdfrwt beam="2">  1        2 0.62339617E-01 0.92448049E+02</pdfrwt>
<pdfrwt beam="1">  1       -2 0.81123125E-03 0.92448049E+02</pdfrwt>
<totfact> 0.19330276E+05</totfact>
</mgrwt>
</event>
<event>
 5    1  0.4067226E+001  0.8775699E+02  0.7546771E-02  0.1308376E+00
         -2   -1    0    0    0  501 -0.00000000000E+00  0.00000000000E+00  0.38768806239E+02  0.38768806239E+02  0.00000000000E+00 0.  1.
          2   -1    0    0  501    0  0.00000000000E+00 -0.00000000000E+00 -0.49661635527E+02  0.49661635527E+02  0.00000000000E+00 0. -1.
         23    2    1    2    0    0  0.00000000000E+00  0.00000000000E+00 -0.10892829288E+02  0.88430441767E+02  0.87756990042E+02 0.  0.
          2    1    3    3  502    0  0.38548904857E+02 -0.14036040959E+02  0.10238827895E+02  0.42283118477E+02  0.00000000000E+00 0.  1.
         -2    1    3    3    0  502 -0.38548904857E+02  0.14036040959E+02 -0.21131657183E+02  0.46147323290E+02  0.00000000000E+00 0. -1.
<mgrwt>
<rscale>  0 0.87756990E+02</rscale>
<asrwt>0</asrwt>
<pdfrwt beam="2">  1        2 0.76402516E-02 0.87756990E+02</pdfrwt>
<pdfrwt beam="1">  1       -2 0.59644317E-02 0.87756990E+02</pdfrwt>
<totfact> 0.11247076E+05</totfact>
</mgrwt>
</event>
<event>
 5    1  0.4067226E+001  0.9242546E+02  0.7546771E-02  0.1297082E+00
          1   -1    0    0  501    0  0.00000000000E+00  0.00000000000E+00  0.22991240608E+03  0.22991240608E+03  0.00000000000E+00 0. -1.
         -1   -1    0    0    0  501 -0.00000000000E+00 -0.00000000000E+00 -0.92888258369E+01  0.92888258369E+01  0.00000000000E+00 0.  1.
         23    2    1    2    0    0  0.00000000000E+00  0.00000000000E+00  0.22062358024E+03  0.23920123191E+03  0.92425457484E+02 0.  0.
          2    1    3    3  502    0  0.26603895121E+01  0.46079674066E+02  0.11621472475E+03  0.12504509700E+03  0.00000000000E+00 0. -1.
         -2    1    3    3    0  502 -0.26603895121E+01 -0.46079674066E+02  0.10440885549E+03  0.11415613492E+03  0.00000000000E+00 0.  1.
<mgrwt>
<rscale>  0 0.92425457E+02</rscale>
<asrwt>0</asrwt>
<pdfrwt beam="1">  1        1 0.35371135E-01 0.92425457E+02</pdfrwt>
<pdfrwt beam="2">  1       -1 0.14290503E-02 0.92425457E+02</pdfrwt>
<totfact> 0.11731195E+05</totfact>
</mgrwt>
</event>
<event>
 5    1  0.4067226E+001  0.8974145E+02  0.7546771E-02  0.1303479E+00
          2   -1    0    0  501    0  0.00000000000E+00  0.00000000000E+00  0.24229405352E+03  0.24229405352E+03  0.00000000000E+00 0. -1.
         -2   -1    0    0    0  501 -0.00000000000E+00 -0.00000000000E+00 -0.83096629922E+01  0.83096629922E+01  0.00000000000E+00 0.  1.
         23    2    1    2    0    0  0.00000000000E+00  0.00000000000E+00  0.23398439053E+03  0.25060371651E+03  0.89741449281E+02 0.  0.
          2    1    3    3  502    0 -0.30964355125E+02  0.10421662003E+02  0.20288075390E+03  0.20549453187E+03  0.00000000000E+00 0. -1.
         -2    1    3    3    0  502  0.30964355125E+02 -0.10421662003E+02  0.31103636628E+02  0.45109184638E+02  0.00000000000E+00 0.  1.
<mgrwt>
<rscale>  0 0.89741449E+02</rscale>
<asrwt>0</asrwt>
<pdfrwt beam="1">  1        2 0.37276003E-01 0.89741449E+02</pdfrwt>
<pdfrwt beam="2">  1       -2 0.12784099E-02 0.89741449E+02</pdfrwt>
<totfact> 0.17312592E+05</totfact>
</mgrwt>
</event>
<event>
 5    1  0.4067226E+001  0.7897807E+02  0.7546771E-02  0.1331977E+00
         -3   -1    0    0    0  501 -0.00000000000E+00  0.00000000000E+00  0.55835288015E+02  0.55835288015E+02  0.00000000000E+00 0.  1.
          3   -1    0    0  501    0  0.00000000000E+00 -0.00000000000E+00 -0.27928288331E+02  0.27928288331E+02  0.00000000000E+00 0. -1.
         23    2    1    2    0    0  0.00000000000E+00  0.00000000000E+00  0.27906999683E+02  0.83763576346E+02  0.78978073482E+02 0.  0.
          2    1    3    3  502    0 -0.11908261891E+02 -0.29759795893E+02 -0.10507639491E+02  0.33732219621E+02  0.00000000000E+00 0. -1.
         -2    1    3    3    0  502  0.11908261891E+02  0.29759795893E+02  0.38414639174E+02  0.50031356725E+02  0.00000000000E+00 0.  1.
<mgrwt>
<rscale>  0 0.78978073E+02</rscale>
<asrwt>0</asrwt>
<pdfrwt beam="2">  1        3 0.42966597E-02 0.78978073E+02</pdfrwt>
<pdfrwt beam="1">  1       -3 0.85900443E-02 0.78978073E+02</pdfrwt>
<totfact> 0.52945135E+04</totfact>
</mgrwt>
</event>
<event>
 5    1  0.4067226E+001  0.8047490E+02  0.7546771E-02  0.1327709E+00
         -2   -1    0    0    0  501 -0.00000000000E+00  0.00000000000E+00  0.40306091708E+01  0.40306091708E+01  0.00000000000E+00 0.  1.
          2   -1    0    0  501    0  0.00000000000E+00 -0.00000000000E+00 -0.40168922428E+03  0.40168922428E+03  0.00000000000E+00 0. -1.
         23    2    1    2    0    0  0.00000000000E+00  0.00000000000E+00 -0.39765861511E+03  0.40571983345E+03  0.80474897233E+02 0.  0.
          2    1    3    3  502    0  0.14209430208E+02 -0.19155103354E+02 -0.36221245915E+03  0.36299682017E+03  0.00000000000E+00 0. -1.
         -2    1    3    3    0  502 -0.14209430208E+02  0.19155103354E+02 -0.35446155956E+02  0.42723013276E+02  0.00000000000E+00 0.  1.
<mgrwt>
<rscale>  0 0.80474897E+02</rscale>
<asrwt>0</asrwt>
<pdfrwt beam="2">  1        2 0.61798321E-01 0.80474897E+02</pdfrwt>
<pdfrwt beam="1">  1       -2 0.62009393E-03 0.80474897E+02</pdfrwt>
<totfact> 0.27785963E+05</totfact>
</mgrwt>
</event>
<event>
 5    1  0.4067226E+001  0.9022671E+02  0.7546771E-02  0.1302304E+00
          1   -1    0    0  501    0  0.00000000000E+00  0.00000000000E+00  0.64038969692E+02  0.64038969692E+02  0.00000000000E+00 0. -1.
         -1   -1    0    0    0  501 -0.00000000000E+00 -0.00000000000E+00 -0.31780881553E+02  0.31780881553E+02  0.00000000000E+00 0.  1.
         23    2    1    2    0    0  0.00000000000E+00  0.00000000000E+00  0.32258088139E+02  0.95819851245E+02  0.90226712465E+02 0.  0.
          2    1    3    3  502    0 -0.20173131396E+02 -0.23824559861E+02  0.50715527904E+02  0.59553586403E+02  0.00000000000E+00 0. -1.
         -2    1    3    3    0  502  0.20173131396E+02  0.23824559861E+02 -0.18457439765E+02  0.36266264842E+02  0.00000000000E+00 0.  1.
<mgrwt>
<rscale>  0 0.90226712E+02</rscale>
<asrwt>0</asrwt>
<pdfrwt beam="1">  1        1 0.98521491E-02 0.90226712E+02</pdfrwt>
<pdfrwt beam="2">  1       -1 0.48893664E-02 0.90226712E+02</pdfrwt>
<totfact> 0.10018747E+05</totfact>
</mgrwt>
</event>
<event>
 5    1  0.4067226E+001  0.9166608E+02  0.7546771E-02  0.1298866E+00
          2   -1    0    0  501    0  0.00000000000E+00  0.00000000000E+00  0.17111719202E+03  0.17111719202E+03  0.00000000000E+00 0.  1.
         -2   -1    0    0    0  501 -0.00000000000E+00 -0.00000000000E+00 -0.12276192946E+02  0.12276192946E+02  0.00000000000E+00 0. -1.
         23    2    1    2    0    0  0.00000000000E+00  0.00000000000E+00  0.15884099907E+03  0.18339338497E+03  0.91666082401E+02 0.  0.
          2    1    3    3  502    0  0.31094337704E+02  0.14492046296E+02  0.18612359003E+02  0.39029439539E+02  0.00000000000E+00 0. -1.
         -2    1    3    3    0  502 -0.31094337704E+02 -0.14492046296E+02  0.14022864007E+03  0.14436394543E+03  0.00000000000E+00 0.  1.
<mgrwt>
<rscale>  0 0.91666082E+02</rscale>
<asrwt>0</asrwt>
<pdfrwt beam="1">  1        2 0.26325720E-01 0.91666082E+02</pdfrwt>
<pdfrwt beam="2">  1       -2 0.18886452E-02 0.91666082E+02</pdfrwt>
<totfact> 0.14420943E+05</totfact>
</mgrwt>
</event>
<event>
 5    1  0.4067226E+001  0.9173796E+02  0.7546771E-02  0.1298697E+00
          4   -1    0    0  501    0  0.00000000000E+00  0.00000000000E+00  0.35298249445E+03  0.35298249445E+03  0.00000000000E+00 0. -1.
         -4   -1    0    0    0  501 -0.00000000000E+00 -0.00000000000E+00 -0.59605320625E+01  0.59605320625E+01  0.00000000000E+00 0.  1.
         23    2    1    2    0    0  0.00000000000E+00  0.00000000000E+00  0.34702196238E+03  0.35894302651E+03  0.91737963258E+02 0.  0.
          2    1    3    3  502    0  0.22915250004E+02  0.73964479104E+01  0.32626403607E+03  0.32715139822E+03  0.00000000000E+00 0. -1.
         -2    1    3    3    0  502 -0.22915250004E+02 -0.73964479104E+01  0.20757926314E+02  0.31791628289E+02  0.00000000000E+00 0.  1.
<mgrwt>
<rscale>  0 0.91737963E+02</rscale>
<asrwt>0</asrwt>
<pdfrwt beam="1">  1        4 0.54304983E-01 0.91737963E+02</pdfrwt>
<pdfrwt beam="2">  1       -4 0.91700521E-03 0.91737963E+02</pdfrwt>
<totfact> 0.15900414E+04</totfact>
</mgrwt>
</event>
<event>
 5    1  0.4067226E+001  0.9298062E+02  0.7546771E-02  0.1295790E+00
         -1   -1    0    0    0  501 -0.00000000000E+00  0.00000000000E+00  0.14519434213E+02  0.14519434213E+02  0.00000000000E+00 0.  1.
          1   -1    0    0  501    0  0.00000000000E+00 -0.00000000000E+00 -0.14885901763E+03  0.14885901763E+03  0.00000000000E+00 0. -1.
         23    2    1    2    0    0  0.00000000000E+00  0.00000000000E+00 -0.13433958341E+03  0.16337845184E+03  0.92980615473E+02 0.  0.
          2    1    3    3  502    0 -0.11661853121E+02 -0.37731993433E+02 -0.11026937599E+03  0.11712829474E+03  0.00000000000E+00 0. -1.
         -2    1    3    3    0  502  0.11661853121E+02  0.37731993433E+02 -0.24070207425E+02  0.46250157104E+02  0.00000000000E+00 0.  1.
<mgrwt>
<rscale>  0 0.92980615E+02</rscale>
<asrwt>0</asrwt>
<pdfrwt beam="2">  1        1 0.22901387E-01 0.92980615E+02</pdfrwt>
<pdfrwt beam="1">  1       -1 0.22337592E-02 0.92980615E+02</pdfrwt>
<totfact> 0.10619923E+05</totfact>
</mgrwt>
</event>
<event>
 5    1  0.4067226E+001  0.9394096E+02  0.7546771E-02  0.1293579E+00
          1   -1    0    0  501    0  0.00000000000E+00  0.00000000000E+00  0.87473990883E+03  0.87473990883E+03  0.00000000000E+00 0. -1.
         -1   -1    0    0    0  501 -0.00000000000E+00 -0.00000000000E+00 -0.25221509957E+01  0.25221509957E+01  0.00000000000E+00 0.  1.
         23    2    1    2    0    0  0.00000000000E+00  0.00000000000E+00  0.87221775783E+03  0.87726205982E+03  0.93940962994E+02 0.  0.
          2    1    3    3  502    0 -0.34176224715E+02 -0.11364401884E+02  0.71766899209E+03  0.71857215794E+03  0.00000000000E+00 0. -1.
         -2    1    3    3    0  502  0.34176224715E+02  0.11364401884E+02  0.15454876575E+03  0.15868990188E+03  0.00000000000E+00 0.  1.
<mgrwt>
<rscale>  0 0.93940963E+02</rscale>
<asrwt>0</asrwt>
<pdfrwt beam="1">  1        1 0.13457513E+00 0.93940963E+02</pdfrwt>
<pdfrwt beam="2">  1       -1 0.38802393E-03 0.93940963E+02</pdfrwt>
<totfact> 0.12918916E+05</totfact>
</mgrwt>
</event>
<event>
 5    1  0.4067226E+001  0.9088864E+02  0.7546771E-02  0.1300714E+00
          2   -1    0    0  501    0  0.00000000000E+00  0.00000000000E+00  0.27796090921E+03  0.27796090921E+03  0.00000000000E+00 0. -1.
         -2   -1    0    0    0  501 -0.00000000000E+00 -0.00000000000E+00 -0.74297718352E+01  0.74297718352E+01  0.00000000000E+00 0.  1.
         23    2    1    2    0    0  0.00000000000E+00  0.00000000000E+00  0.27053113737E+03  0.28539068104E+03  0.90888638113E+02 0.  0.
          2    1    3    3  502    0  0.20064309650E+02 -0.23790360733E+02  0.23924799003E+03  0.24126367012E+03  0.00000000000E+00 0. -1.
         -2    1    3    3    0  502 -0.20064309650E+02  0.23790360733E+02  0.31283147344E+02  0.44127010927E+02  0.00000000000E+00 0.  1.
<mgrwt>
<rscale>  0 0.90888638E+02</rscale>
<asrwt>0</asrwt>
<pdfrwt beam="1">  1        2 0.42763209E-01 0.90888638E+02</pdfrwt>
<pdfrwt beam="2">  1       -2 0.11430420E-02 0.90888638E+02</pdfrwt>
<totfact> 0.17610331E+05</totfact>
</mgrwt>
</event>
<event>
 5    1  0.4067226E+001  0.9101109E+02  0.7546771E-02  0.1300421E+00
         -1   -1    0    0    0  501 -0.00000000000E+00  0.00000000000E+00  0.22697530815E+01  0.22697530815E+01  0.00000000000E+00 0.  1.
          1   -1    0    0  501    0  0.00000000000E+00 -0.00000000000E+00 -0.91232602356E+03  0.91232602356E+03  0.00000000000E+00 0. -1.
         23    2    1    2    0    0  0.00000000000E+00  0.00000000000E+00 -0.91005627048E+03  0.91459577664E+03  0.91011093902E+02 0.  0.
          2    1    3    3  502    0  0.43902739415E+02  0.10984598637E+02 -0.40720912597E+03  0.40971622400E+03  0.00000000000E+00 0. -1.
         -2    1    3    3    0  502 -0.43902739415E+02 -0.10984598637E+02 -0.50284714451E+03  0.50487955264E+03  0.00000000000E+00 0.  1.
<mgrwt>
<rscale>  0 0.91011094E+02</rscale>
<asrwt>0</asrwt>
<pdfrwt beam="2">  1        1 0.14035811E+00 0.91011094E+02</pdfrwt>
<pdfrwt beam="1">  1       -1 0.34919215E-03 0.91011094E+02</pdfrwt>
<totfact> 0.13950770E+05</totfact>
</mgrwt>
</event>
<event>
 5    1  0.4067226E+001  0.9234703E+02  0.7546771E-02  0.1297266E+00
         -1   -1    0    0    0  501 -0.00000000000E+00  0.00000000000E+00  0.33077854607E+01  0.33077854607E+01  0.00000000000E+00 0.  1.
          1   -1    0    0  501    0  0.00000000000E+00 -0.00000000000E+00 -0.64453807841E+03  0.64453807841E+03  0.00000000000E+00 0. -1.
         23    2    1    2    0    0  0.00000000000E+00  0.00000000000E+00 -0.64123029295E+03  0.64784586387E+03  0.92347034270E+02 0.  0.
          2    1    3    3  502    0 -0.31273466862E+02 -0.30595236203E+02 -0.21705972390E+03  0.22142498040E+03  0.00000000000E+00 0. -1.
         -2    1    3    3    0  502  0.31273466862E+02  0.30595236203E+02 -0.42417056905E+03  0.42642088347E+03  0.00000000000E+00 0.  1.
<mgrwt>
<rscale>  0 0.92347034E+02</rscale>
<asrwt>0</asrwt>
<pdfrwt beam="2">  1        1 0.99159646E-01 0.92347034E+02</pdfrwt>
<pdfrwt beam="1">  1       -1 0.50889037E-03 0.92347034E+02</pdfrwt>
<totfact> 0.13733136E+05</totfact>
</mgrwt>
</event>
<event>
 5    1  0.4067226E+001  0.9163594E+02  0.7546771E-02  0.1298938E+00
          1   -1    0    0  501    0  0.00000000000E+00  0.00000000000E+00  0.16746987729E+03  0.16746987729E+03  0.00000000000E+00 0. -1.
         -1   -1    0    0    0  501 -0.00000000000E+00 -0.00000000000E+00 -0.12535307899E+02  0.12535307899E+02  0.00000000000E+00 0.  1.
         23    2    1    2    0    0  0.00000000000E+00  0.00000000000E+00  0.15493456939E+03  0.18000518519E+03  0.91635942198E+02 0.  0.
          2    1    3    3  502    0  0.31150858001E+02 -0.23677147115E+02  0.12429567468E+03  0.13030885616E+03  0.00000000000E+00 0. -1.
         -2    1    3    3    0  502 -0.31150858001E+02  0.23677147115E+02  0.30638894709E+02  0.49696329026E+02  0.00000000000E+00 0.  1.
<mgrwt>
<rscale>  0 0.91635942E+02</rscale>
<asrwt>0</asrwt>
<pdfrwt beam="1">  1        1 0.25764595E-01 0.91635942E+02</pdfrwt>
<pdfrwt beam="2">  1       -1 0.19285090E-02 0.91635942E+02</pdfrwt>
<totfact> 0.11291407E+05</totfact>
</mgrwt>
</event>
<event>
 5    1  0.4067226E+001  0.9534694E+02  0.7546771E-02  0.1290397E+00
         -4   -1    0    0    0  501 -0.00000000000E+00  0.00000000000E+00  0.12056180058E+03  0.12056180058E+03  0.00000000000E+00 0. -1.
          4   -1    0    0  501    0  0.00000000000E+00 -0.00000000000E+00 -0.18851406848E+02  0.18851406848E+02  0.00000000000E+00 0.  1.
         23    2    1    2    0    0  0.00000000000E+00  0.00000000000E+00  0.10171039374E+03  0.13941320743E+03  0.95346936041E+02 0.  0.
          2    1    3    3  502    0  0.42880646589E+01  0.27140145608E+02  0.10781942819E+03  0.11126546677E+03  0.00000000000E+00 0. -1.
         -2    1    3    3    0  502 -0.42880646589E+01 -0.27140145608E+02 -0.61090344510E+01  0.28147740656E+02  0.00000000000E+00 0.  1.
<mgrwt>
<rscale>  0 0.95346936E+02</rscale>
<asrwt>0</asrwt>
<pdfrwt beam="2">  1        4 0.29002165E-02 0.95346936E+02</pdfrwt>
<pdfrwt beam="1">  1       -4 0.18547969E-01 0.95346936E+02</pdfrwt>
<totfact> 0.21454938E+04</totfact>
</mgrwt>
</event>
<event>
 5    1  0.4067226E+001  0.9174606E+02  0.7546771E-02  0.1298678E+00
         -1   -1    0    0    0  501 -0.00000000000E+00  0.00000000000E+00  0.10808166321E+03  0.10808166321E+03  0.00000000000E+00 0.  1.
          1   -1    0    0  501    0  0.00000000000E+00 -0.00000000000E+00 -0.19469861672E+02  0.19469861672E+02  0.00000000000E+00 0. -1.
         23    2    1    2    0    0  0.00000000000E+00  0.00000000000E+00  0.88611801541E+02  0.12755152489E+03  0.91746063285E+02 0.  0.
          2    1    3    3  502    0 -0.55392857090E+01 -0.41751361414E+02  0.19032270292E+02  0.46217823170E+02  0.00000000000E+00 0. -1.
         -2    1    3    3    0  502  0.55392857090E+01  0.41751361414E+02  0.69579531248E+02  0.81333701716E+02  0.00000000000E+00 0.  1.
<mgrwt>
<rscale>  0 0.91746063E+02</rscale>
<asrwt>0</asrwt>
<pdfrwt beam="2">  1        1 0.29953634E-02 0.91746063E+02</pdfrwt>
<pdfrwt beam="1">  1       -1 0.16627948E-01 0.91746063E+02</pdfrwt>
<totfact> 0.78902267E+04</totfact>
</mgrwt>
</event>
<event>
 5    1  0.4067226E+001  0.9057358E+02  0.7546771E-02  0.1301469E+00
          2   -1    0    0  501    0  0.00000000000E+00  0.00000000000E+00  0.15479946527E+04  0.15479946527E+04  0.00000000000E+00 0. -1.
         -2   -1    0    0    0  501 -0.00000000000E+00 -0.00000000000E+00 -0.13248710214E+01  0.13248710214E+01  0.00000000000E+00 0.  1.
         23    2    1    2    0    0  0.00000000000E+00  0.00000000000E+00  0.15466697817E+04  0.15493195237E+04  0.90573577970E+02 0.  0.
          2    1    3    3  502    0  0.40609462537E+02  0.42009149531E+01  0.11085868333E+04  0.11093383358E+04  0.00000000000E+00 0. -1.
         -2    1    3    3    0  502 -0.40609462537E+02 -0.42009149531E+01  0.43808294835E+03  0.43998118797E+03  0.00000000000E+00 0.  1.
<mgrwt>
<rscale>  0 0.90573578E+02</rscale>
<asrwt>0</asrwt>
<pdfrwt beam="1">  1        2 0.23815158E+00 0.90573578E+02</pdfrwt>
<pdfrwt beam="2">  1       -2 0.20382755E-03 0.90573578E+02</pdfrwt>
<totfact> 0.23711027E+05</totfact>
</mgrwt>
</event>
<event>
 5    1  0.4067226E+001  0.9132889E+02  0.7546771E-02  0.1299665E+00
         -1   -1    0    0    0  501 -0.00000000000E+00  0.00000000000E+00  0.64674900145E+01  0.64674900145E+01  0.00000000000E+00 0.  1.
          1   -1    0    0  501    0  0.00000000000E+00 -0.00000000000E+00 -0.32241899317E+03  0.32241899317E+03  0.00000000000E+00 0. -1.
         23    2    1    2    0    0  0.00000000000E+00  0.00000000000E+00 -0.31595150316E+03  0.32888648319E+03  0.91328891789E+02 0.  0.
          2    1    3    3  502    0  0.21315911986E+02 -0.14716742514E+02 -0.29340336547E+03  0.29454453905E+03  0.00000000000E+00 0. -1.
         -2    1    3    3    0  502 -0.21315911986E+02  0.14716742514E+02 -0.22548137688E+02  0.34341944139E+02  0.00000000000E+00 0.  1.
<mgrwt>
<rscale>  0 0.91328892E+02</rscale>
<asrwt>0</asrwt>
<pdfrwt beam="2">  1        1 0.49602904E-01 0.91328892E+02</pdfrwt>
<pdfrwt beam="1">  1       -1 0.99499882E-03 0.91328892E+02</pdfrwt>
<totfact> 0.12929815E+05</totfact>
</mgrwt>
</event>
<event>
 5    1  0.4067226E+001  0.9733265E+02  0.7546771E-02  0.1286007E+00
         -1   -1    0    0    0  501 -0.00000000000E+00  0.00000000000E+00  0.11626217334E+03  0.11626217334E+03  0.00000000000E+00 0.  1.
          1   -1    0    0  501    0  0.00000000000E+00 -0.00000000000E+00 -0.20371297355E+02  0.20371297355E+02  0.00000000000E+00 0. -1.
         23    2    1    2    0    0  0.00000000000E+00  0.00000000000E+00  0.95890875988E+02  0.13663347070E+03  0.97332652368E+02 0.  0.
          2    1    3    3  502    0  0.42610886641E+02 -0.14417408986E+02  0.74014246947E+02  0.86612112855E+02  0.00000000000E+00 0. -1.
         -2    1    3    3    0  502 -0.42610886641E+02  0.14417408986E+02  0.21876629042E+02  0.50021357842E+02  0.00000000000E+00 0.  1.
<mgrwt>
<rscale>  0 0.97332652E+02</rscale>
<asrwt>0</asrwt>
<pdfrwt beam="2">  1        1 0.31340458E-02 0.97332652E+02</pdfrwt>
<pdfrwt beam="1">  1       -1 0.17886488E-01 0.97332652E+02</pdfrwt>
<totfact> 0.66737811E+04</totfact>
</mgrwt>
</event>
<event>
 5    1  0.4067226E+001  0.9021119E+02  0.7546771E-02  0.1302341E+00
          1   -1    0    0  501    0  0.00000000000E+00  0.00000000000E+00  0.15668199851E+02  0.15668199851E+02  0.00000000000E+00 0. -1.
         -1   -1    0    0    0  501 -0.00000000000E+00 -0.00000000000E+00 -0.12984994565E+03  0.12984994565E+03  0.00000000000E+00 0.  1.
         23    2    1    2    0    0  0.00000000000E+00  0.00000000000E+00 -0.11418174580E+03  0.14551814551E+03  0.90211194408E+02 0.  0.
          2    1    3    3  502    0 -0.23392670140E+02 -0.30529581817E+02 -0.95100890926E+02  0.10258387708E+03  0.00000000000E+00 0.  1.
         -2    1    3    3    0  502  0.23392670140E+02  0.30529581817E+02 -0.19080854878E+02  0.42934268423E+02  0.00000000000E+00 0. -1.
<mgrwt>
<rscale>  0 0.90211194E+02</rscale>
<asrwt>0</asrwt>
<pdfrwt beam="1">  1        1 0.24104924E-02 0.90211194E+02</pdfrwt>
<pdfrwt beam="2">  1       -1 0.19976914E-01 0.90211194E+02</pdfrwt>
<totfact> 0.79400905E+04</totfact>
</mgrwt>
</event>
<event>
 5    1  0.4067226E+001  0.9329415E+02  0.7546771E-02  0.1295065E+00
          2   -1    0    0  501    0  0.00000000000E+00  0.00000000000E+00  0.32211555886E+03  0.32211555886E+03  0.00000000000E+00 0. -1.
         -2   -1    0    0    0  501 -0.00000000000E+00 -0.00000000000E+00 -0.67551825431E+01  0.67551825431E+01  0.00000000000E+00 0.  1.
         23    2    1    2    0    0  0.00000000000E+00  0.00000000000E+00  0.31536037631E+03  0.32887074140E+03  0.93294145584E+02 0.  0.
          2    1    3    3  502    0 -0.17957111690E+02  0.39652454862E+02  0.21678988145E+03  0.22111677398E+03  0.00000000000E+00 0. -1.
         -2    1    3    3    0  502  0.17957111690E+02 -0.39652454862E+02  0.98570494869E+02  0.10775396742E+03  0.00000000000E+00 0.  1.
<mgrwt>
<rscale>  0 0.93294146E+02</rscale>
<asrwt>0</asrwt>
<pdfrwt beam="1">  1        2 0.49556228E-01 0.93294146E+02</pdfrwt>
<pdfrwt beam="2">  1       -2 0.10392591E-02 0.93294146E+02</pdfrwt>
<totfact> 0.17350405E+05</totfact>
</mgrwt>
</event>
<event>
 5    1  0.4067226E+001  0.9117058E+02  0.7546771E-02  0.1300041E+00
         -1   -1    0    0    0  501 -0.00000000000E+00  0.00000000000E+00  0.26551449227E+01  0.26551449227E+01  0.00000000000E+00 0.  1.
          1   -1    0    0  501    0  0.00000000000E+00 -0.00000000000E+00 -0.78263844830E+03  0.78263844830E+03  0.00000000000E+00 0. -1.
         23    2    1    2    0    0  0.00000000000E+00  0.00000000000E+00 -0.77998330337E+03  0.78529359322E+03  0.91170576445E+02 0.  0.
          2    1    3    3  502    0 -0.38689789902E+02  0.54957957806E+01 -0.59216300035E+03  0.59345102796E+03  0.00000000000E+00 0. -1.
         -2    1    3    3    0  502  0.38689789902E+02 -0.54957957806E+01 -0.18782030303E+03  0.19184256526E+03  0.00000000000E+00 0.  1.
<mgrwt>
<rscale>  0 0.91170576E+02</rscale>
<asrwt>0</asrwt>
<pdfrwt beam="2">  1        1 0.12040599E+00 0.91170576E+02</pdfrwt>
<pdfrwt beam="1">  1       -1 0.40848359E-03 0.91170576E+02</pdfrwt>
<totfact> 0.14157329E+05</totfact>
</mgrwt>
</event>
<event>
 5    1  0.4067226E+001  0.9101693E+02  0.7546771E-02  0.1300408E+00
          1   -1    0    0  501    0  0.00000000000E+00  0.00000000000E+00  0.11697133580E+02  0.11697133580E+02  0.00000000000E+00 0. -1.
         -1   -1    0    0    0  501 -0.00000000000E+00 -0.00000000000E+00 -0.17705367324E+03  0.17705367324E+03  0.00000000000E+00 0.  1.
         23    2    1    2    0    0  0.00000000000E+00  0.00000000000E+00 -0.16535653966E+03  0.18875080682E+03  0.91016931762E+02 0.  0.
          2    1    3    3  502    0  0.61055908441E+01  0.27464432684E+02 -0.15685672828E+03  0.15935999030E+03  0.00000000000E+00 0. -1.
         -2    1    3    3    0  502 -0.61055908441E+01 -0.27464432684E+02 -0.84998113813E+01  0.29390816521E+02  0.00000000000E+00 0.  1.
<mgrwt>
<rscale>  0 0.91016932E+02</rscale>
<asrwt>0</asrwt>
<pdfrwt beam="1">  1        1 0.17995590E-02 0.91016932E+02</pdfrwt>
<pdfrwt beam="2">  1       -1 0.27239027E-01 0.91016932E+02</pdfrwt>
<totfact> 0.72109964E+04</totfact>
</mgrwt>
</event>
<event>
 5    1  0.4067226E+001  0.9031161E+02  0.7546771E-02  0.1302099E+00
          1   -1    0    0  501    0  0.00000000000E+00  0.00000000000E+00  0.81871022046E+03  0.81871022046E+03  0.00000000000E+00 0. -1.
         -1   -1    0    0    0  501 -0.00000000000E+00 -0.00000000000E+00 -0.24905596793E+01  0.24905596793E+01  0.00000000000E+00 0.  1.
         23    2    1    2    0    0  0.00000000000E+00  0.00000000000E+00  0.81621966078E+03  0.82120078014E+03  0.90311608647E+02 0.  0.
          2    1    3    3  502    0 -0.21190382373E+02 -0.39871020379E+02  0.41322209279E+03  0.41568164326E+03  0.00000000000E+00 0.  1.
         -2    1    3    3    0  502  0.21190382373E+02  0.39871020379E+02  0.40299756799E+03  0.40551913688E+03  0.00000000000E+00 0. -1.
<mgrwt>
<rscale>  0 0.90311609E+02</rscale>
<asrwt>0</asrwt>
<pdfrwt beam="1">  1        1 0.12595520E+00 0.90311609E+02</pdfrwt>
<pdfrwt beam="2">  1       -1 0.38316368E-03 0.90311609E+02</pdfrwt>
<totfact> 0.14458630E+05</totfact>
</mgrwt>
</event>
<event>
 5    1  0.4067226E+001  0.8834466E+02  0.7546771E-02  0.1306911E+00
          1   -1    0    0  501    0  0.00000000000E+00  0.00000000000E+00  0.24869894214E+03  0.24869894214E+03  0.00000000000E+00 0. -1.
         -1   -1    0    0    0  501 -0.00000000000E+00 -0.00000000000E+00 -0.78456087978E+01  0.78456087978E+01  0.00000000000E+00 0.  1.
         23    2    1    2    0    0  0.00000000000E+00  0.00000000000E+00  0.24085333334E+03  0.25654455093E+03  0.88344657075E+02 0.  0.
          2    1    3    3  502    0 -0.34263589495E+02  0.19811010638E+02  0.17738504992E+03  0.18174687244E+03  0.00000000000E+00 0. -1.
         -2    1    3    3    0  502  0.34263589495E+02 -0.19811010638E+02  0.63468283420E+02  0.74797678493E+02  0.00000000000E+00 0.  1.
<mgrwt>
<rscale>  0 0.88344657E+02</rscale>
<asrwt>0</asrwt>
<pdfrwt beam="1">  1        1 0.38261370E-01 0.88344657E+02</pdfrwt>
<pdfrwt beam="2">  1       -1 0.12070169E-02 0.88344657E+02</pdfrwt>
<totfact> 0.13438596E+05</totfact>
</mgrwt>
</event>
<event>
 5    1  0.4067226E+001  0.9132350E+02  0.7546771E-02  0.1299678E+00
         -2   -1    0    0    0  501 -0.00000000000E+00  0.00000000000E+00  0.20953822322E+03  0.20953822322E+03  0.00000000000E+00 0. -1.
          2   -1    0    0  501    0  0.00000000000E+00 -0.00000000000E+00 -0.99504306733E+01  0.99504306733E+01  0.00000000000E+00 0.  1.
         23    2    1    2    0    0  0.00000000000E+00  0.00000000000E+00  0.19958779255E+03  0.21948865390E+03  0.91323503297E+02 0.  0.
          2    1    3    3  502    0  0.35445785357E+02 -0.16936791046E+02  0.15573406219E+03  0.16061244260E+03  0.00000000000E+00 0. -1.
         -2    1    3    3    0  502 -0.35445785357E+02  0.16936791046E+02  0.43853730356E+02  0.58876211297E+02  0.00000000000E+00 0.  1.
<mgrwt>
<rscale>  0 0.91323503E+02</rscale>
<asrwt>0</asrwt>
<pdfrwt beam="2">  1        2 0.15308356E-02 0.91323503E+02</pdfrwt>
<pdfrwt beam="1">  1       -2 0.32236646E-01 0.91323503E+02</pdfrwt>
<totfact> 0.60806018E+04</totfact>
</mgrwt>
</event>
<event>
 5    1  0.4067226E+001  0.8972177E+02  0.7546771E-02  0.1303527E+00
          3   -1    0    0  501    0  0.00000000000E+00  0.00000000000E+00  0.50727417587E+01  0.50727417587E+01  0.00000000000E+00 0. -1.
         -3   -1    0    0    0  501 -0.00000000000E+00 -0.00000000000E+00 -0.39672807769E+03  0.39672807769E+03  0.00000000000E+00 0.  1.
         23    2    1    2    0    0  0.00000000000E+00  0.00000000000E+00 -0.39165533593E+03  0.40180081944E+03  0.89721771862E+02 0.  0.
          2    1    3    3  502    0 -0.28963469696E+02 -0.50974477619E+00 -0.42426735430E+02  0.51372855632E+02  0.00000000000E+00 0. -1.
         -2    1    3    3    0  502  0.28963469696E+02  0.50974477619E+00 -0.34922860050E+03  0.35042796381E+03  0.00000000000E+00 0.  1.
<mgrwt>
<rscale>  0 0.89721772E+02</rscale>
<asrwt>0</asrwt>
<pdfrwt beam="1">  1        3 0.78042165E-03 0.89721772E+02</pdfrwt>
<pdfrwt beam="2">  1       -3 0.61035101E-01 0.89721772E+02</pdfrwt>
<totfact> 0.21447255E+04</totfact>
</mgrwt>
</event>
<event>
 5    1  0.4067226E+001  0.9069431E+02  0.7546771E-02  0.1301179E+00
          3   -1    0    0  501    0  0.00000000000E+00  0.00000000000E+00  0.15626851766E+03  0.15626851766E+03  0.00000000000E+00 0. -1.
         -3   -1    0    0    0  501 -0.00000000000E+00 -0.00000000000E+00 -0.13159171893E+02  0.13159171893E+02  0.00000000000E+00 0.  1.
         23    2    1    2    0    0  0.00000000000E+00  0.00000000000E+00  0.14310934576E+03  0.16942768955E+03  0.90694306001E+02 0.  0.
          2    1    3    3  502    0  0.15764338227E+01 -0.45265745231E+02  0.75686319706E+02  0.88203695079E+02  0.00000000000E+00 0. -1.
         -2    1    3    3    0  502 -0.15764338227E+01  0.45265745231E+02  0.67423026058E+02  0.81223994470E+02  0.00000000000E+00 0.  1.
<mgrwt>
<rscale>  0 0.90694306E+02</rscale>
<asrwt>0</asrwt>
<pdfrwt beam="1">  1        3 0.24041309E-01 0.90694306E+02</pdfrwt>
<pdfrwt beam="2">  1       -3 0.20244881E-02 0.90694306E+02</pdfrwt>
<totfact> 0.30594578E+04</totfact>
</mgrwt>
</event>
<event>
 5    1  0.4067226E+001  0.8638381E+02  0.7546771E-02  0.1311853E+00
         -4   -1    0    0    0  501 -0.00000000000E+00  0.00000000000E+00  0.55513892048E+03  0.55513892048E+03  0.00000000000E+00 0.  1.
          4   -1    0    0  501    0  0.00000000000E+00 -0.00000000000E+00 -0.33604930679E+01  0.33604930679E+01  0.00000000000E+00 0. -1.
         23    2    1    2    0    0  0.00000000000E+00  0.00000000000E+00  0.55177842741E+03  0.55849941355E+03  0.86383806214E+02 0.  0.
          2    1    3    3  502    0  0.39160397872E+02  0.18216529877E+02  0.27328880468E+03  0.27668059109E+03  0.00000000000E+00 0. -1.
         -2    1    3    3    0  502 -0.39160397872E+02 -0.18216529877E+02  0.27848962273E+03  0.28181882246E+03  0.00000000000E+00 0.  1.
<mgrwt>
<rscale>  0 0.86383806E+02</rscale>
<asrwt>0</asrwt>
<pdfrwt beam="2">  1        4 0.51699937E-03 0.86383806E+02</pdfrwt>
<pdfrwt beam="1">  1       -4 0.85405915E-01 0.86383806E+02</pdfrwt>
<totfact> 0.13887106E+04</totfact>
</mgrwt>
</event>
<event>
 5    1  0.4067226E+001  0.7855417E+02  0.7546771E-02  0.1333205E+00
         -1   -1    0    0    0  501 -0.00000000000E+00  0.00000000000E+00  0.11863657268E+01  0.11863657268E+01  0.00000000000E+00 0.  1.
          1   -1    0    0  501    0  0.00000000000E+00 -0.00000000000E+00 -0.13003488683E+04  0.13003488683E+04  0.00000000000E+00 0. -1.
         23    2    1    2    0    0  0.00000000000E+00  0.00000000000E+00 -0.12991625026E+04  0.13015352340E+04  0.78554168068E+02 0.  0.
          2    1    3    3  502    0  0.34772116986E+02 -0.54803689667E+01 -0.93825362558E+03  0.93891373431E+03  0.00000000000E+00 0. -1.
         -2    1    3    3    0  502 -0.34772116986E+02  0.54803689667E+01 -0.36090887701E+03  0.36262149973E+03  0.00000000000E+00 0.  1.
<mgrwt>
<rscale>  0 0.78554168E+02</rscale>
<asrwt>0</asrwt>
<pdfrwt beam="2">  1        1 0.20005430E+00 0.78554168E+02</pdfrwt>
<pdfrwt beam="1">  1       -1 0.18251723E-03 0.78554168E+02</pdfrwt>
<totfact> 0.18052271E+05</totfact>
</mgrwt>
</event>
<event>
 5    1  0.4067226E+001  0.8974755E+02  0.7546771E-02  0.1303464E+00
          1   -1    0    0  501    0  0.00000000000E+00  0.00000000000E+00  0.18281114055E+04  0.18281114055E+04  0.00000000000E+00 0. -1.
         -1   -1    0    0    0  501 -0.00000000000E+00 -0.00000000000E+00 -0.11014950964E+01  0.11014950964E+01  0.00000000000E+00 0.  1.
         23    2    1    2    0    0  0.00000000000E+00  0.00000000000E+00  0.18270099104E+04  0.18292129006E+04  0.89747551472E+02 0.  0.
          2    1    3    3  502    0 -0.38776007005E+02  0.10916489662E+02  0.51052956202E+03  0.51211637560E+03  0.00000000000E+00 0.  1.
         -2    1    3    3    0  502  0.38776007005E+02 -0.10916489662E+02  0.13164803484E+04  0.13170965250E+04  0.00000000000E+00 0. -1.
<mgrwt>
<rscale>  0 0.89747551E+02</rscale>
<asrwt>0</asrwt>
<pdfrwt beam="1">  1        1 0.28124548E+00 0.89747551E+02</pdfrwt>
<pdfrwt beam="2">  1       -1 0.16946225E-03 0.89747551E+02</pdfrwt>
<totfact> 0.94099061E+04</totfact>
</mgrwt>
</event>
<event>
 5    1  0.4067226E+001  0.8968362E+02  0.7546771E-02  0.1303620E+00
          2   -1    0    0  501    0  0.00000000000E+00  0.00000000000E+00  0.24758889790E+03  0.24758889790E+03  0.00000000000E+00 0. -1.
         -2   -1    0    0    0  501 -0.00000000000E+00 -0.00000000000E+00 -0.81214789201E+01  0.81214789201E+01  0.00000000000E+00 0.  1.
         23    2    1    2    0    0  0.00000000000E+00  0.00000000000E+00  0.23946741898E+03  0.25571037682E+03  0.89683622031E+02 0.  0.
          2    1    3    3  502    0 -0.17645426410E+02  0.39535518323E+02  0.15302987391E+03  0.15903634990E+03  0.00000000000E+00 0. -1.
         -2    1    3    3    0  502  0.17645426410E+02 -0.39535518323E+02  0.86437545075E+02  0.96674026920E+02  0.00000000000E+00 0.  1.
<mgrwt>
<rscale>  0 0.89683622E+02</rscale>
<asrwt>0</asrwt>
<pdfrwt beam="1">  1        2 0.38090594E-01 0.89683622E+02</pdfrwt>
<pdfrwt beam="2">  1       -2 0.12494585E-02 0.89683622E+02</pdfrwt>
<totfact> 0.17481202E+05</totfact>
</mgrwt>
</event>
<event>
 5    1  0.4067226E+001  0.1006435E+03  0.7546771E-02  0.1278949E+00
          2   -1    0    0  501    0  0.00000000000E+00  0.00000000000E+00  0.26051427955E+04  0.26051427955E+04  0.00000000000E+00 0. -1.
         -2   -1    0    0    0  501 -0.00000000000E+00 -0.00000000000E+00 -0.97203066659E+00  0.97203066659E+00  0.00000000000E+00 0.  1.
         23    2    1    2    0    0  0.00000000000E+00  0.00000000000E+00  0.26041707648E+04  0.26061148262E+04  0.10064350328E+03 0.  0.
          2    1    3    3  502    0  0.18564914366E+02  0.37052822379E+02  0.56297451079E+03  0.56449788972E+03  0.00000000000E+00 0.  1.
         -2    1    3    3    0  502 -0.18564914366E+02 -0.37052822379E+02  0.20411962540E+04  0.20416169365E+04  0.00000000000E+00 0. -1.
<mgrwt>
<rscale>  0 0.10064350E+03</rscale>
<asrwt>0</asrwt>
<pdfrwt beam="1">  1        2 0.40078561E+00 0.10064350E+03</pdfrwt>
<pdfrwt beam="2">  1       -2 0.14954527E-03 0.10064350E+03</pdfrwt>
<totfact> 0.10628796E+05</totfact>
</mgrwt>
</event>
<event>
 5    1  0.4067226E+001  0.9235447E+02  0.7546771E-02  0.1297248E+00
          2   -1    0    0  501    0  0.00000000000E+00  0.00000000000E+00  0.12503870824E+03  0.12503870824E+03  0.00000000000E+00 0. -1.
         -2   -1    0    0    0  501 -0.00000000000E+00 -0.00000000000E+00 -0.17053416377E+02  0.17053416377E+02  0.00000000000E+00 0.  1.
         23    2    1    2    0    0  0.00000000000E+00  0.00000000000E+00  0.10798529186E+03  0.14209212461E+03  0.92354472653E+02 0.  0.
          2    1    3    3  502    0 -0.15020313682E+02  0.43629125992E+02  0.51228944303E+02  0.68945740930E+02  0.00000000000E+00 0. -1.
         -2    1    3    3    0  502  0.15020313682E+02 -0.43629125992E+02  0.56756347556E+02  0.73146383683E+02  0.00000000000E+00 0.  1.
<mgrwt>
<rscale>  0 0.92354473E+02</rscale>
<asrwt>0</asrwt>
<pdfrwt beam="1">  1        2 0.19236724E-01 0.92354473E+02</pdfrwt>
<pdfrwt beam="2">  1       -2 0.26236026E-02 0.92354473E+02</pdfrwt>
<totfact> 0.12705998E+05</totfact>
</mgrwt>
</event>
<event>
 5    1  0.4067226E+001  0.9252812E+02  0.7546771E-02  0.1296842E+00
         -2   -1    0    0    0  501 -0.00000000000E+00  0.00000000000E+00  0.12457746805E+02  0.12457746805E+02  0.00000000000E+00 0.  1.
          2   -1    0    0  501    0  0.00000000000E+00 -0.00000000000E+00 -0.17180980802E+03  0.17180980802E+03  0.00000000000E+00 0. -1.
         23    2    1    2    0    0  0.00000000000E+00  0.00000000000E+00 -0.15935206121E+03  0.18426755482E+03  0.92528116526E+02 0.  0.
          2    1    3    3  502    0  0.29199001041E+02  0.11873519316E+02 -0.14711628126E+03  0.15045518381E+03  0.00000000000E+00 0. -1.
         -2    1    3    3    0  502 -0.29199001041E+02 -0.11873519316E+02 -0.12235779954E+02  0.33812371017E+02  0.00000000000E+00 0.  1.
<mgrwt>
<rscale>  0 0.92528117E+02</rscale>
<asrwt>0</asrwt>
<pdfrwt beam="2">  1        2 0.26432278E-01 0.92528117E+02</pdfrwt>
<pdfrwt beam="1">  1       -2 0.19165765E-02 0.92528117E+02</pdfrwt>
<totfact> 0.14079850E+05</totfact>
</mgrwt>
</event>
<event>
 5    1  0.4067226E+001  0.9127234E+02  0.7546771E-02  0.1299799E+00
          1   -1    0    0  501    0  0.00000000000E+00  0.00000000000E+00  0.31790773339E+03  0.31790773339E+03  0.00000000000E+00 0. -1.
         -1   -1    0    0    0  501 -0.00000000000E+00 -0.00000000000E+00 -0.65511456187E+01  0.65511456187E+01  0.00000000000E+00 0.  1.
         23    2    1    2    0    0  0.00000000000E+00  0.00000000000E+00  0.31135658777E+03  0.32445887901E+03  0.91272336548E+02 0.  0.
          2    1    3    3  502    0  0.43660350688E+02 -0.66129182988E+01  0.19662894147E+03  0.20152641895E+03  0.00000000000E+00 0. -1.
         -2    1    3    3    0  502 -0.43660350688E+02  0.66129182988E+01  0.11472764630E+03  0.12293246006E+03  0.00000000000E+00 0.  1.
<mgrwt>
<rscale>  0 0.91272337E+02</rscale>
<asrwt>0</asrwt>
<pdfrwt beam="1">  1        1 0.48908870E-01 0.91272337E+02</pdfrwt>
<pdfrwt beam="2">  1       -1 0.10078688E-02 0.91272337E+02</pdfrwt>
<totfact> 0.12917184E+05</totfact>
</mgrwt>
</event>
<event>
 5    1  0.4067226E+001  0.9178760E+02  0.7546771E-02  0.1298580E+00
          3   -1    0    0  501    0  0.00000000000E+00  0.00000000000E+00  0.13569802934E+02  0.13569802934E+02  0.00000000000E+00 0. -1.
         -3   -1    0    0    0  501 -0.00000000000E+00 -0.00000000000E+00 -0.15521529960E+03  0.15521529960E+03  0.00000000000E+00 0.  1.
         23    2    1    2    0    0  0.00000000000E+00  0.00000000000E+00 -0.14164549666E+03  0.16878510253E+03  0.91787603257E+02 0.  0.
          2    1    3    3  502    0  0.27321473584E+02 -0.23122241586E+01 -0.31476895697E+01  0.27599225515E+02  0.00000000000E+00 0. -1.
         -2    1    3    3    0  502 -0.27321473584E+02  0.23122241586E+01 -0.13849780709E+03  0.14118587702E+03  0.00000000000E+00 0.  1.
<mgrwt>
<rscale>  0 0.91787603E+02</rscale>
<asrwt>0</asrwt>
<pdfrwt beam="1">  1        3 0.20876619E-02 0.91787603E+02</pdfrwt>
<pdfrwt beam="2">  1       -3 0.23879278E-01 0.91787603E+02</pdfrwt>
<totfact> 0.29654915E+04</totfact>
</mgrwt>
</event>
<event>
 5    1  0.4067226E+001  0.9560821E+02  0.7546771E-02  0.1289812E+00
         -4   -1    0    0    0  501 -0.00000000000E+00  0.00000000000E+00  0.28264381928E+02  0.28264381928E+02  0.00000000000E+00 0.  1.
          4   -1    0    0  501    0  0.00000000000E+00 -0.00000000000E+00 -0.80852025550E+02  0.80852025550E+02  0.00000000000E+00 0. -1.
         23    2    1    2    0    0  0.00000000000E+00  0.00000000000E+00 -0.52587643622E+02  0.10911640748E+03  0.95608211568E+02 0.  0.
          2    1    3    3  502    0  0.41159635637E+02 -0.22486785564E+02 -0.36844487536E+02  0.59642999527E+02  0.00000000000E+00 0.  1.
         -2    1    3    3    0  502 -0.41159635637E+02  0.22486785564E+02 -0.15743156086E+02  0.49473407951E+02  0.00000000000E+00 0. -1.
<mgrwt>
<rscale>  0 0.95608212E+02</rscale>
<asrwt>0</asrwt>
<pdfrwt beam="2">  1        4 0.12438773E-01 0.95608212E+02</pdfrwt>
<pdfrwt beam="1">  1       -4 0.43483666E-02 0.95608212E+02</pdfrwt>
<totfact> 0.22768685E+04</totfact>
</mgrwt>
</event>
<event>
 5    1  0.4067226E+001  0.9007287E+02  0.7546771E-02  0.1302675E+00
          3   -1    0    0  501    0  0.00000000000E+00  0.00000000000E+00  0.64585874554E+01  0.64585874554E+01  0.00000000000E+00 0. -1.
         -3   -1    0    0    0  501 -0.00000000000E+00 -0.00000000000E+00 -0.31404397389E+03  0.31404397389E+03  0.00000000000E+00 0.  1.
         23    2    1    2    0    0  0.00000000000E+00  0.00000000000E+00 -0.30758538643E+03  0.32050256134E+03  0.90072869837E+02 0.  0.
          2    1    3    3  502    0  0.36263363531E+02 -0.26292393022E+02 -0.13711853836E+03  0.14424914221E+03  0.00000000000E+00 0. -1.
         -2    1    3    3    0  502 -0.36263363531E+02  0.26292393022E+02 -0.17046684807E+03  0.17625341913E+03  0.00000000000E+00 0.  1.
<mgrwt>
<rscale>  0 0.90072870E+02</rscale>
<asrwt>0</asrwt>
<pdfrwt beam="1">  1        3 0.99362886E-03 0.90072870E+02</pdfrwt>
<pdfrwt beam="2">  1       -3 0.48314457E-01 0.90072870E+02</pdfrwt>
<totfact> 0.24020706E+04</totfact>
</mgrwt>
</event>
<event>
 5    1  0.4067226E+001  0.8729809E+02  0.7546771E-02  0.1309530E+00
          2   -1    0    0  501    0  0.00000000000E+00  0.00000000000E+00  0.23607544748E+03  0.23607544748E+03  0.00000000000E+00 0.  1.
         -2   -1    0    0    0  501 -0.00000000000E+00 -0.00000000000E+00 -0.80704665081E+01  0.80704665081E+01  0.00000000000E+00 0. -1.
         23    2    1    2    0    0  0.00000000000E+00  0.00000000000E+00  0.22800498097E+03  0.24414591399E+03  0.87298086857E+02 0.  0.
          2    1    3    3  502    0 -0.10227422046E+01  0.42425108469E+02  0.85440171081E+02  0.95398944777E+02  0.00000000000E+00 0. -1.
         -2    1    3    3    0  502  0.10227422046E+01 -0.42425108469E+02  0.14256480989E+03  0.14874696921E+03  0.00000000000E+00 0.  1.
<mgrwt>
<rscale>  0 0.87298087E+02</rscale>
<asrwt>0</asrwt>
<pdfrwt beam="1">  1        2 0.36319294E-01 0.87298087E+02</pdfrwt>
<pdfrwt beam="2">  1       -2 0.12416104E-02 0.87298087E+02</pdfrwt>
<totfact> 0.18459625E+05</totfact>
</mgrwt>
</event>
<event>
 5    1  0.4067226E+001  0.8682135E+02  0.7546771E-02  0.1310737E+00
          1   -1    0    0  501    0  0.00000000000E+00  0.00000000000E+00  0.49451949457E+02  0.49451949457E+02  0.00000000000E+00 0.  1.
         -1   -1    0    0    0  501 -0.00000000000E+00 -0.00000000000E+00 -0.38107429380E+02  0.38107429380E+02  0.00000000000E+00 0. -1.
         23    2    1    2    0    0  0.00000000000E+00  0.00000000000E+00  0.11344520077E+02  0.87559378837E+02  0.86821349255E+02 0.  0.
          2    1    3    3  502    0 -0.34641764222E+02  0.67229972801E+00 -0.20703121420E+02  0.40362396509E+02  0.00000000000E+00 0. -1.
         -2    1    3    3    0  502  0.34641764222E+02 -0.67229972801E+00  0.32047641497E+02  0.47196982328E+02  0.00000000000E+00 0.  1.
<mgrwt>
<rscale>  0 0.86821349E+02</rscale>
<asrwt>0</asrwt>
<pdfrwt beam="1">  1        1 0.76079923E-02 0.86821349E+02</pdfrwt>
<pdfrwt beam="2">  1       -1 0.58626814E-02 0.86821349E+02</pdfrwt>
<totfact> 0.10727125E+05</totfact>
</mgrwt>
</event>
<event>
 5    1  0.4067226E+001  0.9213915E+02  0.7546771E-02  0.1297753E+00
         -4   -1    0    0    0  501 -0.00000000000E+00  0.00000000000E+00  0.45108380418E+02  0.45108380418E+02  0.00000000000E+00 0. -1.
          4   -1    0    0  501    0  0.00000000000E+00 -0.00000000000E+00 -0.47051255707E+02  0.47051255707E+02  0.00000000000E+00 0.  1.
         23    2    1    2    0    0  0.00000000000E+00  0.00000000000E+00 -0.19428752891E+01  0.92159636125E+02  0.92139154360E+02 0.  0.
          2    1    3    3  502    0 -0.41804099975E+02 -0.14400066111E+02 -0.13914996722E+02  0.46352689377E+02  0.00000000000E+00 0. -1.
         -2    1    3    3    0  502  0.41804099975E+02  0.14400066111E+02  0.11972121433E+02  0.45806946748E+02  0.00000000000E+00 0.  1.
<mgrwt>
<rscale>  0 0.92139154E+02</rscale>
<asrwt>0</asrwt>
<pdfrwt beam="2">  1        4 0.72386547E-02 0.92139154E+02</pdfrwt>
<pdfrwt beam="1">  1       -4 0.69397508E-02 0.92139154E+02</pdfrwt>
<totfact> 0.26193691E+04</totfact>
</mgrwt>
</event>
<event>
 5    1  0.4067226E+001  0.9147177E+02  0.7546771E-02  0.1299326E+00
          4   -1    0    0  501    0  0.00000000000E+00  0.00000000000E+00  0.11191743147E+03  0.11191743147E+03  0.00000000000E+00 0. -1.
         -4   -1    0    0    0  501 -0.00000000000E+00 -0.00000000000E+00 -0.18690307390E+02  0.18690307390E+02  0.00000000000E+00 0.  1.
         23    2    1    2    0    0  0.00000000000E+00  0.00000000000E+00  0.93227124085E+02  0.13060773886E+03  0.91471770433E+02 0.  0.
          2    1    3    3  502    0  0.35395162306E+02 -0.28519997838E+02  0.53832797020E+02  0.70456921778E+02  0.00000000000E+00 0. -1.
         -2    1    3    3    0  502 -0.35395162306E+02  0.28519997838E+02  0.39394327064E+02  0.60150817087E+02  0.00000000000E+00 0.  1.
<mgrwt>
<rscale>  0 0.91471770E+02</rscale>
<asrwt>0</asrwt>
<pdfrwt beam="1">  1        4 0.17218066E-01 0.91471770E+02</pdfrwt>
<pdfrwt beam="2">  1       -4 0.28754320E-02 0.91471770E+02</pdfrwt>
<totfact> 0.24470280E+04</totfact>
</mgrwt>
</event>
<event>
 5    1  0.4067226E+001  0.9134014E+02  0.7546771E-02  0.1299638E+00
         -1   -1    0    0    0  501 -0.00000000000E+00  0.00000000000E+00  0.53185976833E+03  0.53185976833E+03  0.00000000000E+00 0.  1.
          1   -1    0    0  501    0  0.00000000000E+00 -0.00000000000E+00 -0.39216259612E+01  0.39216259612E+01  0.00000000000E+00 0. -1.
         23    2    1    2    0    0  0.00000000000E+00  0.00000000000E+00  0.52793814237E+03  0.53578139429E+03  0.91340135213E+02 0.  0.
          2    1    3    3  502    0  0.19554598045E+02 -0.82325678813E+01  0.26742020369E+02  0.34136390144E+02  0.00000000000E+00 0. -1.
         -2    1    3    3    0  502 -0.19554598045E+02  0.82325678813E+01  0.50119612200E+03  0.50164500415E+03  0.00000000000E+00 0.  1.
<mgrwt>
<rscale>  0 0.91340135E+02</rscale>
<asrwt>0</asrwt>
<pdfrwt beam="2">  1        1 0.60332749E-03 0.91340135E+02</pdfrwt>
<pdfrwt beam="1">  1       -1 0.81824523E-01 0.91340135E+02</pdfrwt>
<totfact> 0.45021809E+04</totfact>
</mgrwt>
</event>
<event>
 5    1  0.4067226E+001  0.9953915E+02  0.7546771E-02  0.1281268E+00
          2   -1    0    0  501    0  0.00000000000E+00  0.00000000000E+00  0.28331405801E+03  0.28331405801E+03  0.00000000000E+00 0. -1.
         -2   -1    0    0    0  501 -0.00000000000E+00 -0.00000000000E+00 -0.87429850661E+01  0.87429850661E+01  0.00000000000E+00 0.  1.
         23    2    1    2    0    0  0.00000000000E+00  0.00000000000E+00  0.27457107295E+03  0.29205704308E+03  0.99539149649E+02 0.  0.
          2    1    3    3  502    0  0.46660771498E+02  0.16132651635E+02  0.15573081223E+03  0.16336944611E+03  0.00000000000E+00 0. -1.
         -2    1    3    3    0  502 -0.46660771498E+02 -0.16132651635E+02  0.11884026072E+03  0.12868759697E+03  0.00000000000E+00 0.  1.
<mgrwt>
<rscale>  0 0.99539150E+02</rscale>
<asrwt>0</asrwt>
<pdfrwt beam="1">  1        2 0.43586771E-01 0.99539150E+02</pdfrwt>
<pdfrwt beam="2">  1       -2 0.13450748E-02 0.99539150E+02</pdfrwt>
<totfact> 0.13894405E+05</totfact>
</mgrwt>
</event>
<event>
 5    1  0.4067226E+001  0.8556833E+02  0.7546771E-02  0.1313953E+00
          1   -1    0    0  501    0  0.00000000000E+00  0.00000000000E+00  0.65597838703E+02  0.65597838703E+02  0.00000000000E+00 0. -1.
         -1   -1    0    0    0  501 -0.00000000000E+00 -0.00000000000E+00 -0.27904647678E+02  0.27904647678E+02  0.00000000000E+00 0.  1.
         23    2    1    2    0    0  0.00000000000E+00  0.00000000000E+00  0.37693191026E+02  0.93502486381E+02  0.85568325388E+02 0.  0.
          2    1    3    3  502    0  0.86787735854E+01 -0.26039436748E+02  0.54709082019E+02  0.61208308525E+02  0.00000000000E+00 0. -1.
         -2    1    3    3    0  502 -0.86787735854E+01  0.26039436748E+02 -0.17015890993E+02  0.32294177856E+02  0.00000000000E+00 0.  1.
<mgrwt>
<rscale>  0 0.85568325E+02</rscale>
<asrwt>0</asrwt>
<pdfrwt beam="1">  1        1 0.10091975E-01 0.85568325E+02</pdfrwt>
<pdfrwt beam="2">  1       -1 0.42930227E-02 0.85568325E+02</pdfrwt>
<totfact> 0.11631830E+05</totfact>
</mgrwt>
</event>
<event>
 5    1  0.4067226E+001  0.8918557E+02  0.7546771E-02  0.1304836E+00
          1   -1    0    0  501    0  0.00000000000E+00  0.00000000000E+00  0.10555045374E+03  0.10555045374E+03  0.00000000000E+00 0. -1.
         -1   -1    0    0    0  501 -0.00000000000E+00 -0.00000000000E+00 -0.18839489246E+02  0.18839489246E+02  0.00000000000E+00 0.  1.
         23    2    1    2    0    0  0.00000000000E+00  0.00000000000E+00  0.86710964498E+02  0.12438994299E+03  0.89185573680E+02 0.  0.
          2    1    3    3  502    0 -0.34095751977E+02  0.28064184216E+02  0.51998081840E+02  0.68219639794E+02  0.00000000000E+00 0. -1.
         -2    1    3    3    0  502  0.34095751977E+02 -0.28064184216E+02  0.34712882657E+02  0.56170303194E+02  0.00000000000E+00 0.  1.
<mgrwt>
<rscale>  0 0.89185574E+02</rscale>
<asrwt>0</asrwt>
<pdfrwt beam="1">  1        1 0.16238531E-01 0.89185574E+02</pdfrwt>
<pdfrwt beam="2">  1       -1 0.28983830E-02 0.89185574E+02</pdfrwt>
<totfact> 0.11191462E+05</totfact>
</mgrwt>
</event>
<event>
 5    1  0.4067226E+001  0.9603820E+02  0.7546771E-02  0.1288855E+00
         -2   -1    0    0    0  501 -0.00000000000E+00  0.00000000000E+00  0.39956172926E+01  0.39956172926E+01  0.00000000000E+00 0.  1.
          2   -1    0    0  501    0  0.00000000000E+00 -0.00000000000E+00 -0.57709076851E+03  0.57709076851E+03  0.00000000000E+00 0. -1.
         23    2    1    2    0    0  0.00000000000E+00  0.00000000000E+00 -0.57309515122E+03  0.58108638581E+03  0.96038197694E+02 0.  0.
          2    1    3    3  502    0  0.41385910671E+01  0.40484268537E+02 -0.44077554202E+03  0.44265018059E+03  0.00000000000E+00 0. -1.
         -2    1    3    3    0  502 -0.41385910671E+01 -0.40484268537E+02 -0.13231960920E+03  0.13843620521E+03  0.00000000000E+00 0.  1.
<mgrwt>
<rscale>  0 0.96038198E+02</rscale>
<asrwt>0</asrwt>
<pdfrwt beam="2">  1        2 0.88783227E-01 0.96038198E+02</pdfrwt>
<pdfrwt beam="1">  1       -2 0.61471013E-03 0.96038198E+02</pdfrwt>
<totfact> 0.19632746E+05</totfact>
</mgrwt>
</event>
<event>
 5    1  0.4067226E+001  0.9281076E+02  0.7546771E-02  0.1296184E+00
         -1   -1    0    0    0  501 -0.00000000000E+00  0.00000000000E+00  0.43777150053E+02  0.43777150053E+02  0.00000000000E+00 0.  1.
          1   -1    0    0  501    0  0.00000000000E+00 -0.00000000000E+00 -0.49191399503E+02  0.49191399503E+02  0.00000000000E+00 0. -1.
         23    2    1    2    0    0  0.00000000000E+00  0.00000000000E+00 -0.54142494500E+01  0.92968549556E+02  0.92810759664E+02 0.  0.
          2    1    3    3  502    0 -0.33334717095E+02 -0.23443103220E+02 -0.24941185833E+02  0.47779129368E+02  0.00000000000E+00 0. -1.
         -2    1    3    3    0  502  0.33334717095E+02  0.23443103220E+02  0.19526936383E+02  0.45189420188E+02  0.00000000000E+00 0.  1.
<mgrwt>
<rscale>  0 0.92810760E+02</rscale>
<asrwt>0</asrwt>
<pdfrwt beam="2">  1        1 0.75679076E-02 0.92810760E+02</pdfrwt>
<pdfrwt beam="1">  1       -1 0.67349462E-02 0.92810760E+02</pdfrwt>
<totfact> 0.88990596E+04</totfact>
</mgrwt>
</event>
<event>
 5    1  0.4067226E+001  0.9109334E+02  0.7546771E-02  0.1300225E+00
         -1   -1    0    0    0  501 -0.00000000000E+00  0.00000000000E+00  0.44514596961E+02  0.44514596961E+02  0.00000000000E+00 0.  1.
          1   -1    0    0  501    0  0.00000000000E+00 -0.00000000000E+00 -0.46602676273E+02  0.46602676273E+02  0.00000000000E+00 0. -1.
         23    2    1    2    0    0  0.00000000000E+00  0.00000000000E+00 -0.20880793124E+01  0.91117273233E+02  0.91093344468E+02 0.  0.
          2    1    3    3  502    0  0.20674821456E+01 -0.41082628540E+02  0.18517234609E+02  0.45110362753E+02  0.00000000000E+00 0.  1.
         -2    1    3    3    0  502 -0.20674821456E+01  0.41082628540E+02 -0.20605313921E+02  0.46006910480E+02  0.00000000000E+00 0. -1.
<mgrwt>
<rscale>  0 0.91093344E+02</rscale>
<asrwt>0</asrwt>
<pdfrwt beam="2">  1        1 0.71696425E-02 0.91093344E+02</pdfrwt>
<pdfrwt beam="1">  1       -1 0.68483996E-02 0.91093344E+02</pdfrwt>
<totfact> 0.93017492E+04</totfact>
</mgrwt>
</event>
<event>
 5    1  0.4067226E+001  0.8108699E+02  0.7546771E-02  0.1325995E+00
         -1   -1    0    0    0  501 -0.00000000000E+00  0.00000000000E+00  0.12970183736E+02  0.12970183736E+02  0.00000000000E+00 0.  1.
          1   -1    0    0  501    0  0.00000000000E+00 -0.00000000000E+00 -0.12673489156E+03  0.12673489156E+03  0.00000000000E+00 0. -1.
         23    2    1    2    0    0  0.00000000000E+00  0.00000000000E+00 -0.11376470783E+03  0.13970507530E+03  0.81086986117E+02 0.  0.
          2    1    3    3  502    0 -0.23689973357E+01 -0.37124025354E+02 -0.84661709044E+02  0.92473836219E+02  0.00000000000E+00 0. -1.
         -2    1    3    3    0  502  0.23689973357E+01  0.37124025354E+02 -0.29102998783E+02  0.47231239080E+02  0.00000000000E+00 0.  1.
<mgrwt>
<rscale>  0 0.81086986E+02</rscale>
<asrwt>0</asrwt>
<pdfrwt beam="2">  1        1 0.19497675E-01 0.81086986E+02</pdfrwt>
<pdfrwt beam="1">  1       -1 0.19954129E-02 0.81086986E+02</pdfrwt>
<totfact> 0.14908383E+05</totfact>
</mgrwt>
</event>
<event>
 5    1  0.4067226E+001  0.9064089E+02  0.7546771E-02  0.1301307E+00
         -2   -1    0    0    0  501 -0.00000000000E+00  0.00000000000E+00  0.21982976672E+02  0.21982976672E+02  0.00000000000E+00 0.  1.
          2   -1    0    0  501    0  0.00000000000E+00 -0.00000000000E+00 -0.93433325376E+02  0.93433325376E+02  0.00000000000E+00 0. -1.
         23    2    1    2    0    0  0.00000000000E+00  0.00000000000E+00 -0.71450348704E+02  0.11541630205E+03  0.90640887288E+02 0.  0.
          2    1    3    3  502    0  0.14153010959E+02 -0.29098110239E+02 -0.76130973270E+02  0.82722021432E+02  0.00000000000E+00 0. -1.
         -2    1    3    3    0  502 -0.14153010959E+02  0.29098110239E+02  0.46806245658E+01  0.32694280616E+02  0.00000000000E+00 0.  1.
<mgrwt>
<rscale>  0 0.90640887E+02</rscale>
<asrwt>0</asrwt>
<pdfrwt beam="2">  1        2 0.14374358E-01 0.90640887E+02</pdfrwt>
<pdfrwt beam="1">  1       -2 0.33819963E-02 0.90640887E+02</pdfrwt>
<totfact> 0.12215870E+05</totfact>
</mgrwt>
</event>
<event>
 5    1  0.4067226E+001  0.9056109E+02  0.7546771E-02  0.1301499E+00
         -1   -1    0    0    0  501 -0.00000000000E+00  0.00000000000E+00  0.26347291969E+02  0.26347291969E+02  0.00000000000E+00 0.  1.
          1   -1    0    0  501    0  0.00000000000E+00 -0.00000000000E+00 -0.77819296543E+02  0.77819296543E+02  0.00000000000E+00 0. -1.
         23    2    1    2    0    0  0.00000000000E+00  0.00000000000E+00 -0.51472004574E+02  0.10416658851E+03  0.90561089368E+02 0.  0.
          2    1    3    3  502    0  0.30282225832E+02  0.24164264919E+02 -0.52696769572E+02  0.65405461727E+02  0.00000000000E+00 0. -1.
         -2    1    3    3    0  502 -0.30282225832E+02 -0.24164264919E+02  0.12247649980E+01  0.38761126785E+02  0.00000000000E+00 0.  1.
<mgrwt>
<rscale>  0 0.90561089E+02</rscale>
<asrwt>0</asrwt>
<pdfrwt beam="2">  1        1 0.11972199E-01 0.90561089E+02</pdfrwt>
<pdfrwt beam="1">  1       -1 0.40534296E-02 0.90561089E+02</pdfrwt>
<totfact> 0.10218979E+05</totfact>
</mgrwt>
</event>
<event>
 5    1  0.4067226E+001  0.9246146E+02  0.7546771E-02  0.1296998E+00
          1   -1    0    0  501    0  0.00000000000E+00  0.00000000000E+00  0.19217081329E+04  0.19217081329E+04  0.00000000000E+00 0. -1.
         -1   -1    0    0    0  501 -0.00000000000E+00 -0.00000000000E+00 -0.11121775329E+01  0.11121775329E+01  0.00000000000E+00 0.  1.
         23    2    1    2    0    0  0.00000000000E+00  0.00000000000E+00  0.19205959554E+04  0.19228203105E+04  0.92461464629E+02 0.  0.
          2    1    3    3  502    0  0.38690305303E+02 -0.35416389858E+01  0.14813580378E+04  0.14818674432E+04  0.00000000000E+00 0. -1.
         -2    1    3    3    0  502 -0.38690305303E+02  0.35416389858E+01  0.43923791758E+03  0.44095286729E+03  0.00000000000E+00 0.  1.
<mgrwt>
<rscale>  0 0.92461465E+02</rscale>
<asrwt>0</asrwt>
<pdfrwt beam="1">  1        1 0.29564475E+00 0.92461465E+02</pdfrwt>
<pdfrwt beam="2">  1       -1 0.17110577E-03 0.92461465E+02</pdfrwt>
<totfact> 0.81397856E+04</totfact>
</mgrwt>
</event>
<event>
 5    1  0.4067226E+001  0.9098766E+02  0.7546771E-02  0.1300477E+00
          1   -1    0    0  501    0  0.00000000000E+00  0.00000000000E+00  0.48390891996E+03  0.48390891996E+03  0.00000000000E+00 0. -1.
         -1   -1    0    0    0  501 -0.00000000000E+00 -0.00000000000E+00 -0.42770212516E+01  0.42770212516E+01  0.00000000000E+00 0.  1.
         23    2    1    2    0    0  0.00000000000E+00  0.00000000000E+00  0.47963189871E+03  0.48818594122E+03  0.90987663659E+02 0.  0.
          2    1    3    3  502    0 -0.17703179446E+02 -0.98238109499E+01  0.45840473426E+03  0.45885162113E+03  0.00000000000E+00 0. -1.
         -2    1    3    3    0  502  0.17703179446E+02  0.98238109499E+01  0.21227164454E+02  0.29334320084E+02  0.00000000000E+00 0.  1.
<mgrwt>
<rscale>  0 0.90987664E+02</rscale>
<asrwt>0</asrwt>
<pdfrwt beam="1">  1        1 0.74447483E-01 0.90987664E+02</pdfrwt>
<pdfrwt beam="2">  1       -1 0.65800365E-03 0.90987664E+02</pdfrwt>
<totfact> 0.13947523E+05</totfact>
</mgrwt>
</event>
<event>
 5    1  0.4067226E+001  0.7191099E+02  0.7546771E-02  0.1353713E+00
          4   -1    0    0  501    0  0.00000000000E+00  0.00000000000E+00  0.44846887077E+01  0.44846887077E+01  0.00000000000E+00 0. -1.
         -4   -1    0    0    0  501 -0.00000000000E+00 -0.00000000000E+00 -0.28826916985E+03  0.28826916985E+03  0.00000000000E+00 0.  1.
         23    2    1    2    0    0  0.00000000000E+00  0.00000000000E+00 -0.28378448114E+03  0.29275385855E+03  0.71910986387E+02 0.  0.
          2    1    3    3  502    0  0.22617197535E+02  0.79971456992E+01 -0.32858861750E+02  0.40684109419E+02  0.00000000000E+00 0. -1.
         -2    1    3    3    0  502 -0.22617197535E+02 -0.79971456992E+01 -0.25092561939E+03  0.25206974914E+03  0.00000000000E+00 0.  1.
<mgrwt>
<rscale>  0 0.71910986E+02</rscale>
<asrwt>0</asrwt>
<pdfrwt beam="1">  1        4 0.68995236E-03 0.71910986E+02</pdfrwt>
<pdfrwt beam="2">  1       -4 0.44349087E-01 0.71910986E+02</pdfrwt>
<totfact> 0.33553362E+04</totfact>
</mgrwt>
</event>
<event>
 5    1  0.4067226E+001  0.9171841E+02  0.7546771E-02  0.1298743E+00
          4   -1    0    0  501    0  0.00000000000E+00  0.00000000000E+00  0.21231097659E+02  0.21231097659E+02  0.00000000000E+00 0.  1.
         -4   -1    0    0    0  501 -0.00000000000E+00 -0.00000000000E+00 -0.99055959264E+02  0.99055959264E+02  0.00000000000E+00 0. -1.
         23    2    1    2    0    0  0.00000000000E+00  0.00000000000E+00 -0.77824861605E+02  0.12028705692E+03  0.91718411342E+02 0.  0.
          2    1    3    3  502    0  0.13079291110E+02 -0.27624897202E+02 -0.83750237089E+02  0.89153266983E+02  0.00000000000E+00 0. -1.
         -2    1    3    3    0  502 -0.13079291110E+02  0.27624897202E+02  0.59253754837E+01  0.31133789939E+02  0.00000000000E+00 0.  1.
<mgrwt>
<rscale>  0 0.91718411E+02</rscale>
<asrwt>0</asrwt>
<pdfrwt beam="1">  1        4 0.32663227E-02 0.91718411E+02</pdfrwt>
<pdfrwt beam="2">  1       -4 0.15239378E-01 0.91718411E+02</pdfrwt>
<totfact> 0.24854621E+04</totfact>
</mgrwt>
</event>
<event>
 5    1  0.4067226E+001  0.9046690E+02  0.7546771E-02  0.1301725E+00
          2   -1    0    0  501    0  0.00000000000E+00  0.00000000000E+00  0.23326881024E+03  0.23326881024E+03  0.00000000000E+00 0. -1.
         -2   -1    0    0    0  501 -0.00000000000E+00 -0.00000000000E+00 -0.87712757111E+01  0.87712757111E+01  0.00000000000E+00 0.  1.
         23    2    1    2    0    0  0.00000000000E+00  0.00000000000E+00  0.22449753453E+03  0.24204008596E+03  0.90466901117E+02 0.  0.
          2    1    3    3  502    0  0.51325121724E+01 -0.38028729024E+02  0.48175224896E+02  0.61590414888E+02  0.00000000000E+00 0. -1.
         -2    1    3    3    0  502 -0.51325121724E+01  0.38028729024E+02  0.17632230964E+03  0.18044967107E+03  0.00000000000E+00 0.  1.
<mgrwt>
<rscale>  0 0.90466901E+02</rscale>
<asrwt>0</asrwt>
<pdfrwt beam="1">  1        2 0.35887505E-01 0.90466901E+02</pdfrwt>
<pdfrwt beam="2">  1       -2 0.13494272E-02 0.90466901E+02</pdfrwt>
<totfact> 0.16708561E+05</totfact>
</mgrwt>
</event>
<event>
 5    1  0.4067226E+001  0.9189393E+02  0.7546771E-02  0.1298329E+00
          1   -1    0    0  501    0  0.00000000000E+00  0.00000000000E+00  0.21781233736E+03  0.21781233736E+03  0.00000000000E+00 0. -1.
         -1   -1    0    0    0  501 -0.00000000000E+00 -0.00000000000E+00 -0.96923963872E+01  0.96923963872E+01  0.00000000000E+00 0.  1.
         23    2    1    2    0    0  0.00000000000E+00  0.00000000000E+00  0.20811994097E+03  0.22750473374E+03  0.91893928236E+02 0.  0.
          2    1    3    3  502    0  0.41534438929E+02 -0.17552027180E+02  0.12591666489E+03  0.13374673742E+03  0.00000000000E+00 0. -1.
         -2    1    3    3    0  502 -0.41534438929E+02  0.17552027180E+02  0.82203276080E+02  0.93757996317E+02  0.00000000000E+00 0.  1.
<mgrwt>
<rscale>  0 0.91893928E+02</rscale>
<asrwt>0</asrwt>
<pdfrwt beam="1">  1        1 0.33509587E-01 0.91893928E+02</pdfrwt>
<pdfrwt beam="2">  1       -1 0.14911381E-02 0.91893928E+02</pdfrwt>
<totfact> 0.11788615E+05</totfact>
</mgrwt>
</event>
<event>
 5    1  0.4067226E+001  0.9044616E+02  0.7546771E-02  0.1301775E+00
          2   -1    0    0  501    0  0.00000000000E+00  0.00000000000E+00  0.16158445626E+04  0.16158445626E+04  0.00000000000E+00 0. -1.
         -2   -1    0    0    0  501 -0.00000000000E+00 -0.00000000000E+00 -0.12656706517E+01  0.12656706517E+01  0.00000000000E+00 0.  1.
         23    2    1    2    0    0  0.00000000000E+00  0.00000000000E+00  0.16145788919E+04  0.16171102332E+04  0.90446161678E+02 0.  0.
          2    1    3    3  502    0 -0.24927506052E+01 -0.38262144076E+02  0.12359897426E+04  0.12365843478E+04  0.00000000000E+00 0. -1.
         -2    1    3    3    0  502  0.24927506052E+01  0.38262144076E+02  0.37858914929E+03  0.38052588537E+03  0.00000000000E+00 0.  1.
<mgrwt>
<rscale>  0 0.90446162E+02</rscale>
<asrwt>0</asrwt>
<pdfrwt beam="1">  1        2 0.24858982E+00 0.90446162E+02</pdfrwt>
<pdfrwt beam="2">  1       -2 0.19471985E-03 0.90446162E+02</pdfrwt>
<totfact> 0.23334618E+05</totfact>
</mgrwt>
</event>
<event>
 5    1  0.4067226E+001  0.9073289E+02  0.7546771E-02  0.1301087E+00
          3   -1    0    0  501    0  0.00000000000E+00  0.00000000000E+00  0.45087638156E+02  0.45087638156E+02  0.00000000000E+00 0. -1.
         -3   -1    0    0    0  501 -0.00000000000E+00 -0.00000000000E+00 -0.45646971871E+02  0.45646971871E+02  0.00000000000E+00 0.  1.
         23    2    1    2    0    0  0.00000000000E+00  0.00000000000E+00 -0.55933371464E+00  0.90734610026E+02  0.90732886003E+02 0.  0.
          2    1    3    3  502    0  0.11717269443E+02 -0.29463067364E+02  0.32167018890E+02  0.45167287343E+02  0.00000000000E+00 0. -1.
         -2    1    3    3    0  502 -0.11717269443E+02  0.29463067364E+02 -0.32726352605E+02  0.45567322683E+02  0.00000000000E+00 0.  1.
<mgrwt>
<rscale>  0 0.90732886E+02</rscale>
<asrwt>0</asrwt>
<pdfrwt beam="1">  1        3 0.69365597E-02 0.90732886E+02</pdfrwt>
<pdfrwt beam="2">  1       -3 0.70226111E-02 0.90732886E+02</pdfrwt>
<totfact> 0.35845822E+04</totfact>
</mgrwt>
</event>
<event>
 5    1  0.4067226E+001  0.9133133E+02  0.7546771E-02  0.1299659E+00
          2   -1    0    0  501    0  0.00000000000E+00  0.00000000000E+00  0.21936760228E+02  0.21936760228E+02  0.00000000000E+00 0. -1.
         -2   -1    0    0    0  501 -0.00000000000E+00 -0.00000000000E+00 -0.95062025968E+02  0.95062025968E+02  0.00000000000E+00 0.  1.
         23    2    1    2    0    0  0.00000000000E+00  0.00000000000E+00 -0.73125265741E+02  0.11699878620E+03  0.91331328041E+02 0.  0.
          2    1    3    3  502    0  0.21791469499E+02  0.79214039294E+01  0.13834988318E+02  0.27000438605E+02  0.00000000000E+00 0. -1.
         -2    1    3    3    0  502 -0.21791469499E+02 -0.79214039294E+01 -0.86960254058E+02  0.89998347591E+02  0.00000000000E+00 0.  1.
<mgrwt>
<rscale>  0 0.91331328E+02</rscale>
<asrwt>0</asrwt>
<pdfrwt beam="1">  1        2 0.33748862E-02 0.91331328E+02</pdfrwt>
<pdfrwt beam="2">  1       -2 0.14624927E-01 0.91331328E+02</pdfrwt>
<totfact> 0.80669447E+04</totfact>
</mgrwt>
</event>
<event>
 5    1  0.4067226E+001  0.9103630E+02  0.7546771E-02  0.1300361E+00
          4   -1    0    0  501    0  0.00000000000E+00  0.00000000000E+00  0.67784764889E+03  0.67784764889E+03  0.00000000000E+00 0. -1.
         -4   -1    0    0    0  501 -0.00000000000E+00 -0.00000000000E+00 -0.30565892125E+01  0.30565892125E+01  0.00000000000E+00 0.  1.
         23    2    1    2    0    0  0.00000000000E+00  0.00000000000E+00  0.67479105968E+03  0.68090423810E+03  0.91036296307E+02 0.  0.
          2    1    3    3  502    0  0.38125232019E+01 -0.41237140303E+02  0.47868938507E+03  0.48047743386E+03  0.00000000000E+00 0. -1.
         -2    1    3    3    0  502 -0.38125232019E+01  0.41237140303E+02  0.19610167461E+03  0.20042680424E+03  0.00000000000E+00 0.  1.
<mgrwt>
<rscale>  0 0.91036296E+02</rscale>
<asrwt>0</asrwt>
<pdfrwt beam="1">  1        4 0.10428413E+00 0.91036296E+02</pdfrwt>
<pdfrwt beam="2">  1       -4 0.47024503E-03 0.91036296E+02</pdfrwt>
<totfact> 0.10325848E+04</totfact>
</mgrwt>
</event>
<event>
 5    1  0.4067226E+001  0.9166240E+02  0.7546771E-02  0.1298875E+00
          1   -1    0    0  501    0  0.00000000000E+00  0.00000000000E+00  0.84338009239E+03  0.84338009239E+03  0.00000000000E+00 0. -1.
         -1   -1    0    0    0  501 -0.00000000000E+00 -0.00000000000E+00 -0.24905722046E+01  0.24905722046E+01  0.00000000000E+00 0.  1.
         23    2    1    2    0    0  0.00000000000E+00  0.00000000000E+00  0.84088952018E+03  0.84587066459E+03  0.91662402675E+02 0.  0.
          2    1    3    3  502    0 -0.43574052957E+02  0.10925786712E+02  0.50422669709E+03  0.50622389608E+03  0.00000000000E+00 0. -1.
         -2    1    3    3    0  502  0.43574052957E+02 -0.10925786712E+02  0.33666282310E+03  0.33964676852E+03  0.00000000000E+00 0.  1.
<mgrwt>
<rscale>  0 0.91662403E+02</rscale>
<asrwt>0</asrwt>
<pdfrwt beam="1">  1        1 0.12975056E+00 0.91662403E+02</pdfrwt>
<pdfrwt beam="2">  1       -1 0.38316563E-03 0.91662403E+02</pdfrwt>
<totfact> 0.13855743E+05</totfact>
</mgrwt>
</event>
<event>
 5    1  0.4067226E+001  0.8944999E+02  0.7546771E-02  0.1304189E+00
         -1   -1    0    0    0  501 -0.00000000000E+00  0.00000000000E+00  0.13200384808E+03  0.13200384808E+03  0.00000000000E+00 0.  1.
          1   -1    0    0  501    0  0.00000000000E+00 -0.00000000000E+00 -0.15153536337E+02  0.15153536337E+02  0.00000000000E+00 0. -1.
         23    2    1    2    0    0  0.00000000000E+00  0.00000000000E+00  0.11685031174E+03  0.14715738442E+03  0.89449988451E+02 0.  0.
          2    1    3    3  502    0 -0.18551835298E+01  0.23765996984E+02 -0.38310282879E+01  0.24144173133E+02  0.00000000000E+00 0. -1.
         -2    1    3    3    0  502  0.18551835298E+01 -0.23765996984E+02  0.12068134003E+03  0.12301321128E+03  0.00000000000E+00 0.  1.
<mgrwt>
<rscale>  0 0.89449988E+02</rscale>
<asrwt>0</asrwt>
<pdfrwt beam="2">  1        1 0.23313134E-02 0.89449988E+02</pdfrwt>
<pdfrwt beam="1">  1       -1 0.20308284E-01 0.89449988E+02</pdfrwt>
<totfact> 0.80873523E+04</totfact>
</mgrwt>
</event>
<event>
 5    1  0.4067226E+001  0.9235042E+02  0.7546771E-02  0.1297258E+00
         -1   -1    0    0    0  501 -0.00000000000E+00  0.00000000000E+00  0.36853739077E+02  0.36853739077E+02  0.00000000000E+00 0.  1.
          1   -1    0    0  501    0  0.00000000000E+00 -0.00000000000E+00 -0.57854376703E+02  0.57854376703E+02  0.00000000000E+00 0. -1.
         23    2    1    2    0    0  0.00000000000E+00  0.00000000000E+00 -0.21000637626E+02  0.94708115780E+02  0.92350421840E+02 0.  0.
          2    1    3    3  502    0 -0.25426233510E+02 -0.35378635024E+02 -0.26188208781E+02  0.50832700556E+02  0.00000000000E+00 0. -1.
         -2    1    3    3    0  502  0.25426233510E+02  0.35378635024E+02  0.51875711552E+01  0.43875415225E+02  0.00000000000E+00 0.  1.
<mgrwt>
<rscale>  0 0.92350422E+02</rscale>
<asrwt>0</asrwt>
<pdfrwt beam="2">  1        1 0.89006734E-02 0.92350422E+02</pdfrwt>
<pdfrwt beam="1">  1       -1 0.56698060E-02 0.92350422E+02</pdfrwt>
<totfact> 0.92490928E+04</totfact>
</mgrwt>
</event>
<event>
 5    1  0.4067226E+001  0.9053648E+02  0.7546771E-02  0.1301558E+00
         -3   -1    0    0    0  501 -0.00000000000E+00  0.00000000000E+00  0.17005311026E+03  0.17005311026E+03  0.00000000000E+00 0.  1.
          3   -1    0    0  501    0  0.00000000000E+00 -0.00000000000E+00 -0.12050432940E+02  0.12050432940E+02  0.00000000000E+00 0. -1.
         23    2    1    2    0    0  0.00000000000E+00  0.00000000000E+00  0.15800267732E+03  0.18210354320E+03  0.90536481074E+02 0.  0.
          2    1    3    3  502    0 -0.38435830452E+02  0.23516856107E+02  0.70266743021E+02  0.83473173885E+02  0.00000000000E+00 0. -1.
         -2    1    3    3    0  502  0.38435830452E+02 -0.23516856107E+02  0.87735934295E+02  0.98630369310E+02  0.00000000000E+00 0.  1.
<mgrwt>
<rscale>  0 0.90536481E+02</rscale>
<asrwt>0</asrwt>
<pdfrwt beam="2">  1        3 0.18539129E-02 0.90536481E+02</pdfrwt>
<pdfrwt beam="1">  1       -3 0.26162015E-01 0.90536481E+02</pdfrwt>
<totfact> 0.30015576E+04</totfact>
</mgrwt>
</event>
<event>
 5    1  0.4067226E+001  0.8126128E+02  0.7546771E-02  0.1325510E+00
          2   -1    0    0  501    0  0.00000000000E+00  0.00000000000E+00  0.15937845125E+04  0.15937845125E+04  0.00000000000E+00 0. -1.
         -2   -1    0    0    0  501 -0.00000000000E+00 -0.00000000000E+00 -0.10358043506E+01  0.10358043506E+01  0.00000000000E+00 0.  1.
         23    2    1    2    0    0  0.00000000000E+00  0.00000000000E+00  0.15927487082E+04  0.15948203169E+04  0.81261280620E+02 0.  0.
          2    1    3    3  502    0  0.30084643863E+02 -0.22717572743E+02  0.49894420902E+03  0.50036636340E+03  0.00000000000E+00 0. -1.
         -2    1    3    3    0  502 -0.30084643863E+02  0.22717572743E+02  0.10938044991E+04  0.10944539535E+04  0.00000000000E+00 0.  1.
<mgrwt>
<rscale>  0 0.81261281E+02</rscale>
<asrwt>0</asrwt>
<pdfrwt beam="1">  1        2 0.24519565E+00 0.81261281E+02</pdfrwt>
<pdfrwt beam="2">  1       -2 0.15935579E-03 0.81261281E+02</pdfrwt>
<totfact> 0.31100896E+05</totfact>
</mgrwt>
</event>
<event>
 5    1  0.4067226E+001  0.9051350E+02  0.7546771E-02  0.1301613E+00
         -2   -1    0    0    0  501 -0.00000000000E+00  0.00000000000E+00  0.95737772199E+01  0.95737772199E+01  0.00000000000E+00 0.  1.
          2   -1    0    0  501    0  0.00000000000E+00 -0.00000000000E+00 -0.21393576238E+03  0.21393576238E+03  0.00000000000E+00 0. -1.
         23    2    1    2    0    0  0.00000000000E+00  0.00000000000E+00 -0.20436198516E+03  0.22350953960E+03  0.90513497964E+02 0.  0.
          2    1    3    3  502    0  0.43362559076E+02 -0.12547472721E+01 -0.13402387676E+03  0.14086974644E+03  0.00000000000E+00 0. -1.
         -2    1    3    3    0  502 -0.43362559076E+02  0.12547472721E+01 -0.70338108406E+02  0.82639793166E+02  0.00000000000E+00 0.  1.
<mgrwt>
<rscale>  0 0.90513498E+02</rscale>
<asrwt>0</asrwt>
<pdfrwt beam="2">  1        2 0.32913194E-01 0.90513498E+02</pdfrwt>
<pdfrwt beam="1">  1       -2 0.14728888E-02 0.90513498E+02</pdfrwt>
<totfact> 0.16165116E+05</totfact>
</mgrwt>
</event>
<event>
 5    1  0.4067226E+001  0.9156119E+02  0.7546771E-02  0.1299114E+00
         -1   -1    0    0    0  501 -0.00000000000E+00  0.00000000000E+00  0.18024438284E+03  0.18024438284E+03  0.00000000000E+00 0.  1.
          1   -1    0    0  501    0  0.00000000000E+00 -0.00000000000E+00 -0.11627896565E+02  0.11627896565E+02  0.00000000000E+00 0. -1.
         23    2    1    2    0    0  0.00000000000E+00  0.00000000000E+00  0.16861648628E+03  0.19187227941E+03  0.91561193529E+02 0.  0.
          2    1    3    3  502    0  0.25744064103E+02  0.16380957676E+02  0.12789321440E+02  0.33085636669E+02  0.00000000000E+00 0. -1.
         -2    1    3    3    0  502 -0.25744064103E+02 -0.16380957676E+02  0.15582716484E+03  0.15878664274E+03  0.00000000000E+00 0.  1.
<mgrwt>
<rscale>  0 0.91561194E+02</rscale>
<asrwt>0</asrwt>
<pdfrwt beam="2">  1        1 0.17889073E-02 0.91561194E+02</pdfrwt>
<pdfrwt beam="1">  1       -1 0.27729903E-01 0.91561194E+02</pdfrwt>
<totfact> 0.70665073E+04</totfact>
</mgrwt>
</event>
<event>
 5    1  0.4067226E+001  0.8975213E+02  0.7546771E-02  0.1303453E+00
         -1   -1    0    0    0  501 -0.00000000000E+00  0.00000000000E+00  0.14338692189E+01  0.14338692189E+01  0.00000000000E+00 0.  1.
          1   -1    0    0  501    0  0.00000000000E+00 -0.00000000000E+00 -0.14044943081E+04  0.14044943081E+04  0.00000000000E+00 0. -1.
         23    2    1    2    0    0  0.00000000000E+00  0.00000000000E+00 -0.14030604389E+04  0.14059281773E+04  0.89752128812E+02 0.  0.
          2    1    3    3  502    0  0.39524985876E+01  0.30577948164E+02 -0.19075293030E+03  0.19322865620E+03  0.00000000000E+00 0.  1.
         -2    1    3    3    0  502 -0.39524985876E+01 -0.30577948164E+02 -0.12123075086E+04  0.12126995211E+04  0.00000000000E+00 0. -1.
<mgrwt>
<rscale>  0 0.89752129E+02</rscale>
<asrwt>0</asrwt>
<pdfrwt beam="2">  1        1 0.21607487E+00 0.89752129E+02</pdfrwt>
<pdfrwt beam="1">  1       -1 0.22059646E-03 0.89752129E+02</pdfrwt>
<totfact> 0.12111533E+05</totfact>
</mgrwt>
</event>
<event>
 5    1  0.4067226E+001  0.7081487E+02  0.7546771E-02  0.1357344E+00
         -2   -1    0    0    0  501 -0.00000000000E+00  0.00000000000E+00  0.51572058462E+03  0.51572058462E+03  0.00000000000E+00 0.  1.
          2   -1    0    0  501    0  0.00000000000E+00 -0.00000000000E+00 -0.24309415115E+01  0.24309415115E+01  0.00000000000E+00 0. -1.
         23    2    1    2    0    0  0.00000000000E+00  0.00000000000E+00  0.51328964311E+03  0.51815152613E+03  0.70814873508E+02 0.  0.
          2    1    3    3  502    0  0.27732628441E+02 -0.91543041188E+01  0.11016125635E+03  0.11396667217E+03  0.00000000000E+00 0. -1.
         -2    1    3    3    0  502 -0.27732628441E+02  0.91543041188E+01  0.40312838675E+03  0.40418485396E+03  0.00000000000E+00 0.  1.
<mgrwt>
<rscale>  0 0.70814874E+02</rscale>
<asrwt>0</asrwt>
<pdfrwt beam="2">  1        2 0.37399141E-03 0.70814874E+02</pdfrwt>
<pdfrwt beam="1">  1       -2 0.79341542E-01 0.70814874E+02</pdfrwt>
<totfact> 0.67785506E+04</totfact>
</mgrwt>
</event>
<event>
 5    1  0.4067226E+001  0.9024215E+02  0.7546771E-02  0.1302266E+00
         -2   -1    0    0    0  501 -0.00000000000E+00  0.00000000000E+00  0.22014831332E+02  0.22014831332E+02  0.00000000000E+00 0.  1.
          2   -1    0    0  501    0  0.00000000000E+00 -0.00000000000E+00 -0.92479088813E+02  0.92479088813E+02  0.00000000000E+00 0. -1.
         23    2    1    2    0    0  0.00000000000E+00  0.00000000000E+00 -0.70464257481E+02  0.11449392014E+03  0.90242152943E+02 0.  0.
          2    1    3    3  502    0  0.35782432739E+02  0.14303267530E+02 -0.65012309666E+02  0.75574905643E+02  0.00000000000E+00 0. -1.
         -2    1    3    3    0  502 -0.35782432739E+02 -0.14303267530E+02 -0.54519478144E+01  0.38919014502E+02  0.00000000000E+00 0.  1.
<mgrwt>
<rscale>  0 0.90242153E+02</rscale>
<asrwt>0</asrwt>
<pdfrwt beam="2">  1        2 0.14227552E-01 0.90242153E+02</pdfrwt>
<pdfrwt beam="1">  1       -2 0.33868971E-02 0.90242153E+02</pdfrwt>
<totfact> 0.12327460E+05</totfact>
</mgrwt>
</event>
<event>
 5    1  0.4067226E+001  0.8873132E+02  0.7546771E-02  0.1305953E+00
         -2   -1    0    0    0  501 -0.00000000000E+00  0.00000000000E+00  0.49000065185E+03  0.49000065185E+03  0.00000000000E+00 0.  1.
          2   -1    0    0  501    0  0.00000000000E+00 -0.00000000000E+00 -0.40169572183E+01  0.40169572183E+01  0.00000000000E+00 0. -1.
         23    2    1    2    0    0  0.00000000000E+00  0.00000000000E+00  0.48598369463E+03  0.49401760906E+03  0.88731317029E+02 0.  0.
          2    1    3    3  502    0 -0.28240667607E+01 -0.39043560424E+02  0.35923763209E+03  0.36136415328E+03  0.00000000000E+00 0. -1.
         -2    1    3    3    0  502  0.28240667607E+01  0.39043560424E+02  0.12674606254E+03  0.13265345579E+03  0.00000000000E+00 0.  1.
<mgrwt>
<rscale>  0 0.88731317E+02</rscale>
<asrwt>0</asrwt>
<pdfrwt beam="2">  1        2 0.61799381E-03 0.88731317E+02</pdfrwt>
<pdfrwt beam="1">  1       -2 0.75384668E-01 0.88731317E+02</pdfrwt>
<totfact> 0.39562333E+04</totfact>
</mgrwt>
</event>
<event>
 5    1  0.4067226E+001  0.9149763E+02  0.7546771E-02  0.1299265E+00
         -2   -1    0    0    0  501 -0.00000000000E+00  0.00000000000E+00  0.21753045870E+01  0.21753045870E+01  0.00000000000E+00 0.  1.
          2   -1    0    0  501    0  0.00000000000E+00 -0.00000000000E+00 -0.96214294682E+03  0.96214294682E+03  0.00000000000E+00 0. -1.
         23    2    1    2    0    0  0.00000000000E+00  0.00000000000E+00 -0.95996764223E+03  0.96431825140E+03  0.91497627631E+02 0.  0.
          2    1    3    3  502    0  0.16640723749E+02  0.41232974870E+02 -0.36653012208E+03  0.36921728331E+03  0.00000000000E+00 0. -1.
         -2    1    3    3    0  502 -0.16640723749E+02 -0.41232974870E+02 -0.59343752015E+03  0.59510096809E+03  0.00000000000E+00 0.  1.
<mgrwt>
<rscale>  0 0.91497628E+02</rscale>
<asrwt>0</asrwt>
<pdfrwt beam="2">  1        2 0.14802225E+00 0.91497628E+02</pdfrwt>
<pdfrwt beam="1">  1       -2 0.33466165E-03 0.91497628E+02</pdfrwt>
<totfact> 0.24716763E+05</totfact>
</mgrwt>
</event>
<event>
 5    1  0.4067226E+001  0.1177981E+03  0.7546771E-02  0.1246774E+00
         -1   -1    0    0    0  501 -0.00000000000E+00  0.00000000000E+00  0.46917112299E+01  0.46917112299E+01  0.00000000000E+00 0.  1.
          1   -1    0    0  501    0  0.00000000000E+00 -0.00000000000E+00 -0.73941005884E+03  0.73941005884E+03  0.00000000000E+00 0. -1.
         23    2    1    2    0    0  0.00000000000E+00  0.00000000000E+00 -0.73471834761E+03  0.74410177007E+03  0.11779810655E+03 0.  0.
          2    1    3    3  502    0  0.25277155714E+02 -0.30787838065E+01 -0.70284279316E+03  0.70330392108E+03  0.00000000000E+00 0. -1.
         -2    1    3    3    0  502 -0.25277155714E+02  0.30787838065E+01 -0.31875554456E+02  0.40797848994E+02  0.00000000000E+00 0.  1.
<mgrwt>
<rscale>  0 0.11779811E+03</rscale>
<asrwt>0</asrwt>
<pdfrwt beam="2">  1        1 0.11375531E+00 0.11779811E+03</pdfrwt>
<pdfrwt beam="1">  1       -1 0.72180224E-03 0.11779811E+03</pdfrwt>
<totfact> 0.71522587E+04</totfact>
</mgrwt>
</event>
<event>
 5    1  0.4067226E+001  0.9476544E+02  0.7546771E-02  0.1291705E+00
          1   -1    0    0  501    0  0.00000000000E+00  0.00000000000E+00  0.12621346132E+03  0.12621346132E+03  0.00000000000E+00 0.  1.
         -1   -1    0    0    0  501 -0.00000000000E+00 -0.00000000000E+00 -0.17788294855E+02  0.17788294855E+02  0.00000000000E+00 0. -1.
         23    2    1    2    0    0  0.00000000000E+00  0.00000000000E+00  0.10842516646E+03  0.14400175617E+03  0.94765442321E+02 0.  0.
          2    1    3    3  502    0 -0.28096239727E+02 -0.14627803600E+02  0.10775957077E+03  0.11231872692E+03  0.00000000000E+00 0.  1.
         -2    1    3    3    0  502  0.28096239727E+02  0.14627803600E+02  0.66559569479E+00  0.31683029252E+02  0.00000000000E+00 0. -1.
<mgrwt>
<rscale>  0 0.94765442E+02</rscale>
<asrwt>0</asrwt>
<pdfrwt beam="1">  1        1 0.19417455E-01 0.94765442E+02</pdfrwt>
<pdfrwt beam="2">  1       -1 0.27366608E-02 0.94765442E+02</pdfrwt>
<totfact> 0.97871989E+04</totfact>
</mgrwt>
</event>
<event>
 5    1  0.4067226E+001  0.9014367E+02  0.7546771E-02  0.1302504E+00
          4   -1    0    0  501    0  0.00000000000E+00  0.00000000000E+00  0.30162455266E+02  0.30162455266E+02  0.00000000000E+00 0.  1.
         -4   -1    0    0    0  501 -0.00000000000E+00 -0.00000000000E+00 -0.67350961854E+02  0.67350961854E+02  0.00000000000E+00 0. -1.
         23    2    1    2    0    0  0.00000000000E+00  0.00000000000E+00 -0.37188506588E+02  0.97513417120E+02  0.90143671415E+02 0.  0.
          2    1    3    3  502    0 -0.11365529891E+02  0.39346695387E+02 -0.38951176016E+02  0.56520189495E+02  0.00000000000E+00 0. -1.
         -2    1    3    3    0  502  0.11365529891E+02 -0.39346695387E+02  0.17626694274E+01  0.40993227625E+02  0.00000000000E+00 0.  1.
<mgrwt>
<rscale>  0 0.90143671E+02</rscale>
<asrwt>0</asrwt>
<pdfrwt beam="1">  1        4 0.46403777E-02 0.90143671E+02</pdfrwt>
<pdfrwt beam="2">  1       -4 0.10361686E-01 0.90143671E+02</pdfrwt>
<totfact> 0.27446305E+04</totfact>
</mgrwt>
</event>
<event>
 5    1  0.4067226E+001  0.9187140E+02  0.7546771E-02  0.1298382E+00
         -3   -1    0    0    0  501 -0.00000000000E+00  0.00000000000E+00  0.80832460801E+03  0.80832460801E+03  0.00000000000E+00 0.  1.
          3   -1    0    0  501    0  0.00000000000E+00 -0.00000000000E+00 -0.26104471733E+01  0.26104471733E+01  0.00000000000E+00 0. -1.
         23    2    1    2    0    0  0.00000000000E+00  0.00000000000E+00  0.80571416084E+03  0.81093505518E+03  0.91871403345E+02 0.  0.
          2    1    3    3  502    0 -0.21836766099E+02 -0.32761640727E+02  0.19399075976E+03  0.19794591263E+03  0.00000000000E+00 0. -1.
         -2    1    3    3    0  502  0.21836766099E+02  0.32761640727E+02  0.61172340108E+03  0.61298914255E+03  0.00000000000E+00 0.  1.
<mgrwt>
<rscale>  0 0.91871403E+02</rscale>
<asrwt>0</asrwt>
<pdfrwt beam="2">  1        3 0.40160790E-03 0.91871403E+02</pdfrwt>
<pdfrwt beam="1">  1       -3 0.12435743E+00 0.91871403E+02</pdfrwt>
<totfact> 0.11979665E+04</totfact>
</mgrwt>
</event>
<event>
 5    1  0.4067226E+001  0.9203090E+02  0.7546771E-02  0.1298007E+00
         -2   -1    0    0    0  501 -0.00000000000E+00  0.00000000000E+00  0.31309945491E+02  0.31309945491E+02  0.00000000000E+00 0.  1.
          2   -1    0    0  501    0  0.00000000000E+00 -0.00000000000E+00 -0.67627766610E+02  0.67627766610E+02  0.00000000000E+00 0. -1.
         23    2    1    2    0    0  0.00000000000E+00  0.00000000000E+00 -0.36317821119E+02  0.98937712101E+02  0.92030901033E+02 0.  0.
          2    1    3    3  502    0 -0.13150691097E+02 -0.32768769291E+02  0.13563023681E+02  0.37824443532E+02  0.00000000000E+00 0.  1.
         -2    1    3    3    0  502  0.13150691097E+02  0.32768769291E+02 -0.49880844800E+02  0.61113268568E+02  0.00000000000E+00 0. -1.
<mgrwt>
<rscale>  0 0.92030901E+02</rscale>
<asrwt>0</asrwt>
<pdfrwt beam="2">  1        2 0.10404272E-01 0.92030901E+02</pdfrwt>
<pdfrwt beam="1">  1       -2 0.48169148E-02 0.92030901E+02</pdfrwt>
<totfact> 0.10674113E+05</totfact>
</mgrwt>
</event>
<event>
 5    1  0.4067226E+001  0.9594819E+02  0.7546771E-02  0.1289055E+00
         -1   -1    0    0    0  501 -0.00000000000E+00  0.00000000000E+00  0.82556816966E+01  0.82556816966E+01  0.00000000000E+00 0.  1.
          1   -1    0    0  501    0  0.00000000000E+00 -0.00000000000E+00 -0.27877936791E+03  0.27877936791E+03  0.00000000000E+00 0. -1.
         23    2    1    2    0    0  0.00000000000E+00  0.00000000000E+00 -0.27052368622E+03  0.28703504961E+03  0.95948188625E+02 0.  0.
          2    1    3    3  502    0  0.45203483490E+02 -0.46459453422E+01 -0.18127496022E+03  0.18688378991E+03  0.00000000000E+00 0. -1.
         -2    1    3    3    0  502 -0.45203483490E+02  0.46459453422E+01 -0.89248725999E+02  0.10015125970E+03  0.00000000000E+00 0.  1.
<mgrwt>
<rscale>  0 0.95948189E+02</rscale>
<asrwt>0</asrwt>
<pdfrwt beam="2">  1        1 0.42889136E-01 0.95948189E+02</pdfrwt>
<pdfrwt beam="1">  1       -1 0.12701048E-02 0.95948189E+02</pdfrwt>
<totfact> 0.11020919E+05</totfact>
</mgrwt>
</event>
<event>
 5    1  0.4067226E+001  0.8935376E+02  0.7546771E-02  0.1304424E+00
          2   -1    0    0  501    0  0.00000000000E+00  0.00000000000E+00  0.19178984538E+04  0.19178984538E+04  0.00000000000E+00 0. -1.
         -2   -1    0    0    0  501 -0.00000000000E+00 -0.00000000000E+00 -0.10407346722E+01  0.10407346722E+01  0.00000000000E+00 0.  1.
         23    2    1    2    0    0  0.00000000000E+00  0.00000000000E+00  0.19168577191E+04  0.19189391885E+04  0.89353755796E+02 0.  0.
          2    1    3    3  502    0  0.25307806384E+02 -0.30239801341E+02  0.14094671056E+04  0.14100186000E+04  0.00000000000E+00 0. -1.
         -2    1    3    3    0  502 -0.25307806384E+02  0.30239801341E+02  0.50739061356E+03  0.50892058848E+03  0.00000000000E+00 0.  1.
<mgrwt>
<rscale>  0 0.89353756E+02</rscale>
<asrwt>0</asrwt>
<pdfrwt beam="1">  1        2 0.29505847E+00 0.89353756E+02</pdfrwt>
<pdfrwt beam="2">  1       -2 0.16011456E-03 0.89353756E+02</pdfrwt>
<totfact> 0.21540716E+05</totfact>
</mgrwt>
</event>
<event>
 5    1  0.4067226E+001  0.1030213E+03  0.7546771E-02  0.1274068E+00
          2   -1    0    0  501    0  0.00000000000E+00  0.00000000000E+00  0.36781937301E+03  0.36781937301E+03  0.00000000000E+00 0. -1.
         -2   -1    0    0    0  501 -0.00000000000E+00 -0.00000000000E+00 -0.72137162115E+01  0.72137162115E+01  0.00000000000E+00 0.  1.
         23    2    1    2    0    0  0.00000000000E+00  0.00000000000E+00  0.36060565680E+03  0.37503308922E+03  0.10302125167E+03 0.  0.
          2    1    3    3  502    0 -0.20112855993E+02  0.53285078966E+01  0.35184100148E+03  0.35245568557E+03  0.00000000000E+00 0. -1.
         -2    1    3    3    0  502  0.20112855993E+02 -0.53285078966E+01  0.87646553225E+01  0.22577403649E+02  0.00000000000E+00 0.  1.
<mgrwt>
<rscale>  0 0.10302125E+03</rscale>
<asrwt>0</asrwt>
<pdfrwt beam="1">  1        2 0.56587581E-01 0.10302125E+03</pdfrwt>
<pdfrwt beam="2">  1       -2 0.11098028E-02 0.10302125E+03</pdfrwt>
<totfact> 0.13966098E+05</totfact>
</mgrwt>
</event>
<event>
 5    1  0.4067226E+001  0.9377945E+02  0.7546771E-02  0.1293949E+00
          2   -1    0    0  501    0  0.00000000000E+00  0.00000000000E+00  0.24761671958E+03  0.24761671958E+03  0.00000000000E+00 0. -1.
         -2   -1    0    0    0  501 -0.00000000000E+00 -0.00000000000E+00 -0.88792325758E+01  0.88792325758E+01  0.00000000000E+00 0.  1.
         23    2    1    2    0    0  0.00000000000E+00  0.00000000000E+00  0.23873748700E+03  0.25649595215E+03  0.93779452819E+02 0.  0.
          2    1    3    3  502    0  0.24161275061E+02 -0.74734329647E+01  0.22736274759E+03  0.22876502881E+03  0.00000000000E+00 0. -1.
         -2    1    3    3    0  502 -0.24161275061E+02  0.74734329647E+01  0.11374739406E+02  0.27730923342E+02  0.00000000000E+00 0.  1.
<mgrwt>
<rscale>  0 0.93779453E+02</rscale>
<asrwt>0</asrwt>
<pdfrwt beam="1">  1        2 0.38094875E-01 0.93779453E+02</pdfrwt>
<pdfrwt beam="2">  1       -2 0.13660360E-02 0.93779453E+02</pdfrwt>
<totfact> 0.15509346E+05</totfact>
</mgrwt>
</event>
<event>
 5    1  0.4067226E+001  0.9108918E+02  0.7546771E-02  0.1300235E+00
          2   -1    0    0  501    0  0.00000000000E+00  0.00000000000E+00  0.11512734558E+04  0.11512734558E+04  0.00000000000E+00 0. -1.
         -2   -1    0    0    0  501 -0.00000000000E+00 -0.00000000000E+00 -0.18017521969E+01  0.18017521969E+01  0.00000000000E+00 0.  1.
         23    2    1    2    0    0  0.00000000000E+00  0.00000000000E+00  0.11494717036E+04  0.11530752080E+04  0.91089175608E+02 0.  0.
          2    1    3    3  502    0 -0.27515804085E+02 -0.29322475870E+01  0.10326594045E+04  0.10330300883E+04  0.00000000000E+00 0. -1.
         -2    1    3    3    0  502  0.27515804085E+02  0.29322475870E+01  0.11681229906E+03  0.12004511969E+03  0.00000000000E+00 0.  1.
<mgrwt>
<rscale>  0 0.91089176E+02</rscale>
<asrwt>0</asrwt>
<pdfrwt beam="1">  1        2 0.17711841E+00 0.91089176E+02</pdfrwt>
<pdfrwt beam="2">  1       -2 0.27719357E-03 0.91089176E+02</pdfrwt>
<totfact> 0.25024793E+05</totfact>
</mgrwt>
</event>
<event>
 5    1  0.4067226E+001  0.8907460E+02  0.7546771E-02  0.1305108E+00
         -2   -1    0    0    0  501 -0.00000000000E+00  0.00000000000E+00  0.11368235559E+02  0.11368235559E+02  0.00000000000E+00 0.  1.
          2   -1    0    0  501    0  0.00000000000E+00 -0.00000000000E+00 -0.17448362194E+03  0.17448362194E+03  0.00000000000E+00 0. -1.
         23    2    1    2    0    0  0.00000000000E+00  0.00000000000E+00 -0.16311538638E+03  0.18585185749E+03  0.89074596048E+02 0.  0.
          2    1    3    3  502    0  0.12689646009E+02  0.37795218866E+02 -0.40138932199E+02  0.56574195204E+02  0.00000000000E+00 0.  1.
         -2    1    3    3    0  502 -0.12689646009E+02 -0.37795218866E+02 -0.12297645418E+03  0.12927766229E+03  0.00000000000E+00 0. -1.
<mgrwt>
<rscale>  0 0.89074596E+02</rscale>
<asrwt>0</asrwt>
<pdfrwt beam="2">  1        2 0.26843633E-01 0.89074596E+02</pdfrwt>
<pdfrwt beam="1">  1       -2 0.17489594E-02 0.89074596E+02</pdfrwt>
<totfact> 0.15687995E+05</totfact>
</mgrwt>
</event>
<event>
 5    1  0.4067226E+001  0.8266210E+02  0.7546771E-02  0.1321662E+00
         -3   -1    0    0    0  501 -0.00000000000E+00  0.00000000000E+00  0.76838818952E+02  0.76838818952E+02  0.00000000000E+00 0.  1.
          3   -1    0    0  501    0  0.00000000000E+00 -0.00000000000E+00 -0.22231675765E+02  0.22231675765E+02  0.00000000000E+00 0. -1.
         23    2    1    2    0    0  0.00000000000E+00  0.00000000000E+00  0.54607143187E+02  0.99070494717E+02  0.82662100363E+02 0.  0.
          2    1    3    3  502    0 -0.24020395441E+02 -0.68983852988E+01 -0.12150347208E+02  0.27788451813E+02  0.00000000000E+00 0. -1.
         -2    1    3    3    0  502  0.24020395441E+02  0.68983852988E+01  0.66757490394E+02  0.71282042905E+02  0.00000000000E+00 0.  1.
<mgrwt>
<rscale>  0 0.82662100E+02</rscale>
<asrwt>0</asrwt>
<pdfrwt beam="2">  1        3 0.34202578E-02 0.82662100E+02</pdfrwt>
<pdfrwt beam="1">  1       -3 0.11821357E-01 0.82662100E+02</pdfrwt>
<totfact> 0.45282183E+04</totfact>
</mgrwt>
</event>
<event>
 5    1  0.4067226E+001  0.8972321E+02  0.7546771E-02  0.1303523E+00
          2   -1    0    0  501    0  0.00000000000E+00  0.00000000000E+00  0.45305248958E+01  0.45305248958E+01  0.00000000000E+00 0. -1.
         -2   -1    0    0    0  501 -0.00000000000E+00 -0.00000000000E+00 -0.44422305171E+03  0.44422305171E+03  0.00000000000E+00 0.  1.
         23    2    1    2    0    0  0.00000000000E+00  0.00000000000E+00 -0.43969252681E+03  0.44875357661E+03  0.89723209819E+02 0.  0.
          2    1    3    3  502    0 -0.17025569510E+02 -0.24924827524E+02 -0.53855151286E+02  0.61737301239E+02  0.00000000000E+00 0. -1.
         -2    1    3    3    0  502  0.17025569510E+02  0.24924827524E+02 -0.38583737553E+03  0.38701627537E+03  0.00000000000E+00 0.  1.
<mgrwt>
<rscale>  0 0.89723210E+02</rscale>
<asrwt>0</asrwt>
<pdfrwt beam="1">  1        2 0.69700338E-03 0.89723210E+02</pdfrwt>
<pdfrwt beam="2">  1       -2 0.68342053E-01 0.89723210E+02</pdfrwt>
<totfact> 0.41356164E+04</totfact>
</mgrwt>
</event>
