<event>
 4    1  0.4619222E+006  0.3411183E+02  0.7546771E-02  0.1556632E+00
         21   -1    0    0  503  501  0.00000000000E+00  0.00000000000E+00  0.63675224194E+02  0.63675224194E+02  0.00000000000E+00 0.  1.
         21   -1    0    0  504  502 -0.00000000000E+00 -0.00000000000E+00 -0.20924795900E+03  0.20924795900E+03  0.00000000000E+00 0.  1.
         21    1    1    2  503  502 -0.23617090187E+01 -0.34029980191E+02 -0.20315304687E+03  0.20599703316E+03  0.00000000000E+00 0.  1.
         21    1    1    2  504  501  0.23617090187E+01  0.34029980191E+02  0.57580312059E+02  0.66926150032E+02  0.00000000000E+00 0.  1.
<mgrwt>
<rscale>  2 0.34111834E+02</rscale>
<asrwt>0</asrwt>
<pdfrwt beam="1">  1       21 0.97961884E-02 0.34111834E+02</pdfrwt>
<pdfrwt beam="2">  1       21 0.32191993E-01 0.34111834E+02</pdfrwt>
<totfact> 0.75911466E+05</totfact>
</mgrwt>
</event>
<event>
 4    1  0.4619222E+006  0.2172100E+02  0.7546771E-02  0.1713122E+00
         21   -1    0    0  503  501  0.00000000000E+00  0.00000000000E+00  0.24628476127E+02  0.24628476127E+02  0.00000000000E+00 0.  1.
         21   -1    0    0  504  502 -0.00000000000E+00 -0.00000000000E+00 -0.19253014950E+02  0.19253014950E+02  0.00000000000E+00 0.  1.
         21    1    1    2  503  502  0.86329654776E+01 -0.19931732119E+02  0.42390181231E+01  0.22130777502E+02  0.00000000000E+00 0.  1.
         21    1    1    2  504  501 -0.86329654776E+01  0.19931732119E+02  0.11364430536E+01  0.21750713575E+02  0.00000000000E+00 0.  1.
<mgrwt>
<rscale>  2 0.21721005E+02</rscale>
<asrwt>0</asrwt>
<pdfrwt beam="1">  1       21 0.37889963E-02 0.21721005E+02</pdfrwt>
<pdfrwt beam="2">  1       21 0.29620023E-02 0.21721005E+02</pdfrwt>
<totfact> 0.17807912E+08</totfact>
</mgrwt>
</event>
<event>
 4    1  0.4619222E+006  0.2670513E+02  0.7546771E-02  0.1637653E+00
         21   -1    0    0  503  501  0.00000000000E+00  0.00000000000E+00  0.29878156230E+03  0.29878156230E+03  0.00000000000E+00 0.  1.
         21   -1    0    0  504  502 -0.00000000000E+00 -0.00000000000E+00 -0.26591821983E+01  0.26591821983E+01  0.00000000000E+00 0.  1.
         21    1    1    2  503  502 -0.26599189959E+02 -0.23763707405E+01  0.99832961909E+02  0.10334304199E+03  0.00000000000E+00 0.  1.
         21    1    1    2  504  501  0.26599189959E+02  0.23763707405E+01  0.19628941819E+03  0.19809770251E+03  0.00000000000E+00 0.  1.
<mgrwt>
<rscale>  2 0.26705131E+02</rscale>
<asrwt>0</asrwt>
<pdfrwt beam="1">  1       21 0.45966368E-01 0.26705131E+02</pdfrwt>
<pdfrwt beam="2">  1       21 0.40910519E-03 0.26705131E+02</pdfrwt>
<totfact> 0.52592322E+07</totfact>
</mgrwt>
</event>
<event>
 4    1  0.4619222E+006  0.2294620E+02  0.7546771E-02  0.1692384E+00
         21   -1    0    0  503  501  0.00000000000E+00  0.00000000000E+00  0.29760317698E+03  0.29760317698E+03  0.00000000000E+00 0. -1.
         21   -1    0    0  504  502 -0.00000000000E+00 -0.00000000000E+00 -0.22768799603E+02  0.22768799603E+02  0.00000000000E+00 0. -1.
         21    1    1    2  503  502 -0.22769891403E+02 -0.28390490309E+01 -0.16419408703E+02  0.28215689537E+02  0.00000000000E+00 0. -1.
         21    1    1    2  504  501  0.22769891403E+02  0.28390490309E+01  0.29125378608E+03  0.29215628704E+03  0.00000000000E+00 0. -1.
<mgrwt>
<rscale>  2 0.22946201E+02</rscale>
<asrwt>0</asrwt>
<pdfrwt beam="1">  1       21 0.45785101E-01 0.22946201E+02</pdfrwt>
<pdfrwt beam="2">  1       21 0.35028925E-02 0.22946201E+02</pdfrwt>
<totfact> 0.19910554E+06</totfact>
</mgrwt>
</event>
<event>
 4    1  0.4619222E+006  0.2017938E+02  0.7546771E-02  0.1741784E+00
         21   -1    0    0  503  501  0.00000000000E+00  0.00000000000E+00  0.85260528469E+01  0.85260528469E+01  0.00000000000E+00 0.  1.
         21   -1    0    0  504  502 -0.00000000000E+00 -0.00000000000E+00 -0.52571947444E+02  0.52571947444E+02  0.00000000000E+00 0.  1.
         21    1    1    2  503  502  0.14057301669E+02 -0.14477554446E+02 -0.12780981153E+02  0.23886414385E+02  0.00000000000E+00 0.  1.
         21    1    1    2  504  501 -0.14057301669E+02  0.14477554446E+02 -0.31264913445E+02  0.37211585906E+02  0.00000000000E+00 0.  1.
<mgrwt>
<rscale>  2 0.20179378E+02</rscale>
<asrwt>0</asrwt>
<pdfrwt beam="1">  1       21 0.13117004E-02 0.20179378E+02</pdfrwt>
<pdfrwt beam="2">  1       21 0.80879921E-02 0.20179378E+02</pdfrwt>
<totfact> 0.18035858E+08</totfact>
</mgrwt>
</event>
<event>
 4    1  0.4619222E+006  0.4362574E+02  0.7546771E-02  0.1483108E+00
         21   -1    0    0  504  501  0.00000000000E+00  0.00000000000E+00  0.51516942452E+02  0.51516942452E+02  0.00000000000E+00 0. -1.
         21   -1    0    0  503  502 -0.00000000000E+00 -0.00000000000E+00 -0.46290602597E+02  0.46290602597E+02  0.00000000000E+00 0. -1.
         21    1    1    2  503  501  0.17950276717E+02 -0.39761696038E+02  0.24588708467E+02  0.50078034008E+02  0.00000000000E+00 0. -1.
         21    1    1    2  504  502 -0.17950276717E+02  0.39761696038E+02 -0.19362368611E+02  0.47729511041E+02  0.00000000000E+00 0. -1.
<mgrwt>
<rscale>  2 0.43625737E+02</rscale>
<asrwt>0</asrwt>
<pdfrwt beam="1">  1       21 0.79256834E-02 0.43625737E+02</pdfrwt>
<pdfrwt beam="2">  1       21 0.71216312E-02 0.43625737E+02</pdfrwt>
<totfact> 0.15464698E+07</totfact>
</mgrwt>
</event>
<event>
 4    1  0.4619222E+006  0.2735880E+02  0.7546771E-02  0.1629264E+00
         21   -1    0    0  503  501  0.00000000000E+00  0.00000000000E+00  0.20149261610E+02  0.20149261610E+02  0.00000000000E+00 0. -1.
         21   -1    0    0  504  502 -0.00000000000E+00 -0.00000000000E+00 -0.48121397062E+02  0.48121397062E+02  0.00000000000E+00 0. -1.
         21    1    1    2  503  502 -0.12706964973E+02 -0.24228844825E+02 -0.30286773352E+02  0.40814121581E+02  0.00000000000E+00 0. -1.
         21    1    1    2  504  501  0.12706964973E+02  0.24228844825E+02  0.23146378998E+01  0.27456537090E+02  0.00000000000E+00 0. -1.
<mgrwt>
<rscale>  2 0.27358799E+02</rscale>
<asrwt>0</asrwt>
<pdfrwt beam="1">  1       21 0.30998864E-02 0.27358799E+02</pdfrwt>
<pdfrwt beam="2">  1       21 0.74032918E-02 0.27358799E+02</pdfrwt>
<totfact> 0.60535088E+07</totfact>
</mgrwt>
</event>
<event>
 4    1  0.4619222E+006  0.3410455E+02  0.7546771E-02  0.1556699E+00
         21   -1    0    0  504  501  0.00000000000E+00  0.00000000000E+00  0.77839301882E+02  0.77839301882E+02  0.00000000000E+00 0. -1.
         21   -1    0    0  503  502 -0.00000000000E+00 -0.00000000000E+00 -0.66562538495E+02  0.66562538495E+02  0.00000000000E+00 0. -1.
         21    1    1    2  503  501 -0.33772397606E+02 -0.47482322592E+01 -0.57943970452E+02  0.67235587760E+02  0.00000000000E+00 0. -1.
         21    1    1    2  504  502  0.33772397606E+02  0.47482322592E+01  0.69220733840E+02  0.77166252617E+02  0.00000000000E+00 0. -1.
<mgrwt>
<rscale>  2 0.34104553E+02</rscale>
<asrwt>0</asrwt>
<pdfrwt beam="1">  1       21 0.11975277E-01 0.34104553E+02</pdfrwt>
<pdfrwt beam="2">  1       21 0.10240391E-01 0.34104553E+02</pdfrwt>
<totfact> 0.40711990E+06</totfact>
</mgrwt>
</event>
<event>
 4    1  0.4619222E+006  0.2120188E+02  0.7546771E-02  0.1722432E+00
         21   -1    0    0  504  501  0.00000000000E+00  0.00000000000E+00  0.38519364956E+02  0.38519364956E+02  0.00000000000E+00 0.  1.
         21   -1    0    0  501  502 -0.00000000000E+00 -0.00000000000E+00 -0.60981236596E+02  0.60981236596E+02  0.00000000000E+00 0.  1.
         21    1    1    2  503  502  0.10018414713E+02  0.18685590262E+02 -0.55968328200E+02  0.59849592132E+02  0.00000000000E+00 0.  1.
         21    1    1    2  504  503 -0.10018414713E+02 -0.18685590262E+02  0.33506456560E+02  0.39651009420E+02  0.00000000000E+00 0.  1.
<mgrwt>
<rscale>  2 0.21201885E+02</rscale>
<asrwt>0</asrwt>
<pdfrwt beam="1">  1       21 0.59260562E-02 0.21201885E+02</pdfrwt>
<pdfrwt beam="2">  1       21 0.93817286E-02 0.21201885E+02</pdfrwt>
<totfact> 0.13879378E+07</totfact>
</mgrwt>
</event>
<event>
 4    1  0.4619222E+006  0.2715200E+02  0.7546771E-02  0.1631886E+00
         21   -1    0    0  504  501  0.00000000000E+00  0.00000000000E+00  0.23065533706E+03  0.23065533706E+03  0.00000000000E+00 0. -1.
         21   -1    0    0  503  502 -0.00000000000E+00 -0.00000000000E+00 -0.56886708029E+01  0.56886708029E+01  0.00000000000E+00 0. -1.
         21    1    1    2  503  501  0.24946992275E+02 -0.10718155493E+02  0.34262902924E+02  0.43717019540E+02  0.00000000000E+00 0. -1.
         21    1    1    2  504  502 -0.24946992275E+02  0.10718155493E+02  0.19070376333E+03  0.19262698832E+03  0.00000000000E+00 0. -1.
<mgrwt>
<rscale>  2 0.27152003E+02</rscale>
<asrwt>0</asrwt>
<pdfrwt beam="1">  1       21 0.35485429E-01 0.27152003E+02</pdfrwt>
<pdfrwt beam="2">  1       21 0.87518030E-03 0.27152003E+02</pdfrwt>
<totfact> 0.27797100E+07</totfact>
</mgrwt>
</event>
<event>
 4    1  0.4619222E+006  0.2287503E+02  0.7546771E-02  0.1693544E+00
         21   -1    0    0  503  501  0.00000000000E+00  0.00000000000E+00  0.16179904322E+02  0.16179904322E+02  0.00000000000E+00 0.  1.
         21   -1    0    0  504  502 -0.00000000000E+00 -0.00000000000E+00 -0.36878748562E+02  0.36878748562E+02  0.00000000000E+00 0.  1.
         21    1    1    2  503  502 -0.59997580351E+01  0.22074190343E+02 -0.19655784695E+02  0.30159854903E+02  0.00000000000E+00 0.  1.
         21    1    1    2  504  501  0.59997580351E+01 -0.22074190343E+02 -0.10430595444E+01  0.22898797981E+02  0.00000000000E+00 0.  1.
<mgrwt>
<rscale>  2 0.22875030E+02</rscale>
<asrwt>0</asrwt>
<pdfrwt beam="1">  1       21 0.24892161E-02 0.22875030E+02</pdfrwt>
<pdfrwt beam="2">  1       21 0.56736536E-02 0.22875030E+02</pdfrwt>
<totfact> 0.12493237E+08</totfact>
</mgrwt>
</event>
<event>
 4    1  0.4619222E+006  0.2977505E+02  0.7546771E-02  0.1600589E+00
         21   -1    0    0  502  501  0.00000000000E+00  0.00000000000E+00  0.29461219005E+02  0.29461219005E+02  0.00000000000E+00 0.  1.
         21   -1    0    0  503  502 -0.00000000000E+00 -0.00000000000E+00 -0.36769319708E+02  0.36769319708E+02  0.00000000000E+00 0.  1.
         21    1    1    2  503  504 -0.91761411204E+01  0.28325821221E+02  0.10457644327E+02  0.31558137438E+02  0.00000000000E+00 0.  1.
         21    1    1    2  504  501  0.91761411204E+01 -0.28325821221E+02 -0.17765745030E+02  0.34672401275E+02  0.00000000000E+00 0.  1.
<mgrwt>
<rscale>  2 0.29775052E+02</rscale>
<asrwt>0</asrwt>
<pdfrwt beam="1">  1       21 0.45324952E-02 0.29775052E+02</pdfrwt>
<pdfrwt beam="2">  1       21 0.56568184E-02 0.29775052E+02</pdfrwt>
<totfact> 0.52401338E+07</totfact>
</mgrwt>
</event>
<event>
 4    1  0.4619222E+006  0.2350609E+02  0.7546771E-02  0.1683436E+00
         21   -1    0    0  503  501  0.00000000000E+00  0.00000000000E+00  0.35787248290E+02  0.35787248290E+02  0.00000000000E+00 0. -1.
         21   -1    0    0  504  502 -0.00000000000E+00 -0.00000000000E+00 -0.19865161157E+02  0.19865161157E+02  0.00000000000E+00 0.  1.
         21    1    1    2  503  502  0.58205868173E+00  0.23498879093E+02  0.21095089480E+02  0.31583839398E+02  0.00000000000E+00 0. -1.
         21    1    1    2  504  501 -0.58205868173E+00 -0.23498879093E+02 -0.51730023472E+01  0.24068570049E+02  0.00000000000E+00 0.  1.
<mgrwt>
<rscale>  2 0.23506087E+02</rscale>
<asrwt>0</asrwt>
<pdfrwt beam="1">  1       21 0.55057305E-02 0.23506087E+02</pdfrwt>
<pdfrwt beam="2">  1       21 0.30561786E-02 0.23506087E+02</pdfrwt>
<totfact> 0.96081663E+07</totfact>
</mgrwt>
</event>
<event>
 4    1  0.4619222E+006  0.4514889E+02  0.7546771E-02  0.1473414E+00
         21   -1    0    0  503  501  0.00000000000E+00  0.00000000000E+00  0.20701410705E+03  0.20701410705E+03  0.00000000000E+00 0.  1.
         21   -1    0    0  501  502 -0.00000000000E+00 -0.00000000000E+00 -0.17596320742E+02  0.17596320742E+02  0.00000000000E+00 0.  1.
         21    1    1    2  503  504  0.23840234839E+02 -0.38341427997E+02  0.16923819126E+03  0.17515703605E+03  0.00000000000E+00 0.  1.
         21    1    1    2  504  502 -0.23840234839E+02  0.38341427997E+02  0.20179595046E+02  0.49453391736E+02  0.00000000000E+00 0.  1.
<mgrwt>
<rscale>  2 0.45148886E+02</rscale>
<asrwt>0</asrwt>
<pdfrwt beam="1">  1       21 0.31848322E-01 0.45148886E+02</pdfrwt>
<pdfrwt beam="2">  1       21 0.27071264E-02 0.45148886E+02</pdfrwt>
<totfact> 0.64321049E+06</totfact>
</mgrwt>
</event>
<event>
 4    1  0.4619222E+006  0.3494389E+02  0.7546771E-02  0.1549099E+00
         21   -1    0    0  503  501  0.00000000000E+00  0.00000000000E+00  0.36831682000E+01  0.36831682000E+01  0.00000000000E+00 0. -1.
         21   -1    0    0  501  502 -0.00000000000E+00 -0.00000000000E+00 -0.50707836355E+03  0.50707836355E+03  0.00000000000E+00 0. -1.
         21    1    1    2  503  504  0.22361359867E+02 -0.26852287762E+02 -0.10143506304E+03  0.10728535682E+03  0.00000000000E+00 0. -1.
         21    1    1    2  504  502 -0.22361359867E+02  0.26852287762E+02 -0.40196013231E+03  0.40347617493E+03  0.00000000000E+00 0. -1.
<mgrwt>
<rscale>  2 0.34943895E+02</rscale>
<asrwt>0</asrwt>
<pdfrwt beam="1">  1       21 0.56664155E-03 0.34943895E+02</pdfrwt>
<pdfrwt beam="2">  1       21 0.78012016E-01 0.34943895E+02</pdfrwt>
<totfact> 0.11640387E+07</totfact>
</mgrwt>
</event>
<event>
 4    1  0.4619222E+006  0.2263805E+02  0.7546771E-02  0.1697445E+00
         21   -1    0    0  503  501  0.00000000000E+00  0.00000000000E+00  0.49257575963E+02  0.49257575963E+02  0.00000000000E+00 0.  1.
         21   -1    0    0  501  502 -0.00000000000E+00 -0.00000000000E+00 -0.37588466223E+02  0.37588466223E+02  0.00000000000E+00 0.  1.
         21    1    1    2  503  504  0.69614219612E+01 -0.21541120619E+02  0.42762254430E+02  0.48384828998E+02  0.00000000000E+00 0.  1.
         21    1    1    2  504  502 -0.69614219612E+01  0.21541120619E+02 -0.31093144689E+02  0.38461213188E+02  0.00000000000E+00 0.  1.
<mgrwt>
<rscale>  2 0.22638049E+02</rscale>
<asrwt>0</asrwt>
<pdfrwt beam="1">  1       21 0.75780886E-02 0.22638049E+02</pdfrwt>
<pdfrwt beam="2">  1       21 0.57828410E-02 0.22638049E+02</pdfrwt>
<totfact> 0.20752886E+07</totfact>
</mgrwt>
</event>
<event>
 4    1  0.4619222E+006  0.3482404E+02  0.7546771E-02  0.1550169E+00
         21   -1    0    0  502  501  0.00000000000E+00  0.00000000000E+00  0.11589618006E+02  0.11589618006E+02  0.00000000000E+00 0. -1.
         21   -1    0    0  504  502 -0.00000000000E+00 -0.00000000000E+00 -0.41358123400E+03  0.41358123400E+03  0.00000000000E+00 0.  1.
         21    1    1    2  503  501 -0.91818954331E+01  0.33591763816E+02 -0.17260568858E+02  0.38866965887E+02  0.00000000000E+00 0. -1.
         21    1    1    2  504  503  0.91818954331E+01 -0.33591763816E+02 -0.38473104713E+03  0.38630388611E+03  0.00000000000E+00 0.  1.
<mgrwt>
<rscale>  2 0.34824041E+02</rscale>
<asrwt>0</asrwt>
<pdfrwt beam="1">  1       21 0.17830179E-02 0.34824041E+02</pdfrwt>
<pdfrwt beam="2">  1       21 0.63627890E-01 0.34824041E+02</pdfrwt>
<totfact> 0.31054618E+06</totfact>
</mgrwt>
</event>
<event>
 4    1  0.4619222E+006  0.2291648E+02  0.7546771E-02  0.1692867E+00
         21   -1    0    0  502  501  0.00000000000E+00  0.00000000000E+00  0.46751155639E+02  0.46751155639E+02  0.00000000000E+00 0.  1.
         21   -1    0    0  504  502 -0.00000000000E+00 -0.00000000000E+00 -0.71380310872E+02  0.71380310872E+02  0.00000000000E+00 0.  1.
         21    1    1    2  503  501 -0.21789521061E+02  0.70980291634E+01  0.41904703505E+02  0.47761589399E+02  0.00000000000E+00 0.  1.
         21    1    1    2  504  503  0.21789521061E+02 -0.70980291634E+01 -0.66533858739E+02  0.70369877112E+02  0.00000000000E+00 0.  1.
<mgrwt>
<rscale>  2 0.22916484E+02</rscale>
<asrwt>0</asrwt>
<pdfrwt beam="1">  1       21 0.71924855E-02 0.22916484E+02</pdfrwt>
<pdfrwt beam="2">  1       21 0.10981586E-01 0.22916484E+02</pdfrwt>
<totfact> 0.79539210E+06</totfact>
</mgrwt>
</event>
<event>
 4    1  0.4619222E+006  0.2017606E+02  0.7546771E-02  0.1741849E+00
         21   -1    0    0  503  501  0.00000000000E+00  0.00000000000E+00  0.29019363227E+01  0.29019363227E+01  0.00000000000E+00 0. -1.
         21   -1    0    0  504  502 -0.00000000000E+00 -0.00000000000E+00 -0.18490405698E+03  0.18490405698E+03  0.00000000000E+00 0.  1.
         21    1    1    2  503  502 -0.53148286841E+01 -0.19463456108E+02 -0.13713363492E+03  0.13860991074E+03  0.00000000000E+00 0.  1.
         21    1    1    2  504  501  0.53148286841E+01  0.19463456108E+02 -0.44868485736E+02  0.49196082567E+02  0.00000000000E+00 0. -1.
<mgrwt>
<rscale>  2 0.20176063E+02</rscale>
<asrwt>0</asrwt>
<pdfrwt beam="1">  1       21 0.44645171E-03 0.20176063E+02</pdfrwt>
<pdfrwt beam="2">  1       21 0.28446780E-01 0.20176063E+02</pdfrwt>
<totfact> 0.10532286E+08</totfact>
</mgrwt>
</event>
<event>
 4    1  0.4619222E+006  0.5319633E+02  0.7546771E-02  0.1428826E+00
         21   -1    0    0  504  501  0.00000000000E+00  0.00000000000E+00  0.16271756019E+03  0.16271756019E+03  0.00000000000E+00 0. -1.
         21   -1    0    0  501  502 -0.00000000000E+00 -0.00000000000E+00 -0.16291221723E+03  0.16291221723E+03  0.00000000000E+00 0.  1.
         21    1    1    2  503  502  0.35941137468E+02  0.39218421385E+02 -0.15397662224E+03  0.16290687565E+03  0.00000000000E+00 0.  1.
         21    1    1    2  504  503 -0.35941137468E+02 -0.39218421385E+02  0.15378196520E+03  0.16272290177E+03  0.00000000000E+00 0. -1.
<mgrwt>
<rscale>  2 0.53196334E+02</rscale>
<asrwt>0</asrwt>
<pdfrwt beam="1">  1       21 0.25033471E-01 0.53196334E+02</pdfrwt>
<pdfrwt beam="2">  1       21 0.25063418E-01 0.53196334E+02</pdfrwt>
<totfact> 0.23545482E+05</totfact>
</mgrwt>
</event>
<event>
 4    1  0.4619222E+006  0.2431004E+02  0.7546771E-02  0.1671114E+00
         21   -1    0    0  504  501  0.00000000000E+00  0.00000000000E+00  0.11549789269E+03  0.11549789269E+03  0.00000000000E+00 0. -1.
         21   -1    0    0  501  502 -0.00000000000E+00 -0.00000000000E+00 -0.17058970615E+02  0.17058970615E+02  0.00000000000E+00 0.  1.
         21    1    1    2  503  502 -0.23932475171E+02 -0.42678724294E+01 -0.62351529798E+01  0.25096916854E+02  0.00000000000E+00 0.  1.
         21    1    1    2  504  503  0.23932475171E+02  0.42678724294E+01  0.10467407505E+03  0.10745994645E+03  0.00000000000E+00 0. -1.
<mgrwt>
<rscale>  2 0.24310041E+02</rscale>
<asrwt>0</asrwt>
<pdfrwt beam="1">  1       21 0.17768906E-01 0.24310041E+02</pdfrwt>
<pdfrwt beam="2">  1       21 0.26244571E-02 0.24310041E+02</pdfrwt>
<totfact> 0.17582143E+07</totfact>
</mgrwt>
</event>
<event>
 4    1  0.4619222E+006  0.2004930E+02  0.7546771E-02  0.1744350E+00
         21   -1    0    0  502  501  0.00000000000E+00  0.00000000000E+00  0.61734968432E+03  0.61734968432E+03  0.00000000000E+00 0.  1.
         21   -1    0    0  503  502 -0.00000000000E+00 -0.00000000000E+00 -0.10935005815E+01  0.10935005815E+01  0.00000000000E+00 0. -1.
         21    1    1    2  503  504 -0.32756507026E+01 -0.19779898495E+02  0.11145093506E+03  0.11323994524E+03  0.00000000000E+00 0. -1.
         21    1    1    2  504  501  0.32756507026E+01  0.19779898495E+02  0.50480524868E+03  0.50520323966E+03  0.00000000000E+00 0.  1.
<mgrwt>
<rscale>  2 0.20049296E+02</rscale>
<asrwt>0</asrwt>
<pdfrwt beam="1">  1       21 0.94976596E-01 0.20049296E+02</pdfrwt>
<pdfrwt beam="2">  1       21 0.16823135E-03 0.20049296E+02</pdfrwt>
<totfact> 0.40972255E+07</totfact>
</mgrwt>
</event>
<event>
 4    1  0.4619222E+006  0.2231930E+02  0.7546771E-02  0.1702788E+00
         21   -1    0    0  502  501  0.00000000000E+00  0.00000000000E+00  0.22699323471E+02  0.22699323471E+02  0.00000000000E+00 0. -1.
         21   -1    0    0  504  502 -0.00000000000E+00 -0.00000000000E+00 -0.34976538141E+02  0.34976538141E+02  0.00000000000E+00 0. -1.
         21    1    1    2  503  501 -0.13769867983E+02 -0.17565365428E+02  0.11463422481E+02  0.25091061792E+02  0.00000000000E+00 0. -1.
         21    1    1    2  504  503  0.13769867983E+02  0.17565365428E+02 -0.23740637152E+02  0.32584799820E+02  0.00000000000E+00 0. -1.
<mgrwt>
<rscale>  2 0.22319304E+02</rscale>
<asrwt>0</asrwt>
<pdfrwt beam="1">  1       21 0.34922036E-02 0.22319304E+02</pdfrwt>
<pdfrwt beam="2">  1       21 0.53810059E-02 0.22319304E+02</pdfrwt>
<totfact> 0.79739169E+07</totfact>
</mgrwt>
</event>
<event>
 4    1  0.4619222E+006  0.3268384E+02  0.7546771E-02  0.1570186E+00
         21   -1    0    0  503  501  0.00000000000E+00  0.00000000000E+00  0.22788007581E+03  0.22788007581E+03  0.00000000000E+00 0.  1.
         21   -1    0    0  504  502 -0.00000000000E+00 -0.00000000000E+00 -0.26280150700E+02  0.26280150700E+02  0.00000000000E+00 0. -1.
         21    1    1    2  503  502 -0.32618245317E+02  0.20696794953E+01 -0.14389998869E+02  0.35711420697E+02  0.00000000000E+00 0. -1.
         21    1    1    2  504  501  0.32618245317E+02 -0.20696794953E+01  0.21598992397E+03  0.21844880581E+03  0.00000000000E+00 0.  1.
<mgrwt>
<rscale>  2 0.32683842E+02</rscale>
<asrwt>0</asrwt>
<pdfrwt beam="1">  1       21 0.35058472E-01 0.32683842E+02</pdfrwt>
<pdfrwt beam="2">  1       21 0.40431003E-02 0.32683842E+02</pdfrwt>
<totfact> 0.27399776E+06</totfact>
</mgrwt>
</event>
<event>
 4    1  0.4619222E+006  0.2226745E+02  0.7546771E-02  0.1703667E+00
         21   -1    0    0  503  501  0.00000000000E+00  0.00000000000E+00  0.10675280683E+03  0.10675280683E+03  0.00000000000E+00 0. -1.
         21   -1    0    0  504  502 -0.00000000000E+00 -0.00000000000E+00 -0.38419139632E+02  0.38419139632E+02  0.00000000000E+00 0. -1.
         21    1    1    2  503  502  0.44495230619E+01  0.21818361391E+02 -0.33890150325E+02  0.40550973334E+02  0.00000000000E+00 0. -1.
         21    1    1    2  504  501 -0.44495230619E+01 -0.21818361391E+02  0.10222381752E+03  0.10462097313E+03  0.00000000000E+00 0. -1.
<mgrwt>
<rscale>  2 0.22267446E+02</rscale>
<asrwt>0</asrwt>
<pdfrwt beam="1">  1       21 0.16423509E-01 0.22267446E+02</pdfrwt>
<pdfrwt beam="2">  1       21 0.59106369E-02 0.22267446E+02</pdfrwt>
<totfact> 0.55059080E+06</totfact>
</mgrwt>
</event>
<event>
 4    1  0.4619222E+006  0.2143554E+02  0.7546771E-02  0.1718201E+00
         21   -1    0    0  503  501  0.00000000000E+00  0.00000000000E+00  0.17367365109E+04  0.17367365109E+04  0.00000000000E+00 0. -1.
         21   -1    0    0  504  502 -0.00000000000E+00 -0.00000000000E+00 -0.70429012486E+00  0.70429012486E+00  0.00000000000E+00 0. -1.
         21    1    1    2  503  502  0.10803247714E+02  0.18514103735E+02  0.18158943956E+03  0.18285023040E+03  0.00000000000E+00 0. -1.
         21    1    1    2  504  501 -0.10803247714E+02 -0.18514103735E+02  0.15544427812E+04  0.15545905706E+04  0.00000000000E+00 0. -1.
<mgrwt>
<rscale>  2 0.21435536E+02</rscale>
<asrwt>0</asrwt>
<pdfrwt beam="1">  1       21 0.26718681E+00 0.21435536E+02</pdfrwt>
<pdfrwt beam="2">  1       21 0.10835372E-03 0.21435536E+02</pdfrwt>
<totfact> 0.62267028E+06</totfact>
</mgrwt>
</event>
<event>
 4    1  0.4619222E+006  0.2262675E+02  0.7546771E-02  0.1697633E+00
         21   -1    0    0  504  501  0.00000000000E+00  0.00000000000E+00  0.34539430884E+03  0.34539430884E+03  0.00000000000E+00 0.  1.
         21   -1    0    0  501  502 -0.00000000000E+00 -0.00000000000E+00 -0.11068389878E+02  0.11068389878E+02  0.00000000000E+00 0. -1.
         21    1    1    2  503  502 -0.20162782271E+02 -0.10268007273E+02  0.12947493272E+01  0.22663762664E+02  0.00000000000E+00 0. -1.
         21    1    1    2  504  503  0.20162782271E+02  0.10268007273E+02  0.33303116964E+03  0.33379893606E+03  0.00000000000E+00 0.  1.
<mgrwt>
<rscale>  2 0.22626749E+02</rscale>
<asrwt>0</asrwt>
<pdfrwt beam="1">  1       21 0.53137578E-01 0.22626749E+02</pdfrwt>
<pdfrwt beam="2">  1       21 0.17028295E-02 0.22626749E+02</pdfrwt>
<totfact> 0.45377798E+06</totfact>
</mgrwt>
</event>
<event>
 4    1  0.4619222E+006  0.2314929E+02  0.7546771E-02  0.1689102E+00
         21   -1    0    0  502  501  0.00000000000E+00  0.00000000000E+00  0.19479710170E+02  0.19479710170E+02  0.00000000000E+00 0. -1.
         21   -1    0    0  503  502 -0.00000000000E+00 -0.00000000000E+00 -0.50634643827E+02  0.50634643827E+02  0.00000000000E+00 0. -1.
         21    1    1    2  503  504  0.22951437856E+02  0.30200925835E+01 -0.39268790109E+02  0.45584288253E+02  0.00000000000E+00 0. -1.
         21    1    1    2  504  501 -0.22951437856E+02 -0.30200925835E+01  0.81138564518E+01  0.24530065744E+02  0.00000000000E+00 0. -1.
<mgrwt>
<rscale>  2 0.23149286E+02</rscale>
<asrwt>0</asrwt>
<pdfrwt beam="1">  1       21 0.29968786E-02 0.23149286E+02</pdfrwt>
<pdfrwt beam="2">  1       21 0.77899450E-02 0.23149286E+02</pdfrwt>
<totfact> 0.56323870E+07</totfact>
</mgrwt>
</event>
<event>
 4    1  0.4619222E+006  0.2205640E+02  0.7546771E-02  0.1707278E+00
         21   -1    0    0  503  501  0.00000000000E+00  0.00000000000E+00  0.20662227966E+03  0.20662227966E+03  0.00000000000E+00 0. -1.
         21   -1    0    0  504  502 -0.00000000000E+00 -0.00000000000E+00 -0.56100328762E+01  0.56100328762E+01  0.00000000000E+00 0. -1.
         21    1    1    2  503  502 -0.21823353249E+02  0.31978310402E+01  0.18134349842E+03  0.18267990937E+03  0.00000000000E+00 0. -1.
         21    1    1    2  504  501  0.21823353249E+02 -0.31978310402E+01  0.19668748366E+02  0.29552403162E+02  0.00000000000E+00 0. -1.
<mgrwt>
<rscale>  2 0.22056402E+02</rscale>
<asrwt>0</asrwt>
<pdfrwt beam="1">  1       21 0.31788037E-01 0.22056402E+02</pdfrwt>
<pdfrwt beam="2">  1       21 0.86308214E-03 0.22056402E+02</pdfrwt>
<totfact> 0.33251923E+07</totfact>
</mgrwt>
</event>
<event>
 4    1  0.4619222E+006  0.2007900E+02  0.7546771E-02  0.1743762E+00
         21   -1    0    0  503  501  0.00000000000E+00  0.00000000000E+00  0.63970614382E+01  0.63970614382E+01  0.00000000000E+00 0.  1.
         21   -1    0    0  501  502 -0.00000000000E+00 -0.00000000000E+00 -0.26879505080E+03  0.26879505080E+03  0.00000000000E+00 0. -1.
         21    1    1    2  503  504 -0.10910742640E+02 -0.16855913276E+02 -0.10809701058E+02  0.22803853935E+02  0.00000000000E+00 0.  1.
         21    1    1    2  504  502  0.10910742640E+02  0.16855913276E+02 -0.25158828830E+03  0.25238825830E+03  0.00000000000E+00 0. -1.
<mgrwt>
<rscale>  2 0.20078997E+02</rscale>
<asrwt>0</asrwt>
<pdfrwt beam="1">  1       21 0.98416335E-03 0.20078997E+02</pdfrwt>
<pdfrwt beam="2">  1       21 0.41353082E-01 0.20078997E+02</pdfrwt>
<totfact> 0.16436458E+07</totfact>
</mgrwt>
</event>
<event>
 4    1  0.4619222E+006  0.4793981E+02  0.7546771E-02  0.1456781E+00
         21   -1    0    0  504  501  0.00000000000E+00  0.00000000000E+00  0.49364272058E+03  0.49364272058E+03  0.00000000000E+00 0.  1.
         21   -1    0    0  503  502 -0.00000000000E+00 -0.00000000000E+00 -0.63187702184E+01  0.63187702184E+01  0.00000000000E+00 0.  1.
         21    1    1    2  503  501  0.11135633913E+02 -0.46628561146E+02  0.37191062645E+03  0.37498765196E+03  0.00000000000E+00 0.  1.
         21    1    1    2  504  502 -0.11135633913E+02  0.46628561146E+02  0.11541332391E+03  0.12497383883E+03  0.00000000000E+00 0.  1.
<mgrwt>
<rscale>  2 0.47939807E+02</rscale>
<asrwt>0</asrwt>
<pdfrwt beam="1">  1       21 0.75945004E-01 0.47939807E+02</pdfrwt>
<pdfrwt beam="2">  1       21 0.97211888E-03 0.47939807E+02</pdfrwt>
<totfact> 0.56277015E+06</totfact>
</mgrwt>
</event>
<event>
 4    1  0.4619222E+006  0.2061534E+02  0.7546771E-02  0.1733361E+00
         21   -1    0    0  503  501  0.00000000000E+00  0.00000000000E+00  0.69353272419E+02  0.69353272419E+02  0.00000000000E+00 0. -1.
         21   -1    0    0  501  502 -0.00000000000E+00 -0.00000000000E+00 -0.81216236560E+02  0.81216236560E+02  0.00000000000E+00 0. -1.
         21    1    1    2  503  504 -0.76644620751E+01 -0.19137610808E+02  0.66457381312E+02  0.69581431843E+02  0.00000000000E+00 0. -1.
         21    1    1    2  504  502  0.76644620751E+01  0.19137610808E+02 -0.78320345454E+02  0.80988077137E+02  0.00000000000E+00 0. -1.
<mgrwt>
<rscale>  2 0.20615337E+02</rscale>
<asrwt>0</asrwt>
<pdfrwt beam="1">  1       21 0.10669734E-01 0.20615337E+02</pdfrwt>
<pdfrwt beam="2">  1       21 0.12494806E-01 0.20615337E+02</pdfrwt>
<totfact> 0.33033138E+06</totfact>
</mgrwt>
</event>
<event>
 4    1  0.4619222E+006  0.2735701E+02  0.7546771E-02  0.1629286E+00
         21   -1    0    0  502  501  0.00000000000E+00  0.00000000000E+00  0.33424418710E+03  0.33424418710E+03  0.00000000000E+00 0.  1.
         21   -1    0    0  503  502 -0.00000000000E+00 -0.00000000000E+00 -0.42677545084E+01  0.42677545084E+01  0.00000000000E+00 0. -1.
         21    1    1    2  503  504 -0.48038847244E+01  0.26931926324E+02  0.48294252749E+02  0.55504421558E+02  0.00000000000E+00 0. -1.
         21    1    1    2  504  501  0.48038847244E+01 -0.26931926324E+02  0.28168217984E+03  0.28300752005E+03  0.00000000000E+00 0.  1.
<mgrwt>
<rscale>  2 0.27357009E+02</rscale>
<asrwt>0</asrwt>
<pdfrwt beam="1">  1       21 0.51422162E-01 0.27357009E+02</pdfrwt>
<pdfrwt beam="2">  1       21 0.65657788E-03 0.27357009E+02</pdfrwt>
<totfact> 0.21045603E+07</totfact>
</mgrwt>
</event>
<event>
 4    1  0.4619222E+006  0.3734049E+02  0.7546771E-02  0.1528747E+00
         21   -1    0    0  504  501  0.00000000000E+00  0.00000000000E+00  0.62377211764E+03  0.62377211764E+03  0.00000000000E+00 0. -1.
         21   -1    0    0  503  502 -0.00000000000E+00 -0.00000000000E+00 -0.24382662606E+01  0.24382662606E+01  0.00000000000E+00 0. -1.
         21    1    1    2  503  501  0.14779828278E+02  0.34290949475E+02  0.40100496837E+03  0.40273973878E+03  0.00000000000E+00 0. -1.
         21    1    1    2  504  502 -0.14779828278E+02 -0.34290949475E+02  0.22032888302E+03  0.22347064512E+03  0.00000000000E+00 0. -1.
<mgrwt>
<rscale>  2 0.37340495E+02</rscale>
<asrwt>0</asrwt>
<pdfrwt beam="1">  1       21 0.95964814E-01 0.37340495E+02</pdfrwt>
<pdfrwt beam="2">  1       21 0.37511838E-03 0.37340495E+02</pdfrwt>
<totfact> 0.13870544E+07</totfact>
</mgrwt>
</event>
<event>
 4    1  0.4619222E+006  0.2690087E+02  0.7546771E-02  0.1635110E+00
         21   -1    0    0  502  501  0.00000000000E+00  0.00000000000E+00  0.17547529277E+03  0.17547529277E+03  0.00000000000E+00 0.  1.
         21   -1    0    0  503  502 -0.00000000000E+00 -0.00000000000E+00 -0.45063073630E+01  0.45063073630E+01  0.00000000000E+00 0.  1.
         21    1    1    2  503  504 -0.25458227991E+02 -0.86911244227E+01  0.59272258214E+02  0.65091148476E+02  0.00000000000E+00 0.  1.
         21    1    1    2  504  501  0.25458227991E+02  0.86911244227E+01  0.11169672719E+03  0.11489045165E+03  0.00000000000E+00 0.  1.
<mgrwt>
<rscale>  2 0.26900874E+02</rscale>
<asrwt>0</asrwt>
<pdfrwt beam="1">  1       21 0.26996194E-01 0.26900874E+02</pdfrwt>
<pdfrwt beam="2">  1       21 0.69327819E-03 0.26900874E+02</pdfrwt>
<totfact> 0.65042919E+07</totfact>
</mgrwt>
</event>
<event>
 4    1  0.4619222E+006  0.7009525E+02  0.7546771E-02  0.1359769E+00
         21   -1    0    0  502  501  0.00000000000E+00  0.00000000000E+00  0.14172512320E+02  0.14172512320E+02  0.00000000000E+00 0.  1.
         21   -1    0    0  503  502 -0.00000000000E+00 -0.00000000000E+00 -0.47557509447E+03  0.47557509447E+03  0.00000000000E+00 0.  1.
         21    1    1    2  503  504  0.65902906599E+02  0.23877838042E+02 -0.35818329120E+03  0.36497755320E+03  0.00000000000E+00 0.  1.
         21    1    1    2  504  501 -0.65902906599E+02 -0.23877838042E+02 -0.10321929095E+03  0.12477005359E+03  0.00000000000E+00 0.  1.
<mgrwt>
<rscale>  2 0.70095251E+02</rscale>
<asrwt>0</asrwt>
<pdfrwt beam="1">  1       21 0.21803864E-02 0.70095251E+02</pdfrwt>
<pdfrwt beam="2">  1       21 0.73165404E-01 0.70095251E+02</pdfrwt>
<totfact> 0.17649273E+06</totfact>
</mgrwt>
</event>
<event>
 4    1  0.4619222E+006  0.2357272E+02  0.7546771E-02  0.1682391E+00
         21   -1    0    0  503  501  0.00000000000E+00  0.00000000000E+00  0.21097614050E+02  0.21097614050E+02  0.00000000000E+00 0. -1.
         21   -1    0    0  504  502 -0.00000000000E+00 -0.00000000000E+00 -0.29390381027E+02  0.29390381027E+02  0.00000000000E+00 0. -1.
         21    1    1    2  503  502 -0.88852426695E+01 -0.21834049076E+02  0.39886710638E+01  0.23907796494E+02  0.00000000000E+00 0. -1.
         21    1    1    2  504  501  0.88852426695E+01  0.21834049076E+02 -0.12281438041E+02  0.26580198583E+02  0.00000000000E+00 0. -1.
<mgrwt>
<rscale>  2 0.23572722E+02</rscale>
<asrwt>0</asrwt>
<pdfrwt beam="1">  1       21 0.32457868E-02 0.23572722E+02</pdfrwt>
<pdfrwt beam="2">  1       21 0.45215971E-02 0.23572722E+02</pdfrwt>
<totfact> 0.11979464E+08</totfact>
</mgrwt>
</event>
<event>
 4    1  0.4619222E+006  0.2025818E+02  0.7546771E-02  0.1740242E+00
         21   -1    0    0  503  501  0.00000000000E+00  0.00000000000E+00  0.23529318309E+02  0.23529318309E+02  0.00000000000E+00 0. -1.
         21   -1    0    0  504  502 -0.00000000000E+00 -0.00000000000E+00 -0.84586643001E+02  0.84586643001E+02  0.00000000000E+00 0. -1.
         21    1    1    2  503  502  0.56984796047E+01 -0.19440191528E+02  0.17634528106E+02  0.26858337587E+02  0.00000000000E+00 0. -1.
         21    1    1    2  504  501 -0.56984796047E+01  0.19440191528E+02 -0.78691852797E+02  0.81257623723E+02  0.00000000000E+00 0. -1.
<mgrwt>
<rscale>  2 0.20258177E+02</rscale>
<asrwt>0</asrwt>
<pdfrwt beam="1">  1       21 0.36198951E-02 0.20258177E+02</pdfrwt>
<pdfrwt beam="2">  1       21 0.13013330E-01 0.20258177E+02</pdfrwt>
<totfact> 0.17405783E+07</totfact>
</mgrwt>
</event>
<event>
 4    1  0.4619222E+006  0.2641612E+02  0.7546771E-02  0.1641457E+00
         21   -1    0    0  503  501  0.00000000000E+00  0.00000000000E+00  0.78289965547E+02  0.78289965547E+02  0.00000000000E+00 0.  1.
         21   -1    0    0  501  502 -0.00000000000E+00 -0.00000000000E+00 -0.31057056212E+03  0.31057056212E+03  0.00000000000E+00 0. -1.
         21    1    1    2  503  504 -0.24624558314E+02  0.95625596698E+01  0.75479646533E+02  0.79968671743E+02  0.00000000000E+00 0.  1.
         21    1    1    2  504  502  0.24624558314E+02 -0.95625596698E+01 -0.30776024311E+03  0.30889185592E+03  0.00000000000E+00 0. -1.
<mgrwt>
<rscale>  2 0.26416120E+02</rscale>
<asrwt>0</asrwt>
<pdfrwt beam="1">  1       21 0.12044610E-01 0.26416120E+02</pdfrwt>
<pdfrwt beam="2">  1       21 0.47780086E-01 0.26416120E+02</pdfrwt>
<totfact> 0.25051780E+05</totfact>
</mgrwt>
</event>
<event>
 4    1  0.4619222E+006  0.2149432E+02  0.7546771E-02  0.1717147E+00
         21   -1    0    0  503  501  0.00000000000E+00  0.00000000000E+00  0.84314985186E+01  0.84314985186E+01  0.00000000000E+00 0. -1.
         21   -1    0    0  504  502 -0.00000000000E+00 -0.00000000000E+00 -0.11836180594E+03  0.11836180594E+03  0.00000000000E+00 0. -1.
         21    1    1    2  503  502  0.19201098978E+02  0.96604159064E+01 -0.10142470041E+03  0.10367726700E+03  0.00000000000E+00 0. -1.
         21    1    1    2  504  501 -0.19201098978E+02 -0.96604159064E+01 -0.85056070076E+01  0.23116037464E+02  0.00000000000E+00 0. -1.
<mgrwt>
<rscale>  2 0.21494321E+02</rscale>
<asrwt>0</asrwt>
<pdfrwt beam="1">  1       21 0.12971537E-02 0.21494321E+02</pdfrwt>
<pdfrwt beam="2">  1       21 0.18209507E-01 0.21494321E+02</pdfrwt>
<totfact> 0.48139822E+07</totfact>
</mgrwt>
</event>
<event>
 4    1  0.4619222E+006  0.2257249E+02  0.7546771E-02  0.1698535E+00
         21   -1    0    0  502  501  0.00000000000E+00  0.00000000000E+00  0.25567517759E+03  0.25567517759E+03  0.00000000000E+00 0. -1.
         21   -1    0    0  503  502 -0.00000000000E+00 -0.00000000000E+00 -0.12059996744E+02  0.12059996744E+02  0.00000000000E+00 0. -1.
         21    1    1    2  503  504 -0.18247516458E+02  0.13287033305E+02 -0.50058174545E+00  0.22578035632E+02  0.00000000000E+00 0. -1.
         21    1    1    2  504  501  0.18247516458E+02 -0.13287033305E+02  0.24411576259E+03  0.24515713870E+03  0.00000000000E+00 0. -1.
<mgrwt>
<rscale>  2 0.22572486E+02</rscale>
<asrwt>0</asrwt>
<pdfrwt beam="1">  1       21 0.39334639E-01 0.22572486E+02</pdfrwt>
<pdfrwt beam="2">  1       21 0.18553843E-02 0.22572486E+02</pdfrwt>
<totfact> 0.70846243E+06</totfact>
</mgrwt>
</event>
<event>
 4    1  0.4619222E+006  0.2717919E+02  0.7546771E-02  0.1631540E+00
         21   -1    0    0  503  501  0.00000000000E+00  0.00000000000E+00  0.20037317674E+03  0.20037317674E+03  0.00000000000E+00 0. -1.
         21   -1    0    0  504  502 -0.00000000000E+00 -0.00000000000E+00 -0.64086246259E+01  0.64086246259E+01  0.00000000000E+00 0.  1.
         21    1    1    2  503  502  0.13020292713E+02 -0.23857503564E+02  0.29600748525E+02  0.40185977802E+02  0.00000000000E+00 0.  1.
         21    1    1    2  504  501 -0.13020292713E+02  0.23857503564E+02  0.16436380359E+03  0.16659582356E+03  0.00000000000E+00 0. -1.
<mgrwt>
<rscale>  2 0.27179192E+02</rscale>
<asrwt>0</asrwt>
<pdfrwt beam="1">  1       21 0.30826638E-01 0.27179192E+02</pdfrwt>
<pdfrwt beam="2">  1       21 0.98594241E-03 0.27179192E+02</pdfrwt>
<totfact> 0.30152282E+07</totfact>
</mgrwt>
</event>
<event>
 4    1  0.4619222E+006  0.3017525E+02  0.7546771E-02  0.1596160E+00
         21   -1    0    0  503  501  0.00000000000E+00  0.00000000000E+00  0.29595489660E+02  0.29595489660E+02  0.00000000000E+00 0.  1.
         21   -1    0    0  504  502 -0.00000000000E+00 -0.00000000000E+00 -0.32712820273E+02  0.32712820273E+02  0.00000000000E+00 0. -1.
         21    1    1    2  503  502 -0.26844275981E+02  0.13781529200E+02 -0.91580592741E+01  0.31534358241E+02  0.00000000000E+00 0. -1.
         21    1    1    2  504  501  0.26844275981E+02 -0.13781529200E+02  0.60407286617E+01  0.30773951692E+02  0.00000000000E+00 0.  1.
<mgrwt>
<rscale>  2 0.30175250E+02</rscale>
<asrwt>0</asrwt>
<pdfrwt beam="1">  1       21 0.45531523E-02 0.30175250E+02</pdfrwt>
<pdfrwt beam="2">  1       21 0.50327416E-02 0.30175250E+02</pdfrwt>
<totfact> 0.63003153E+07</totfact>
</mgrwt>
</event>
<event>
 4    1  0.4619222E+006  0.2503636E+02  0.7546771E-02  0.1660480E+00
         21   -1    0    0  502  501  0.00000000000E+00  0.00000000000E+00  0.30963897719E+03  0.30963897719E+03  0.00000000000E+00 0. -1.
         21   -1    0    0  504  502 -0.00000000000E+00 -0.00000000000E+00 -0.81655295659E+01  0.81655295659E+01  0.00000000000E+00 0. -1.
         21    1    1    2  503  501 -0.25022370648E+02 -0.83680613336E+00  0.28854128481E+03  0.28962543451E+03  0.00000000000E+00 0. -1.
         21    1    1    2  504  503  0.25022370648E+02  0.83680613336E+00  0.12932162812E+02  0.28179072241E+02  0.00000000000E+00 0. -1.
<mgrwt>
<rscale>  2 0.25036359E+02</rscale>
<asrwt>0</asrwt>
<pdfrwt beam="1">  1       21 0.47636757E-01 0.25036359E+02</pdfrwt>
<pdfrwt beam="2">  1       21 0.12562356E-02 0.25036359E+02</pdfrwt>
<totfact> 0.90625839E+06</totfact>
</mgrwt>
</event>
<event>
 4    1  0.4619222E+006  0.2062871E+02  0.7546771E-02  0.1733107E+00
         21   -1    0    0  502  501  0.00000000000E+00  0.00000000000E+00  0.42350908306E+03  0.42350908306E+03  0.00000000000E+00 0. -1.
         21   -1    0    0  504  502 -0.00000000000E+00 -0.00000000000E+00 -0.41340810289E+03  0.41340810289E+03  0.00000000000E+00 0. -1.
         21    1    1    2  503  501  0.37410307751E+01  0.20286657505E+02  0.42300023378E+03  0.42350294162E+03  0.00000000000E+00 0. -1.
         21    1    1    2  504  503 -0.37410307751E+01 -0.20286657505E+02 -0.41289925361E+03  0.41341424433E+03  0.00000000000E+00 0. -1.
<mgrwt>
<rscale>  2 0.20628713E+02</rscale>
<asrwt>0</asrwt>
<pdfrwt beam="1">  1       21 0.65155244E-01 0.20628713E+02</pdfrwt>
<pdfrwt beam="2">  1       21 0.63601246E-01 0.20628713E+02</pdfrwt>
<totfact> 0.66572597E+03</totfact>
</mgrwt>
</event>
<event>
 4    1  0.4619222E+006  0.2288370E+02  0.7546771E-02  0.1693402E+00
         21   -1    0    0  503  501  0.00000000000E+00  0.00000000000E+00  0.12151481149E+02  0.12151481149E+02  0.00000000000E+00 0.  1.
         21   -1    0    0  501  502 -0.00000000000E+00 -0.00000000000E+00 -0.35539139951E+03  0.35539139951E+03  0.00000000000E+00 0.  1.
         21    1    1    2  503  504 -0.89487218818E+01 -0.21061440215E+02  0.64950023486E+00  0.22892918945E+02  0.00000000000E+00 0.  1.
         21    1    1    2  504  502  0.89487218818E+01  0.21061440215E+02 -0.34388941859E+03  0.34464996171E+03  0.00000000000E+00 0.  1.
<mgrwt>
<rscale>  2 0.22883704E+02</rscale>
<asrwt>0</asrwt>
<pdfrwt beam="1">  1       21 0.18694589E-02 0.22883704E+02</pdfrwt>
<pdfrwt beam="2">  1       21 0.54675594E-01 0.22883704E+02</pdfrwt>
<totfact> 0.37263121E+06</totfact>
</mgrwt>
</event>
<event>
 4    1  0.4619222E+006  0.2000419E+02  0.7546771E-02  0.1745245E+00
         21   -1    0    0  502  501  0.00000000000E+00  0.00000000000E+00  0.87950080450E+02  0.87950080450E+02  0.00000000000E+00 0. -1.
         21   -1    0    0  504  502 -0.00000000000E+00 -0.00000000000E+00 -0.50185989659E+03  0.50185989659E+03  0.00000000000E+00 0.  1.
         21    1    1    2  503  501  0.16349790306E+02  0.11526135001E+02  0.86610209913E+02  0.88890358826E+02  0.00000000000E+00 0. -1.
         21    1    1    2  504  503 -0.16349790306E+02 -0.11526135001E+02 -0.50052002605E+03  0.50091961821E+03  0.00000000000E+00 0.  1.
<mgrwt>
<rscale>  2 0.20004185E+02</rscale>
<asrwt>0</asrwt>
<pdfrwt beam="1">  1       21 0.13530782E-01 0.20004185E+02</pdfrwt>
<pdfrwt beam="2">  1       21 0.77209213E-01 0.20004185E+02</pdfrwt>
<totfact> 0.78519760E+04</totfact>
</mgrwt>
</event>
<event>
 4    1  0.4619222E+006  0.2656189E+02  0.7546771E-02  0.1639531E+00
         21   -1    0    0  503  501  0.00000000000E+00  0.00000000000E+00  0.29538357356E+02  0.29538357356E+02  0.00000000000E+00 0.  1.
         21   -1    0    0  504  502 -0.00000000000E+00 -0.00000000000E+00 -0.24010433804E+02  0.24010433804E+02  0.00000000000E+00 0.  1.
         21    1    1    2  503  502 -0.15396888560E+02  0.21644160930E+02  0.46964974072E+01  0.26973894187E+02  0.00000000000E+00 0.  1.
         21    1    1    2  504  501  0.15396888560E+02 -0.21644160930E+02  0.83142614414E+00  0.26574896973E+02  0.00000000000E+00 0.  1.
<mgrwt>
<rscale>  2 0.26561888E+02</rscale>
<asrwt>0</asrwt>
<pdfrwt beam="1">  1       21 0.45443627E-02 0.26561888E+02</pdfrwt>
<pdfrwt beam="2">  1       21 0.36939129E-02 0.26561888E+02</pdfrwt>
<totfact> 0.10022506E+08</totfact>
</mgrwt>
</event>
<event>
 4    1  0.4619222E+006  0.3030445E+02  0.7546771E-02  0.1594748E+00
         21   -1    0    0  502  501  0.00000000000E+00  0.00000000000E+00  0.12035496516E+02  0.12035496516E+02  0.00000000000E+00 0.  1.
         21   -1    0    0  503  502 -0.00000000000E+00 -0.00000000000E+00 -0.61961764299E+03  0.61961764299E+03  0.00000000000E+00 0. -1.
         21    1    1    2  503  504 -0.94154504045E+01 -0.28804665492E+02 -0.59953237732E+03  0.60029778520E+03  0.00000000000E+00 0. -1.
         21    1    1    2  504  501  0.94154504045E+01  0.28804665492E+02 -0.80497691567E+01  0.31355354310E+02  0.00000000000E+00 0.  1.
<mgrwt>
<rscale>  2 0.30304446E+02</rscale>
<asrwt>0</asrwt>
<pdfrwt beam="1">  1       21 0.18516147E-02 0.30304446E+02</pdfrwt>
<pdfrwt beam="2">  1       21 0.95325798E-01 0.30304446E+02</pdfrwt>
<totfact> 0.12288752E+06</totfact>
</mgrwt>
</event>
<event>
 4    1  0.4619222E+006  0.2035970E+02  0.7546771E-02  0.1738268E+00
         21   -1    0    0  503  501  0.00000000000E+00  0.00000000000E+00  0.61649372338E+02  0.61649372338E+02  0.00000000000E+00 0. -1.
         21   -1    0    0  504  502 -0.00000000000E+00 -0.00000000000E+00 -0.73748306203E+01  0.73748306203E+01  0.00000000000E+00 0. -1.
         21    1    1    2  503  502 -0.17496133415E+02 -0.10411665519E+02  0.16883130452E+02  0.26449150406E+02  0.00000000000E+00 0. -1.
         21    1    1    2  504  501  0.17496133415E+02  0.10411665519E+02  0.37391411266E+02  0.42575052552E+02  0.00000000000E+00 0. -1.
<mgrwt>
<rscale>  2 0.20359702E+02</rscale>
<asrwt>0</asrwt>
<pdfrwt beam="1">  1       21 0.94845185E-02 0.20359702E+02</pdfrwt>
<pdfrwt beam="2">  1       21 0.11345894E-02 0.20359702E+02</pdfrwt>
<totfact> 0.17346603E+08</totfact>
</mgrwt>
</event>
<event>
 4    1  0.4619222E+006  0.2034330E+02  0.7546771E-02  0.1738586E+00
         21   -1    0    0  503  501  0.00000000000E+00  0.00000000000E+00  0.33020874357E+02  0.33020874357E+02  0.00000000000E+00 0.  1.
         21   -1    0    0  504  502 -0.00000000000E+00 -0.00000000000E+00 -0.12705696328E+02  0.12705696328E+02  0.00000000000E+00 0.  1.
         21    1    1    2  503  502 -0.11627629814E+02  0.16692758190E+02  0.74919191720E+01  0.21678994533E+02  0.00000000000E+00 0.  1.
         21    1    1    2  504  501  0.11627629814E+02 -0.16692758190E+02  0.12823258857E+02  0.24047576152E+02  0.00000000000E+00 0.  1.
<mgrwt>
<rscale>  2 0.20343302E+02</rscale>
<asrwt>0</asrwt>
<pdfrwt beam="1">  1       21 0.50801345E-02 0.20343302E+02</pdfrwt>
<pdfrwt beam="2">  1       21 0.19547225E-02 0.20343302E+02</pdfrwt>
<totfact> 0.20822755E+08</totfact>
</mgrwt>
</event>
<event>
 4    1  0.4619222E+006  0.2201861E+02  0.7546771E-02  0.1707930E+00
         21   -1    0    0  502  501  0.00000000000E+00  0.00000000000E+00  0.15541741153E+03  0.15541741153E+03  0.00000000000E+00 0. -1.
         21   -1    0    0  503  502 -0.00000000000E+00 -0.00000000000E+00 -0.90848708926E+01  0.90848708926E+01  0.00000000000E+00 0. -1.
         21    1    1    2  503  504  0.21848854533E+02 -0.27288617691E+01  0.65159006729E+01  0.22962493169E+02  0.00000000000E+00 0. -1.
         21    1    1    2  504  501 -0.21848854533E+02  0.27288617691E+01  0.13981663996E+03  0.14153978925E+03  0.00000000000E+00 0. -1.
<mgrwt>
<rscale>  2 0.22018609E+02</rscale>
<asrwt>0</asrwt>
<pdfrwt beam="1">  1       21 0.23910369E-01 0.22018609E+02</pdfrwt>
<pdfrwt beam="2">  1       21 0.13976726E-02 0.22018609E+02</pdfrwt>
<totfact> 0.26872073E+07</totfact>
</mgrwt>
</event>
<event>
 4    1  0.4619222E+006  0.2147111E+02  0.7546771E-02  0.1717563E+00
         21   -1    0    0  504  501  0.00000000000E+00  0.00000000000E+00  0.36478963816E+02  0.36478963816E+02  0.00000000000E+00 0.  1.
         21   -1    0    0  503  502 -0.00000000000E+00 -0.00000000000E+00 -0.13159415618E+03  0.13159415618E+03  0.00000000000E+00 0.  1.
         21    1    1    2  503  501  0.21142505624E+02  0.37420860582E+01  0.32341900949E+02  0.38820192028E+02  0.00000000000E+00 0.  1.
         21    1    1    2  504  502 -0.21142505624E+02 -0.37420860582E+01 -0.12745709331E+03  0.12925292796E+03  0.00000000000E+00 0.  1.
<mgrwt>
<rscale>  2 0.21471114E+02</rscale>
<asrwt>0</asrwt>
<pdfrwt beam="1">  1       21 0.56121483E-02 0.21471114E+02</pdfrwt>
<pdfrwt beam="2">  1       21 0.20245255E-01 0.21471114E+02</pdfrwt>
<totfact> 0.41432168E+06</totfact>
</mgrwt>
</event>
<event>
 4    1  0.4619222E+006  0.2089196E+02  0.7546771E-02  0.1728151E+00
         21   -1    0    0  504  501  0.00000000000E+00  0.00000000000E+00  0.24188146335E+02  0.24188146335E+02  0.00000000000E+00 0.  1.
         21   -1    0    0  503  502 -0.00000000000E+00 -0.00000000000E+00 -0.80623675564E+03  0.80623675564E+03  0.00000000000E+00 0. -1.
         21    1    1    2  503  501  0.12663920009E+02 -0.16616236366E+02 -0.80156387737E+03  0.80183609528E+03  0.00000000000E+00 0. -1.
         21    1    1    2  504  502 -0.12663920009E+02  0.16616236366E+02  0.19515268064E+02  0.28588806701E+02  0.00000000000E+00 0.  1.
<mgrwt>
<rscale>  2 0.20891965E+02</rscale>
<asrwt>0</asrwt>
<pdfrwt beam="1">  1       21 0.37212533E-02 0.20891965E+02</pdfrwt>
<pdfrwt beam="2">  1       21 0.12403642E+00 0.20891965E+02</pdfrwt>
<totfact> 0.22645903E+05</totfact>
</mgrwt>
</event>
<event>
 4    1  0.4619222E+006  0.2225475E+02  0.7546771E-02  0.1703883E+00
         21   -1    0    0  503  501  0.00000000000E+00  0.00000000000E+00  0.34945154099E+01  0.34945154099E+01  0.00000000000E+00 0.  1.
         21   -1    0    0  504  502 -0.00000000000E+00 -0.00000000000E+00 -0.17431093964E+03  0.17431093964E+03  0.00000000000E+00 0.  1.
         21    1    1    2  503  502 -0.44438697770E+01  0.21806558560E+02 -0.46971908836E+02  0.51977246893E+02  0.00000000000E+00 0.  1.
         21    1    1    2  504  501  0.44438697770E+01 -0.21806558560E+02 -0.12384451539E+03  0.12582820816E+03  0.00000000000E+00 0.  1.
<mgrwt>
<rscale>  2 0.22254752E+02</rscale>
<asrwt>0</asrwt>
<pdfrwt beam="1">  1       21 0.53761783E-03 0.22254752E+02</pdfrwt>
<pdfrwt beam="2">  1       21 0.26817064E-01 0.22254752E+02</pdfrwt>
<totfact> 0.91561654E+07</totfact>
</mgrwt>
</event>
<event>
 4    1  0.4619222E+006  0.2042378E+02  0.7546771E-02  0.1737030E+00
         21   -1    0    0  504  501  0.00000000000E+00  0.00000000000E+00  0.46606200864E+02  0.46606200864E+02  0.00000000000E+00 0. -1.
         21   -1    0    0  503  502 -0.00000000000E+00 -0.00000000000E+00 -0.98242027884E+01  0.98242027884E+01  0.00000000000E+00 0.  1.
         21    1    1    2  503  501 -0.20307724162E+02  0.21741496688E+01  0.99748490312E+01  0.22729456673E+02  0.00000000000E+00 0.  1.
         21    1    1    2  504  502  0.20307724162E+02 -0.21741496688E+01  0.26807149044E+02  0.33700946979E+02  0.00000000000E+00 0. -1.
<mgrwt>
<rscale>  2 0.20423775E+02</rscale>
<asrwt>0</asrwt>
<pdfrwt beam="1">  1       21 0.71701846E-02 0.20423775E+02</pdfrwt>
<pdfrwt beam="2">  1       21 0.15114158E-02 0.20423775E+02</pdfrwt>
<totfact> 0.17764094E+08</totfact>
</mgrwt>
</event>
<event>
 4    1  0.4619222E+006  0.4045188E+02  0.7546771E-02  0.1504912E+00
         21   -1    0    0  502  501  0.00000000000E+00  0.00000000000E+00  0.20544031288E+02  0.20544031288E+02  0.00000000000E+00 0. -1.
         21   -1    0    0  504  502 -0.00000000000E+00 -0.00000000000E+00 -0.26801878524E+03  0.26801878524E+03  0.00000000000E+00 0.  1.
         21    1    1    2  503  501  0.94945407743E+01  0.39321857102E+02 -0.27803921091E+01  0.40547322116E+02  0.00000000000E+00 0. -1.
         21    1    1    2  504  503 -0.94945407743E+01 -0.39321857102E+02 -0.24469436184E+03  0.24801549441E+03  0.00000000000E+00 0.  1.
<mgrwt>
<rscale>  2 0.40451882E+02</rscale>
<asrwt>0</asrwt>
<pdfrwt beam="1">  1       21 0.31606203E-02 0.40451882E+02</pdfrwt>
<pdfrwt beam="2">  1       21 0.41233658E-01 0.40451882E+02</pdfrwt>
<totfact> 0.30397353E+06</totfact>
</mgrwt>
</event>
<event>
 4    1  0.4619222E+006  0.2006495E+02  0.7546771E-02  0.1744039E+00
         21   -1    0    0  503  501  0.00000000000E+00  0.00000000000E+00  0.21552284486E+01  0.21552284486E+01  0.00000000000E+00 0.  1.
         21   -1    0    0  504  502 -0.00000000000E+00 -0.00000000000E+00 -0.69457210109E+03  0.69457210109E+03  0.00000000000E+00 0. -1.
         21    1    1    2  503  502 -0.12543036518E+02  0.15661245510E+02 -0.64406520211E+03  0.64437767415E+03  0.00000000000E+00 0. -1.
         21    1    1    2  504  501  0.12543036518E+02 -0.15661245510E+02 -0.48351670535E+02  0.52349655390E+02  0.00000000000E+00 0.  1.
<mgrwt>
<rscale>  2 0.20064954E+02</rscale>
<asrwt>0</asrwt>
<pdfrwt beam="1">  1       21 0.33157294E-03 0.20064954E+02</pdfrwt>
<pdfrwt beam="2">  1       21 0.10685746E+00 0.20064954E+02</pdfrwt>
<totfact> 0.11913509E+07</totfact>
</mgrwt>
</event>
<event>
 4    1  0.4619222E+006  0.3729659E+02  0.7546771E-02  0.1529103E+00
         21   -1    0    0  503  501  0.00000000000E+00  0.00000000000E+00  0.68912033827E+01  0.68912033827E+01  0.00000000000E+00 0. -1.
         21   -1    0    0  504  502 -0.00000000000E+00 -0.00000000000E+00 -0.35780081372E+03  0.35780081372E+03  0.00000000000E+00 0.  1.
         21    1    1    2  503  502 -0.33292577921E+02 -0.16811889721E+02 -0.29583641081E+03  0.29817816376E+03  0.00000000000E+00 0.  1.
         21    1    1    2  504  501  0.33292577921E+02  0.16811889721E+02 -0.55073199524E+02  0.66513853342E+02  0.00000000000E+00 0. -1.
<mgrwt>
<rscale>  2 0.37296587E+02</rscale>
<asrwt>0</asrwt>
<pdfrwt beam="1">  1       21 0.10601850E-02 0.37296587E+02</pdfrwt>
<pdfrwt beam="2">  1       21 0.55046286E-01 0.37296587E+02</pdfrwt>
<totfact> 0.93500868E+06</totfact>
</mgrwt>
</event>
<event>
 4    1  0.4619222E+006  0.2449442E+02  0.7546771E-02  0.1668372E+00
         21   -1    0    0  503  501  0.00000000000E+00  0.00000000000E+00  0.10378326864E+02  0.10378326864E+02  0.00000000000E+00 0.  1.
         21   -1    0    0  504  502 -0.00000000000E+00 -0.00000000000E+00 -0.22177874947E+03  0.22177874947E+03  0.00000000000E+00 0. -1.
         21    1    1    2  503  502  0.16174384017E+01 -0.24440962503E+02 -0.20550968892E+03  0.20696426985E+03  0.00000000000E+00 0. -1.
         21    1    1    2  504  501 -0.16174384017E+01  0.24440962503E+02 -0.58907336840E+01  0.25192806481E+02  0.00000000000E+00 0.  1.
<mgrwt>
<rscale>  2 0.24494423E+02</rscale>
<asrwt>0</asrwt>
<pdfrwt beam="1">  1       21 0.15966658E-02 0.24494423E+02</pdfrwt>
<pdfrwt beam="2">  1       21 0.34119805E-01 0.24494423E+02</pdfrwt>
<totfact> 0.11791201E+07</totfact>
</mgrwt>
</event>
<event>
 4    1  0.4619222E+006  0.2905606E+02  0.7546771E-02  0.1608763E+00
         21   -1    0    0  502  501  0.00000000000E+00  0.00000000000E+00  0.34110900625E+02  0.34110900625E+02  0.00000000000E+00 0.  1.
         21   -1    0    0  503  502 -0.00000000000E+00 -0.00000000000E+00 -0.11183452796E+03  0.11183452796E+03  0.00000000000E+00 0.  1.
         21    1    1    2  503  504  0.38353438115E+01 -0.28801816028E+02 -0.10325535942E+03  0.10726566886E+03  0.00000000000E+00 0.  1.
         21    1    1    2  504  501 -0.38353438115E+01  0.28801816028E+02  0.25531732084E+02  0.38679759718E+02  0.00000000000E+00 0.  1.
<mgrwt>
<rscale>  2 0.29056057E+02</rscale>
<asrwt>0</asrwt>
<pdfrwt beam="1">  1       21 0.52478308E-02 0.29056057E+02</pdfrwt>
<pdfrwt beam="2">  1       21 0.17205312E-01 0.29056057E+02</pdfrwt>
<totfact> 0.64189166E+06</totfact>
</mgrwt>
</event>
<event>
 4    1  0.4619222E+006  0.3702752E+02  0.7546771E-02  0.1531299E+00
         21   -1    0    0  504  501  0.00000000000E+00  0.00000000000E+00  0.46464635423E+02  0.46464635423E+02  0.00000000000E+00 0.  1.
         21   -1    0    0  503  502 -0.00000000000E+00 -0.00000000000E+00 -0.67386668976E+02  0.67386668976E+02  0.00000000000E+00 0. -1.
         21    1    1    2  503  501  0.33659422885E+02  0.15429858771E+02  0.32218889300E+02  0.49082523553E+02  0.00000000000E+00 0.  1.
         21    1    1    2  504  502 -0.33659422885E+02 -0.15429858771E+02 -0.53140922853E+02  0.64768780846E+02  0.00000000000E+00 0. -1.
<mgrwt>
<rscale>  2 0.37027521E+02</rscale>
<asrwt>0</asrwt>
<pdfrwt beam="1">  1       21 0.71484055E-02 0.37027521E+02</pdfrwt>
<pdfrwt beam="2">  1       21 0.10367180E-01 0.37027521E+02</pdfrwt>
<totfact> 0.95625369E+06</totfact>
</mgrwt>
</event>
<event>
 4    1  0.4619222E+006  0.3402963E+02  0.7546771E-02  0.1557390E+00
         21   -1    0    0  504  501  0.00000000000E+00  0.00000000000E+00  0.74341444077E+03  0.74341444077E+03  0.00000000000E+00 0.  1.
         21   -1    0    0  501  502 -0.00000000000E+00 -0.00000000000E+00 -0.65306982926E+01  0.65306982926E+01  0.00000000000E+00 0.  1.
         21    1    1    2  503  502  0.20546718918E+00  0.34029010586E+02  0.41230116949E+02  0.53459688756E+02  0.00000000000E+00 0.  1.
         21    1    1    2  504  503 -0.20546718918E+00 -0.34029010586E+02  0.69565362553E+03  0.69648545030E+03  0.00000000000E+00 0.  1.
<mgrwt>
<rscale>  2 0.34029631E+02</rscale>
<asrwt>0</asrwt>
<pdfrwt beam="1">  1       21 0.11437139E+00 0.34029631E+02</pdfrwt>
<pdfrwt beam="2">  1       21 0.10047234E-02 0.34029631E+02</pdfrwt>
<totfact> 0.21035867E+06</totfact>
</mgrwt>
</event>
<event>
 4    1  0.4619222E+006  0.4334140E+02  0.7546771E-02  0.1484970E+00
         21   -1    0    0  504  501  0.00000000000E+00  0.00000000000E+00  0.16114699450E+03  0.16114699450E+03  0.00000000000E+00 0.  1.
         21   -1    0    0  503  502 -0.00000000000E+00 -0.00000000000E+00 -0.61258497702E+02  0.61258497702E+02  0.00000000000E+00 0. -1.
         21    1    1    2  503  501  0.27496464387E+02 -0.33502553988E+02  0.15000876739E+03  0.15614450669E+03  0.00000000000E+00 0.  1.
         21    1    1    2  504  502 -0.27496464387E+02  0.33502553988E+02 -0.50120270586E+02  0.66260985512E+02  0.00000000000E+00 0. -1.
<mgrwt>
<rscale>  2 0.43341397E+02</rscale>
<asrwt>0</asrwt>
<pdfrwt beam="1">  1       21 0.24791845E-01 0.43341397E+02</pdfrwt>
<pdfrwt beam="2">  1       21 0.94243844E-02 0.43341397E+02</pdfrwt>
<totfact> 0.13300175E+06</totfact>
</mgrwt>
</event>
<event>
 4    1  0.4619222E+006  0.3319702E+02  0.7546771E-02  0.1565220E+00
         21   -1    0    0  504  501  0.00000000000E+00  0.00000000000E+00  0.14584140173E+02  0.14584140173E+02  0.00000000000E+00 0.  1.
         21   -1    0    0  501  502 -0.00000000000E+00 -0.00000000000E+00 -0.40040018301E+03  0.40040018301E+03  0.00000000000E+00 0.  1.
         21    1    1    2  503  502  0.18879806913E+01  0.33143294254E+02 -0.37979819387E+03  0.38124625965E+03  0.00000000000E+00 0.  1.
         21    1    1    2  504  503 -0.18879806913E+01 -0.33143294254E+02 -0.60178489654E+01  0.33738063538E+02  0.00000000000E+00 0.  1.
<mgrwt>
<rscale>  2 0.33197024E+02</rscale>
<asrwt>0</asrwt>
<pdfrwt beam="1">  1       21 0.22437136E-02 0.33197024E+02</pdfrwt>
<pdfrwt beam="2">  1       21 0.61600036E-01 0.33197024E+02</pdfrwt>
<totfact> 0.23102354E+06</totfact>
</mgrwt>
</event>
<event>
 4    1  0.4619222E+006  0.2380090E+02  0.7546771E-02  0.1678847E+00
         21   -1    0    0  503  501  0.00000000000E+00  0.00000000000E+00  0.79308407236E+02  0.79308407236E+02  0.00000000000E+00 0.  1.
         21   -1    0    0  504  502 -0.00000000000E+00 -0.00000000000E+00 -0.83607748968E+02  0.83607748968E+02  0.00000000000E+00 0.  1.
         21    1    1    2  503  502 -0.20796801123E+02  0.11574796199E+02 -0.80050510753E+02  0.83513873792E+02  0.00000000000E+00 0.  1.
         21    1    1    2  504  501  0.20796801123E+02 -0.11574796199E+02  0.75751169022E+02  0.79402282411E+02  0.00000000000E+00 0.  1.
<mgrwt>
<rscale>  2 0.23800900E+02</rscale>
<asrwt>0</asrwt>
<pdfrwt beam="1">  1       21 0.12201293E-01 0.23800900E+02</pdfrwt>
<pdfrwt beam="2">  1       21 0.12862731E-01 0.23800900E+02</pdfrwt>
<totfact> 0.25691903E+06</totfact>
</mgrwt>
</event>
<event>
 4    1  0.4619222E+006  0.2127677E+02  0.7546771E-02  0.1721069E+00
         21   -1    0    0  504  501  0.00000000000E+00  0.00000000000E+00  0.46932272314E+02  0.46932272314E+02  0.00000000000E+00 0.  1.
         21   -1    0    0  503  502 -0.00000000000E+00 -0.00000000000E+00 -0.15969745467E+02  0.15969745467E+02  0.00000000000E+00 0.  1.
         21    1    1    2  503  501  0.16321285115E+02 -0.13649785332E+02 -0.43102231824E+01  0.21708961544E+02  0.00000000000E+00 0.  1.
         21    1    1    2  504  502 -0.16321285115E+02  0.13649785332E+02  0.35272750030E+02  0.41193056237E+02  0.00000000000E+00 0.  1.
<mgrwt>
<rscale>  2 0.21276771E+02</rscale>
<asrwt>0</asrwt>
<pdfrwt beam="1">  1       21 0.72203495E-02 0.21276771E+02</pdfrwt>
<pdfrwt beam="2">  1       21 0.24568839E-02 0.21276771E+02</pdfrwt>
<totfact> 0.84686422E+07</totfact>
</mgrwt>
</event>
<event>
 4    1  0.4619222E+006  0.2233004E+02  0.7546771E-02  0.1702606E+00
         21   -1    0    0  504  501  0.00000000000E+00  0.00000000000E+00  0.11693678460E+02  0.11693678460E+02  0.00000000000E+00 0. -1.
         21   -1    0    0  503  502 -0.00000000000E+00 -0.00000000000E+00 -0.62553912223E+02  0.62553912223E+02  0.00000000000E+00 0.  1.
         21    1    1    2  503  501  0.51001909164E+00 -0.22324219671E+02 -0.44845647771E+01  0.22775913256E+02  0.00000000000E+00 0. -1.
         21    1    1    2  504  502 -0.51001909164E+00  0.22324219671E+02 -0.46375668986E+02  0.51471677428E+02  0.00000000000E+00 0.  1.
<mgrwt>
<rscale>  2 0.22330045E+02</rscale>
<asrwt>0</asrwt>
<pdfrwt beam="1">  1       21 0.17990275E-02 0.22330045E+02</pdfrwt>
<pdfrwt beam="2">  1       21 0.96236788E-02 0.22330045E+02</pdfrwt>
<totfact> 0.86639672E+07</totfact>
</mgrwt>
</event>
<event>
 4    1  0.4619222E+006  0.3206053E+02  0.7546771E-02  0.1576369E+00
         21   -1    0    0  504  501  0.00000000000E+00  0.00000000000E+00  0.20577244606E+01  0.20577244606E+01  0.00000000000E+00 0.  1.
         21   -1    0    0  501  502 -0.00000000000E+00 -0.00000000000E+00 -0.51996045911E+03  0.51996045911E+03  0.00000000000E+00 0.  1.
         21    1    1    2  503  502  0.28701103217E+02 -0.14287211646E+02 -0.31070003528E+03  0.31234978736E+03  0.00000000000E+00 0.  1.
         21    1    1    2  504  503 -0.28701103217E+02  0.14287211646E+02 -0.20720269937E+03  0.20966839621E+03  0.00000000000E+00 0.  1.
<mgrwt>
<rscale>  2 0.32060532E+02</rscale>
<asrwt>0</asrwt>
<pdfrwt beam="1">  1       21 0.31657280E-03 0.32060532E+02</pdfrwt>
<pdfrwt beam="2">  1       21 0.79993965E-01 0.32060532E+02</pdfrwt>
<totfact> 0.25885827E+07</totfact>
</mgrwt>
</event>
<event>
 4    1  0.4619222E+006  0.2116250E+02  0.7546771E-02  0.1723152E+00
         21   -1    0    0  502  501  0.00000000000E+00  0.00000000000E+00  0.24887425922E+01  0.24887425922E+01  0.00000000000E+00 0. -1.
         21   -1    0    0  504  502 -0.00000000000E+00 -0.00000000000E+00 -0.83931174155E+03  0.83931174155E+03  0.00000000000E+00 0.  1.
         21    1    1    2  503  501 -0.87943511321E+01  0.19248653899E+02 -0.45351121602E+02  0.50045734277E+02  0.00000000000E+00 0. -1.
         21    1    1    2  504  503  0.87943511321E+01 -0.19248653899E+02 -0.79147187735E+03  0.79175474986E+03  0.00000000000E+00 0.  1.
<mgrwt>
<rscale>  2 0.21162497E+02</rscale>
<asrwt>0</asrwt>
<pdfrwt beam="1">  1       21 0.38288298E-03 0.21162497E+02</pdfrwt>
<pdfrwt beam="2">  1       21 0.12912505E+00 0.21162497E+02</pdfrwt>
<totfact> 0.63744563E+06</totfact>
</mgrwt>
</event>
<event>
 4    1  0.4619222E+006  0.2012630E+02  0.7546771E-02  0.1742828E+00
         21   -1    0    0  503  501  0.00000000000E+00  0.00000000000E+00  0.46939492135E+03  0.46939492135E+03  0.00000000000E+00 0. -1.
         21   -1    0    0  501  502 -0.00000000000E+00 -0.00000000000E+00 -0.86308448899E+00  0.86308448899E+00  0.00000000000E+00 0. -1.
         21    1    1    2  503  504  0.10082153863E+02  0.17418906127E+02  0.23711203244E+03  0.23796466975E+03  0.00000000000E+00 0. -1.
         21    1    1    2  504  502 -0.10082153863E+02 -0.17418906127E+02  0.23141980442E+03  0.23229333609E+03  0.00000000000E+00 0. -1.
<mgrwt>
<rscale>  2 0.20126304E+02</rscale>
<asrwt>0</asrwt>
<pdfrwt beam="1">  1       21 0.72214399E-01 0.20126304E+02</pdfrwt>
<pdfrwt beam="2">  1       21 0.13278260E-03 0.20126304E+02</pdfrwt>
<totfact> 0.10216740E+08</totfact>
</mgrwt>
</event>
<event>
 4    1  0.4619222E+006  0.3155075E+02  0.7546771E-02  0.1581554E+00
         21   -1    0    0  504  501  0.00000000000E+00  0.00000000000E+00  0.13456525220E+02  0.13456525220E+02  0.00000000000E+00 0. -1.
         21   -1    0    0  503  502 -0.00000000000E+00 -0.00000000000E+00 -0.24927275166E+03  0.24927275166E+03  0.00000000000E+00 0.  1.
         21    1    1    2  503  501  0.17152291907E+02 -0.26481106424E+02 -0.77468501317E+01  0.32487902396E+02  0.00000000000E+00 0. -1.
         21    1    1    2  504  502 -0.17152291907E+02  0.26481106424E+02 -0.22806937631E+03  0.23024137448E+03  0.00000000000E+00 0.  1.
<mgrwt>
<rscale>  2 0.31550755E+02</rscale>
<asrwt>0</asrwt>
<pdfrwt beam="1">  1       21 0.20702348E-02 0.31550755E+02</pdfrwt>
<pdfrwt beam="2">  1       21 0.38349652E-01 0.31550755E+02</pdfrwt>
<totfact> 0.66071176E+06</totfact>
</mgrwt>
</event>
<event>
 4    1  0.4619222E+006  0.2512840E+02  0.7546771E-02  0.1659165E+00
         21   -1    0    0  504  501  0.00000000000E+00  0.00000000000E+00  0.48615860711E+02  0.48615860711E+02  0.00000000000E+00 0.  1.
         21   -1    0    0  501  502 -0.00000000000E+00 -0.00000000000E+00 -0.68645469389E+03  0.68645469389E+03  0.00000000000E+00 0.  1.
         21    1    1    2  503  502 -0.24705639793E+02 -0.45899549701E+01 -0.68296105696E+03  0.68342317904E+03  0.00000000000E+00 0.  1.
         21    1    1    2  504  503  0.24705639793E+02  0.45899549701E+01  0.45122223777E+02  0.51647375566E+02  0.00000000000E+00 0.  1.
<mgrwt>
<rscale>  2 0.25128397E+02</rscale>
<asrwt>0</asrwt>
<pdfrwt beam="1">  1       21 0.74793641E-02 0.25128397E+02</pdfrwt>
<pdfrwt beam="2">  1       21 0.10560840E+00 0.25128397E+02</pdfrwt>
<totfact> 0.10674005E+05</totfact>
</mgrwt>
</event>
<event>
 4    1  0.4619222E+006  0.3623226E+02  0.7546771E-02  0.1537922E+00
         21   -1    0    0  504  501  0.00000000000E+00  0.00000000000E+00  0.11304084443E+02  0.11304084443E+02  0.00000000000E+00 0. -1.
         21   -1    0    0  503  502 -0.00000000000E+00 -0.00000000000E+00 -0.12127405633E+03  0.12127405633E+03  0.00000000000E+00 0. -1.
         21    1    1    2  503  501  0.16531849001E+02 -0.32240880024E+02 -0.41336408742E+02  0.54967945785E+02  0.00000000000E+00 0. -1.
         21    1    1    2  504  502 -0.16531849001E+02  0.32240880024E+02 -0.68633563149E+02  0.77610194992E+02  0.00000000000E+00 0. -1.
<mgrwt>
<rscale>  2 0.36232256E+02</rscale>
<asrwt>0</asrwt>
<pdfrwt beam="1">  1       21 0.17390899E-02 0.36232256E+02</pdfrwt>
<pdfrwt beam="2">  1       21 0.18657547E-01 0.36232256E+02</pdfrwt>
<totfact> 0.33022844E+07</totfact>
</mgrwt>
</event>
<event>
 4    1  0.4619222E+006  0.2887088E+02  0.7546771E-02  0.1610916E+00
         21   -1    0    0  503  501  0.00000000000E+00  0.00000000000E+00  0.52501392860E+01  0.52501392860E+01  0.00000000000E+00 0. -1.
         21   -1    0    0  504  502 -0.00000000000E+00 -0.00000000000E+00 -0.16877378509E+03  0.16877378509E+03  0.00000000000E+00 0. -1.
         21    1    1    2  503  502  0.62237670203E+01 -0.28192059267E+02 -0.10295334317E+03  0.10692482570E+03  0.00000000000E+00 0. -1.
         21    1    1    2  504  501 -0.62237670203E+01  0.28192059267E+02 -0.60570302637E+02  0.67099098676E+02  0.00000000000E+00 0. -1.
<mgrwt>
<rscale>  2 0.28870876E+02</rscale>
<asrwt>0</asrwt>
<pdfrwt beam="1">  1       21 0.80771388E-03 0.28870876E+02</pdfrwt>
<pdfrwt beam="2">  1       21 0.25965193E-01 0.28870876E+02</pdfrwt>
<totfact> 0.56402930E+07</totfact>
</mgrwt>
</event>
<event>
 4    1  0.4619222E+006  0.2682089E+02  0.7546771E-02  0.1636146E+00
         21   -1    0    0  504  501  0.00000000000E+00  0.00000000000E+00  0.18502333633E+02  0.18502333633E+02  0.00000000000E+00 0. -1.
         21   -1    0    0  503  502 -0.00000000000E+00 -0.00000000000E+00 -0.42202799745E+02  0.42202799745E+02  0.00000000000E+00 0. -1.
         21    1    1    2  503  501  0.24901259750E+02  0.99643051533E+01 -0.33326893215E+01  0.27027151763E+02  0.00000000000E+00 0. -1.
         21    1    1    2  504  502 -0.24901259750E+02 -0.99643051533E+01 -0.20367776790E+02  0.33677981615E+02  0.00000000000E+00 0. -1.
<mgrwt>
<rscale>  2 0.26820890E+02</rscale>
<asrwt>0</asrwt>
<pdfrwt beam="1">  1       21 0.28465129E-02 0.26820890E+02</pdfrwt>
<pdfrwt beam="2">  1       21 0.64927383E-02 0.26820890E+02</pdfrwt>
<totfact> 0.85255279E+07</totfact>
</mgrwt>
</event>
<event>
 4    1  0.4619222E+006  0.2645788E+02  0.7546771E-02  0.1640904E+00
         21   -1    0    0  503  501  0.00000000000E+00  0.00000000000E+00  0.41381975149E+01  0.41381975149E+01  0.00000000000E+00 0.  1.
         21   -1    0    0  504  502 -0.00000000000E+00 -0.00000000000E+00 -0.37446858008E+03  0.37446858008E+03  0.00000000000E+00 0. -1.
         21    1    1    2  503  502  0.92859616902E+01  0.24774796748E+02 -0.44995635316E+02  0.52197958158E+02  0.00000000000E+00 0.  1.
         21    1    1    2  504  501 -0.92859616902E+01 -0.24774796748E+02 -0.32533474725E+03  0.32640881944E+03  0.00000000000E+00 0. -1.
<mgrwt>
<rscale>  2 0.26457884E+02</rscale>
<asrwt>0</asrwt>
<pdfrwt beam="1">  1       21 0.63664586E-03 0.26457884E+02</pdfrwt>
<pdfrwt beam="2">  1       21 0.57610543E-01 0.26457884E+02</pdfrwt>
<totfact> 0.17486512E+07</totfact>
</mgrwt>
</event>
<event>
 4    1  0.4619222E+006  0.2042751E+02  0.7546771E-02  0.1736958E+00
         21   -1    0    0  503  501  0.00000000000E+00  0.00000000000E+00  0.33984294005E+03  0.33984294005E+03  0.00000000000E+00 0.  1.
         21   -1    0    0  501  502 -0.00000000000E+00 -0.00000000000E+00 -0.35627853147E+02  0.35627853147E+02  0.00000000000E+00 0.  1.
         21    1    1    2  503  504 -0.20421150393E+02  0.50956475716E+00  0.33657954118E+03  0.33719885910E+03  0.00000000000E+00 0.  1.
         21    1    1    2  504  502  0.20421150393E+02 -0.50956475716E+00 -0.32364454270E+02  0.38271934101E+02  0.00000000000E+00 0.  1.
<mgrwt>
<rscale>  2 0.20427507E+02</rscale>
<asrwt>0</asrwt>
<pdfrwt beam="1">  1       21 0.52283527E-01 0.20427507E+02</pdfrwt>
<pdfrwt beam="2">  1       21 0.54812084E-02 0.20427507E+02</pdfrwt>
<totfact> 0.75074739E+05</totfact>
</mgrwt>
</event>
<event>
 4    1  0.4619222E+006  0.3153928E+02  0.7546771E-02  0.1581672E+00
         21   -1    0    0  504  501  0.00000000000E+00  0.00000000000E+00  0.12728956268E+03  0.12728956268E+03  0.00000000000E+00 0.  1.
         21   -1    0    0  501  502 -0.00000000000E+00 -0.00000000000E+00 -0.12121901298E+02  0.12121901298E+02  0.00000000000E+00 0.  1.
         21    1    1    2  503  502 -0.23606831814E+02 -0.20915155599E+02  0.16032772119E+02  0.35380446914E+02  0.00000000000E+00 0.  1.
         21    1    1    2  504  503  0.23606831814E+02  0.20915155599E+02  0.99134889267E+02  0.10403101707E+03  0.00000000000E+00 0.  1.
<mgrwt>
<rscale>  2 0.31539281E+02</rscale>
<asrwt>0</asrwt>
<pdfrwt beam="1">  1       21 0.19583009E-01 0.31539281E+02</pdfrwt>
<pdfrwt beam="2">  1       21 0.18649080E-02 0.31539281E+02</pdfrwt>
<totfact> 0.26512183E+07</totfact>
</mgrwt>
</event>
<event>
 4    1  0.4619222E+006  0.3526248E+02  0.7546771E-02  0.1546282E+00
         21   -1    0    0  503  501  0.00000000000E+00  0.00000000000E+00  0.74070579769E+02  0.74070579769E+02  0.00000000000E+00 0. -1.
         21   -1    0    0  501  502 -0.00000000000E+00 -0.00000000000E+00 -0.62631219078E+02  0.62631219078E+02  0.00000000000E+00 0. -1.
         21    1    1    2  503  504 -0.28654805079E+02  0.20551033451E+02  0.64197316858E+02  0.73244373995E+02  0.00000000000E+00 0. -1.
         21    1    1    2  504  502  0.28654805079E+02 -0.20551033451E+02 -0.52757956167E+02  0.63457424852E+02  0.00000000000E+00 0. -1.
<mgrwt>
<rscale>  2 0.35262485E+02</rscale>
<asrwt>0</asrwt>
<pdfrwt beam="1">  1       21 0.11395474E-01 0.35262485E+02</pdfrwt>
<pdfrwt beam="2">  1       21 0.96355722E-02 0.35262485E+02</pdfrwt>
<totfact> 0.49267872E+06</totfact>
</mgrwt>
</event>
<event>
 4    1  0.4619222E+006  0.2218768E+02  0.7546771E-02  0.1705026E+00
         21   -1    0    0  503  501  0.00000000000E+00  0.00000000000E+00  0.58279757791E+02  0.58279757791E+02  0.00000000000E+00 0. -1.
         21   -1    0    0  504  502 -0.00000000000E+00 -0.00000000000E+00 -0.24710058383E+02  0.24710058383E+02  0.00000000000E+00 0. -1.
         21    1    1    2  503  502  0.21816201586E+02 -0.40430818184E+01  0.50448259526E+02  0.55111886662E+02  0.00000000000E+00 0. -1.
         21    1    1    2  504  501 -0.21816201586E+02  0.40430818184E+01 -0.16878560118E+02  0.27877929512E+02  0.00000000000E+00 0. -1.
<mgrwt>
<rscale>  2 0.22187680E+02</rscale>
<asrwt>0</asrwt>
<pdfrwt beam="1">  1       21 0.89661165E-02 0.22187680E+02</pdfrwt>
<pdfrwt beam="2">  1       21 0.38015475E-02 0.22187680E+02</pdfrwt>
<totfact> 0.30525084E+07</totfact>
</mgrwt>
</event>
<event>
 4    1  0.4619222E+006  0.2282698E+02  0.7546771E-02  0.1694330E+00
         21   -1    0    0  503  501  0.00000000000E+00  0.00000000000E+00  0.21544480623E+03  0.21544480623E+03  0.00000000000E+00 0.  1.
         21   -1    0    0  504  502 -0.00000000000E+00 -0.00000000000E+00 -0.21773245923E+02  0.21773245923E+02  0.00000000000E+00 0.  1.
         21    1    1    2  503  502  0.17023676664E+02  0.15207406912E+02 -0.14991812394E+02  0.27309801006E+02  0.00000000000E+00 0.  1.
         21    1    1    2  504  501 -0.17023676664E+02 -0.15207406912E+02  0.20866337270E+03  0.20990825114E+03  0.00000000000E+00 0.  1.
<mgrwt>
<rscale>  2 0.22826975E+02</rscale>
<asrwt>0</asrwt>
<pdfrwt beam="1">  1       21 0.33145353E-01 0.22826975E+02</pdfrwt>
<pdfrwt beam="2">  1       21 0.33497303E-02 0.22826975E+02</pdfrwt>
<totfact> 0.39141852E+06</totfact>
</mgrwt>
</event>
<event>
 4    1  0.4619222E+006  0.4841146E+02  0.7546771E-02  0.1454103E+00
         21   -1    0    0  503  501  0.00000000000E+00  0.00000000000E+00  0.80468900505E+03  0.80468900505E+03  0.00000000000E+00 0.  1.
         21   -1    0    0  504  502 -0.00000000000E+00 -0.00000000000E+00 -0.17399897800E+02  0.17399897800E+02  0.00000000000E+00 0.  1.
         21    1    1    2  503  502  0.46851693337E+02 -0.12189691257E+02  0.76871288097E+03  0.77023578410E+03  0.00000000000E+00 0.  1.
         21    1    1    2  504  501 -0.46851693337E+02  0.12189691257E+02  0.18576226284E+02  0.51853118754E+02  0.00000000000E+00 0.  1.
<mgrwt>
<rscale>  2 0.48411463E+02</rscale>
<asrwt>0</asrwt>
<pdfrwt beam="1">  1       21 0.12379828E+00 0.48411463E+02</pdfrwt>
<pdfrwt beam="2">  1       21 0.26769080E-02 0.48411463E+02</pdfrwt>
<totfact> 0.38625543E+05</totfact>
</mgrwt>
</event>
<event>
 4    1  0.4619222E+006  0.2050692E+02  0.7546771E-02  0.1735431E+00
         21   -1    0    0  504  501  0.00000000000E+00  0.00000000000E+00  0.17940983574E+02  0.17940983574E+02  0.00000000000E+00 0. -1.
         21   -1    0    0  501  502 -0.00000000000E+00 -0.00000000000E+00 -0.74504064750E+02  0.74504064750E+02  0.00000000000E+00 0. -1.
         21    1    1    2  503  502  0.13402666977E+02 -0.15521023519E+02 -0.66548334458E+02  0.69636301398E+02  0.00000000000E+00 0. -1.
         21    1    1    2  504  503 -0.13402666977E+02  0.15521023519E+02  0.99852532827E+01  0.22808746926E+02  0.00000000000E+00 0. -1.
<mgrwt>
<rscale>  2 0.20506917E+02</rscale>
<asrwt>0</asrwt>
<pdfrwt beam="1">  1       21 0.27601513E-02 0.20506917E+02</pdfrwt>
<pdfrwt beam="2">  1       21 0.11462164E-01 0.20506917E+02</pdfrwt>
<totfact> 0.32867913E+07</totfact>
</mgrwt>
</event>
<event>
 4    1  0.4619222E+006  0.2335039E+02  0.7546771E-02  0.1685893E+00
         21   -1    0    0  503  501  0.00000000000E+00  0.00000000000E+00  0.47318545689E+02  0.47318545689E+02  0.00000000000E+00 0. -1.
         21   -1    0    0  504  502 -0.00000000000E+00 -0.00000000000E+00 -0.18819584990E+02  0.18819584990E+02  0.00000000000E+00 0. -1.
         21    1    1    2  503  502  0.22654154526E+02  0.56595041278E+01 -0.63418106291E+01  0.24196265545E+02  0.00000000000E+00 0. -1.
         21    1    1    2  504  501 -0.22654154526E+02 -0.56595041278E+01  0.34840771328E+02  0.41941865135E+02  0.00000000000E+00 0. -1.
<mgrwt>
<rscale>  2 0.23350390E+02</rscale>
<asrwt>0</asrwt>
<pdfrwt beam="1">  1       21 0.72797762E-02 0.23350390E+02</pdfrwt>
<pdfrwt beam="2">  1       21 0.28953208E-02 0.23350390E+02</pdfrwt>
<totfact> 0.66506289E+07</totfact>
</mgrwt>
</event>
<event>
 4    1  0.4619222E+006  0.2336046E+02  0.7546771E-02  0.1685733E+00
         21   -1    0    0  504  501  0.00000000000E+00  0.00000000000E+00  0.92237036265E+02  0.92237036265E+02  0.00000000000E+00 0.  1.
         21   -1    0    0  503  502 -0.00000000000E+00 -0.00000000000E+00 -0.66960792842E+01  0.66960792842E+01  0.00000000000E+00 0. -1.
         21    1    1    2  503  501  0.72619029103E+01 -0.22203063024E+02  0.25890990341E+02  0.34871974741E+02  0.00000000000E+00 0. -1.
         21    1    1    2  504  502 -0.72619029103E+01  0.22203063024E+02  0.59649966639E+02  0.64061140807E+02  0.00000000000E+00 0.  1.
<mgrwt>
<rscale>  2 0.23360463E+02</rscale>
<asrwt>0</asrwt>
<pdfrwt beam="1">  1       21 0.14190312E-01 0.23360463E+02</pdfrwt>
<pdfrwt beam="2">  1       21 0.10301661E-02 0.23360463E+02</pdfrwt>
<totfact> 0.10672745E+08</totfact>
</mgrwt>
</event>
<event>
 4    1  0.4619222E+006  0.2326557E+02  0.7546771E-02  0.1687241E+00
         21   -1    0    0  504  501  0.00000000000E+00  0.00000000000E+00  0.12679590076E+01  0.12679590076E+01  0.00000000000E+00 0.  1.
         21   -1    0    0  503  502 -0.00000000000E+00 -0.00000000000E+00 -0.12064577813E+04  0.12064577813E+04  0.00000000000E+00 0.  1.
         21    1    1    2  503  501 -0.18965001136E+02 -0.13476472347E+02 -0.11718622466E+03  0.11947341891E+03  0.00000000000E+00 0.  1.
         21    1    1    2  504  502  0.18965001136E+02  0.13476472347E+02 -0.10880035976E+04  0.10882523214E+04  0.00000000000E+00 0.  1.
<mgrwt>
<rscale>  2 0.23265566E+02</rscale>
<asrwt>0</asrwt>
<pdfrwt beam="1">  1       21 0.19507073E-03 0.23265566E+02</pdfrwt>
<pdfrwt beam="2">  1       21 0.18560878E+00 0.23265566E+02</pdfrwt>
<totfact> 0.72242544E+06</totfact>
</mgrwt>
</event>
<event>
 4    1  0.4619222E+006  0.3463134E+02  0.7546771E-02  0.1551899E+00
         21   -1    0    0  503  501  0.00000000000E+00  0.00000000000E+00  0.38807511274E+03  0.38807511274E+03  0.00000000000E+00 0. -1.
         21   -1    0    0  504  502 -0.00000000000E+00 -0.00000000000E+00 -0.14854998077E+02  0.14854998077E+02  0.00000000000E+00 0. -1.
         21    1    1    2  503  502 -0.60587893282E+01 -0.34097227132E+02  0.73221884769E+01  0.35396952839E+02  0.00000000000E+00 0. -1.
         21    1    1    2  504  501  0.60587893282E+01  0.34097227132E+02  0.36589792619E+03  0.36753315798E+03  0.00000000000E+00 0. -1.
<mgrwt>
<rscale>  2 0.34631342E+02</rscale>
<asrwt>0</asrwt>
<pdfrwt beam="1">  1       21 0.59703856E-01 0.34631342E+02</pdfrwt>
<pdfrwt beam="2">  1       21 0.22853846E-02 0.34631342E+02</pdfrwt>
<totfact> 0.24015653E+06</totfact>
</mgrwt>
</event>
<event>
 4    1  0.4619222E+006  0.4044273E+02  0.7546771E-02  0.1504978E+00
         21   -1    0    0  504  501  0.00000000000E+00  0.00000000000E+00  0.35046657074E+02  0.35046657074E+02  0.00000000000E+00 0. -1.
         21   -1    0    0  501  502 -0.00000000000E+00 -0.00000000000E+00 -0.93927109986E+02  0.93927109986E+02  0.00000000000E+00 0.  1.
         21    1    1    2  503  502  0.63570930191E+01 -0.39939978467E+02 -0.75181809387E+02  0.85369309323E+02  0.00000000000E+00 0.  1.
         21    1    1    2  504  503 -0.63570930191E+01  0.39939978467E+02  0.16301356476E+02  0.43604457737E+02  0.00000000000E+00 0. -1.
<mgrwt>
<rscale>  2 0.40442731E+02</rscale>
<asrwt>0</asrwt>
<pdfrwt beam="1">  1       21 0.53917935E-02 0.40442731E+02</pdfrwt>
<pdfrwt beam="2">  1       21 0.14450324E-01 0.40442731E+02</pdfrwt>
<totfact> 0.87078140E+06</totfact>
</mgrwt>
</event>
<event>
 4    1  0.4619222E+006  0.9705851E+02  0.7546771E-02  0.1286606E+00
         21   -1    0    0  502  501  0.00000000000E+00  0.00000000000E+00  0.93096056239E+01  0.93096056239E+01  0.00000000000E+00 0.  1.
         21   -1    0    0  503  502 -0.00000000000E+00 -0.00000000000E+00 -0.10119094329E+04  0.10119094329E+04  0.00000000000E+00 0.  1.
         21    1    1    2  503  504 -0.39299109296E+01 -0.96978913820E+02 -0.50315110498E+03  0.51242695906E+03  0.00000000000E+00 0.  1.
         21    1    1    2  504  501  0.39299109296E+01  0.96978913820E+02 -0.49944872230E+03  0.50879207947E+03  0.00000000000E+00 0.  1.
<mgrwt>
<rscale>  2 0.97058508E+02</rscale>
<asrwt>0</asrwt>
<pdfrwt beam="1">  1       21 0.14322473E-02 0.97058508E+02</pdfrwt>
<pdfrwt beam="2">  1       21 0.15567834E+00 0.97058508E+02</pdfrwt>
<totfact> 0.58664063E+05</totfact>
</mgrwt>
</event>
<event>
 4    1  0.4619222E+006  0.2818428E+02  0.7546771E-02  0.1619072E+00
         21   -1    0    0  504  501  0.00000000000E+00  0.00000000000E+00  0.69857538417E+01  0.69857538417E+01  0.00000000000E+00 0. -1.
         21   -1    0    0  503  502 -0.00000000000E+00 -0.00000000000E+00 -0.20603487837E+03  0.20603487837E+03  0.00000000000E+00 0. -1.
         21    1    1    2  503  501 -0.65292360983E+01 -0.27417564811E+02 -0.17082290285E+03  0.17313237110E+03  0.00000000000E+00 0. -1.
         21    1    1    2  504  502  0.65292360983E+01  0.27417564811E+02 -0.28226221670E+02  0.39888261105E+02  0.00000000000E+00 0. -1.
<mgrwt>
<rscale>  2 0.28184283E+02</rscale>
<asrwt>0</asrwt>
<pdfrwt beam="1">  1       21 0.10747316E-02 0.28184283E+02</pdfrwt>
<pdfrwt beam="2">  1       21 0.31697667E-01 0.28184283E+02</pdfrwt>
<totfact> 0.25325260E+07</totfact>
</mgrwt>
</event>
<event>
 4    1  0.4619222E+006  0.2163684E+02  0.7546771E-02  0.1714609E+00
         21   -1    0    0  503  501  0.00000000000E+00  0.00000000000E+00  0.19124884642E+03  0.19124884642E+03  0.00000000000E+00 0. -1.
         21   -1    0    0  504  502 -0.00000000000E+00 -0.00000000000E+00 -0.24843587109E+01  0.24843587109E+01  0.00000000000E+00 0. -1.
         21    1    1    2  503  502  0.10936888091E+02 -0.18669153813E+02  0.10612122105E+03  0.10830450767E+03  0.00000000000E+00 0. -1.
         21    1    1    2  504  501 -0.10936888091E+02  0.18669153813E+02  0.82643266658E+02  0.85428697457E+02  0.00000000000E+00 0. -1.
<mgrwt>
<rscale>  2 0.21636840E+02</rscale>
<asrwt>0</asrwt>
<pdfrwt beam="1">  1       21 0.29422888E-01 0.21636840E+02</pdfrwt>
<pdfrwt beam="2">  1       21 0.38220918E-03 0.21636840E+02</pdfrwt>
<totfact> 0.12688927E+08</totfact>
</mgrwt>
</event>
<event>
 4    1  0.4619222E+006  0.3427246E+02  0.7546771E-02  0.1555158E+00
         21   -1    0    0  504  501  0.00000000000E+00  0.00000000000E+00  0.43104157576E+01  0.43104157576E+01  0.00000000000E+00 0.  1.
         21   -1    0    0  503  502 -0.00000000000E+00 -0.00000000000E+00 -0.35628836531E+03  0.35628836531E+03  0.00000000000E+00 0.  1.
         21    1    1    2  503  501 -0.33602133850E+02  0.67452100362E+01 -0.88555547474E+02  0.94956233319E+02  0.00000000000E+00 0.  1.
         21    1    1    2  504  502  0.33602133850E+02 -0.67452100362E+01 -0.26342240207E+03  0.26564254775E+03  0.00000000000E+00 0.  1.
<mgrwt>
<rscale>  2 0.34272456E+02</rscale>
<asrwt>0</asrwt>
<pdfrwt beam="1">  1       21 0.66314080E-03 0.34272456E+02</pdfrwt>
<pdfrwt beam="2">  1       21 0.54813602E-01 0.34272456E+02</pdfrwt>
<totfact> 0.18980727E+07</totfact>
</mgrwt>
</event>
<event>
 4    1  0.4619222E+006  0.2658214E+02  0.7546771E-02  0.1639265E+00
         21   -1    0    0  504  501  0.00000000000E+00  0.00000000000E+00  0.12277518567E+03  0.12277518567E+03  0.00000000000E+00 0. -1.
         21   -1    0    0  503  502 -0.00000000000E+00 -0.00000000000E+00 -0.74311353545E+01  0.74311353545E+01  0.00000000000E+00 0. -1.
         21    1    1    2  503  501 -0.11211205870E+01  0.26558490731E+02  0.26755710607E+02  0.37715757865E+02  0.00000000000E+00 0. -1.
         21    1    1    2  504  502  0.11211205870E+01 -0.26558490731E+02  0.88588339709E+02  0.92490563160E+02  0.00000000000E+00 0. -1.
<mgrwt>
<rscale>  2 0.26582143E+02</rscale>
<asrwt>0</asrwt>
<pdfrwt beam="1">  1       21 0.18888489E-01 0.26582143E+02</pdfrwt>
<pdfrwt beam="2">  1       21 0.11432517E-02 0.26582143E+02</pdfrwt>
<totfact> 0.57628248E+07</totfact>
</mgrwt>
</event>
<event>
 4    1  0.4619222E+006  0.1059051E+03  0.7546771E-02  0.1268346E+00
         21   -1    0    0  503  501  0.00000000000E+00  0.00000000000E+00  0.14430828273E+04  0.14430828273E+04  0.00000000000E+00 0.  1.
         21   -1    0    0  504  502 -0.00000000000E+00 -0.00000000000E+00 -0.67913781312E+02  0.67913781312E+02  0.00000000000E+00 0.  1.
         21    1    1    2  503  502 -0.10508395780E+03 -0.13162879938E+02 -0.23370343610E+02  0.10845308920E+03  0.00000000000E+00 0.  1.
         21    1    1    2  504  501  0.10508395780E+03  0.13162879938E+02  0.13985393896E+04  0.14025435194E+04  0.00000000000E+00 0.  1.
<mgrwt>
<rscale>  2 0.10590514E+03</rscale>
<asrwt>0</asrwt>
<pdfrwt beam="1">  1       21 0.22201272E+00 0.10590514E+03</pdfrwt>
<pdfrwt beam="2">  1       21 0.10448275E-01 0.10590514E+03</pdfrwt>
<totfact> 0.81104204E+03</totfact>
</mgrwt>
</event>
<event>
 4    1  0.4619222E+006  0.2354902E+02  0.7546771E-02  0.1682762E+00
         21   -1    0    0  504  501  0.00000000000E+00  0.00000000000E+00  0.75394369850E+01  0.75394369850E+01  0.00000000000E+00 0. -1.
         21   -1    0    0  501  502 -0.00000000000E+00 -0.00000000000E+00 -0.29773328902E+03  0.29773328902E+03  0.00000000000E+00 0.  1.
         21    1    1    2  503  502 -0.28876974962E+01 -0.23371302424E+02 -0.27754387222E+03  0.27854112368E+03  0.00000000000E+00 0.  1.
         21    1    1    2  504  503  0.28876974962E+01  0.23371302424E+02 -0.12649979823E+02  0.26731602334E+02  0.00000000000E+00 0. -1.
<mgrwt>
<rscale>  2 0.23549025E+02</rscale>
<asrwt>0</asrwt>
<pdfrwt beam="1">  1       21 0.11599133E-02 0.23549025E+02</pdfrwt>
<pdfrwt beam="2">  1       21 0.45805123E-01 0.23549025E+02</pdfrwt>
<totfact> 0.10911586E+07</totfact>
</mgrwt>
</event>
<event>
 4    1  0.4619222E+006  0.3854419E+02  0.7546771E-02  0.1519206E+00
         21   -1    0    0  503  501  0.00000000000E+00  0.00000000000E+00  0.40647263145E+02  0.40647263145E+02  0.00000000000E+00 0.  1.
         21   -1    0    0  504  502 -0.00000000000E+00 -0.00000000000E+00 -0.69584614013E+02  0.69584614013E+02  0.00000000000E+00 0. -1.
         21    1    1    2  503  502 -0.33670948371E+02  0.18759582024E+02 -0.52444364700E+02  0.65085067955E+02  0.00000000000E+00 0. -1.
         21    1    1    2  504  501  0.33670948371E+02 -0.18759582024E+02  0.23507013831E+02  0.45146809203E+02  0.00000000000E+00 0.  1.
<mgrwt>
<rscale>  2 0.38544191E+02</rscale>
<asrwt>0</asrwt>
<pdfrwt beam="1">  1       21 0.62534252E-02 0.38544191E+02</pdfrwt>
<pdfrwt beam="2">  1       21 0.10705325E-01 0.38544191E+02</pdfrwt>
<totfact> 0.11351574E+07</totfact>
</mgrwt>
</event>
<event>
 4    1  0.4619222E+006  0.2091190E+02  0.7546771E-02  0.1727779E+00
         21   -1    0    0  502  501  0.00000000000E+00  0.00000000000E+00  0.13140867265E+02  0.13140867265E+02  0.00000000000E+00 0.  1.
         21   -1    0    0  504  502 -0.00000000000E+00 -0.00000000000E+00 -0.63626916345E+02  0.63626916345E+02  0.00000000000E+00 0.  1.
         21    1    1    2  503  501 -0.77532487606E+01  0.19421504917E+02  0.12661942314E+01  0.20950202085E+02  0.00000000000E+00 0.  1.
         21    1    1    2  504  503  0.77532487606E+01 -0.19421504917E+02 -0.51752243311E+02  0.55817581525E+02  0.00000000000E+00 0.  1.
<mgrwt>
<rscale>  2 0.20911904E+02</rscale>
<asrwt>0</asrwt>
<pdfrwt beam="1">  1       21 0.20216719E-02 0.20911904E+02</pdfrwt>
<pdfrwt beam="2">  1       21 0.97887564E-02 0.20911904E+02</pdfrwt>
<totfact> 0.69208243E+07</totfact>
</mgrwt>
</event>
<event>
 4    1  0.4619222E+006  0.2996453E+02  0.7546771E-02  0.1598481E+00
         21   -1    0    0  504  501  0.00000000000E+00  0.00000000000E+00  0.39031310919E+03  0.39031310919E+03  0.00000000000E+00 0.  1.
         21   -1    0    0  503  502 -0.00000000000E+00 -0.00000000000E+00 -0.31517362134E+01  0.31517362134E+01  0.00000000000E+00 0.  1.
         21    1    1    2  503  501 -0.29243061581E+02  0.65357651619E+01  0.91332930702E+02  0.96122718998E+02  0.00000000000E+00 0.  1.
         21    1    1    2  504  502  0.29243061581E+02 -0.65357651619E+01  0.29582844228E+03  0.29734212641E+03  0.00000000000E+00 0.  1.
<mgrwt>
<rscale>  2 0.29964527E+02</rscale>
<asrwt>0</asrwt>
<pdfrwt beam="1">  1       21 0.60048132E-01 0.29964527E+02</pdfrwt>
<pdfrwt beam="2">  1       21 0.48488280E-03 0.29964527E+02</pdfrwt>
<totfact> 0.24674975E+07</totfact>
</mgrwt>
</event>
<event>
 4    1  0.4619222E+006  0.3746687E+02  0.7546771E-02  0.1527725E+00
         21   -1    0    0  503  501  0.00000000000E+00  0.00000000000E+00  0.63352550698E+03  0.63352550698E+03  0.00000000000E+00 0. -1.
         21   -1    0    0  501  502 -0.00000000000E+00 -0.00000000000E+00 -0.73661027870E+01  0.73661027870E+01  0.00000000000E+00 0.  1.
         21    1    1    2  503  504  0.37406091147E+02  0.21332592479E+01  0.58102864128E+03  0.58223538920E+03  0.00000000000E+00 0. -1.
         21    1    1    2  504  502 -0.37406091147E+02 -0.21332592479E+01  0.45130762910E+02  0.58656220564E+02  0.00000000000E+00 0.  1.
<mgrwt>
<rscale>  2 0.37466871E+02</rscale>
<asrwt>0</asrwt>
<pdfrwt beam="1">  1       21 0.97465420E-01 0.37466871E+02</pdfrwt>
<pdfrwt beam="2">  1       21 0.11332471E-02 0.37466871E+02</pdfrwt>
<totfact> 0.25292344E+06</totfact>
</mgrwt>
</event>
<event>
 4    1  0.4619222E+006  0.4663153E+02  0.7546771E-02  0.1464406E+00
         21   -1    0    0  503  501  0.00000000000E+00  0.00000000000E+00  0.45075823155E+02  0.45075823155E+02  0.00000000000E+00 0.  1.
         21   -1    0    0  504  502 -0.00000000000E+00 -0.00000000000E+00 -0.13173978729E+04  0.13173978729E+04  0.00000000000E+00 0.  1.
         21    1    1    2  503  502 -0.19359924535E+02  0.42422788424E+02  0.32486616182E+02  0.56832032223E+02  0.00000000000E+00 0.  1.
         21    1    1    2  504  501  0.19359924535E+02 -0.42422788424E+02 -0.13048086659E+04  0.13056416638E+04  0.00000000000E+00 0.  1.
<mgrwt>
<rscale>  2 0.46631531E+02</rscale>
<asrwt>0</asrwt>
<pdfrwt beam="1">  1       21 0.69347435E-02 0.46631531E+02</pdfrwt>
<pdfrwt beam="2">  1       21 0.20267655E+00 0.46631531E+02</pdfrwt>
<totfact> 0.23804949E+04</totfact>
</mgrwt>
</event>
<event>
 4    1  0.4619222E+006  0.2538895E+02  0.7546771E-02  0.1655477E+00
         21   -1    0    0  503  501  0.00000000000E+00  0.00000000000E+00  0.59997501078E+02  0.59997501078E+02  0.00000000000E+00 0. -1.
         21   -1    0    0  504  502 -0.00000000000E+00 -0.00000000000E+00 -0.11140331876E+02  0.11140331876E+02  0.00000000000E+00 0.  1.
         21    1    1    2  503  502  0.21567080389E+02  0.13396265837E+02  0.17717677533E+02  0.30959893283E+02  0.00000000000E+00 0.  1.
         21    1    1    2  504  501 -0.21567080389E+02 -0.13396265837E+02  0.31139491668E+02  0.40177939671E+02  0.00000000000E+00 0. -1.
<mgrwt>
<rscale>  2 0.25388952E+02</rscale>
<asrwt>0</asrwt>
<pdfrwt beam="1">  1       21 0.92303846E-02 0.25388952E+02</pdfrwt>
<pdfrwt beam="2">  1       21 0.17138972E-02 0.25388952E+02</pdfrwt>
<totfact> 0.10356933E+08</totfact>
</mgrwt>
</event>
<event>
 4    1  0.4619222E+006  0.2103762E+02  0.7546771E-02  0.1725448E+00
         21   -1    0    0  503  501  0.00000000000E+00  0.00000000000E+00  0.97964780134E+02  0.97964780134E+02  0.00000000000E+00 0.  1.
         21   -1    0    0  504  502 -0.00000000000E+00 -0.00000000000E+00 -0.88096491474E+01  0.88096491474E+01  0.00000000000E+00 0. -1.
         21    1    1    2  503  502  0.19122042262E+02  0.87709174224E+01  0.81840936377E+02  0.84501599746E+02  0.00000000000E+00 0.  1.
         21    1    1    2  504  501 -0.19122042262E+02 -0.87709174224E+01  0.73141946096E+01  0.22272829535E+02  0.00000000000E+00 0. -1.
<mgrwt>
<rscale>  2 0.21037621E+02</rscale>
<asrwt>0</asrwt>
<pdfrwt beam="1">  1       21 0.15071504E-01 0.21037621E+02</pdfrwt>
<pdfrwt beam="2">  1       21 0.13553307E-02 0.21037621E+02</pdfrwt>
<totfact> 0.61914425E+07</totfact>
</mgrwt>
</event>
<event>
 4    1  0.4619222E+006  0.2528295E+02  0.7546771E-02  0.1656971E+00
         21   -1    0    0  503  501  0.00000000000E+00  0.00000000000E+00  0.36849024570E+01  0.36849024570E+01  0.00000000000E+00 0.  1.
         21   -1    0    0  504  502 -0.00000000000E+00 -0.00000000000E+00 -0.27886563944E+03  0.27886563944E+03  0.00000000000E+00 0.  1.
         21    1    1    2  503  502  0.15566225852E+02 -0.19922849615E+02 -0.22444158158E+03  0.22586113182E+03  0.00000000000E+00 0.  1.
         21    1    1    2  504  501 -0.15566225852E+02  0.19922849615E+02 -0.50739155404E+02  0.56689410080E+02  0.00000000000E+00 0.  1.
<mgrwt>
<rscale>  2 0.25282945E+02</rscale>
<asrwt>0</asrwt>
<pdfrwt beam="1">  1       21 0.56690797E-03 0.25282945E+02</pdfrwt>
<pdfrwt beam="2">  1       21 0.42902414E-01 0.25282945E+02</pdfrwt>
<totfact> 0.36623323E+07</totfact>
</mgrwt>
</event>
<event>
 4    1  0.4619222E+006  0.3999214E+02  0.7546771E-02  0.1508269E+00
         21   -1    0    0  504  501  0.00000000000E+00  0.00000000000E+00  0.97971184544E+01  0.97971184544E+01  0.00000000000E+00 0.  1.
         21   -1    0    0  503  502 -0.00000000000E+00 -0.00000000000E+00 -0.19634468562E+03  0.19634468562E+03  0.00000000000E+00 0.  1.
         21    1    1    2  503  501 -0.19326865335E+01  0.39945416567E+02 -0.13559040567E+03  0.14136523509E+03  0.00000000000E+00 0.  1.
         21    1    1    2  504  502  0.19326865335E+01 -0.39945416567E+02 -0.50957161498E+02  0.64776568988E+02  0.00000000000E+00 0.  1.
<mgrwt>
<rscale>  2 0.39992144E+02</rscale>
<asrwt>0</asrwt>
<pdfrwt beam="1">  1       21 0.15072490E-02 0.39992144E+02</pdfrwt>
<pdfrwt beam="2">  1       21 0.30206875E-01 0.39992144E+02</pdfrwt>
<totfact> 0.17506972E+07</totfact>
</mgrwt>
</event>
<event>
 4    1  0.4619222E+006  0.4293140E+02  0.7546771E-02  0.1487685E+00
         21   -1    0    0  504  501  0.00000000000E+00  0.00000000000E+00  0.33250411597E+03  0.33250411597E+03  0.00000000000E+00 0.  1.
         21   -1    0    0  503  502 -0.00000000000E+00 -0.00000000000E+00 -0.12431249706E+02  0.12431249706E+02  0.00000000000E+00 0. -1.
         21    1    1    2  503  501  0.31098266000E+02  0.29597344562E+02  0.28841765079E+03  0.29159534674E+03  0.00000000000E+00 0.  1.
         21    1    1    2  504  502 -0.31098266000E+02 -0.29597344562E+02  0.31655215473E+02  0.53340018935E+02  0.00000000000E+00 0. -1.
<mgrwt>
<rscale>  2 0.42931398E+02</rscale>
<asrwt>0</asrwt>
<pdfrwt beam="1">  1       21 0.51154473E-01 0.42931398E+02</pdfrwt>
<pdfrwt beam="2">  1       21 0.19125002E-02 0.42931398E+02</pdfrwt>
<totfact> 0.44196554E+06</totfact>
</mgrwt>
</event>
<event>
 4    1  0.4619222E+006  0.2293392E+02  0.7546771E-02  0.1692583E+00
         21   -1    0    0  502  501  0.00000000000E+00  0.00000000000E+00  0.30659832542E+03  0.30659832542E+03  0.00000000000E+00 0. -1.
         21   -1    0    0  504  502 -0.00000000000E+00 -0.00000000000E+00 -0.17715021076E+01  0.17715021076E+01  0.00000000000E+00 0. -1.
         21    1    1    2  503  501  0.27955305011E+01  0.22762903423E+02  0.17983118685E+03  0.18128767340E+03  0.00000000000E+00 0. -1.
         21    1    1    2  504  503 -0.27955305011E+01 -0.22762903423E+02  0.12499563646E+03  0.12708215412E+03  0.00000000000E+00 0. -1.
<mgrwt>
<rscale>  2 0.22933922E+02</rscale>
<asrwt>0</asrwt>
<pdfrwt beam="1">  1       21 0.47168931E-01 0.22933922E+02</pdfrwt>
<pdfrwt beam="2">  1       21 0.27253903E-03 0.22933922E+02</pdfrwt>
<totfact> 0.87492764E+07</totfact>
</mgrwt>
</event>
<event>
 4    1  0.4619222E+006  0.2260570E+02  0.7546771E-02  0.1697982E+00
         21   -1    0    0  502  501  0.00000000000E+00  0.00000000000E+00  0.56814131336E+02  0.56814131336E+02  0.00000000000E+00 0.  1.
         21   -1    0    0  504  502 -0.00000000000E+00 -0.00000000000E+00 -0.61742707448E+02  0.61742707448E+02  0.00000000000E+00 0. -1.
         21    1    1    2  503  501  0.22353527768E+02  0.33671383233E+01  0.52326482337E+02  0.57000689276E+02  0.00000000000E+00 0.  1.
         21    1    1    2  504  503 -0.22353527768E+02 -0.33671383233E+01 -0.57255058450E+02  0.61556149508E+02  0.00000000000E+00 0. -1.
<mgrwt>
<rscale>  2 0.22605703E+02</rscale>
<asrwt>0</asrwt>
<pdfrwt beam="1">  1       21 0.87406356E-02 0.22605703E+02</pdfrwt>
<pdfrwt beam="2">  1       21 0.94988781E-02 0.22605703E+02</pdfrwt>
<totfact> 0.73412504E+06</totfact>
</mgrwt>
</event>
<event>
 4    1  0.4619222E+006  0.4295461E+02  0.7546771E-02  0.1487530E+00
         21   -1    0    0  502  501  0.00000000000E+00  0.00000000000E+00  0.17438548951E+02  0.17438548951E+02  0.00000000000E+00 0. -1.
         21   -1    0    0  503  502 -0.00000000000E+00 -0.00000000000E+00 -0.10795682126E+03  0.10795682126E+03  0.00000000000E+00 0. -1.
         21    1    1    2  503  504  0.33860827687E+02  0.26429966714E+02 -0.36408925250E+02  0.56309045722E+02  0.00000000000E+00 0. -1.
         21    1    1    2  504  501 -0.33860827687E+02 -0.26429966714E+02 -0.54109347057E+02  0.69086324487E+02  0.00000000000E+00 0. -1.
<mgrwt>
<rscale>  2 0.42954613E+02</rscale>
<asrwt>0</asrwt>
<pdfrwt beam="1">  1       21 0.26828537E-02 0.42954613E+02</pdfrwt>
<pdfrwt beam="2">  1       21 0.16608742E-01 0.42954613E+02</pdfrwt>
<totfact> 0.21141762E+07</totfact>
</mgrwt>
</event>
<event>
 4    1  0.4619222E+006  0.2140879E+02  0.7546771E-02  0.1718682E+00
         21   -1    0    0  503  501  0.00000000000E+00  0.00000000000E+00  0.50113448806E+02  0.50113448806E+02  0.00000000000E+00 0. -1.
         21   -1    0    0  504  502 -0.00000000000E+00 -0.00000000000E+00 -0.22540166564E+02  0.22540166564E+02  0.00000000000E+00 0. -1.
         21    1    1    2  503  502 -0.20517407513E+02 -0.61132965140E+01  0.41789792576E+02  0.46954479753E+02  0.00000000000E+00 0. -1.
         21    1    1    2  504  501  0.20517407513E+02  0.61132965140E+01 -0.14216510334E+02  0.25699135616E+02  0.00000000000E+00 0. -1.
<mgrwt>
<rscale>  2 0.21408793E+02</rscale>
<asrwt>0</asrwt>
<pdfrwt beam="1">  1       21 0.77097613E-02 0.21408793E+02</pdfrwt>
<pdfrwt beam="2">  1       21 0.34677179E-02 0.21408793E+02</pdfrwt>
<totfact> 0.44694152E+07</totfact>
</mgrwt>
</event>
<event>
 4    1  0.4619222E+006  0.2653638E+02  0.7546771E-02  0.1639867E+00
         21   -1    0    0  503  501  0.00000000000E+00  0.00000000000E+00  0.16143519313E+01  0.16143519313E+01  0.00000000000E+00 0. -1.
         21   -1    0    0  504  502 -0.00000000000E+00 -0.00000000000E+00 -0.11168322168E+04  0.11168322168E+04  0.00000000000E+00 0. -1.
         21    1    1    2  503  502 -0.22836141395E+02 -0.13516282631E+02 -0.99417275155E+03  0.99452684186E+03  0.00000000000E+00 0. -1.
         21    1    1    2  504  501  0.22836141395E+02  0.13516282631E+02 -0.12104511328E+03  0.12391972684E+03  0.00000000000E+00 0. -1.
<mgrwt>
<rscale>  2 0.26536376E+02</rscale>
<asrwt>0</asrwt>
<pdfrwt beam="1">  1       21 0.24836222E-03 0.26536376E+02</pdfrwt>
<pdfrwt beam="2">  1       21 0.17182007E+00 0.26536376E+02</pdfrwt>
<totfact> 0.62615145E+06</totfact>
</mgrwt>
</event>
<event>
 4    1  0.4619222E+006  0.2333840E+02  0.7546771E-02  0.1686083E+00
         21   -1    0    0  503  501  0.00000000000E+00  0.00000000000E+00  0.14989275386E+03  0.14989275386E+03  0.00000000000E+00 0.  1.
         21   -1    0    0  504  502 -0.00000000000E+00 -0.00000000000E+00 -0.74900750858E+02  0.74900750858E+02  0.00000000000E+00 0.  1.
         21    1    1    2  503  502  0.38809705812E+01 -0.23013456665E+02  0.14713239706E+03  0.14897188790E+03  0.00000000000E+00 0.  1.
         21    1    1    2  504  501 -0.38809705812E+01  0.23013456665E+02 -0.72140394062E+02  0.75821616811E+02  0.00000000000E+00 0.  1.
<mgrwt>
<rscale>  2 0.23338404E+02</rscale>
<asrwt>0</asrwt>
<pdfrwt beam="1">  1       21 0.23060424E-01 0.23338404E+02</pdfrwt>
<pdfrwt beam="2">  1       21 0.11523192E-01 0.23338404E+02</pdfrwt>
<totfact> 0.10304383E+06</totfact>
</mgrwt>
</event>
<event>
 4    1  0.4619222E+006  0.2226139E+02  0.7546771E-02  0.1703770E+00
         21   -1    0    0  503  501  0.00000000000E+00  0.00000000000E+00  0.20765650202E+03  0.20765650202E+03  0.00000000000E+00 0.  1.
         21   -1    0    0  504  502 -0.00000000000E+00 -0.00000000000E+00 -0.36882588881E+01  0.36882588881E+01  0.00000000000E+00 0. -1.
         21    1    1    2  503  502  0.17003101448E+02 -0.14368856862E+02  0.39204561886E+02  0.45084001365E+02  0.00000000000E+00 0. -1.
         21    1    1    2  504  501 -0.17003101448E+02  0.14368856862E+02  0.16476368124E+03  0.16626075954E+03  0.00000000000E+00 0.  1.
<mgrwt>
<rscale>  2 0.22261390E+02</rscale>
<asrwt>0</asrwt>
<pdfrwt beam="1">  1       21 0.31947145E-01 0.22261390E+02</pdfrwt>
<pdfrwt beam="2">  1       21 0.56742460E-03 0.22261390E+02</pdfrwt>
<totfact> 0.61578574E+07</totfact>
</mgrwt>
</event>
<event>
 4    1  0.4619222E+006  0.3625910E+02  0.7546771E-02  0.1537695E+00
         21   -1    0    0  502  501  0.00000000000E+00  0.00000000000E+00  0.52394969957E+03  0.52394969957E+03  0.00000000000E+00 0. -1.
         21   -1    0    0  503  502 -0.00000000000E+00 -0.00000000000E+00 -0.36444133329E+02  0.36444133329E+02  0.00000000000E+00 0. -1.
         21    1    1    2  503  504  0.26720935668E+02 -0.24509471410E+02 -0.26626054281E+02  0.44985212663E+02  0.00000000000E+00 0. -1.
         21    1    1    2  504  501 -0.26720935668E+02  0.24509471410E+02  0.51413162052E+03  0.51540862023E+03  0.00000000000E+00 0. -1.
<mgrwt>
<rscale>  2 0.36259104E+02</rscale>
<asrwt>0</asrwt>
<pdfrwt beam="1">  1       21 0.80607641E-01 0.36259104E+02</pdfrwt>
<pdfrwt beam="2">  1       21 0.56067901E-02 0.36259104E+02</pdfrwt>
<totfact> 0.30786883E+05</totfact>
</mgrwt>
</event>
<event>
 4    1  0.4619222E+006  0.2424401E+02  0.7546771E-02  0.1672104E+00
         21   -1    0    0  504  501  0.00000000000E+00  0.00000000000E+00  0.36339970075E+01  0.36339970075E+01  0.00000000000E+00 0.  1.
         21   -1    0    0  503  502 -0.00000000000E+00 -0.00000000000E+00 -0.16257756153E+03  0.16257756153E+03  0.00000000000E+00 0.  1.
         21    1    1    2  503  501  0.18819357343E+02 -0.15284110876E+02 -0.85427371435E+02  0.88800946202E+02  0.00000000000E+00 0.  1.
         21    1    1    2  504  502 -0.18819357343E+02  0.15284110876E+02 -0.73516193089E+02  0.77410612337E+02  0.00000000000E+00 0.  1.
<mgrwt>
<rscale>  2 0.24244015E+02</rscale>
<asrwt>0</asrwt>
<pdfrwt beam="1">  1       21 0.55907619E-03 0.24244015E+02</pdfrwt>
<pdfrwt beam="2">  1       21 0.25011945E-01 0.24244015E+02</pdfrwt>
<totfact> 0.10018225E+08</totfact>
</mgrwt>
</event>
<event>
 4    1  0.4619222E+006  0.2343138E+02  0.7546771E-02  0.1684612E+00
         21   -1    0    0  503  501  0.00000000000E+00  0.00000000000E+00  0.15449961210E+03  0.15449961210E+03  0.00000000000E+00 0.  1.
         21   -1    0    0  504  502 -0.00000000000E+00 -0.00000000000E+00 -0.16415963129E+02  0.16415963129E+02  0.00000000000E+00 0.  1.
         21    1    1    2  503  502  0.20966448583E+02 -0.10461237474E+02  0.14468659062E+03  0.14657161717E+03  0.00000000000E+00 0.  1.
         21    1    1    2  504  501 -0.20966448583E+02  0.10461237474E+02 -0.66029416435E+01  0.24343958060E+02  0.00000000000E+00 0.  1.
<mgrwt>
<rscale>  2 0.23431378E+02</rscale>
<asrwt>0</asrwt>
<pdfrwt beam="1">  1       21 0.23769170E-01 0.23431378E+02</pdfrwt>
<pdfrwt beam="2">  1       21 0.25255329E-02 0.23431378E+02</pdfrwt>
<totfact> 0.11124332E+07</totfact>
</mgrwt>
</event>
<event>
 4    1  0.4619222E+006  0.2045570E+02  0.7546771E-02  0.1736415E+00
         21   -1    0    0  504  501  0.00000000000E+00  0.00000000000E+00  0.65624285030E+03  0.65624285030E+03  0.00000000000E+00 0. -1.
         21   -1    0    0  503  502 -0.00000000000E+00 -0.00000000000E+00 -0.66159370934E+00  0.66159370934E+00  0.00000000000E+00 0. -1.
         21    1    1    2  503  501 -0.15993929453E+02 -0.12752639144E+02  0.39031024106E+03  0.39084590296E+03  0.00000000000E+00 0. -1.
         21    1    1    2  504  502  0.15993929453E+02  0.12752639144E+02  0.26527101553E+03  0.26605854105E+03  0.00000000000E+00 0. -1.
<mgrwt>
<rscale>  2 0.20455698E+02</rscale>
<asrwt>0</asrwt>
<pdfrwt beam="1">  1       21 0.10095992E+00 0.20455698E+02</pdfrwt>
<pdfrwt beam="2">  1       21 0.10178417E-03 0.20455698E+02</pdfrwt>
<totfact> 0.73812509E+07</totfact>
</mgrwt>
</event>
<event>
 4    1  0.4619222E+006  0.2046621E+02  0.7546771E-02  0.1736213E+00
         21   -1    0    0  503  501  0.00000000000E+00  0.00000000000E+00  0.58922114438E+02  0.58922114438E+02  0.00000000000E+00 0.  1.
         21   -1    0    0  504  502 -0.00000000000E+00 -0.00000000000E+00 -0.73819540109E+01  0.73819540109E+01  0.00000000000E+00 0.  1.
         21    1    1    2  503  502 -0.16848460224E+02  0.11618735000E+02  0.19392923041E+02  0.28194876821E+02  0.00000000000E+00 0.  1.
         21    1    1    2  504  501  0.16848460224E+02 -0.11618735000E+02  0.32147237386E+02  0.38109191627E+02  0.00000000000E+00 0.  1.
<mgrwt>
<rscale>  2 0.20466207E+02</rscale>
<asrwt>0</asrwt>
<pdfrwt beam="1">  1       21 0.90649404E-02 0.20466207E+02</pdfrwt>
<pdfrwt beam="2">  1       21 0.11356853E-02 0.20466207E+02</pdfrwt>
<totfact> 0.18684793E+08</totfact>
</mgrwt>
</event>
<event>
 4    1  0.4619222E+006  0.2338156E+02  0.7546771E-02  0.1685399E+00
         21   -1    0    0  503  501  0.00000000000E+00  0.00000000000E+00  0.10246553722E+03  0.10246553722E+03  0.00000000000E+00 0. -1.
         21   -1    0    0  501  502 -0.00000000000E+00 -0.00000000000E+00 -0.50286823055E+02  0.50286823055E+02  0.00000000000E+00 0. -1.
         21    1    1    2  503  504 -0.86424120677E+01  0.21725702447E+02  0.98300201648E+02  0.10104269928E+03  0.00000000000E+00 0. -1.
         21    1    1    2  504  502  0.86424120677E+01 -0.21725702447E+02 -0.46121487482E+02  0.51709660999E+02  0.00000000000E+00 0. -1.
<mgrwt>
<rscale>  2 0.23381562E+02</rscale>
<asrwt>0</asrwt>
<pdfrwt beam="1">  1       21 0.15763929E-01 0.23381562E+02</pdfrwt>
<pdfrwt beam="2">  1       21 0.77364343E-02 0.23381562E+02</pdfrwt>
<totfact> 0.38531965E+06</totfact>
</mgrwt>
</event>
<event>
 4    1  0.4619222E+006  0.2117005E+02  0.7546771E-02  0.1723014E+00
         21   -1    0    0  502  501  0.00000000000E+00  0.00000000000E+00  0.78892273022E+02  0.78892273022E+02  0.00000000000E+00 0.  1.
         21   -1    0    0  503  502 -0.00000000000E+00 -0.00000000000E+00 -0.16377717002E+02  0.16377717002E+02  0.00000000000E+00 0.  1.
         21    1    1    2  503  504 -0.21417657576E+01 -0.21061430012E+02 -0.72398928920E+01  0.22373802623E+02  0.00000000000E+00 0.  1.
         21    1    1    2  504  501  0.21417657576E+01  0.21061430012E+02  0.69754448912E+02  0.72896187401E+02  0.00000000000E+00 0.  1.
<mgrwt>
<rscale>  2 0.21170049E+02</rscale>
<asrwt>0</asrwt>
<pdfrwt beam="1">  1       21 0.12137273E-01 0.21170049E+02</pdfrwt>
<pdfrwt beam="2">  1       21 0.25196488E-02 0.21170049E+02</pdfrwt>
<totfact> 0.34667066E+07</totfact>
</mgrwt>
</event>
<event>
 4    1  0.4619222E+006  0.2183914E+02  0.7546771E-02  0.1711049E+00
         21   -1    0    0  504  501  0.00000000000E+00  0.00000000000E+00  0.72842506787E+03  0.72842506787E+03  0.00000000000E+00 0.  1.
         21   -1    0    0  503  502 -0.00000000000E+00 -0.00000000000E+00 -0.91056562852E+01  0.91056562852E+01  0.00000000000E+00 0. -1.
         21    1    1    2  503  501 -0.20337754514E+02 -0.79576322437E+01  0.71491922154E+03  0.71525271163E+03  0.00000000000E+00 0.  1.
         21    1    1    2  504  502  0.20337754514E+02  0.79576322437E+01  0.44001900457E+01  0.22278012524E+02  0.00000000000E+00 0. -1.
<mgrwt>
<rscale>  2 0.21839143E+02</rscale>
<asrwt>0</asrwt>
<pdfrwt beam="1">  1       21 0.11206535E+00 0.21839143E+02</pdfrwt>
<pdfrwt beam="2">  1       21 0.14008708E-02 0.21839143E+02</pdfrwt>
<totfact> 0.12815466E+06</totfact>
</mgrwt>
</event>
<event>
 4    1  0.4619222E+006  0.2473613E+02  0.7546771E-02  0.1664821E+00
         21   -1    0    0  504  501  0.00000000000E+00  0.00000000000E+00  0.83498611201E+01  0.83498611201E+01  0.00000000000E+00 0. -1.
         21   -1    0    0  503  502 -0.00000000000E+00 -0.00000000000E+00 -0.82927609780E+02  0.82927609780E+02  0.00000000000E+00 0. -1.
         21    1    1    2  503  501  0.12423079666E+02  0.21390263740E+02 -0.21722121783E+02  0.32920007078E+02  0.00000000000E+00 0. -1.
         21    1    1    2  504  502 -0.12423079666E+02 -0.21390263740E+02 -0.52855626877E+02  0.58357463823E+02  0.00000000000E+00 0. -1.
<mgrwt>
<rscale>  2 0.24736133E+02</rscale>
<asrwt>0</asrwt>
<pdfrwt beam="1">  1       21 0.12845941E-02 0.24736133E+02</pdfrwt>
<pdfrwt beam="2">  1       21 0.12758093E-01 0.24736133E+02</pdfrwt>
<totfact> 0.93006227E+07</totfact>
</mgrwt>
</event>
<event>
 4    1  0.4619222E+006  0.2202462E+02  0.7546771E-02  0.1707827E+00
         21   -1    0    0  504  501  0.00000000000E+00  0.00000000000E+00  0.21707483249E+02  0.21707483249E+02  0.00000000000E+00 0.  1.
         21   -1    0    0  503  502 -0.00000000000E+00 -0.00000000000E+00 -0.27169092955E+03  0.27169092955E+03  0.00000000000E+00 0. -1.
         21    1    1    2  503  501  0.12239818741E+02 -0.18310396137E+02  0.15545099431E+02  0.26958002260E+02  0.00000000000E+00 0.  1.
         21    1    1    2  504  502 -0.12239818741E+02  0.18310396137E+02 -0.26552854573E+03  0.26644041054E+03  0.00000000000E+00 0. -1.
<mgrwt>
<rscale>  2 0.22024617E+02</rscale>
<asrwt>0</asrwt>
<pdfrwt beam="1">  1       21 0.33396127E-02 0.22024617E+02</pdfrwt>
<pdfrwt beam="2">  1       21 0.41798606E-01 0.22024617E+02</pdfrwt>
<totfact> 0.25387212E+06</totfact>
</mgrwt>
</event>
<event>
 4    1  0.4619222E+006  0.3830415E+02  0.7546771E-02  0.1521075E+00
         21   -1    0    0  502  501  0.00000000000E+00  0.00000000000E+00  0.99304437690E+03  0.99304437690E+03  0.00000000000E+00 0.  1.
         21   -1    0    0  503  502 -0.00000000000E+00 -0.00000000000E+00 -0.10370355737E+02  0.10370355737E+02  0.00000000000E+00 0.  1.
         21    1    1    2  503  504  0.38220370987E+02 -0.25320427662E+01  0.26741889811E+02  0.46715486401E+02  0.00000000000E+00 0.  1.
         21    1    1    2  504  501 -0.38220370987E+02  0.25320427662E+01  0.95593213135E+03  0.95669924624E+03  0.00000000000E+00 0.  1.
<mgrwt>
<rscale>  2 0.38304151E+02</rscale>
<asrwt>0</asrwt>
<pdfrwt beam="1">  1       21 0.15277598E+00 0.38304151E+02</pdfrwt>
<pdfrwt beam="2">  1       21 0.15954401E-02 0.38304151E+02</pdfrwt>
<totfact> 0.52397410E+05</totfact>
</mgrwt>
</event>
<event>
 4    1  0.4619222E+006  0.2646452E+02  0.7546771E-02  0.1640816E+00
         21   -1    0    0  504  501  0.00000000000E+00  0.00000000000E+00  0.53853156609E+02  0.53853156609E+02  0.00000000000E+00 0.  1.
         21   -1    0    0  503  502 -0.00000000000E+00 -0.00000000000E+00 -0.11723617268E+03  0.11723617268E+03  0.00000000000E+00 0.  1.
         21    1    1    2  503  501 -0.22119376044E+02 -0.14529412200E+02 -0.11235193659E+03  0.11542672251E+03  0.00000000000E+00 0.  1.
         21    1    1    2  504  502  0.22119376044E+02  0.14529412200E+02  0.48968920521E+02  0.55662606770E+02  0.00000000000E+00 0.  1.
<mgrwt>
<rscale>  2 0.26464516E+02</rscale>
<asrwt>0</asrwt>
<pdfrwt beam="1">  1       21 0.82851012E-02 0.26464516E+02</pdfrwt>
<pdfrwt beam="2">  1       21 0.18036334E-01 0.26464516E+02</pdfrwt>
<totfact> 0.27773565E+06</totfact>
</mgrwt>
</event>
<event>
 4    1  0.4619222E+006  0.3138607E+02  0.7546771E-02  0.1583254E+00
         21   -1    0    0  504  501  0.00000000000E+00  0.00000000000E+00  0.19130669678E+01  0.19130669678E+01  0.00000000000E+00 0. -1.
         21   -1    0    0  501  502 -0.00000000000E+00 -0.00000000000E+00 -0.59307889120E+03  0.59307889120E+03  0.00000000000E+00 0. -1.
         21    1    1    2  503  502 -0.29935126442E+02  0.94325689253E+01 -0.40357735642E+03  0.40479595818E+03  0.00000000000E+00 0. -1.
         21    1    1    2  504  503  0.29935126442E+02 -0.94325689253E+01 -0.18758846782E+03  0.19019599998E+03  0.00000000000E+00 0. -1.
<mgrwt>
<rscale>  2 0.31386066E+02</rscale>
<asrwt>0</asrwt>
<pdfrwt beam="1">  1       21 0.29431782E-03 0.31386066E+02</pdfrwt>
<pdfrwt beam="2">  1       21 0.91242962E-01 0.31386066E+02</pdfrwt>
<totfact> 0.21638324E+07</totfact>
</mgrwt>
</event>
<event>
 4    1  0.4619222E+006  0.2047569E+02  0.7546771E-02  0.1736030E+00
         21   -1    0    0  504  501  0.00000000000E+00  0.00000000000E+00  0.31020971714E+01  0.31020971714E+01  0.00000000000E+00 0. -1.
         21   -1    0    0  503  502 -0.00000000000E+00 -0.00000000000E+00 -0.18669597820E+03  0.18669597820E+03  0.00000000000E+00 0. -1.
         21    1    1    2  503  501  0.17130009128E+02 -0.11216810493E+02 -0.14166059346E+03  0.14313272788E+03  0.00000000000E+00 0. -1.
         21    1    1    2  504  502 -0.17130009128E+02  0.11216810493E+02 -0.41933287568E+02  0.46665347493E+02  0.00000000000E+00 0. -1.
<mgrwt>
<rscale>  2 0.20475694E+02</rscale>
<asrwt>0</asrwt>
<pdfrwt beam="1">  1       21 0.47724567E-03 0.20475694E+02</pdfrwt>
<pdfrwt beam="2">  1       21 0.28722461E-01 0.20475694E+02</pdfrwt>
<totfact> 0.94262765E+07</totfact>
</mgrwt>
</event>
<event>
 4    1  0.4619222E+006  0.2233621E+02  0.7546771E-02  0.1702501E+00
         21   -1    0    0  503  501  0.00000000000E+00  0.00000000000E+00  0.55953146339E+01  0.55953146339E+01  0.00000000000E+00 0. -1.
         21   -1    0    0  504  502 -0.00000000000E+00 -0.00000000000E+00 -0.10167302926E+03  0.10167302926E+03  0.00000000000E+00 0. -1.
         21    1    1    2  503  502  0.77089396031E+01 -0.20963742510E+02 -0.66850775408E+02  0.70483561363E+02  0.00000000000E+00 0. -1.
         21    1    1    2  504  501 -0.77089396031E+01  0.20963742510E+02 -0.29226939222E+02  0.36784782535E+02  0.00000000000E+00 0. -1.
<mgrwt>
<rscale>  2 0.22336209E+02</rscale>
<asrwt>0</asrwt>
<pdfrwt beam="1">  1       21 0.86081767E-03 0.22336209E+02</pdfrwt>
<pdfrwt beam="2">  1       21 0.15642004E-01 0.22336209E+02</pdfrwt>
<totfact> 0.11686505E+08</totfact>
</mgrwt>
</event>
<event>
 4    1  0.4619222E+006  0.2850810E+02  0.7546771E-02  0.1615190E+00
         21   -1    0    0  503  501  0.00000000000E+00  0.00000000000E+00  0.88768948471E+02  0.88768948471E+02  0.00000000000E+00 0.  1.
         21   -1    0    0  501  502 -0.00000000000E+00 -0.00000000000E+00 -0.59218152208E+03  0.59218152208E+03  0.00000000000E+00 0.  1.
         21    1    1    2  503  504  0.24644458710E+01 -0.28401375775E+02  0.86126755745E+02  0.90722266807E+02  0.00000000000E+00 0.  1.
         21    1    1    2  504  502 -0.24644458710E+01  0.28401375775E+02 -0.58953932935E+03  0.59022820374E+03  0.00000000000E+00 0.  1.
<mgrwt>
<rscale>  2 0.28508098E+02</rscale>
<asrwt>0</asrwt>
<pdfrwt beam="1">  1       21 0.13656761E-01 0.28508098E+02</pdfrwt>
<pdfrwt beam="2">  1       21 0.91104851E-01 0.28508098E+02</pdfrwt>
<totfact> 0.53948908E+04</totfact>
</mgrwt>
</event>
<event>
 4    1  0.4619222E+006  0.2707702E+02  0.7546771E-02  0.1632845E+00
         21   -1    0    0  503  501  0.00000000000E+00  0.00000000000E+00  0.43720654093E+02  0.43720654093E+02  0.00000000000E+00 0. -1.
         21   -1    0    0  504  502 -0.00000000000E+00 -0.00000000000E+00 -0.19444978078E+02  0.19444978078E+02  0.00000000000E+00 0. -1.
         21    1    1    2  503  502  0.23575341600E+02 -0.13317965190E+02  0.23853416789E+02  0.36085321404E+02  0.00000000000E+00 0. -1.
         21    1    1    2  504  501 -0.23575341600E+02  0.13317965190E+02  0.42225922588E+00  0.27080310766E+02  0.00000000000E+00 0. -1.
<mgrwt>
<rscale>  2 0.27077018E+02</rscale>
<asrwt>0</asrwt>
<pdfrwt beam="1">  1       21 0.67262544E-02 0.27077018E+02</pdfrwt>
<pdfrwt beam="2">  1       21 0.29915351E-02 0.27077018E+02</pdfrwt>
<totfact> 0.74656304E+07</totfact>
</mgrwt>
</event>
<event>
 4    1  0.4619222E+006  0.2986550E+02  0.7546771E-02  0.1599580E+00
         21   -1    0    0  502  501  0.00000000000E+00  0.00000000000E+00  0.80535216761E+01  0.80535216761E+01  0.00000000000E+00 0.  1.
         21   -1    0    0  504  502 -0.00000000000E+00 -0.00000000000E+00 -0.18799006937E+03  0.18799006937E+03  0.00000000000E+00 0.  1.
         21    1    1    2  503  501 -0.11343591428E+02 -0.27627361386E+02 -0.27137946482E+02  0.40353640516E+02  0.00000000000E+00 0.  1.
         21    1    1    2  504  503  0.11343591428E+02  0.27627361386E+02 -0.15279860121E+03  0.15568995053E+03  0.00000000000E+00 0.  1.
<mgrwt>
<rscale>  2 0.29865501E+02</rscale>
<asrwt>0</asrwt>
<pdfrwt beam="1">  1       21 0.12390034E-02 0.29865501E+02</pdfrwt>
<pdfrwt beam="2">  1       21 0.28921548E-01 0.29865501E+02</pdfrwt>
<totfact> 0.24417718E+07</totfact>
</mgrwt>
</event>
<event>
 4    1  0.4619222E+006  0.2887775E+02  0.7546771E-02  0.1610835E+00
         21   -1    0    0  504  501  0.00000000000E+00  0.00000000000E+00  0.87706294271E+01  0.87706294271E+01  0.00000000000E+00 0. -1.
         21   -1    0    0  503  502 -0.00000000000E+00 -0.00000000000E+00 -0.11299154939E+03  0.11299154939E+03  0.00000000000E+00 0. -1.
         21    1    1    2  503  501  0.53687840757E+01 -0.28374297768E+02 -0.76349075229E+02  0.81627850055E+02  0.00000000000E+00 0. -1.
         21    1    1    2  504  502 -0.53687840757E+01  0.28374297768E+02 -0.27871844733E+02  0.40134328761E+02  0.00000000000E+00 0. -1.
<mgrwt>
<rscale>  2 0.28877753E+02</rscale>
<asrwt>0</asrwt>
<pdfrwt beam="1">  1       21 0.13493277E-02 0.28877753E+02</pdfrwt>
<pdfrwt beam="2">  1       21 0.17383314E-01 0.28877753E+02</pdfrwt>
<totfact> 0.52763635E+07</totfact>
</mgrwt>
</event>
<event>
 4    1  0.4619222E+006  0.3418723E+02  0.7546771E-02  0.1555939E+00
         21   -1    0    0  503  501  0.00000000000E+00  0.00000000000E+00  0.11474150944E+03  0.11474150944E+03  0.00000000000E+00 0. -1.
         21   -1    0    0  504  502 -0.00000000000E+00 -0.00000000000E+00 -0.12175451537E+02  0.12175451537E+02  0.00000000000E+00 0. -1.
         21    1    1    2  503  502  0.21239766154E+02  0.26788788745E+02  0.25632020775E+02  0.42728999025E+02  0.00000000000E+00 0. -1.
         21    1    1    2  504  501 -0.21239766154E+02 -0.26788788745E+02  0.76934037127E+02  0.84187961950E+02  0.00000000000E+00 0. -1.
<mgrwt>
<rscale>  2 0.34187233E+02</rscale>
<asrwt>0</asrwt>
<pdfrwt beam="1">  1       21 0.17652539E-01 0.34187233E+02</pdfrwt>
<pdfrwt beam="2">  1       21 0.18731465E-02 0.34187233E+02</pdfrwt>
<totfact> 0.32089544E+07</totfact>
</mgrwt>
</event>
<event>
 4    1  0.4619222E+006  0.2329985E+02  0.7546771E-02  0.1686695E+00
         21   -1    0    0  504  501  0.00000000000E+00  0.00000000000E+00  0.60880787634E+03  0.60880787634E+03  0.00000000000E+00 0. -1.
         21   -1    0    0  501  502 -0.00000000000E+00 -0.00000000000E+00 -0.10057023890E+01  0.10057023890E+01  0.00000000000E+00 0. -1.
         21    1    1    2  503  502 -0.13668706404E+02  0.18869271675E+02  0.20125053715E+03  0.20259482139E+03  0.00000000000E+00 0. -1.
         21    1    1    2  504  503  0.13668706404E+02 -0.18869271675E+02  0.40655163680E+03  0.40721875735E+03  0.00000000000E+00 0. -1.
<mgrwt>
<rscale>  2 0.23299849E+02</rscale>
<asrwt>0</asrwt>
<pdfrwt beam="1">  1       21 0.93662456E-01 0.23299849E+02</pdfrwt>
<pdfrwt beam="2">  1       21 0.15472393E-03 0.23299849E+02</pdfrwt>
<totfact> 0.49237287E+07</totfact>
</mgrwt>
</event>
<event>
 4    1  0.4619222E+006  0.2529084E+02  0.7546771E-02  0.1656859E+00
         21   -1    0    0  503  501  0.00000000000E+00  0.00000000000E+00  0.45225193723E+03  0.45225193723E+03  0.00000000000E+00 0.  1.
         21   -1    0    0  504  502 -0.00000000000E+00 -0.00000000000E+00 -0.23227330445E+01  0.23227330445E+01  0.00000000000E+00 0. -1.
         21    1    1    2  503  502 -0.24612093602E+02 -0.58199046028E+01  0.82823853044E+02  0.86599174789E+02  0.00000000000E+00 0. -1.
         21    1    1    2  504  501  0.24612093602E+02  0.58199046028E+01  0.36710535114E+03  0.36797549548E+03  0.00000000000E+00 0.  1.
<mgrwt>
<rscale>  2 0.25290837E+02</rscale>
<asrwt>0</asrwt>
<pdfrwt beam="1">  1       21 0.69577151E-01 0.25290837E+02</pdfrwt>
<pdfrwt beam="2">  1       21 0.35734390E-03 0.25290837E+02</pdfrwt>
<totfact> 0.27788297E+07</totfact>
</mgrwt>
</event>
<event>
 4    1  0.4619222E+006  0.2585203E+02  0.7546771E-02  0.1649057E+00
         21   -1    0    0  503  501  0.00000000000E+00  0.00000000000E+00  0.41822092488E+02  0.41822092488E+02  0.00000000000E+00 0. -1.
         21   -1    0    0  504  502 -0.00000000000E+00 -0.00000000000E+00 -0.21250007216E+03  0.21250007216E+03  0.00000000000E+00 0. -1.
         21    1    1    2  503  502  0.20771384369E+02  0.15390809865E+02 -0.20762530468E+03  0.20922857018E+03  0.00000000000E+00 0. -1.
         21    1    1    2  504  501 -0.20771384369E+02 -0.15390809865E+02  0.36947325006E+02  0.45093594467E+02  0.00000000000E+00 0. -1.
<mgrwt>
<rscale>  2 0.25852030E+02</rscale>
<asrwt>0</asrwt>
<pdfrwt beam="1">  1       21 0.64341679E-02 0.25852030E+02</pdfrwt>
<pdfrwt beam="2">  1       21 0.32692320E-01 0.25852030E+02</pdfrwt>
<totfact> 0.14438867E+06</totfact>
</mgrwt>
</event>
<event>
 4    1  0.4619222E+006  0.3176797E+02  0.7546771E-02  0.1579330E+00
         21   -1    0    0  502  501  0.00000000000E+00  0.00000000000E+00  0.56860923509E+03  0.56860923509E+03  0.00000000000E+00 0.  1.
         21   -1    0    0  504  502 -0.00000000000E+00 -0.00000000000E+00 -0.22367885807E+01  0.22367885807E+01  0.00000000000E+00 0. -1.
         21    1    1    2  503  501 -0.31655755027E+02  0.26678275271E+01  0.41289279958E+03  0.41411311024E+03  0.00000000000E+00 0.  1.
         21    1    1    2  504  503  0.31655755027E+02 -0.26678275271E+01  0.15347964693E+03  0.15673291343E+03  0.00000000000E+00 0. -1.
<mgrwt>
<rscale>  2 0.31767973E+02</rscale>
<asrwt>0</asrwt>
<pdfrwt beam="1">  1       21 0.87478229E-01 0.31767973E+02</pdfrwt>
<pdfrwt beam="2">  1       21 0.34412177E-03 0.31767973E+02</pdfrwt>
<totfact> 0.18865374E+07</totfact>
</mgrwt>
</event>
<event>
 4    1  0.4619222E+006  0.3073521E+02  0.7546771E-02  0.1590101E+00
         21   -1    0    0  503  501  0.00000000000E+00  0.00000000000E+00  0.15781318489E+04  0.15781318489E+04  0.00000000000E+00 0. -1.
         21   -1    0    0  504  502 -0.00000000000E+00 -0.00000000000E+00 -0.60954540628E+00  0.60954540628E+00  0.00000000000E+00 0. -1.
         21    1    1    2  503  502 -0.30300911034E+02 -0.51485638571E+01  0.89459024522E+03  0.89511807029E+03  0.00000000000E+00 0. -1.
         21    1    1    2  504  501  0.30300911034E+02  0.51485638571E+01  0.68293205827E+03  0.68362332401E+03  0.00000000000E+00 0. -1.
<mgrwt>
<rscale>  2 0.30735207E+02</rscale>
<asrwt>0</asrwt>
<pdfrwt beam="1">  1       21 0.24278624E+00 0.30735207E+02</pdfrwt>
<pdfrwt beam="2">  1       21 0.93777480E-04 0.30735207E+02</pdfrwt>
<totfact> 0.10345584E+07</totfact>
</mgrwt>
</event>
<event>
 4    1  0.4619222E+006  0.2227943E+02  0.7546771E-02  0.1703464E+00
         21   -1    0    0  504  501  0.00000000000E+00  0.00000000000E+00  0.13836566217E+03  0.13836566217E+03  0.00000000000E+00 0.  1.
         21   -1    0    0  503  502 -0.00000000000E+00 -0.00000000000E+00 -0.10184681210E+02  0.10184681210E+02  0.00000000000E+00 0. -1.
         21    1    1    2  503  501 -0.10970601289E+02 -0.19391207804E+02  0.12387001127E+03  0.12585766852E+03  0.00000000000E+00 0.  1.
         21    1    1    2  504  502  0.10970601289E+02  0.19391207804E+02  0.43109696904E+01  0.22692674862E+02  0.00000000000E+00 0. -1.
<mgrwt>
<rscale>  2 0.22279431E+02</rscale>
<asrwt>0</asrwt>
<pdfrwt beam="1">  1       21 0.21287024E-01 0.22279431E+02</pdfrwt>
<pdfrwt beam="2">  1       21 0.15668741E-02 0.22279431E+02</pdfrwt>
<totfact> 0.27803631E+07</totfact>
</mgrwt>
</event>
<event>
 4    1  0.4619222E+006  0.2708904E+02  0.7546771E-02  0.1632691E+00
         21   -1    0    0  503  501  0.00000000000E+00  0.00000000000E+00  0.22400958838E+03  0.22400958838E+03  0.00000000000E+00 0.  1.
         21   -1    0    0  504  502 -0.00000000000E+00 -0.00000000000E+00 -0.27394023574E+02  0.27394023574E+02  0.00000000000E+00 0.  1.
         21    1    1    2  503  502 -0.12421705825E+02  0.24073171046E+02 -0.19638982341E+02  0.33459019221E+02  0.00000000000E+00 0.  1.
         21    1    1    2  504  501  0.12421705825E+02 -0.24073171046E+02  0.21625454715E+03  0.21794459273E+03  0.00000000000E+00 0.  1.
<mgrwt>
<rscale>  2 0.27089045E+02</rscale>
<asrwt>0</asrwt>
<pdfrwt beam="1">  1       21 0.34463012E-01 0.27089045E+02</pdfrwt>
<pdfrwt beam="2">  1       21 0.42144653E-02 0.27089045E+02</pdfrwt>
<totfact> 0.25940797E+06</totfact>
</mgrwt>
</event>
<event>
 4    1  0.4619222E+006  0.2506808E+02  0.7546771E-02  0.1660026E+00
         21   -1    0    0  502  501  0.00000000000E+00  0.00000000000E+00  0.92085764150E+03  0.92085764150E+03  0.00000000000E+00 0.  1.
         21   -1    0    0  503  502 -0.00000000000E+00 -0.00000000000E+00 -0.19641865574E+01  0.19641865574E+01  0.00000000000E+00 0.  1.
         21    1    1    2  503  504  0.22274317466E+02  0.11500586349E+02  0.86710582155E+02  0.90261474410E+02  0.00000000000E+00 0.  1.
         21    1    1    2  504  501 -0.22274317466E+02 -0.11500586349E+02  0.83218287278E+03  0.83256035364E+03  0.00000000000E+00 0.  1.
<mgrwt>
<rscale>  2 0.25068081E+02</rscale>
<asrwt>0</asrwt>
<pdfrwt beam="1">  1       21 0.14167006E+00 0.25068081E+02</pdfrwt>
<pdfrwt beam="2">  1       21 0.30218328E-03 0.25068081E+02</pdfrwt>
<totfact> 0.74401910E+06</totfact>
</mgrwt>
</event>
<event>
 4    1  0.4619222E+006  0.2290871E+02  0.7546771E-02  0.1692994E+00
         21   -1    0    0  504  501  0.00000000000E+00  0.00000000000E+00  0.14356508121E+02  0.14356508121E+02  0.00000000000E+00 0.  1.
         21   -1    0    0  503  502 -0.00000000000E+00 -0.00000000000E+00 -0.40506768530E+02  0.40506768530E+02  0.00000000000E+00 0. -1.
         21    1    1    2  503  501 -0.65847016904E+01 -0.21941987047E+02 -0.45075704699E+01  0.23347961013E+02  0.00000000000E+00 0.  1.
         21    1    1    2  504  502  0.65847016904E+01  0.21941987047E+02 -0.21642689940E+02  0.31515315638E+02  0.00000000000E+00 0. -1.
<mgrwt>
<rscale>  2 0.22908712E+02</rscale>
<asrwt>0</asrwt>
<pdfrwt beam="1">  1       21 0.22086935E-02 0.22908712E+02</pdfrwt>
<pdfrwt beam="2">  1       21 0.62318107E-02 0.22908712E+02</pdfrwt>
<totfact> 0.12928815E+08</totfact>
</mgrwt>
</event>
<event>
 4    1  0.4619222E+006  0.6187676E+02  0.7546771E-02  0.1390120E+00
         21   -1    0    0  503  501  0.00000000000E+00  0.00000000000E+00  0.87688774327E+02  0.87688774327E+02  0.00000000000E+00 0.  1.
         21   -1    0    0  504  502 -0.00000000000E+00 -0.00000000000E+00 -0.14317833920E+03  0.14317833920E+03  0.00000000000E+00 0.  1.
         21    1    1    2  503  502 -0.23492457698E+02  0.57243675755E+02  0.68491525436E+02  0.92302887491E+02  0.00000000000E+00 0.  1.
         21    1    1    2  504  501  0.23492457698E+02 -0.57243675755E+02 -0.12398109031E+03  0.13856422604E+03  0.00000000000E+00 0.  1.
<mgrwt>
<rscale>  2 0.61876764E+02</rscale>
<asrwt>0</asrwt>
<pdfrwt beam="1">  1       21 0.13490581E-01 0.61876764E+02</pdfrwt>
<pdfrwt beam="2">  1       21 0.22027437E-01 0.61876764E+02</pdfrwt>
<totfact> 0.90560372E+05</totfact>
</mgrwt>
</event>
<event>
 4    1  0.4619222E+006  0.4515678E+02  0.7546771E-02  0.1473365E+00
         21   -1    0    0  504  501  0.00000000000E+00  0.00000000000E+00  0.11507302128E+03  0.11507302128E+03  0.00000000000E+00 0.  1.
         21   -1    0    0  503  502 -0.00000000000E+00 -0.00000000000E+00 -0.23030321610E+02  0.23030321610E+02  0.00000000000E+00 0. -1.
         21    1    1    2  503  501 -0.31953956602E+02  0.31907351932E+02  0.79177966576E+02  0.91149793422E+02  0.00000000000E+00 0.  1.
         21    1    1    2  504  502  0.31953956602E+02 -0.31907351932E+02  0.12864733090E+02  0.46953549464E+02  0.00000000000E+00 0. -1.
<mgrwt>
<rscale>  2 0.45156776E+02</rscale>
<asrwt>0</asrwt>
<pdfrwt beam="1">  1       21 0.17703541E-01 0.45156776E+02</pdfrwt>
<pdfrwt beam="2">  1       21 0.35431265E-02 0.45156776E+02</pdfrwt>
<totfact> 0.12207030E+07</totfact>
</mgrwt>
</event>
<event>
 4    1  0.4619222E+006  0.2677230E+02  0.7546771E-02  0.1636777E+00
         21   -1    0    0  503  501  0.00000000000E+00  0.00000000000E+00  0.11141032676E+03  0.11141032676E+03  0.00000000000E+00 0.  1.
         21   -1    0    0  501  502 -0.00000000000E+00 -0.00000000000E+00 -0.74627100744E+01  0.74627100744E+01  0.00000000000E+00 0.  1.
         21    1    1    2  503  504  0.24582108455E+02 -0.10605461912E+02  0.74046827884E+02  0.78738101312E+02  0.00000000000E+00 0.  1.
         21    1    1    2  504  502 -0.24582108455E+02  0.10605461912E+02  0.29900788803E+02  0.40134935524E+02  0.00000000000E+00 0.  1.
<mgrwt>
<rscale>  2 0.26772297E+02</rscale>
<asrwt>0</asrwt>
<pdfrwt beam="1">  1       21 0.17140049E-01 0.26772297E+02</pdfrwt>
<pdfrwt beam="2">  1       21 0.11481093E-02 0.26772297E+02</pdfrwt>
<totfact> 0.67910572E+07</totfact>
</mgrwt>
</event>
<event>
 4    1  0.4619222E+006  0.2084021E+02  0.7546771E-02  0.1729118E+00
         21   -1    0    0  504  501  0.00000000000E+00  0.00000000000E+00  0.88262252871E+01  0.88262252871E+01  0.00000000000E+00 0.  1.
         21   -1    0    0  503  502 -0.00000000000E+00 -0.00000000000E+00 -0.63176588461E+02  0.63176588461E+02  0.00000000000E+00 0.  1.
         21    1    1    2  503  501 -0.20610680538E+02 -0.30845399838E+01 -0.44104085534E+02  0.48779964124E+02  0.00000000000E+00 0.  1.
         21    1    1    2  504  502  0.20610680538E+02  0.30845399838E+01 -0.10246277640E+02  0.23222849623E+02  0.00000000000E+00 0.  1.
<mgrwt>
<rscale>  2 0.20840214E+02</rscale>
<asrwt>0</asrwt>
<pdfrwt beam="1">  1       21 0.13578808E-02 0.20840214E+02</pdfrwt>
<pdfrwt beam="2">  1       21 0.97194753E-02 0.20840214E+02</pdfrwt>
<totfact> 0.12806549E+08</totfact>
</mgrwt>
</event>
<event>
 4    1  0.4619222E+006  0.2077675E+02  0.7546771E-02  0.1730309E+00
         21   -1    0    0  504  501  0.00000000000E+00  0.00000000000E+00  0.58665794873E+02  0.58665794873E+02  0.00000000000E+00 0.  1.
         21   -1    0    0  503  502 -0.00000000000E+00 -0.00000000000E+00 -0.73727845238E+01  0.73727845238E+01  0.00000000000E+00 0.  1.
         21    1    1    2  503  501  0.13445695530E+02 -0.15839396723E+02  0.27116317771E+02  0.34160911965E+02  0.00000000000E+00 0.  1.
         21    1    1    2  504  502 -0.13445695530E+02  0.15839396723E+02  0.24176692578E+02  0.31877667431E+02  0.00000000000E+00 0.  1.
<mgrwt>
<rscale>  2 0.20776747E+02</rscale>
<asrwt>0</asrwt>
<pdfrwt beam="1">  1       21 0.90255066E-02 0.20776747E+02</pdfrwt>
<pdfrwt beam="2">  1       21 0.11342746E-02 0.20776747E+02</pdfrwt>
<totfact> 0.18943692E+08</totfact>
</mgrwt>
</event>
<event>
 4    1  0.4619222E+006  0.2957814E+02  0.7546771E-02  0.1602799E+00
         21   -1    0    0  504  501  0.00000000000E+00  0.00000000000E+00  0.41032949325E+01  0.41032949325E+01  0.00000000000E+00 0. -1.
         21   -1    0    0  501  502 -0.00000000000E+00 -0.00000000000E+00 -0.35056989320E+03  0.35056989320E+03  0.00000000000E+00 0. -1.
         21    1    1    2  503  502  0.22756055534E+02 -0.18895199042E+02 -0.28423760713E+03  0.28577243380E+03  0.00000000000E+00 0. -1.
         21    1    1    2  504  503 -0.22756055534E+02  0.18895199042E+02 -0.62228991139E+02  0.68900754339E+02  0.00000000000E+00 0. -1.
<mgrwt>
<rscale>  2 0.29578144E+02</rscale>
<asrwt>0</asrwt>
<pdfrwt beam="1">  1       21 0.63127613E-03 0.29578144E+02</pdfrwt>
<pdfrwt beam="2">  1       21 0.53933831E-01 0.29578144E+02</pdfrwt>
<totfact> 0.20601200E+07</totfact>
</mgrwt>
</event>
<event>
 4    1  0.4619222E+006  0.2115478E+02  0.7546771E-02  0.1723293E+00
         21   -1    0    0  502  501  0.00000000000E+00  0.00000000000E+00  0.29295776569E+02  0.29295776569E+02  0.00000000000E+00 0.  1.
         21   -1    0    0  504  502 -0.00000000000E+00 -0.00000000000E+00 -0.18559886486E+02  0.18559886486E+02  0.00000000000E+00 0.  1.
         21    1    1    2  503  501  0.13170546156E+02 -0.16554804196E+02  0.15432718586E+02  0.26185752442E+02  0.00000000000E+00 0.  1.
         21    1    1    2  504  503 -0.13170546156E+02  0.16554804196E+02 -0.46968285031E+01  0.21669910613E+02  0.00000000000E+00 0.  1.
<mgrwt>
<rscale>  2 0.21154783E+02</rscale>
<asrwt>0</asrwt>
<pdfrwt beam="1">  1       21 0.45070426E-02 0.21154783E+02</pdfrwt>
<pdfrwt beam="2">  1       21 0.28553671E-02 0.21154783E+02</pdfrwt>
<totfact> 0.14227800E+08</totfact>
</mgrwt>
</event>
<event>
 4    1  0.4619222E+006  0.2343940E+02  0.7546771E-02  0.1684485E+00
         21   -1    0    0  504  501  0.00000000000E+00  0.00000000000E+00  0.36482292971E+03  0.36482292971E+03  0.00000000000E+00 0. -1.
         21   -1    0    0  503  502 -0.00000000000E+00 -0.00000000000E+00 -0.25843883774E+02  0.25843883774E+02  0.00000000000E+00 0. -1.
         21    1    1    2  503  501 -0.19137229423E+02 -0.13534101443E+02  0.35904637099E+03  0.35981064739E+03  0.00000000000E+00 0. -1.
         21    1    1    2  504  502  0.19137229423E+02  0.13534101443E+02 -0.20067325050E+02  0.30856166102E+02  0.00000000000E+00 0. -1.
<mgrwt>
<rscale>  2 0.23439400E+02</rscale>
<asrwt>0</asrwt>
<pdfrwt beam="1">  1       21 0.56126601E-01 0.23439400E+02</pdfrwt>
<pdfrwt beam="2">  1       21 0.39759824E-02 0.23439400E+02</pdfrwt>
<totfact> 0.10997303E+06</totfact>
</mgrwt>
</event>
<event>
 4    1  0.4619222E+006  0.2147723E+02  0.7546771E-02  0.1717453E+00
         21   -1    0    0  503  501  0.00000000000E+00  0.00000000000E+00  0.31321918631E+00  0.31321918631E+00  0.00000000000E+00 0. -1.
         21   -1    0    0  504  502 -0.00000000000E+00 -0.00000000000E+00 -0.15761788535E+04  0.15761788535E+04  0.00000000000E+00 0.  1.
         21    1    1    2  503  502  0.12060943628E+02  0.17770900302E+02 -0.98992255809E+03  0.99015551418E+03  0.00000000000E+00 0.  1.
         21    1    1    2  504  501 -0.12060943628E+02 -0.17770900302E+02 -0.58594307619E+03  0.58633655846E+03  0.00000000000E+00 0. -1.
<mgrwt>
<rscale>  2 0.21477227E+02</rscale>
<asrwt>0</asrwt>
<pdfrwt beam="1">  1       21 0.48187564E-04 0.21477227E+02</pdfrwt>
<pdfrwt beam="2">  1       21 0.24248907E+00 0.21477227E+02</pdfrwt>
<totfact> 0.25864936E+07</totfact>
</mgrwt>
</event>
<event>
 4    1  0.4619222E+006  0.2364966E+02  0.7546771E-02  0.1681191E+00
         21   -1    0    0  504  501  0.00000000000E+00  0.00000000000E+00  0.14130755355E+03  0.14130755355E+03  0.00000000000E+00 0.  1.
         21   -1    0    0  503  502 -0.00000000000E+00 -0.00000000000E+00 -0.30502065512E+02  0.30502065512E+02  0.00000000000E+00 0. -1.
         21    1    1    2  503  501 -0.47792435915E+01  0.23161718703E+02 -0.24734782386E+02  0.34221569839E+02  0.00000000000E+00 0. -1.
         21    1    1    2  504  502  0.47792435915E+01 -0.23161718703E+02  0.13554027042E+03  0.13758804922E+03  0.00000000000E+00 0.  1.
<mgrwt>
<rscale>  2 0.23649659E+02</rscale>
<asrwt>0</asrwt>
<pdfrwt beam="1">  1       21 0.21739623E-01 0.23649659E+02</pdfrwt>
<pdfrwt beam="2">  1       21 0.46926256E-02 0.23649659E+02</pdfrwt>
<totfact> 0.49398426E+06</totfact>
</mgrwt>
</event>
<event>
 4    1  0.4619222E+006  0.2194968E+02  0.7546771E-02  0.1709124E+00
         21   -1    0    0  503  501  0.00000000000E+00  0.00000000000E+00  0.25294242046E+01  0.25294242046E+01  0.00000000000E+00 0.  1.
         21   -1    0    0  504  502 -0.00000000000E+00 -0.00000000000E+00 -0.29552993386E+03  0.29552993386E+03  0.00000000000E+00 0.  1.
         21    1    1    2  503  502 -0.19842927715E+02  0.93833229406E+01 -0.57644992773E+02  0.61682523632E+02  0.00000000000E+00 0.  1.
         21    1    1    2  504  501  0.19842927715E+02 -0.93833229406E+01 -0.23535551688E+03  0.23637683443E+03  0.00000000000E+00 0.  1.
<mgrwt>
<rscale>  2 0.21949682E+02</rscale>
<asrwt>0</asrwt>
<pdfrwt beam="1">  1       21 0.38914226E-03 0.21949682E+02</pdfrwt>
<pdfrwt beam="2">  1       21 0.45466135E-01 0.21949682E+02</pdfrwt>
<totfact> 0.55237169E+07</totfact>
</mgrwt>
</event>
<event>
 4    1  0.4619222E+006  0.2223036E+02  0.7546771E-02  0.1704298E+00
         21   -1    0    0  504  501  0.00000000000E+00  0.00000000000E+00  0.96811810212E+03  0.96811810212E+03  0.00000000000E+00 0.  1.
         21   -1    0    0  501  502 -0.00000000000E+00 -0.00000000000E+00 -0.75530872677E+02  0.75530872677E+02  0.00000000000E+00 0.  1.
         21    1    1    2  503  502 -0.17919622659E+02 -0.13155834978E+02 -0.73764549284E+02  0.77041531665E+02  0.00000000000E+00 0.  1.
         21    1    1    2  504  503  0.17919622659E+02  0.13155834978E+02  0.96635177873E+03  0.96660744313E+03  0.00000000000E+00 0.  1.
<mgrwt>
<rscale>  2 0.22230359E+02</rscale>
<asrwt>0</asrwt>
<pdfrwt beam="1">  1       21 0.14894124E+00 0.22230359E+02</pdfrwt>
<pdfrwt beam="2">  1       21 0.11620135E-01 0.22230359E+02</pdfrwt>
<totfact> 0.23621510E+04</totfact>
</mgrwt>
</event>
<event>
 4    1  0.4619222E+006  0.2429837E+02  0.7546771E-02  0.1671289E+00
         21   -1    0    0  504  501  0.00000000000E+00  0.00000000000E+00  0.35742684653E+01  0.35742684653E+01  0.00000000000E+00 0. -1.
         21   -1    0    0  503  502 -0.00000000000E+00 -0.00000000000E+00 -0.17668112902E+03  0.17668112902E+03  0.00000000000E+00 0. -1.
         21    1    1    2  503  501 -0.11059448321E+02 -0.21635609154E+02 -0.63562153565E+02  0.68048206049E+02  0.00000000000E+00 0. -1.
         21    1    1    2  504  502  0.11059448321E+02  0.21635609154E+02 -0.10954470699E+03  0.11220719144E+03  0.00000000000E+00 0. -1.
<mgrwt>
<rscale>  2 0.24298374E+02</rscale>
<asrwt>0</asrwt>
<pdfrwt beam="1">  1       21 0.54988736E-03 0.24298374E+02</pdfrwt>
<pdfrwt beam="2">  1       21 0.27181717E-01 0.24298374E+02</pdfrwt>
<totfact> 0.88483835E+07</totfact>
</mgrwt>
</event>
<event>
 4    1  0.4619222E+006  0.2869539E+02  0.7546771E-02  0.1612974E+00
         21   -1    0    0  504  501  0.00000000000E+00  0.00000000000E+00  0.67030323304E+02  0.67030323304E+02  0.00000000000E+00 0. -1.
         21   -1    0    0  503  502 -0.00000000000E+00 -0.00000000000E+00 -0.14586186780E+02  0.14586186780E+02  0.00000000000E+00 0.  1.
         21    1    1    2  503  501  0.27467071420E+02 -0.83057401697E+01  0.42433167330E+02  0.51224984352E+02  0.00000000000E+00 0. -1.
         21    1    1    2  504  502 -0.27467071420E+02  0.83057401697E+01  0.10010969193E+02  0.30391525732E+02  0.00000000000E+00 0.  1.
<mgrwt>
<rscale>  2 0.28695389E+02</rscale>
<asrwt>0</asrwt>
<pdfrwt beam="1">  1       21 0.10312357E-01 0.28695389E+02</pdfrwt>
<pdfrwt beam="2">  1       21 0.22440288E-02 0.28695389E+02</pdfrwt>
<totfact> 0.58616901E+07</totfact>
</mgrwt>
</event>
<event>
 4    1  0.4619222E+006  0.2871512E+02  0.7546771E-02  0.1612741E+00
         21   -1    0    0  503  501  0.00000000000E+00  0.00000000000E+00  0.12437082407E+02  0.12437082407E+02  0.00000000000E+00 0.  1.
         21   -1    0    0  504  502 -0.00000000000E+00 -0.00000000000E+00 -0.10886277995E+03  0.10886277995E+03  0.00000000000E+00 0.  1.
         21    1    1    2  503  502  0.69810255718E+01 -0.27853607858E+02 -0.10288864930E+02  0.30502769223E+02  0.00000000000E+00 0.  1.
         21    1    1    2  504  501 -0.69810255718E+01  0.27853607858E+02 -0.86136832612E+02  0.90797093131E+02  0.00000000000E+00 0.  1.
<mgrwt>
<rscale>  2 0.28715121E+02</rscale>
<asrwt>0</asrwt>
<pdfrwt beam="1">  1       21 0.19133973E-02 0.28715121E+02</pdfrwt>
<pdfrwt beam="2">  1       21 0.16748120E-01 0.28715121E+02</pdfrwt>
<totfact> 0.32880302E+07</totfact>
</mgrwt>
</event>
<event>
 4    1  0.4619222E+006  0.3376452E+02  0.7546771E-02  0.1559854E+00
         21   -1    0    0  503  501  0.00000000000E+00  0.00000000000E+00  0.19693894644E+02  0.19693894644E+02  0.00000000000E+00 0.  1.
         21   -1    0    0  504  502 -0.00000000000E+00 -0.00000000000E+00 -0.57894303383E+02  0.57894303383E+02  0.00000000000E+00 0.  1.
         21    1    1    2  503  502  0.33762323417E+02  0.38488336663E+00 -0.19500993405E+02  0.38991426769E+02  0.00000000000E+00 0.  1.
         21    1    1    2  504  501 -0.33762323417E+02 -0.38488336663E+00 -0.18699415335E+02  0.38596771258E+02  0.00000000000E+00 0.  1.
<mgrwt>
<rscale>  2 0.33764517E+02</rscale>
<asrwt>0</asrwt>
<pdfrwt beam="1">  1       21 0.30298299E-02 0.33764517E+02</pdfrwt>
<pdfrwt beam="2">  1       21 0.89068160E-02 0.33764517E+02</pdfrwt>
<totfact> 0.48476265E+07</totfact>
</mgrwt>
</event>
<event>
 4    1  0.4619222E+006  0.2649335E+02  0.7546771E-02  0.1640435E+00
         21   -1    0    0  502  501  0.00000000000E+00  0.00000000000E+00  0.17082598699E+03  0.17082598699E+03  0.00000000000E+00 0. -1.
         21   -1    0    0  503  502 -0.00000000000E+00 -0.00000000000E+00 -0.19522380382E+02  0.19522380382E+02  0.00000000000E+00 0. -1.
         21    1    1    2  503  504  0.26485802344E+02 -0.63220284043E+00 -0.89157790613E+01  0.27953327575E+02  0.00000000000E+00 0. -1.
         21    1    1    2  504  501 -0.26485802344E+02  0.63220284043E+00  0.16021938567E+03  0.16239503980E+03  0.00000000000E+00 0. -1.
<mgrwt>
<rscale>  2 0.26493346E+02</rscale>
<asrwt>0</asrwt>
<pdfrwt beam="1">  1       21 0.26280920E-01 0.26493346E+02</pdfrwt>
<pdfrwt beam="2">  1       21 0.30034432E-02 0.26493346E+02</pdfrwt>
<totfact> 0.72495766E+06</totfact>
</mgrwt>
</event>
<event>
 4    1  0.4619222E+006  0.2076955E+02  0.7546771E-02  0.1730444E+00
         21   -1    0    0  504  501  0.00000000000E+00  0.00000000000E+00  0.19931134894E+02  0.19931134894E+02  0.00000000000E+00 0.  1.
         21   -1    0    0  503  502 -0.00000000000E+00 -0.00000000000E+00 -0.19068861275E+03  0.19068861275E+03  0.00000000000E+00 0.  1.
         21    1    1    2  503  501 -0.10534911991E+02  0.17899432932E+02  0.13774835210E+02  0.24922282300E+02  0.00000000000E+00 0.  1.
         21    1    1    2  504  502  0.10534911991E+02 -0.17899432932E+02 -0.18453231307E+03  0.18569746535E+03  0.00000000000E+00 0.  1.
<mgrwt>
<rscale>  2 0.20769547E+02</rscale>
<asrwt>0</asrwt>
<pdfrwt beam="1">  1       21 0.30663284E-02 0.20769547E+02</pdfrwt>
<pdfrwt beam="2">  1       21 0.29336710E-01 0.20769547E+02</pdfrwt>
<totfact> 0.55271098E+06</totfact>
</mgrwt>
</event>
<event>
 4    1  0.4619222E+006  0.2399739E+02  0.7546771E-02  0.1675835E+00
         21   -1    0    0  504  501  0.00000000000E+00  0.00000000000E+00  0.78859173642E+03  0.78859173642E+03  0.00000000000E+00 0.  1.
         21   -1    0    0  503  502 -0.00000000000E+00 -0.00000000000E+00 -0.25520918519E+01  0.25520918519E+01  0.00000000000E+00 0.  1.
         21    1    1    2  503  501 -0.14715057080E+01 -0.23952228409E+02  0.58800302771E+02  0.63508662250E+02  0.00000000000E+00 0.  1.
         21    1    1    2  504  502  0.14715057080E+01  0.23952228409E+02  0.72723934180E+03  0.72763516602E+03  0.00000000000E+00 0.  1.
<mgrwt>
<rscale>  2 0.23997387E+02</rscale>
<asrwt>0</asrwt>
<pdfrwt beam="1">  1       21 0.12132161E+00 0.23997387E+02</pdfrwt>
<pdfrwt beam="2">  1       21 0.39263015E-03 0.23997387E+02</pdfrwt>
<totfact> 0.72148195E+06</totfact>
</mgrwt>
</event>
<event>
 4    1  0.4619222E+006  0.2140273E+02  0.7546771E-02  0.1718791E+00
         21   -1    0    0  503  501  0.00000000000E+00  0.00000000000E+00  0.28869857303E+02  0.28869857303E+02  0.00000000000E+00 0. -1.
         21   -1    0    0  504  502 -0.00000000000E+00 -0.00000000000E+00 -0.16656704717E+02  0.16656704717E+02  0.00000000000E+00 0. -1.
         21    1    1    2  503  502  0.20899835606E+02 -0.46123624237E+01  0.11063158406E+02  0.24092955182E+02  0.00000000000E+00 0. -1.
         21    1    1    2  504  501 -0.20899835606E+02  0.46123624237E+01  0.11499941803E+01  0.21433606838E+02  0.00000000000E+00 0. -1.
<mgrwt>
<rscale>  2 0.21402734E+02</rscale>
<asrwt>0</asrwt>
<pdfrwt beam="1">  1       21 0.44415165E-02 0.21402734E+02</pdfrwt>
<pdfrwt beam="2">  1       21 0.25625700E-02 0.21402734E+02</pdfrwt>
<totfact> 0.17274638E+08</totfact>
</mgrwt>
</event>
<event>
 4    1  0.4619222E+006  0.2415440E+02  0.7546771E-02  0.1673453E+00
         21   -1    0    0  503  501  0.00000000000E+00  0.00000000000E+00  0.21252026182E+03  0.21252026182E+03  0.00000000000E+00 0. -1.
         21   -1    0    0  504  502 -0.00000000000E+00 -0.00000000000E+00 -0.14002913377E+02  0.14002913377E+02  0.00000000000E+00 0.  1.
         21    1    1    2  503  502  0.14500026810E+02  0.19317977249E+02 -0.22951594711E+01  0.24263198047E+02  0.00000000000E+00 0.  1.
         21    1    1    2  504  501 -0.14500026810E+02 -0.19317977249E+02  0.20081250792E+03  0.20225997715E+03  0.00000000000E+00 0. -1.
<mgrwt>
<rscale>  2 0.24154400E+02</rscale>
<asrwt>0</asrwt>
<pdfrwt beam="1">  1       21 0.32695422E-01 0.24154400E+02</pdfrwt>
<pdfrwt beam="2">  1       21 0.21542945E-02 0.24154400E+02</pdfrwt>
<totfact> 0.80378464E+06</totfact>
</mgrwt>
</event>
<event>
 4    1  0.4619222E+006  0.2732271E+02  0.7546771E-02  0.1629719E+00
         21   -1    0    0  504  501  0.00000000000E+00  0.00000000000E+00  0.16112681157E+01  0.16112681157E+01  0.00000000000E+00 0.  1.
         21   -1    0    0  503  502 -0.00000000000E+00 -0.00000000000E+00 -0.50824700781E+03  0.50824700781E+03  0.00000000000E+00 0.  1.
         21    1    1    2  503  501 -0.22230759307E+02 -0.15884712328E+02 -0.17752265230E+03  0.17961298067E+03  0.00000000000E+00 0.  1.
         21    1    1    2  504  502  0.22230759307E+02  0.15884712328E+02 -0.32911308739E+03  0.33024529526E+03  0.00000000000E+00 0.  1.
<mgrwt>
<rscale>  2 0.27322715E+02</rscale>
<asrwt>0</asrwt>
<pdfrwt beam="1">  1       21 0.24788739E-03 0.27322715E+02</pdfrwt>
<pdfrwt beam="2">  1       21 0.78191851E-01 0.27322715E+02</pdfrwt>
<totfact> 0.37785115E+07</totfact>
</mgrwt>
</event>
<event>
 4    1  0.4619222E+006  0.2686503E+02  0.7546771E-02  0.1635574E+00
         21   -1    0    0  504  501  0.00000000000E+00  0.00000000000E+00  0.31871917189E+01  0.31871917189E+01  0.00000000000E+00 0.  1.
         21   -1    0    0  503  502 -0.00000000000E+00 -0.00000000000E+00 -0.29917815371E+03  0.29917815371E+03  0.00000000000E+00 0. -1.
         21    1    1    2  503  501  0.21563825721E+02 -0.16022838156E+02 -0.73454106933E+02  0.78212759494E+02  0.00000000000E+00 0.  1.
         21    1    1    2  504  502 -0.21563825721E+02  0.16022838156E+02 -0.22253685506E+03  0.22415258593E+03  0.00000000000E+00 0. -1.
<mgrwt>
<rscale>  2 0.26865032E+02</rscale>
<asrwt>0</asrwt>
<pdfrwt beam="1">  1       21 0.49033723E-03 0.26865032E+02</pdfrwt>
<pdfrwt beam="2">  1       21 0.46027404E-01 0.26865032E+02</pdfrwt>
<totfact> 0.40186036E+07</totfact>
</mgrwt>
</event>
<event>
 4    1  0.4619222E+006  0.2257017E+02  0.7546771E-02  0.1698574E+00
         21   -1    0    0  504  501  0.00000000000E+00  0.00000000000E+00  0.93534843403E+01  0.93534843403E+01  0.00000000000E+00 0.  1.
         21   -1    0    0  501  502 -0.00000000000E+00 -0.00000000000E+00 -0.80152734920E+02  0.80152734920E+02  0.00000000000E+00 0. -1.
         21    1    1    2  503  502  0.16042359362E+01  0.22513087406E+02 -0.60736287689E+02  0.64794361790E+02  0.00000000000E+00 0. -1.
         21    1    1    2  504  503 -0.16042359362E+01 -0.22513087406E+02 -0.10062962890E+02  0.24711857470E+02  0.00000000000E+00 0.  1.
<mgrwt>
<rscale>  2 0.22570172E+02</rscale>
<asrwt>0</asrwt>
<pdfrwt beam="1">  1       21 0.14389976E-02 0.22570172E+02</pdfrwt>
<pdfrwt beam="2">  1       21 0.12331190E-01 0.22570172E+02</pdfrwt>
<totfact> 0.80853809E+07</totfact>
</mgrwt>
</event>
<event>
 4    1  0.4619222E+006  0.2755032E+02  0.7546771E-02  0.1626860E+00
         21   -1    0    0  504  501  0.00000000000E+00  0.00000000000E+00  0.43333991056E+02  0.43333991056E+02  0.00000000000E+00 0. -1.
         21   -1    0    0  503  502 -0.00000000000E+00 -0.00000000000E+00 -0.22754421753E+02  0.22754421753E+02  0.00000000000E+00 0. -1.
         21    1    1    2  503  501 -0.26987483009E+02 -0.55403775263E+01  0.26145287898E+02  0.37981523160E+02  0.00000000000E+00 0. -1.
         21    1    1    2  504  502  0.26987483009E+02  0.55403775263E+01 -0.55657185950E+01  0.28106889649E+02  0.00000000000E+00 0. -1.
<mgrwt>
<rscale>  2 0.27550318E+02</rscale>
<asrwt>0</asrwt>
<pdfrwt beam="1">  1       21 0.66667678E-02 0.27550318E+02</pdfrwt>
<pdfrwt beam="2">  1       21 0.35006803E-02 0.27550318E+02</pdfrwt>
<totfact> 0.59413501E+07</totfact>
</mgrwt>
</event>
<event>
 4    1  0.4619222E+006  0.2632707E+02  0.7546771E-02  0.1642641E+00
         21   -1    0    0  502  501  0.00000000000E+00  0.00000000000E+00  0.58403053154E+02  0.58403053154E+02  0.00000000000E+00 0. -1.
         21   -1    0    0  503  502 -0.00000000000E+00 -0.00000000000E+00 -0.75263756354E+02  0.75263756354E+02  0.00000000000E+00 0. -1.
         21    1    1    2  503  504 -0.88537905225E+01 -0.24793647320E+02 -0.69768617055E+02  0.74570600640E+02  0.00000000000E+00 0. -1.
         21    1    1    2  504  501  0.88537905225E+01  0.24793647320E+02  0.52907913856E+02  0.59096208868E+02  0.00000000000E+00 0. -1.
<mgrwt>
<rscale>  2 0.26327069E+02</rscale>
<asrwt>0</asrwt>
<pdfrwt beam="1">  1       21 0.89850851E-02 0.26327069E+02</pdfrwt>
<pdfrwt beam="2">  1       21 0.11579039E-01 0.26327069E+02</pdfrwt>
<totfact> 0.51762060E+06</totfact>
</mgrwt>
</event>
<event>
 4    1  0.4619222E+006  0.2073149E+02  0.7546771E-02  0.1731161E+00
         21   -1    0    0  502  501  0.00000000000E+00  0.00000000000E+00  0.80878003336E+01  0.80878003336E+01  0.00000000000E+00 0. -1.
         21   -1    0    0  504  502 -0.00000000000E+00 -0.00000000000E+00 -0.91850938945E+02  0.91850938945E+02  0.00000000000E+00 0. -1.
         21    1    1    2  503  501 -0.16044869329E+02  0.13128477364E+02 -0.94421812090E+01  0.22780463903E+02  0.00000000000E+00 0. -1.
         21    1    1    2  504  503  0.16044869329E+02 -0.13128477364E+02 -0.74320957402E+02  0.77158275375E+02  0.00000000000E+00 0. -1.
<mgrwt>
<rscale>  2 0.20731492E+02</rscale>
<asrwt>0</asrwt>
<pdfrwt beam="1">  1       21 0.12442769E-02 0.20731492E+02</pdfrwt>
<pdfrwt beam="2">  1       21 0.14130914E-01 0.20731492E+02</pdfrwt>
<totfact> 0.78232820E+07</totfact>
</mgrwt>
</event>
<event>
 4    1  0.4619222E+006  0.2438294E+02  0.7546771E-02  0.1670026E+00
         21   -1    0    0  504  501  0.00000000000E+00  0.00000000000E+00  0.10169787490E+02  0.10169787490E+02  0.00000000000E+00 0.  1.
         21   -1    0    0  503  502 -0.00000000000E+00 -0.00000000000E+00 -0.75360849699E+02  0.75360849699E+02  0.00000000000E+00 0.  1.
         21    1    1    2  503  501 -0.54139145697E+01 -0.23774304000E+02 -0.52847641090E+02  0.58201384609E+02  0.00000000000E+00 0.  1.
         21    1    1    2  504  502  0.54139145697E+01  0.23774304000E+02 -0.12343421119E+02  0.27329252580E+02  0.00000000000E+00 0.  1.
<mgrwt>
<rscale>  2 0.24382945E+02</rscale>
<asrwt>0</asrwt>
<pdfrwt beam="1">  1       21 0.15645827E-02 0.24382945E+02</pdfrwt>
<pdfrwt beam="2">  1       21 0.11593977E-01 0.24382945E+02</pdfrwt>
<totfact> 0.80627010E+07</totfact>
</mgrwt>
</event>
<event>
 4    1  0.4619222E+006  0.2259591E+02  0.7546771E-02  0.1698145E+00
         21   -1    0    0  503  501  0.00000000000E+00  0.00000000000E+00  0.80740726034E+03  0.80740726034E+03  0.00000000000E+00 0.  1.
         21   -1    0    0  504  502 -0.00000000000E+00 -0.00000000000E+00 -0.55086630787E+01  0.55086630787E+01  0.00000000000E+00 0.  1.
         21    1    1    2  503  502 -0.20227657286E+02  0.10070611861E+02  0.78336674185E+03  0.78369255935E+03  0.00000000000E+00 0.  1.
         21    1    1    2  504  501  0.20227657286E+02 -0.10070611861E+02  0.18531855411E+02  0.29223364069E+02  0.00000000000E+00 0.  1.
<mgrwt>
<rscale>  2 0.22595914E+02</rscale>
<asrwt>0</asrwt>
<pdfrwt beam="1">  1       21 0.12421641E+00 0.22595914E+02</pdfrwt>
<pdfrwt beam="2">  1       21 0.84748727E-03 0.22595914E+02</pdfrwt>
<totfact> 0.21714333E+06</totfact>
</mgrwt>
</event>
<event>
 4    1  0.4619222E+006  0.3061956E+02  0.7546771E-02  0.1591340E+00
         21   -1    0    0  504  501  0.00000000000E+00  0.00000000000E+00  0.63500836612E+02  0.63500836612E+02  0.00000000000E+00 0.  1.
         21   -1    0    0  503  502 -0.00000000000E+00 -0.00000000000E+00 -0.83155950546E+02  0.83155950546E+02  0.00000000000E+00 0.  1.
         21    1    1    2  503  501 -0.12855407324E+02 -0.27790213436E+02  0.56673177877E+02  0.64415887411E+02  0.00000000000E+00 0.  1.
         21    1    1    2  504  502  0.12855407324E+02  0.27790213436E+02 -0.76328291812E+02  0.82240899747E+02  0.00000000000E+00 0.  1.
<mgrwt>
<rscale>  2 0.30619560E+02</rscale>
<asrwt>0</asrwt>
<pdfrwt beam="1">  1       21 0.97693594E-02 0.30619560E+02</pdfrwt>
<pdfrwt beam="2">  1       21 0.12793223E-01 0.30619560E+02</pdfrwt>
<totfact> 0.38861374E+06</totfact>
</mgrwt>
</event>
<event>
 4    1  0.4619222E+006  0.5407086E+02  0.7546771E-02  0.1424545E+00
         21   -1    0    0  502  501  0.00000000000E+00  0.00000000000E+00  0.13410547900E+03  0.13410547900E+03  0.00000000000E+00 0. -1.
         21   -1    0    0  504  502 -0.00000000000E+00 -0.00000000000E+00 -0.42484318556E+03  0.42484318556E+03  0.00000000000E+00 0. -1.
         21    1    1    2  503  501  0.39932128407E+02  0.36456585719E+02  0.12684031913E+03  0.13788445916E+03  0.00000000000E+00 0. -1.
         21    1    1    2  504  503 -0.39932128407E+02 -0.36456585719E+02 -0.41757802570E+03  0.42106420540E+03  0.00000000000E+00 0. -1.
<mgrwt>
<rscale>  2 0.54070856E+02</rscale>
<asrwt>0</asrwt>
<pdfrwt beam="1">  1       21 0.20631612E-01 0.54070856E+02</pdfrwt>
<pdfrwt beam="2">  1       21 0.65360490E-01 0.54070856E+02</pdfrwt>
<totfact> 0.51367043E+04</totfact>
</mgrwt>
</event>
<event>
 4    1  0.4619222E+006  0.2261681E+02  0.7546771E-02  0.1697798E+00
         21   -1    0    0  503  501  0.00000000000E+00  0.00000000000E+00  0.13895843450E+02  0.13895843450E+02  0.00000000000E+00 0.  1.
         21   -1    0    0  504  502 -0.00000000000E+00 -0.00000000000E+00 -0.73624082935E+02  0.73624082935E+02  0.00000000000E+00 0. -1.
         21    1    1    2  503  502 -0.19727432484E+02  0.11061126233E+02  0.10792782513E+01  0.22642547283E+02  0.00000000000E+00 0.  1.
         21    1    1    2  504  501  0.19727432484E+02 -0.11061126233E+02 -0.60807517736E+02  0.64877379102E+02  0.00000000000E+00 0. -1.
<mgrwt>
<rscale>  2 0.22616810E+02</rscale>
<asrwt>0</asrwt>
<pdfrwt beam="1">  1       21 0.21378220E-02 0.22616810E+02</pdfrwt>
<pdfrwt beam="2">  1       21 0.11326782E-01 0.22616810E+02</pdfrwt>
<totfact> 0.50949761E+07</totfact>
</mgrwt>
</event>
<event>
 4    1  0.4619222E+006  0.3093798E+02  0.7546771E-02  0.1587946E+00
         21   -1    0    0  504  501  0.00000000000E+00  0.00000000000E+00  0.18586836572E+03  0.18586836572E+03  0.00000000000E+00 0.  1.
         21   -1    0    0  503  502 -0.00000000000E+00 -0.00000000000E+00 -0.22458530978E+02  0.22458530978E+02  0.00000000000E+00 0.  1.
         21    1    1    2  503  501 -0.30884897172E+02  0.18115902033E+01 -0.97398915928E+01  0.32434922856E+02  0.00000000000E+00 0.  1.
         21    1    1    2  504  502  0.30884897172E+02 -0.18115902033E+01  0.17314972634E+03  0.17589197385E+03  0.00000000000E+00 0.  1.
<mgrwt>
<rscale>  2 0.30937982E+02</rscale>
<asrwt>0</asrwt>
<pdfrwt beam="1">  1       21 0.28595132E-01 0.30937982E+02</pdfrwt>
<pdfrwt beam="2">  1       21 0.34551587E-02 0.30937982E+02</pdfrwt>
<totfact> 0.51014113E+06</totfact>
</mgrwt>
</event>
<event>
 4    1  0.4619222E+006  0.4437547E+02  0.7546771E-02  0.1478279E+00
         21   -1    0    0  502  501  0.00000000000E+00  0.00000000000E+00  0.24385812006E+02  0.24385812006E+02  0.00000000000E+00 0. -1.
         21   -1    0    0  504  502 -0.00000000000E+00 -0.00000000000E+00 -0.20455577663E+03  0.20455577663E+03  0.00000000000E+00 0. -1.
         21    1    1    2  503  501  0.43752582065E+02  0.74090432334E+01 -0.10301972325E+01  0.44387426884E+02  0.00000000000E+00 0. -1.
         21    1    1    2  504  503 -0.43752582065E+02 -0.74090432334E+01 -0.17913976739E+03  0.18455416175E+03  0.00000000000E+00 0. -1.
<mgrwt>
<rscale>  2 0.44375470E+02</rscale>
<asrwt>0</asrwt>
<pdfrwt beam="1">  1       21 0.37516635E-02 0.44375470E+02</pdfrwt>
<pdfrwt beam="2">  1       21 0.31470119E-01 0.44375470E+02</pdfrwt>
<totfact> 0.38990492E+06</totfact>
</mgrwt>
</event>
<event>
 4    1  0.4619222E+006  0.2523093E+02  0.7546771E-02  0.1657707E+00
         21   -1    0    0  503  501  0.00000000000E+00  0.00000000000E+00  0.12559654860E+03  0.12559654860E+03  0.00000000000E+00 0. -1.
         21   -1    0    0  504  502 -0.00000000000E+00 -0.00000000000E+00 -0.52478244121E+01  0.52478244121E+01  0.00000000000E+00 0.  1.
         21    1    1    2  503  502  0.23540122405E+02  0.90808863577E+01  0.72264255575E+02  0.76542292190E+02  0.00000000000E+00 0. -1.
         21    1    1    2  504  501 -0.23540122405E+02 -0.90808863577E+01  0.48084468616E+02  0.54302080825E+02  0.00000000000E+00 0.  1.
<mgrwt>
<rscale>  2 0.25230931E+02</rscale>
<asrwt>0</asrwt>
<pdfrwt beam="1">  1       21 0.19322544E-01 0.25230931E+02</pdfrwt>
<pdfrwt beam="2">  1       21 0.80735770E-03 0.25230931E+02</pdfrwt>
<totfact> 0.92355966E+07</totfact>
</mgrwt>
</event>
<event>
 4    1  0.4619222E+006  0.3233106E+02  0.7546771E-02  0.1573665E+00
         21   -1    0    0  503  501  0.00000000000E+00  0.00000000000E+00  0.30660631150E+03  0.30660631150E+03  0.00000000000E+00 0. -1.
         21   -1    0    0  504  502 -0.00000000000E+00 -0.00000000000E+00 -0.37669101473E+01  0.37669101473E+01  0.00000000000E+00 0. -1.
         21    1    1    2  503  502  0.32250114134E+02 -0.22863675979E+01  0.19923835463E+03  0.20184454240E+03  0.00000000000E+00 0. -1.
         21    1    1    2  504  501 -0.32250114134E+02  0.22863675979E+01  0.10360104672E+03  0.10852867925E+03  0.00000000000E+00 0. -1.
<mgrwt>
<rscale>  2 0.32331058E+02</rscale>
<asrwt>0</asrwt>
<pdfrwt beam="1">  1       21 0.47170182E-01 0.32331058E+02</pdfrwt>
<pdfrwt beam="2">  1       21 0.57952488E-03 0.32331058E+02</pdfrwt>
<totfact> 0.30967141E+07</totfact>
</mgrwt>
</event>
<event>
 4    1  0.4619222E+006  0.2269140E+02  0.7546771E-02  0.1696562E+00
         21   -1    0    0  503  501  0.00000000000E+00  0.00000000000E+00  0.26796358207E+01  0.26796358207E+01  0.00000000000E+00 0.  1.
         21   -1    0    0  504  502 -0.00000000000E+00 -0.00000000000E+00 -0.19580341757E+03  0.19580341757E+03  0.00000000000E+00 0.  1.
         21    1    1    2  503  502  0.17100149835E+02 -0.14915912051E+02 -0.11011271754E+03  0.11242646539E+03  0.00000000000E+00 0.  1.
         21    1    1    2  504  501 -0.17100149835E+02  0.14915912051E+02 -0.83011064214E+02  0.86056588002E+02  0.00000000000E+00 0.  1.
<mgrwt>
<rscale>  2 0.22691398E+02</rscale>
<asrwt>0</asrwt>
<pdfrwt beam="1">  1       21 0.41225140E-03 0.22691398E+02</pdfrwt>
<pdfrwt beam="2">  1       21 0.30123622E-01 0.22691398E+02</pdfrwt>
<totfact> 0.11027955E+08</totfact>
</mgrwt>
</event>
<event>
 4    1  0.4619222E+006  0.3034253E+02  0.7546771E-02  0.1594333E+00
         21   -1    0    0  504  501  0.00000000000E+00  0.00000000000E+00  0.73644685926E+02  0.73644685926E+02  0.00000000000E+00 0. -1.
         21   -1    0    0  501  502 -0.00000000000E+00 -0.00000000000E+00 -0.15293170306E+02  0.15293170306E+02  0.00000000000E+00 0. -1.
         21    1    1    2  503  502 -0.29928022559E+02  0.49982606851E+01  0.10176359235E+02  0.32003553419E+02  0.00000000000E+00 0. -1.
         21    1    1    2  504  503  0.29928022559E+02 -0.49982606851E+01  0.48175156384E+02  0.56934302813E+02  0.00000000000E+00 0. -1.
<mgrwt>
<rscale>  2 0.30342530E+02</rscale>
<asrwt>0</asrwt>
<pdfrwt beam="1">  1       21 0.11329951E-01 0.30342530E+02</pdfrwt>
<pdfrwt beam="2">  1       21 0.23527955E-02 0.30342530E+02</pdfrwt>
<totfact> 0.47081013E+07</totfact>
</mgrwt>
</event>
<event>
 4    1  0.4619222E+006  0.3332017E+02  0.7546771E-02  0.1564045E+00
         21   -1    0    0  502  501  0.00000000000E+00  0.00000000000E+00  0.20300652316E+03  0.20300652316E+03  0.00000000000E+00 0. -1.
         21   -1    0    0  503  502 -0.00000000000E+00 -0.00000000000E+00 -0.90344141056E+01  0.90344141056E+01  0.00000000000E+00 0. -1.
         21    1    1    2  503  504 -0.20453019982E+02 -0.26304132847E+02  0.30382488042E+02  0.45092449599E+02  0.00000000000E+00 0. -1.
         21    1    1    2  504  501  0.20453019982E+02  0.26304132847E+02  0.16358962101E+03  0.16694848767E+03  0.00000000000E+00 0. -1.
<mgrwt>
<rscale>  2 0.33320166E+02</rscale>
<asrwt>0</asrwt>
<pdfrwt beam="1">  1       21 0.31231769E-01 0.33320166E+02</pdfrwt>
<pdfrwt beam="2">  1       21 0.13899100E-02 0.33320166E+02</pdfrwt>
<totfact> 0.18118536E+07</totfact>
</mgrwt>
</event>
<event>
 4    1  0.4619222E+006  0.2738809E+02  0.7546771E-02  0.1628895E+00
         21   -1    0    0  503  501  0.00000000000E+00  0.00000000000E+00  0.38709476757E+02  0.38709476757E+02  0.00000000000E+00 0. -1.
         21   -1    0    0  501  502 -0.00000000000E+00 -0.00000000000E+00 -0.25030638495E+02  0.25030638495E+02  0.00000000000E+00 0. -1.
         21    1    1    2  503  504 -0.24857472454E+02 -0.11498414244E+02  0.21984696383E+02  0.35120283911E+02  0.00000000000E+00 0. -1.
         21    1    1    2  504  502  0.24857472454E+02  0.11498414244E+02 -0.83058581211E+01  0.28619831342E+02  0.00000000000E+00 0. -1.
<mgrwt>
<rscale>  2 0.27388090E+02</rscale>
<asrwt>0</asrwt>
<pdfrwt beam="1">  1       21 0.59553041E-02 0.27388090E+02</pdfrwt>
<pdfrwt beam="2">  1       21 0.38508675E-02 0.27388090E+02</pdfrwt>
<totfact> 0.61277219E+07</totfact>
</mgrwt>
</event>
<event>
 4    1  0.4619222E+006  0.2383219E+02  0.7546771E-02  0.1678365E+00
         21   -1    0    0  504  501  0.00000000000E+00  0.00000000000E+00  0.56352075420E+02  0.56352075420E+02  0.00000000000E+00 0. -1.
         21   -1    0    0  503  502 -0.00000000000E+00 -0.00000000000E+00 -0.22207222393E+03  0.22207222393E+03  0.00000000000E+00 0.  1.
         21    1    1    2  503  501  0.16753359877E+02 -0.16949870175E+02  0.53156238600E+02  0.58254260515E+02  0.00000000000E+00 0. -1.
         21    1    1    2  504  502 -0.16753359877E+02  0.16949870175E+02 -0.21887638711E+03  0.22017003884E+03  0.00000000000E+00 0.  1.
<mgrwt>
<rscale>  2 0.23832188E+02</rscale>
<asrwt>0</asrwt>
<pdfrwt beam="1">  1       21 0.86695501E-02 0.23832188E+02</pdfrwt>
<pdfrwt beam="2">  1       21 0.34164957E-01 0.23832188E+02</pdfrwt>
<totfact> 0.81256116E+05</totfact>
</mgrwt>
</event>
<event>
 4    1  0.4619222E+006  0.2240187E+02  0.7546771E-02  0.1701393E+00
         21   -1    0    0  504  501  0.00000000000E+00  0.00000000000E+00  0.99746483484E+02  0.99746483484E+02  0.00000000000E+00 0.  1.
         21   -1    0    0  503  502 -0.00000000000E+00 -0.00000000000E+00 -0.51096740911E+01  0.51096740911E+01  0.00000000000E+00 0.  1.
         21    1    1    2  503  501  0.57772882823E+01 -0.21644090177E+02  0.40820805629E+02  0.46563739881E+02  0.00000000000E+00 0.  1.
         21    1    1    2  504  502 -0.57772882823E+01  0.21644090177E+02  0.53816003764E+02  0.58292417694E+02  0.00000000000E+00 0.  1.
<mgrwt>
<rscale>  2 0.22401868E+02</rscale>
<asrwt>0</asrwt>
<pdfrwt beam="1">  1       21 0.15345611E-01 0.22401868E+02</pdfrwt>
<pdfrwt beam="2">  1       21 0.78610378E-03 0.22401868E+02</pdfrwt>
<totfact> 0.13837811E+08</totfact>
</mgrwt>
</event>
<event>
 4    1  0.4619222E+006  0.4058186E+02  0.7546771E-02  0.1503973E+00
         21   -1    0    0  504  501  0.00000000000E+00  0.00000000000E+00  0.21911544072E+02  0.21911544072E+02  0.00000000000E+00 0.  1.
         21   -1    0    0  501  502 -0.00000000000E+00 -0.00000000000E+00 -0.11104773852E+03  0.11104773852E+03  0.00000000000E+00 0. -1.
         21    1    1    2  503  502 -0.19938374175E+02  0.35346126415E+02 -0.82360325638E+02  0.91815634052E+02  0.00000000000E+00 0. -1.
         21    1    1    2  504  503  0.19938374175E+02 -0.35346126415E+02 -0.67758688150E+01  0.41143648544E+02  0.00000000000E+00 0.  1.
<mgrwt>
<rscale>  2 0.40581861E+02</rscale>
<asrwt>0</asrwt>
<pdfrwt beam="1">  1       21 0.33710068E-02 0.40581861E+02</pdfrwt>
<pdfrwt beam="2">  1       21 0.17084267E-01 0.40581861E+02</pdfrwt>
<totfact> 0.13870922E+07</totfact>
</mgrwt>
</event>
<event>
 4    1  0.4619222E+006  0.2469804E+02  0.7546771E-02  0.1665377E+00
         21   -1    0    0  503  501  0.00000000000E+00  0.00000000000E+00  0.12259553076E+02  0.12259553076E+02  0.00000000000E+00 0.  1.
         21   -1    0    0  504  502 -0.00000000000E+00 -0.00000000000E+00 -0.83725298822E+02  0.83725298822E+02  0.00000000000E+00 0.  1.
         21    1    1    2  503  502 -0.12783835079E+02 -0.21132130741E+02 -0.66302064691E+02  0.70752789141E+02  0.00000000000E+00 0.  1.
         21    1    1    2  504  501  0.12783835079E+02  0.21132130741E+02 -0.51636810554E+01  0.25232062758E+02  0.00000000000E+00 0.  1.
<mgrwt>
<rscale>  2 0.24698044E+02</rscale>
<asrwt>0</asrwt>
<pdfrwt beam="1">  1       21 0.18860852E-02 0.24698044E+02</pdfrwt>
<pdfrwt beam="2">  1       21 0.12880814E-01 0.24698044E+02</pdfrwt>
<totfact> 0.50912563E+07</totfact>
</mgrwt>
</event>
<event>
 4    1  0.4619222E+006  0.2205278E+02  0.7546771E-02  0.1707341E+00
         21   -1    0    0  504  501  0.00000000000E+00  0.00000000000E+00  0.14362719576E+01  0.14362719576E+01  0.00000000000E+00 0.  1.
         21   -1    0    0  501  502 -0.00000000000E+00 -0.00000000000E+00 -0.44490853557E+03  0.44490853557E+03  0.00000000000E+00 0.  1.
         21    1    1    2  503  502 -0.18793889472E+02  0.11537541913E+02 -0.33082595932E+03  0.33156016123E+03  0.00000000000E+00 0.  1.
         21    1    1    2  504  503  0.18793889472E+02 -0.11537541913E+02 -0.11264630429E+03  0.11478464629E+03  0.00000000000E+00 0.  1.
<mgrwt>
<rscale>  2 0.22052781E+02</rscale>
<asrwt>0</asrwt>
<pdfrwt beam="1">  1       21 0.22096483E-03 0.22052781E+02</pdfrwt>
<pdfrwt beam="2">  1       21 0.68447493E-01 0.22052781E+02</pdfrwt>
<totfact> 0.56171586E+07</totfact>
</mgrwt>
</event>
<event>
 4    1  0.4619222E+006  0.4345832E+02  0.7546771E-02  0.1484202E+00
         21   -1    0    0  504  501  0.00000000000E+00  0.00000000000E+00  0.29235225352E+03  0.29235225352E+03  0.00000000000E+00 0. -1.
         21   -1    0    0  503  502 -0.00000000000E+00 -0.00000000000E+00 -0.41174430991E+02  0.41174430991E+02  0.00000000000E+00 0.  1.
         21    1    1    2  503  501  0.18822750727E+02  0.39170525427E+02  0.27871216947E+03  0.28207995217E+03  0.00000000000E+00 0. -1.
         21    1    1    2  504  502 -0.18822750727E+02 -0.39170525427E+02 -0.27534346939E+02  0.51446732340E+02  0.00000000000E+00 0.  1.
<mgrwt>
<rscale>  2 0.43458325E+02</rscale>
<asrwt>0</asrwt>
<pdfrwt beam="1">  1       21 0.44977268E-01 0.43458325E+02</pdfrwt>
<pdfrwt beam="2">  1       21 0.63345280E-02 0.43458325E+02</pdfrwt>
<totfact> 0.83668462E+05</totfact>
</mgrwt>
</event>
<event>
 4    1  0.4619222E+006  0.2227111E+02  0.7546771E-02  0.1703605E+00
         21   -1    0    0  504  501  0.00000000000E+00  0.00000000000E+00  0.19651219942E+03  0.19651219942E+03  0.00000000000E+00 0. -1.
         21   -1    0    0  503  502 -0.00000000000E+00 -0.00000000000E+00 -0.18544934450E+02  0.18544934450E+02  0.00000000000E+00 0. -1.
         21    1    1    2  503  501 -0.14375817945E+02  0.17009939410E+02 -0.10959914085E+02  0.24821802857E+02  0.00000000000E+00 0. -1.
         21    1    1    2  504  502  0.14375817945E+02 -0.17009939410E+02  0.18892717905E+03  0.19023533101E+03  0.00000000000E+00 0. -1.
<mgrwt>
<rscale>  2 0.22271106E+02</rscale>
<asrwt>0</asrwt>
<pdfrwt beam="1">  1       21 0.30232645E-01 0.22271106E+02</pdfrwt>
<pdfrwt beam="2">  1       21 0.28530670E-02 0.22271106E+02</pdfrwt>
<totfact> 0.59232200E+06</totfact>
</mgrwt>
</event>
<event>
 4    1  0.4619222E+006  0.2447743E+02  0.7546771E-02  0.1668623E+00
         21   -1    0    0  504  501  0.00000000000E+00  0.00000000000E+00  0.61919871859E+02  0.61919871859E+02  0.00000000000E+00 0.  1.
         21   -1    0    0  503  502 -0.00000000000E+00 -0.00000000000E+00 -0.28793806556E+03  0.28793806556E+03  0.00000000000E+00 0.  1.
         21    1    1    2  503  501  0.20889252309E+02  0.12758671611E+02 -0.28497371410E+03  0.28602301007E+03  0.00000000000E+00 0.  1.
         21    1    1    2  504  502 -0.20889252309E+02 -0.12758671611E+02  0.58955520401E+02  0.63834927345E+02  0.00000000000E+00 0.  1.
<mgrwt>
<rscale>  2 0.24477430E+02</rscale>
<asrwt>0</asrwt>
<pdfrwt beam="1">  1       21 0.95261341E-02 0.24477430E+02</pdfrwt>
<pdfrwt beam="2">  1       21 0.44298164E-01 0.24477430E+02</pdfrwt>
<totfact> 0.42756586E+05</totfact>
</mgrwt>
</event>
<event>
 4    1  0.4619222E+006  0.2303310E+02  0.7546771E-02  0.1690974E+00
         21   -1    0    0  503  501  0.00000000000E+00  0.00000000000E+00  0.61126283150E+02  0.61126283150E+02  0.00000000000E+00 0. -1.
         21   -1    0    0  504  502 -0.00000000000E+00 -0.00000000000E+00 -0.87577752254E+01  0.87577752254E+01  0.00000000000E+00 0. -1.
         21    1    1    2  503  502  0.10679204150E+02  0.20407803881E+02  0.22873349649E+02  0.32460960932E+02  0.00000000000E+00 0. -1.
         21    1    1    2  504  501 -0.10679204150E+02 -0.20407803881E+02  0.29495158276E+02  0.37423097443E+02  0.00000000000E+00 0. -1.
<mgrwt>
<rscale>  2 0.23033104E+02</rscale>
<asrwt>0</asrwt>
<pdfrwt beam="1">  1       21 0.94040433E-02 0.23033104E+02</pdfrwt>
<pdfrwt beam="2">  1       21 0.13473501E-02 0.23033104E+02</pdfrwt>
<totfact> 0.14097095E+08</totfact>
</mgrwt>
</event>
<event>
 4    1  0.4619222E+006  0.2321928E+02  0.7546771E-02  0.1687980E+00
         21   -1    0    0  504  501  0.00000000000E+00  0.00000000000E+00  0.23999580088E+03  0.23999580088E+03  0.00000000000E+00 0.  1.
         21   -1    0    0  503  502 -0.00000000000E+00 -0.00000000000E+00 -0.50446407504E+02  0.50446407504E+02  0.00000000000E+00 0.  1.
         21    1    1    2  503  501 -0.46674661837E+01 -0.22745318384E+02 -0.47176158094E+02  0.52580648926E+02  0.00000000000E+00 0.  1.
         21    1    1    2  504  502  0.46674661837E+01  0.22745318384E+02  0.23672555147E+03  0.23786155946E+03  0.00000000000E+00 0.  1.
<mgrwt>
<rscale>  2 0.23219275E+02</rscale>
<asrwt>0</asrwt>
<pdfrwt beam="1">  1       21 0.36922430E-01 0.23219275E+02</pdfrwt>
<pdfrwt beam="2">  1       21 0.77609859E-02 0.23219275E+02</pdfrwt>
<totfact> 0.84116334E+05</totfact>
</mgrwt>
</event>
<event>
 4    1  0.4619222E+006  0.2291815E+02  0.7546771E-02  0.1692840E+00
         21   -1    0    0  503  501  0.00000000000E+00  0.00000000000E+00  0.44534558914E+02  0.44534558914E+02  0.00000000000E+00 0.  1.
         21   -1    0    0  504  502 -0.00000000000E+00 -0.00000000000E+00 -0.29857529055E+02  0.29857529055E+02  0.00000000000E+00 0.  1.
         21    1    1    2  503  502  0.21898801874E+02  0.67590034158E+01  0.36270007199E+02  0.42904021640E+02  0.00000000000E+00 0.  1.
         21    1    1    2  504  501 -0.21898801874E+02 -0.67590034158E+01 -0.21592977340E+02  0.31488066329E+02  0.00000000000E+00 0.  1.
<mgrwt>
<rscale>  2 0.22918151E+02</rscale>
<asrwt>0</asrwt>
<pdfrwt beam="1">  1       21 0.68514706E-02 0.22918151E+02</pdfrwt>
<pdfrwt beam="2">  1       21 0.45934660E-02 0.22918151E+02</pdfrwt>
<totfact> 0.35374867E+07</totfact>
</mgrwt>
</event>
<event>
 4    1  0.4619222E+006  0.3604184E+02  0.7546771E-02  0.1539539E+00
         21   -1    0    0  503  501  0.00000000000E+00  0.00000000000E+00  0.48486781011E+02  0.48486781011E+02  0.00000000000E+00 0.  1.
         21   -1    0    0  504  502 -0.00000000000E+00 -0.00000000000E+00 -0.30613108960E+02  0.30613108960E+02  0.00000000000E+00 0.  1.
         21    1    1    2  503  502  0.28708404460E+02  0.21790866084E+02  0.22911386936E+02  0.42707680605E+02  0.00000000000E+00 0.  1.
         21    1    1    2  504  501 -0.28708404460E+02 -0.21790866084E+02 -0.50377148849E+01  0.36392209367E+02  0.00000000000E+00 0.  1.
<mgrwt>
<rscale>  2 0.36041841E+02</rscale>
<asrwt>0</asrwt>
<pdfrwt beam="1">  1       21 0.74595047E-02 0.36041841E+02</pdfrwt>
<pdfrwt beam="2">  1       21 0.47097091E-02 0.36041841E+02</pdfrwt>
<totfact> 0.32599461E+07</totfact>
</mgrwt>
</event>
<event>
 4    1  0.4619222E+006  0.2491791E+02  0.7546771E-02  0.1662184E+00
         21   -1    0    0  503  501  0.00000000000E+00  0.00000000000E+00  0.18508329958E+03  0.18508329958E+03  0.00000000000E+00 0.  1.
         21   -1    0    0  504  502 -0.00000000000E+00 -0.00000000000E+00 -0.10090130991E+02  0.10090130991E+02  0.00000000000E+00 0.  1.
         21    1    1    2  503  502  0.11699340676E+02 -0.22000623899E+02  0.16722707868E+03  0.16907335056E+03  0.00000000000E+00 0.  1.
         21    1    1    2  504  501 -0.11699340676E+02  0.22000623899E+02  0.77660899046E+01  0.26100080012E+02  0.00000000000E+00 0.  1.
<mgrwt>
<rscale>  2 0.24917906E+02</rscale>
<asrwt>0</asrwt>
<pdfrwt beam="1">  1       21 0.28474351E-01 0.24917906E+02</pdfrwt>
<pdfrwt beam="2">  1       21 0.15523280E-02 0.24917906E+02</pdfrwt>
<totfact> 0.17201445E+07</totfact>
</mgrwt>
</event>
<event>
 4    1  0.4619222E+006  0.3504463E+02  0.7546771E-02  0.1548205E+00
         21   -1    0    0  502  501  0.00000000000E+00  0.00000000000E+00  0.16132819526E+03  0.16132819526E+03  0.00000000000E+00 0.  1.
         21   -1    0    0  503  502 -0.00000000000E+00 -0.00000000000E+00 -0.18940431917E+02  0.18940431917E+02  0.00000000000E+00 0. -1.
         21    1    1    2  503  504  0.33349017136E+02 -0.10768883658E+02  0.14881067455E+01  0.35076206478E+02  0.00000000000E+00 0. -1.
         21    1    1    2  504  501 -0.33349017136E+02  0.10768883658E+02  0.14089965659E+03  0.14519242070E+03  0.00000000000E+00 0.  1.
<mgrwt>
<rscale>  2 0.35044626E+02</rscale>
<asrwt>0</asrwt>
<pdfrwt beam="1">  1       21 0.24819721E-01 0.35044626E+02</pdfrwt>
<pdfrwt beam="2">  1       21 0.29139127E-02 0.35044626E+02</pdfrwt>
<totfact> 0.87922442E+06</totfact>
</mgrwt>
</event>
<event>
 4    1  0.4619222E+006  0.2491823E+02  0.7546771E-02  0.1662179E+00
         21   -1    0    0  504  501  0.00000000000E+00  0.00000000000E+00  0.14639729710E+02  0.14639729710E+02  0.00000000000E+00 0. -1.
         21   -1    0    0  503  502 -0.00000000000E+00 -0.00000000000E+00 -0.82682239839E+02  0.82682239839E+02  0.00000000000E+00 0. -1.
         21    1    1    2  503  501 -0.11106380153E+01 -0.24893471045E+02 -0.61841559421E-01  0.24918311376E+02  0.00000000000E+00 0. -1.
         21    1    1    2  504  502  0.11106380153E+01  0.24893471045E+02 -0.67980668570E+02  0.72403658172E+02  0.00000000000E+00 0. -1.
<mgrwt>
<rscale>  2 0.24918235E+02</rscale>
<asrwt>0</asrwt>
<pdfrwt beam="1">  1       21 0.22522661E-02 0.24918235E+02</pdfrwt>
<pdfrwt beam="2">  1       21 0.12720344E-01 0.24918235E+02</pdfrwt>
<totfact> 0.39647660E+07</totfact>
</mgrwt>
</event>
<event>
 4    1  0.4619222E+006  0.2296392E+02  0.7546771E-02  0.1692096E+00
         21   -1    0    0  504  501  0.00000000000E+00  0.00000000000E+00  0.64630473675E+02  0.64630473675E+02  0.00000000000E+00 0.  1.
         21   -1    0    0  503  502 -0.00000000000E+00 -0.00000000000E+00 -0.99940615149E+01  0.99940615149E+01  0.00000000000E+00 0.  1.
         21    1    1    2  503  501  0.16248995977E+02 -0.16226878056E+02  0.11331214355E+02  0.25607379023E+02  0.00000000000E+00 0.  1.
         21    1    1    2  504  502 -0.16248995977E+02  0.16226878056E+02  0.43305197805E+02  0.49017156166E+02  0.00000000000E+00 0.  1.
<mgrwt>
<rscale>  2 0.22963916E+02</rscale>
<asrwt>0</asrwt>
<pdfrwt beam="1">  1       21 0.99431496E-02 0.22963916E+02</pdfrwt>
<pdfrwt beam="2">  1       21 0.15375480E-02 0.22963916E+02</pdfrwt>
<totfact> 0.10512891E+08</totfact>
</mgrwt>
</event>
<event>
 4    1  0.4619222E+006  0.2245076E+02  0.7546771E-02  0.1700571E+00
         21   -1    0    0  504  501  0.00000000000E+00  0.00000000000E+00  0.71526621810E+01  0.71526621810E+01  0.00000000000E+00 0. -1.
         21   -1    0    0  503  502 -0.00000000000E+00 -0.00000000000E+00 -0.77205289641E+03  0.77205289641E+03  0.00000000000E+00 0. -1.
         21    1    1    2  503  501 -0.13885245568E+02 -0.17641901549E+02 -0.75384721558E+03  0.75418145110E+03  0.00000000000E+00 0. -1.
         21    1    1    2  504  502  0.13885245568E+02  0.17641901549E+02 -0.11053018647E+02  0.25024107496E+02  0.00000000000E+00 0. -1.
<mgrwt>
<rscale>  2 0.22450762E+02</rscale>
<asrwt>0</asrwt>
<pdfrwt beam="1">  1       21 0.11004101E-02 0.22450762E+02</pdfrwt>
<pdfrwt beam="2">  1       21 0.11877731E+00 0.22450762E+02</pdfrwt>
<totfact> 0.16239937E+06</totfact>
</mgrwt>
</event>
<event>
 4    1  0.4619222E+006  0.2101278E+02  0.7546771E-02  0.1725907E+00
         21   -1    0    0  503  501  0.00000000000E+00  0.00000000000E+00  0.32907314306E+02  0.32907314306E+02  0.00000000000E+00 0. -1.
         21   -1    0    0  504  502 -0.00000000000E+00 -0.00000000000E+00 -0.98558822426E+02  0.98558822426E+02  0.00000000000E+00 0.  1.
         21    1    1    2  503  502  0.17123605312E+02  0.12178627434E+02  0.28269309436E+02  0.35223439370E+02  0.00000000000E+00 0. -1.
         21    1    1    2  504  501 -0.17123605312E+02 -0.12178627434E+02 -0.93920817556E+02  0.96242697362E+02  0.00000000000E+00 0.  1.
<mgrwt>
<rscale>  2 0.21012778E+02</rscale>
<asrwt>0</asrwt>
<pdfrwt beam="1">  1       21 0.50626638E-02 0.21012778E+02</pdfrwt>
<pdfrwt beam="2">  1       21 0.15162895E-01 0.21012778E+02</pdfrwt>
<totfact> 0.79930045E+06</totfact>
</mgrwt>
</event>
<event>
 4    1  0.4619222E+006  0.2136102E+02  0.7546771E-02  0.1719543E+00
         21   -1    0    0  503  501  0.00000000000E+00  0.00000000000E+00  0.32499579969E+02  0.32499579969E+02  0.00000000000E+00 0. -1.
         21   -1    0    0  504  502 -0.00000000000E+00 -0.00000000000E+00 -0.22802405051E+02  0.22802405051E+02  0.00000000000E+00 0. -1.
         21    1    1    2  503  502  0.74805472086E+01 -0.20008366898E+02 -0.12292274067E+02  0.24645351168E+02  0.00000000000E+00 0. -1.
         21    1    1    2  504  501 -0.74805472086E+01  0.20008366898E+02  0.21989448985E+02  0.30656633851E+02  0.00000000000E+00 0. -1.
<mgrwt>
<rscale>  2 0.21361024E+02</rscale>
<asrwt>0</asrwt>
<pdfrwt beam="1">  1       21 0.49999354E-02 0.21361024E+02</pdfrwt>
<pdfrwt beam="2">  1       21 0.35080623E-02 0.21361024E+02</pdfrwt>
<totfact> 0.87889618E+07</totfact>
</mgrwt>
</event>
<event>
 4    1  0.4619222E+006  0.2091289E+02  0.7546771E-02  0.1727761E+00
         21   -1    0    0  503  501  0.00000000000E+00  0.00000000000E+00  0.20294123141E+01  0.20294123141E+01  0.00000000000E+00 0.  1.
         21   -1    0    0  504  502 -0.00000000000E+00 -0.00000000000E+00 -0.27523207206E+03  0.27523207206E+03  0.00000000000E+00 0.  1.
         21    1    1    2  503  502 -0.67065761970E+01 -0.19808347009E+02 -0.72021759877E+02  0.74996551062E+02  0.00000000000E+00 0.  1.
         21    1    1    2  504  501  0.67065761970E+01  0.19808347009E+02 -0.20118089987E+03  0.20226493331E+03  0.00000000000E+00 0.  1.
<mgrwt>
<rscale>  2 0.20912885E+02</rscale>
<asrwt>0</asrwt>
<pdfrwt beam="1">  1       21 0.31221743E-03 0.20912885E+02</pdfrwt>
<pdfrwt beam="2">  1       21 0.42343375E-01 0.20912885E+02</pdfrwt>
<totfact> 0.86131848E+07</totfact>
</mgrwt>
</event>
<event>
 4    1  0.4619222E+006  0.2191476E+02  0.7546771E-02  0.1709730E+00
         21   -1    0    0  502  501  0.00000000000E+00  0.00000000000E+00  0.26085837653E+02  0.26085837653E+02  0.00000000000E+00 0. -1.
         21   -1    0    0  504  502 -0.00000000000E+00 -0.00000000000E+00 -0.26918854871E+02  0.26918854871E+02  0.00000000000E+00 0.  1.
         21    1    1    2  503  501 -0.18963374012E+02 -0.10983940587E+02  0.14483129132E+02  0.26268184828E+02  0.00000000000E+00 0. -1.
         21    1    1    2  504  503  0.18963374012E+02  0.10983940587E+02 -0.15316146350E+02  0.26736507695E+02  0.00000000000E+00 0.  1.
<mgrwt>
<rscale>  2 0.21914755E+02</rscale>
<asrwt>0</asrwt>
<pdfrwt beam="1">  1       21 0.40132058E-02 0.21914755E+02</pdfrwt>
<pdfrwt beam="2">  1       21 0.41413623E-02 0.21914755E+02</pdfrwt>
<totfact> 0.96589935E+07</totfact>
</mgrwt>
</event>
<event>
 4    1  0.4619222E+006  0.2390675E+02  0.7546771E-02  0.1677220E+00
         21   -1    0    0  502  501  0.00000000000E+00  0.00000000000E+00  0.44145135980E+01  0.44145135980E+01  0.00000000000E+00 0.  1.
         21   -1    0    0  504  502 -0.00000000000E+00 -0.00000000000E+00 -0.41621839361E+03  0.41621839361E+03  0.00000000000E+00 0. -1.
         21    1    1    2  503  501  0.23571177832E+02 -0.39915457242E+01 -0.31333572448E+02  0.39412252207E+02  0.00000000000E+00 0.  1.
         21    1    1    2  504  503 -0.23571177832E+02  0.39915457242E+01 -0.38047030756E+03  0.38122065500E+03  0.00000000000E+00 0. -1.
<mgrwt>
<rscale>  2 0.23906753E+02</rscale>
<asrwt>0</asrwt>
<pdfrwt beam="1">  1       21 0.67915583E-03 0.23906753E+02</pdfrwt>
<pdfrwt beam="2">  1       21 0.64033609E-01 0.23906753E+02</pdfrwt>
<totfact> 0.12610875E+07</totfact>
</mgrwt>
</event>
<event>
 4    1  0.4619222E+006  0.2733226E+02  0.7546771E-02  0.1629599E+00
         21   -1    0    0  504  501  0.00000000000E+00  0.00000000000E+00  0.58650583254E+01  0.58650583254E+01  0.00000000000E+00 0. -1.
         21   -1    0    0  503  502 -0.00000000000E+00 -0.00000000000E+00 -0.16559120844E+03  0.16559120844E+03  0.00000000000E+00 0. -1.
         21    1    1    2  503  501 -0.25917090736E+02  0.86808224056E+01 -0.38678198837E+02  0.47360905134E+02  0.00000000000E+00 0. -1.
         21    1    1    2  504  502  0.25917090736E+02 -0.86808224056E+01 -0.12104795128E+03  0.12409536163E+03  0.00000000000E+00 0. -1.
<mgrwt>
<rscale>  2 0.27332257E+02</rscale>
<asrwt>0</asrwt>
<pdfrwt beam="1">  1       21 0.90231683E-03 0.27332257E+02</pdfrwt>
<pdfrwt beam="2">  1       21 0.25475566E-01 0.27332257E+02</pdfrwt>
<totfact> 0.48803172E+07</totfact>
</mgrwt>
</event>
<event>
 4    1  0.4619222E+006  0.2606605E+02  0.7546771E-02  0.1646146E+00
         21   -1    0    0  502  501  0.00000000000E+00  0.00000000000E+00  0.12277964659E+02  0.12277964659E+02  0.00000000000E+00 0.  1.
         21   -1    0    0  503  502 -0.00000000000E+00 -0.00000000000E+00 -0.10560716258E+03  0.10560716258E+03  0.00000000000E+00 0.  1.
         21    1    1    2  503  504  0.59909301883E+01 -0.25368242974E+02 -0.87330725859E+02  0.91137778529E+02  0.00000000000E+00 0.  1.
         21    1    1    2  504  501 -0.59909301883E+01  0.25368242974E+02 -0.59984720660E+01  0.26747348714E+02  0.00000000000E+00 0.  1.
<mgrwt>
<rscale>  2 0.26066051E+02</rscale>
<asrwt>0</asrwt>
<pdfrwt beam="1">  1       21 0.18889177E-02 0.26066051E+02</pdfrwt>
<pdfrwt beam="2">  1       21 0.16247256E-01 0.26066051E+02</pdfrwt>
<totfact> 0.34613219E+07</totfact>
</mgrwt>
</event>
<event>
 4    1  0.4619222E+006  0.2736892E+02  0.7546771E-02  0.1629136E+00
         21   -1    0    0  503  501  0.00000000000E+00  0.00000000000E+00  0.10563910397E+03  0.10563910397E+03  0.00000000000E+00 0. -1.
         21   -1    0    0  504  502 -0.00000000000E+00 -0.00000000000E+00 -0.16758287229E+02  0.16758287229E+02  0.00000000000E+00 0. -1.
         21    1    1    2  503  502 -0.26136235224E+02 -0.81212768683E+01  0.90922516736E+02  0.94952419555E+02  0.00000000000E+00 0. -1.
         21    1    1    2  504  501  0.26136235224E+02  0.81212768683E+01 -0.20416999952E+01  0.27444971644E+02  0.00000000000E+00 0. -1.
<mgrwt>
<rscale>  2 0.27368923E+02</rscale>
<asrwt>0</asrwt>
<pdfrwt beam="1">  1       21 0.16252169E-01 0.27368923E+02</pdfrwt>
<pdfrwt beam="2">  1       21 0.25781981E-02 0.27368923E+02</pdfrwt>
<totfact> 0.21592542E+07</totfact>
</mgrwt>
</event>
<event>
 4    1  0.4619222E+006  0.4191065E+02  0.7546771E-02  0.1494604E+00
         21   -1    0    0  503  501  0.00000000000E+00  0.00000000000E+00  0.38429300626E+03  0.38429300626E+03  0.00000000000E+00 0.  1.
         21   -1    0    0  501  502 -0.00000000000E+00 -0.00000000000E+00 -0.13901260138E+02  0.13901260138E+02  0.00000000000E+00 0.  1.
         21    1    1    2  503  504 -0.29470048196E+02  0.29799647575E+02  0.34830974232E+03  0.35082214772E+03  0.00000000000E+00 0.  1.
         21    1    1    2  504  502  0.29470048196E+02 -0.29799647575E+02  0.22082003805E+02  0.47372118681E+02  0.00000000000E+00 0.  1.
<mgrwt>
<rscale>  2 0.41910652E+02</rscale>
<asrwt>0</asrwt>
<pdfrwt beam="1">  1       21 0.59121993E-01 0.41910652E+02</pdfrwt>
<pdfrwt beam="2">  1       21 0.21386557E-02 0.41910652E+02</pdfrwt>
<totfact> 0.27627509E+06</totfact>
</mgrwt>
</event>
<event>
 4    1  0.4619222E+006  0.2217442E+02  0.7546771E-02  0.1705253E+00
         21   -1    0    0  504  501  0.00000000000E+00  0.00000000000E+00  0.11879102608E+03  0.11879102608E+03  0.00000000000E+00 0. -1.
         21   -1    0    0  503  502 -0.00000000000E+00 -0.00000000000E+00 -0.59609897775E+01  0.59609897775E+01  0.00000000000E+00 0.  1.
         21    1    1    2  503  501 -0.64038499006E+01 -0.21229594561E+02  0.90897803368E+02  0.93563431082E+02  0.00000000000E+00 0. -1.
         21    1    1    2  504  502  0.64038499006E+01  0.21229594561E+02  0.21932232936E+02  0.31188584776E+02  0.00000000000E+00 0.  1.
<mgrwt>
<rscale>  2 0.22174422E+02</rscale>
<asrwt>0</asrwt>
<pdfrwt beam="1">  1       21 0.18275541E-01 0.22174422E+02</pdfrwt>
<pdfrwt beam="2">  1       21 0.91707544E-03 0.22174422E+02</pdfrwt>
<totfact> 0.81223207E+07</totfact>
</mgrwt>
</event>
<event>
 4    1  0.4619222E+006  0.2668455E+02  0.7546771E-02  0.1637922E+00
         21   -1    0    0  502  501  0.00000000000E+00  0.00000000000E+00  0.63866080591E+02  0.63866080591E+02  0.00000000000E+00 0. -1.
         21   -1    0    0  503  502 -0.00000000000E+00 -0.00000000000E+00 -0.19111288210E+02  0.19111288210E+02  0.00000000000E+00 0. -1.
         21    1    1    2  503  504 -0.23241841721E+02  0.13110385025E+02 -0.44015840232E+01  0.27045135311E+02  0.00000000000E+00 0. -1.
         21    1    1    2  504  501  0.23241841721E+02 -0.13110385025E+02  0.49156376404E+02  0.55932233490E+02  0.00000000000E+00 0. -1.
<mgrwt>
<rscale>  2 0.26684554E+02</rscale>
<asrwt>0</asrwt>
<pdfrwt beam="1">  1       21 0.98255507E-02 0.26684554E+02</pdfrwt>
<pdfrwt beam="2">  1       21 0.29401982E-02 0.26684554E+02</pdfrwt>
<totfact> 0.40999819E+07</totfact>
</mgrwt>
</event>
<event>
 4    1  0.4619222E+006  0.2548724E+02  0.7546771E-02  0.1654101E+00
         21   -1    0    0  503  501  0.00000000000E+00  0.00000000000E+00  0.25186626186E+01  0.25186626186E+01  0.00000000000E+00 0. -1.
         21   -1    0    0  504  502 -0.00000000000E+00 -0.00000000000E+00 -0.25909115961E+03  0.25909115961E+03  0.00000000000E+00 0. -1.
         21    1    1    2  503  502 -0.39243110351E+01 -0.25183311936E+02 -0.11947094438E+03  0.12215934662E+03  0.00000000000E+00 0. -1.
         21    1    1    2  504  501  0.39243110351E+01  0.25183311936E+02 -0.13710155261E+03  0.13945047560E+03  0.00000000000E+00 0. -1.
<mgrwt>
<rscale>  2 0.25487240E+02</rscale>
<asrwt>0</asrwt>
<pdfrwt beam="1">  1       21 0.38748666E-03 0.25487240E+02</pdfrwt>
<pdfrwt beam="2">  1       21 0.39860168E-01 0.25487240E+02</pdfrwt>
<totfact> 0.74031101E+07</totfact>
</mgrwt>
</event>
<event>
 4    1  0.4619222E+006  0.2011399E+02  0.7546771E-02  0.1743071E+00
         21   -1    0    0  504  501  0.00000000000E+00  0.00000000000E+00  0.14757916826E+02  0.14757916826E+02  0.00000000000E+00 0.  1.
         21   -1    0    0  503  502 -0.00000000000E+00 -0.00000000000E+00 -0.57547042901E+02  0.57547042901E+02  0.00000000000E+00 0. -1.
         21    1    1    2  503  501 -0.18721949124E+02 -0.73526345063E+01  0.47660869605E+01  0.20670950585E+02  0.00000000000E+00 0.  1.
         21    1    1    2  504  502  0.18721949124E+02  0.73526345063E+01 -0.47555213035E+02  0.51634009141E+02  0.00000000000E+00 0. -1.
<mgrwt>
<rscale>  2 0.20113990E+02</rscale>
<asrwt>0</asrwt>
<pdfrwt beam="1">  1       21 0.22704487E-02 0.20113990E+02</pdfrwt>
<pdfrwt beam="2">  1       21 0.88533912E-02 0.20113990E+02</pdfrwt>
<totfact> 0.67564440E+07</totfact>
</mgrwt>
</event>
<event>
 4    1  0.4619222E+006  0.2565175E+02  0.7546771E-02  0.1651813E+00
         21   -1    0    0  502  501  0.00000000000E+00  0.00000000000E+00  0.26160439706E+01  0.26160439706E+01  0.00000000000E+00 0. -1.
         21   -1    0    0  503  502 -0.00000000000E+00 -0.00000000000E+00 -0.55065452638E+03  0.55065452638E+03  0.00000000000E+00 0.  1.
         21    1    1    2  503  504  0.17132144888E+02  0.19091936831E+02 -0.47790847061E+03  0.47859640484E+03  0.00000000000E+00 0.  1.
         21    1    1    2  504  501 -0.17132144888E+02 -0.19091936831E+02 -0.70130011798E+02  0.74674165514E+02  0.00000000000E+00 0. -1.
<mgrwt>
<rscale>  2 0.25651753E+02</rscale>
<asrwt>0</asrwt>
<pdfrwt beam="1">  1       21 0.40246801E-03 0.25651753E+02</pdfrwt>
<pdfrwt beam="2">  1       21 0.84716143E-01 0.25651753E+02</pdfrwt>
<totfact> 0.15494129E+07</totfact>
</mgrwt>
</event>
<event>
 4    1  0.4619222E+006  0.2026498E+02  0.7546771E-02  0.1740109E+00
         21   -1    0    0  503  501  0.00000000000E+00  0.00000000000E+00  0.39520031055E+01  0.39520031055E+01  0.00000000000E+00 0.  1.
         21   -1    0    0  504  502 -0.00000000000E+00 -0.00000000000E+00 -0.11511660901E+03  0.11511660901E+03  0.00000000000E+00 0.  1.
         21    1    1    2  503  502 -0.20130864706E+02 -0.23275783248E+01 -0.74154084025E+02  0.76873256157E+02  0.00000000000E+00 0.  1.
         21    1    1    2  504  501  0.20130864706E+02  0.23275783248E+01 -0.37010521881E+02  0.42195355959E+02  0.00000000000E+00 0.  1.
<mgrwt>
<rscale>  2 0.20264978E+02</rscale>
<asrwt>0</asrwt>
<pdfrwt beam="1">  1       21 0.60800052E-03 0.20264978E+02</pdfrwt>
<pdfrwt beam="2">  1       21 0.17710246E-01 0.20264978E+02</pdfrwt>
<totfact> 0.15386640E+08</totfact>
</mgrwt>
</event>
<event>
 4    1  0.4619222E+006  0.2609055E+02  0.7546771E-02  0.1645815E+00
         21   -1    0    0  503  501  0.00000000000E+00  0.00000000000E+00  0.38969129351E+01  0.38969129351E+01  0.00000000000E+00 0. -1.
         21   -1    0    0  504  502 -0.00000000000E+00 -0.00000000000E+00 -0.18454290758E+03  0.18454290758E+03  0.00000000000E+00 0. -1.
         21    1    1    2  503  502  0.19054711326E+02  0.17822312457E+02 -0.11210377389E+03  0.11509983912E+03  0.00000000000E+00 0. -1.
         21    1    1    2  504  501 -0.19054711326E+02 -0.17822312457E+02 -0.68542220753E+02  0.73339981394E+02  0.00000000000E+00 0. -1.
<mgrwt>
<rscale>  2 0.26090551E+02</rscale>
<asrwt>0</asrwt>
<pdfrwt beam="1">  1       21 0.59952511E-03 0.26090551E+02</pdfrwt>
<pdfrwt beam="2">  1       21 0.28391215E-01 0.26090551E+02</pdfrwt>
<totfact> 0.73196533E+07</totfact>
</mgrwt>
</event>
<event>
 4    1  0.4619222E+006  0.2758157E+02  0.7546771E-02  0.1626470E+00
         21   -1    0    0  502  501  0.00000000000E+00  0.00000000000E+00  0.10907702395E+03  0.10907702395E+03  0.00000000000E+00 0.  1.
         21   -1    0    0  503  502 -0.00000000000E+00 -0.00000000000E+00 -0.33059901541E+03  0.33059901541E+03  0.00000000000E+00 0. -1.
         21    1    1    2  503  504  0.26870119156E+02  0.62241233992E+01 -0.32826778733E+03  0.32942447270E+03  0.00000000000E+00 0. -1.
         21    1    1    2  504  501 -0.26870119156E+02 -0.62241233992E+01  0.10674579587E+03  0.11025156666E+03  0.00000000000E+00 0.  1.
<mgrwt>
<rscale>  2 0.27581570E+02</rscale>
<asrwt>0</asrwt>
<pdfrwt beam="1">  1       21 0.16781081E-01 0.27581570E+02</pdfrwt>
<pdfrwt beam="2">  1       21 0.50861387E-01 0.27581570E+02</pdfrwt>
<totfact> 0.12594537E+05</totfact>
</mgrwt>
</event>
<event>
 4    1  0.4619222E+006  0.2228062E+02  0.7546771E-02  0.1703443E+00
         21   -1    0    0  503  501  0.00000000000E+00  0.00000000000E+00  0.57465514745E+02  0.57465514745E+02  0.00000000000E+00 0.  1.
         21   -1    0    0  504  502 -0.00000000000E+00 -0.00000000000E+00 -0.18103536811E+02  0.18103536811E+02  0.00000000000E+00 0. -1.
         21    1    1    2  503  502  0.46628408236E+00 -0.22275744168E+02  0.47001529200E+02  0.52015093446E+02  0.00000000000E+00 0.  1.
         21    1    1    2  504  501 -0.46628408236E+00  0.22275744168E+02 -0.76395512656E+01  0.23553958109E+02  0.00000000000E+00 0. -1.
<mgrwt>
<rscale>  2 0.22280624E+02</rscale>
<asrwt>0</asrwt>
<pdfrwt beam="1">  1       21 0.88408483E-02 0.22280624E+02</pdfrwt>
<pdfrwt beam="2">  1       21 0.27851595E-02 0.22280624E+02</pdfrwt>
<totfact> 0.50810249E+07</totfact>
</mgrwt>
</event>
<event>
 4    1  0.4619222E+006  0.2189818E+02  0.7546771E-02  0.1710019E+00
         21   -1    0    0  504  501  0.00000000000E+00  0.00000000000E+00  0.18631945692E+03  0.18631945692E+03  0.00000000000E+00 0.  1.
         21   -1    0    0  503  502 -0.00000000000E+00 -0.00000000000E+00 -0.57643524521E+01  0.57643524521E+01  0.00000000000E+00 0.  1.
         21    1    1    2  503  501 -0.16048462528E+02  0.14898896356E+02  0.16173134668E+03  0.16320710389E+03  0.00000000000E+00 0.  1.
         21    1    1    2  504  502  0.16048462528E+02 -0.14898896356E+02  0.18823757791E+02  0.28876705482E+02  0.00000000000E+00 0.  1.
<mgrwt>
<rscale>  2 0.21898179E+02</rscale>
<asrwt>0</asrwt>
<pdfrwt beam="1">  1       21 0.28664527E-01 0.21898179E+02</pdfrwt>
<pdfrwt beam="2">  1       21 0.88682360E-03 0.21898179E+02</pdfrwt>
<totfact> 0.38465685E+07</totfact>
</mgrwt>
</event>
<event>
 4    1  0.4619222E+006  0.2586382E+02  0.7546771E-02  0.1648896E+00
         21   -1    0    0  504  501  0.00000000000E+00  0.00000000000E+00  0.37054337943E+02  0.37054337943E+02  0.00000000000E+00 0. -1.
         21   -1    0    0  501  502 -0.00000000000E+00 -0.00000000000E+00 -0.35474671392E+02  0.35474671392E+02  0.00000000000E+00 0.  1.
         21    1    1    2  503  502 -0.15970512580E+01 -0.25814468990E+02 -0.24623931687E+02  0.35710998218E+02  0.00000000000E+00 0.  1.
         21    1    1    2  504  503  0.15970512580E+01  0.25814468990E+02  0.26203598238E+02  0.36818011117E+02  0.00000000000E+00 0. -1.
<mgrwt>
<rscale>  2 0.25863824E+02</rscale>
<asrwt>0</asrwt>
<pdfrwt beam="1">  1       21 0.57006674E-02 0.25863824E+02</pdfrwt>
<pdfrwt beam="2">  1       21 0.54576417E-02 0.25863824E+02</pdfrwt>
<totfact> 0.37201394E+07</totfact>
</mgrwt>
</event>
<event>
 4    1  0.4619222E+006  0.3007283E+02  0.7546771E-02  0.1597285E+00
         21   -1    0    0  504  501  0.00000000000E+00  0.00000000000E+00  0.79221373479E+00  0.79221373479E+00  0.00000000000E+00 0.  1.
         21   -1    0    0  503  502 -0.00000000000E+00 -0.00000000000E+00 -0.18010020698E+04  0.18010020698E+04  0.00000000000E+00 0.  1.
         21    1    1    2  503  501 -0.36940932982E+01  0.29845081759E+02 -0.35497516529E+03  0.35624674483E+03  0.00000000000E+00 0.  1.
         21    1    1    2  504  502  0.36940932982E+01 -0.29845081759E+02 -0.14452346908E+04  0.14455475387E+04  0.00000000000E+00 0.  1.
<mgrwt>
<rscale>  2 0.30072832E+02</rscale>
<asrwt>0</asrwt>
<pdfrwt beam="1">  1       21 0.12187902E-03 0.30072832E+02</pdfrwt>
<pdfrwt beam="2">  1       21 0.27707729E+00 0.30072832E+02</pdfrwt>
<totfact> 0.47525602E+06</totfact>
</mgrwt>
</event>
<event>
 4    1  0.4619222E+006  0.2269941E+02  0.7546771E-02  0.1696429E+00
         21   -1    0    0  504  501  0.00000000000E+00  0.00000000000E+00  0.85155556310E+03  0.85155556310E+03  0.00000000000E+00 0. -1.
         21   -1    0    0  503  502 -0.00000000000E+00 -0.00000000000E+00 -0.42578299614E+01  0.42578299614E+01  0.00000000000E+00 0. -1.
         21    1    1    2  503  501  0.85886674473E+01  0.21011854366E+02  0.81998586854E+03  0.82029999869E+03  0.00000000000E+00 0. -1.
         21    1    1    2  504  502 -0.85886674473E+01 -0.21011854366E+02  0.27311864594E+02  0.35513394375E+02  0.00000000000E+00 0. -1.
<mgrwt>
<rscale>  2 0.22699410E+02</rscale>
<asrwt>0</asrwt>
<pdfrwt beam="1">  1       21 0.13100841E+00 0.22699410E+02</pdfrwt>
<pdfrwt beam="2">  1       21 0.65505144E-03 0.22699410E+02</pdfrwt>
<totfact> 0.28221273E+06</totfact>
</mgrwt>
</event>
<event>
 4    1  0.4619222E+006  0.1532815E+03  0.7546771E-02  0.1196498E+00
         21   -1    0    0  504  501  0.00000000000E+00  0.00000000000E+00  0.57426866223E+03  0.57426866223E+03  0.00000000000E+00 0. -1.
         21   -1    0    0  503  502 -0.00000000000E+00 -0.00000000000E+00 -0.49514710524E+02  0.49514710524E+02  0.00000000000E+00 0.  1.
         21    1    1    2  503  501  0.12218150895E+03 -0.92557517485E+02  0.39237058237E+03  0.42124801375E+03  0.00000000000E+00 0. -1.
         21    1    1    2  504  502 -0.12218150895E+03  0.92557517485E+02  0.13238336933E+03  0.20253535901E+03  0.00000000000E+00 0.  1.
<mgrwt>
<rscale>  2 0.15328149E+03</rscale>
<asrwt>0</asrwt>
<pdfrwt beam="1">  1       21 0.88349020E-01 0.15328149E+03</pdfrwt>
<pdfrwt beam="2">  1       21 0.76176482E-02 0.15328149E+03</pdfrwt>
<totfact> 0.14532339E+05</totfact>
</mgrwt>
</event>
<event>
 4    1  0.4619222E+006  0.2276058E+02  0.7546771E-02  0.1695421E+00
         21   -1    0    0  502  501  0.00000000000E+00  0.00000000000E+00  0.11139270061E+03  0.11139270061E+03  0.00000000000E+00 0.  1.
         21   -1    0    0  503  502 -0.00000000000E+00 -0.00000000000E+00 -0.36786496168E+02  0.36786496168E+02  0.00000000000E+00 0.  1.
         21    1    1    2  503  504 -0.17966858141E+02  0.13972691154E+02 -0.31945045905E+02  0.39224100339E+02  0.00000000000E+00 0.  1.
         21    1    1    2  504  501  0.17966858141E+02 -0.13972691154E+02  0.10655125034E+03  0.10895509643E+03  0.00000000000E+00 0.  1.
<mgrwt>
<rscale>  2 0.22760582E+02</rscale>
<asrwt>0</asrwt>
<pdfrwt beam="1">  1       21 0.17137338E-01 0.22760582E+02</pdfrwt>
<pdfrwt beam="2">  1       21 0.56594610E-02 0.22760582E+02</pdfrwt>
<totfact> 0.55073737E+06</totfact>
</mgrwt>
</event>
<event>
 4    1  0.4619222E+006  0.2208664E+02  0.7546771E-02  0.1706758E+00
         21   -1    0    0  502  501  0.00000000000E+00  0.00000000000E+00  0.15981412503E+03  0.15981412503E+03  0.00000000000E+00 0. -1.
         21   -1    0    0  504  502 -0.00000000000E+00 -0.00000000000E+00 -0.94997704437E+02  0.94997704437E+02  0.00000000000E+00 0.  1.
         21    1    1    2  503  501  0.21987429218E+02  0.20910369317E+01  0.15775054225E+03  0.15928921200E+03  0.00000000000E+00 0. -1.
         21    1    1    2  504  503 -0.21987429218E+02 -0.20910369317E+01 -0.92934121659E+02  0.95522617467E+02  0.00000000000E+00 0.  1.
<mgrwt>
<rscale>  2 0.22086636E+02</rscale>
<asrwt>0</asrwt>
<pdfrwt beam="1">  1       21 0.24586789E-01 0.22086636E+02</pdfrwt>
<pdfrwt beam="2">  1       21 0.14615031E-01 0.22086636E+02</pdfrwt>
<totfact> 0.61348040E+05</totfact>
</mgrwt>
</event>
<event>
 4    1  0.4619222E+006  0.2015971E+02  0.7546771E-02  0.1742171E+00
         21   -1    0    0  503  501  0.00000000000E+00  0.00000000000E+00  0.11087656026E+01  0.11087656026E+01  0.00000000000E+00 0.  1.
         21   -1    0    0  504  502 -0.00000000000E+00 -0.00000000000E+00 -0.37034897285E+03  0.37034897285E+03  0.00000000000E+00 0.  1.
         21    1    1    2  503  502 -0.68240876284E+01  0.18969603613E+02 -0.20343981540E+03  0.20443623094E+03  0.00000000000E+00 0.  1.
         21    1    1    2  504  501  0.68240876284E+01 -0.18969603613E+02 -0.16580039185E+03  0.16702150751E+03  0.00000000000E+00 0.  1.
<mgrwt>
<rscale>  2 0.20159713E+02</rscale>
<asrwt>0</asrwt>
<pdfrwt beam="1">  1       21 0.17057954E-03 0.20159713E+02</pdfrwt>
<pdfrwt beam="2">  1       21 0.56976693E-01 0.20159713E+02</pdfrwt>
<totfact> 0.11505442E+08</totfact>
</mgrwt>
</event>
<event>
 4    1  0.4619222E+006  0.2240879E+02  0.7546771E-02  0.1701277E+00
         21   -1    0    0  502  501  0.00000000000E+00  0.00000000000E+00  0.25037772857E+02  0.25037772857E+02  0.00000000000E+00 0.  1.
         21   -1    0    0  504  502 -0.00000000000E+00 -0.00000000000E+00 -0.79843049572E+02  0.79843049572E+02  0.00000000000E+00 0.  1.
         21    1    1    2  503  501  0.65806258001E+01  0.21420767346E+02  0.17976016985E+02  0.28727880121E+02  0.00000000000E+00 0.  1.
         21    1    1    2  504  503 -0.65806258001E+01 -0.21420767346E+02 -0.72781293700E+02  0.76152942308E+02  0.00000000000E+00 0.  1.
<mgrwt>
<rscale>  2 0.22408791E+02</rscale>
<asrwt>0</asrwt>
<pdfrwt beam="1">  1       21 0.38519652E-02 0.22408791E+02</pdfrwt>
<pdfrwt beam="2">  1       21 0.12283546E-01 0.22408791E+02</pdfrwt>
<totfact> 0.17785306E+07</totfact>
</mgrwt>
</event>
<event>
 4    1  0.4619222E+006  0.2313939E+02  0.7546771E-02  0.1689261E+00
         21   -1    0    0  502  501  0.00000000000E+00  0.00000000000E+00  0.77996305876E+03  0.77996305876E+03  0.00000000000E+00 0.  1.
         21   -1    0    0  504  502 -0.00000000000E+00 -0.00000000000E+00 -0.14131684125E+02  0.14131684125E+02  0.00000000000E+00 0. -1.
         21    1    1    2  503  501 -0.23068679616E+02 -0.18075722529E+01  0.77019920812E+03  0.77054672246E+03  0.00000000000E+00 0.  1.
         21    1    1    2  504  503  0.23068679616E+02  0.18075722529E+01 -0.43678334882E+01  0.23548020427E+02  0.00000000000E+00 0. -1.
<mgrwt>
<rscale>  2 0.23139388E+02</rscale>
<asrwt>0</asrwt>
<pdfrwt beam="1">  1       21 0.11999428E+00 0.23139388E+02</pdfrwt>
<pdfrwt beam="2">  1       21 0.21741059E-02 0.23139388E+02</pdfrwt>
<totfact> 0.56452503E+05</totfact>
</mgrwt>
</event>
<event>
 4    1  0.4619222E+006  0.2400899E+02  0.7546771E-02  0.1675658E+00
         21   -1    0    0  502  501  0.00000000000E+00  0.00000000000E+00  0.26811218046E+01  0.26811218046E+01  0.00000000000E+00 0.  1.
         21   -1    0    0  504  502 -0.00000000000E+00 -0.00000000000E+00 -0.24513927834E+03  0.24513927834E+03  0.00000000000E+00 0.  1.
         21    1    1    2  503  501  0.14387345253E+02 -0.19220720144E+02 -0.77778826795E+02  0.81400108623E+02  0.00000000000E+00 0.  1.
         21    1    1    2  504  503 -0.14387345253E+02  0.19220720144E+02 -0.16467932974E+03  0.16642029152E+03  0.00000000000E+00 0.  1.
<mgrwt>
<rscale>  2 0.24008994E+02</rscale>
<asrwt>0</asrwt>
<pdfrwt beam="1">  1       21 0.41248015E-03 0.24008994E+02</pdfrwt>
<pdfrwt beam="2">  1       21 0.37713747E-01 0.24008994E+02</pdfrwt>
<totfact> 0.73874306E+07</totfact>
</mgrwt>
</event>
<event>
 4    1  0.4619222E+006  0.2398159E+02  0.7546771E-02  0.1676076E+00
         21   -1    0    0  504  501  0.00000000000E+00  0.00000000000E+00  0.34908888569E+02  0.34908888569E+02  0.00000000000E+00 0. -1.
         21   -1    0    0  503  502 -0.00000000000E+00 -0.00000000000E+00 -0.43804020770E+02  0.43804020770E+02  0.00000000000E+00 0. -1.
         21    1    1    2  503  501  0.81327895041E+01  0.22560456290E+02  0.26638997772E+02  0.35843446478E+02  0.00000000000E+00 0. -1.
         21    1    1    2  504  502 -0.81327895041E+01 -0.22560456290E+02 -0.35534129973E+02  0.42869462862E+02  0.00000000000E+00 0. -1.
<mgrwt>
<rscale>  2 0.23981586E+02</rscale>
<asrwt>0</asrwt>
<pdfrwt beam="1">  1       21 0.53705982E-02 0.23981586E+02</pdfrwt>
<pdfrwt beam="2">  1       21 0.67390802E-02 0.23981586E+02</pdfrwt>
<totfact> 0.28640325E+07</totfact>
</mgrwt>
</event>
<event>
 4    1  0.4619222E+006  0.2148965E+02  0.7546771E-02  0.1717231E+00
         21   -1    0    0  502  501  0.00000000000E+00  0.00000000000E+00  0.35710086053E+02  0.35710086053E+02  0.00000000000E+00 0.  1.
         21   -1    0    0  503  502 -0.00000000000E+00 -0.00000000000E+00 -0.35546039625E+02  0.35546039625E+02  0.00000000000E+00 0.  1.
         21    1    1    2  503  504 -0.10768219177E+02 -0.18597056260E+02 -0.28335425092E+02  0.35562639960E+02  0.00000000000E+00 0.  1.
         21    1    1    2  504  501  0.10768219177E+02  0.18597056260E+02  0.28499471521E+02  0.35693485718E+02  0.00000000000E+00 0.  1.
<mgrwt>
<rscale>  2 0.21489650E+02</rscale>
<asrwt>0</asrwt>
<pdfrwt beam="1">  1       21 0.54938594E-02 0.21489650E+02</pdfrwt>
<pdfrwt beam="2">  1       21 0.54686215E-02 0.21489650E+02</pdfrwt>
<totfact> 0.37610075E+07</totfact>
</mgrwt>
</event>
<event>
 4    1  0.4619222E+006  0.4737163E+02  0.7546771E-02  0.1460057E+00
         21   -1    0    0  504  501  0.00000000000E+00  0.00000000000E+00  0.98984924932E+02  0.98984924932E+02  0.00000000000E+00 0.  1.
         21   -1    0    0  503  502 -0.00000000000E+00 -0.00000000000E+00 -0.18778449471E+03  0.18778449471E+03  0.00000000000E+00 0.  1.
         21    1    1    2  503  501  0.47343303416E+01  0.47134458677E+02 -0.17885092096E+03  0.18501816939E+03  0.00000000000E+00 0.  1.
         21    1    1    2  504  502 -0.47343303416E+01 -0.47134458677E+02  0.90051351177E+02  0.10175125025E+03  0.00000000000E+00 0.  1.
<mgrwt>
<rscale>  2 0.47371627E+02</rscale>
<asrwt>0</asrwt>
<pdfrwt beam="1">  1       21 0.15228450E-01 0.47371627E+02</pdfrwt>
<pdfrwt beam="2">  1       21 0.28889922E-01 0.47371627E+02</pdfrwt>
<totfact> 0.44123287E+05</totfact>
</mgrwt>
</event>
<event>
 4    1  0.4619222E+006  0.2515497E+02  0.7546771E-02  0.1658786E+00
         21   -1    0    0  504  501  0.00000000000E+00  0.00000000000E+00  0.22482991571E+02  0.22482991571E+02  0.00000000000E+00 0. -1.
         21   -1    0    0  503  502 -0.00000000000E+00 -0.00000000000E+00 -0.66168024950E+02  0.66168024950E+02  0.00000000000E+00 0.  1.
         21    1    1    2  503  501 -0.19242912288E+02 -0.16201328828E+02 -0.55443793638E+02  0.60883388392E+02  0.00000000000E+00 0.  1.
         21    1    1    2  504  502  0.19242912288E+02  0.16201328828E+02  0.11758760259E+02  0.27767628129E+02  0.00000000000E+00 0. -1.
<mgrwt>
<rscale>  2 0.25154974E+02</rscale>
<asrwt>0</asrwt>
<pdfrwt beam="1">  1       21 0.34589218E-02 0.25154974E+02</pdfrwt>
<pdfrwt beam="2">  1       21 0.10179696E-01 0.25154974E+02</pdfrwt>
<totfact> 0.29569629E+07</totfact>
</mgrwt>
</event>
<event>
 4    1  0.4619222E+006  0.2867555E+02  0.7546771E-02  0.1613208E+00
         21   -1    0    0  503  501  0.00000000000E+00  0.00000000000E+00  0.41162882626E+02  0.41162882626E+02  0.00000000000E+00 0. -1.
         21   -1    0    0  504  502 -0.00000000000E+00 -0.00000000000E+00 -0.22029317886E+02  0.22029317886E+02  0.00000000000E+00 0.  1.
         21    1    1    2  503  502 -0.26563702887E+02  0.10800767281E+02 -0.78545816961E-01  0.28675652641E+02  0.00000000000E+00 0.  1.
         21    1    1    2  504  501  0.26563702887E+02 -0.10800767281E+02  0.19212110557E+02  0.34516547872E+02  0.00000000000E+00 0. -1.
<mgrwt>
<rscale>  2 0.28675545E+02</rscale>
<asrwt>0</asrwt>
<pdfrwt beam="1">  1       21 0.63327512E-02 0.28675545E+02</pdfrwt>
<pdfrwt beam="2">  1       21 0.33891258E-02 0.28675545E+02</pdfrwt>
<totfact> 0.68645186E+07</totfact>
</mgrwt>
</event>
<event>
 4    1  0.4619222E+006  0.2110870E+02  0.7546771E-02  0.1724138E+00
         21   -1    0    0  502  501  0.00000000000E+00  0.00000000000E+00  0.63553117914E+02  0.63553117914E+02  0.00000000000E+00 0.  1.
         21   -1    0    0  503  502 -0.00000000000E+00 -0.00000000000E+00 -0.16439780254E+02  0.16439780254E+02  0.00000000000E+00 0. -1.
         21    1    1    2  503  504 -0.12372294024E+02  0.17102738848E+02 -0.67333023764E+01  0.22156594874E+02  0.00000000000E+00 0. -1.
         21    1    1    2  504  501  0.12372294024E+02 -0.17102738848E+02  0.53846640037E+02  0.57836303294E+02  0.00000000000E+00 0.  1.
<mgrwt>
<rscale>  2 0.21108703E+02</rscale>
<asrwt>0</asrwt>
<pdfrwt beam="1">  1       21 0.97774026E-02 0.21108703E+02</pdfrwt>
<pdfrwt beam="2">  1       21 0.25291970E-02 0.21108703E+02</pdfrwt>
<totfact> 0.49283933E+07</totfact>
</mgrwt>
</event>
<event>
 4    1  0.4619222E+006  0.7851037E+02  0.7546771E-02  0.1333333E+00
         21   -1    0    0  503  501  0.00000000000E+00  0.00000000000E+00  0.28160221100E+02  0.28160221100E+02  0.00000000000E+00 0. -1.
         21   -1    0    0  504  502 -0.00000000000E+00 -0.00000000000E+00 -0.21909232333E+03  0.21909232333E+03  0.00000000000E+00 0. -1.
         21    1    1    2  503  502  0.36664869006E+02  0.69423087561E+02 -0.99259971178E+02  0.12655599387E+03  0.00000000000E+00 0. -1.
         21    1    1    2  504  501 -0.36664869006E+02 -0.69423087561E+02 -0.91672131051E+02  0.12069655056E+03  0.00000000000E+00 0. -1.
<mgrwt>
<rscale>  2 0.78510367E+02</rscale>
<asrwt>0</asrwt>
<pdfrwt beam="1">  1       21 0.43323417E-02 0.78510367E+02</pdfrwt>
<pdfrwt beam="2">  1       21 0.33706512E-01 0.78510367E+02</pdfrwt>
<totfact> 0.28200946E+06</totfact>
</mgrwt>
</event>
<event>
 4    1  0.4619222E+006  0.5900008E+02  0.7546771E-02  0.1402077E+00
         21   -1    0    0  503  501  0.00000000000E+00  0.00000000000E+00  0.29890651598E+03  0.29890651598E+03  0.00000000000E+00 0.  1.
         21   -1    0    0  501  502 -0.00000000000E+00 -0.00000000000E+00 -0.14687940534E+02  0.14687940534E+02  0.00000000000E+00 0.  1.
         21    1    1    2  503  504  0.51303090385E+02  0.29137635602E+02  0.21346795919E+03  0.22147139430E+03  0.00000000000E+00 0.  1.
         21    1    1    2  504  502 -0.51303090385E+02 -0.29137635602E+02  0.70750616253E+02  0.92123062214E+02  0.00000000000E+00 0.  1.
<mgrwt>
<rscale>  2 0.59000075E+02</rscale>
<asrwt>0</asrwt>
<pdfrwt beam="1">  1       21 0.45985613E-01 0.59000075E+02</pdfrwt>
<pdfrwt beam="2">  1       21 0.22596834E-02 0.59000075E+02</pdfrwt>
<totfact> 0.43165271E+06</totfact>
</mgrwt>
</event>
<event>
 4    1  0.4619222E+006  0.2166144E+02  0.7546771E-02  0.1714174E+00
         21   -1    0    0  503  501  0.00000000000E+00  0.00000000000E+00  0.13181990203E+01  0.13181990203E+01  0.00000000000E+00 0. -1.
         21   -1    0    0  501  502 -0.00000000000E+00 -0.00000000000E+00 -0.15504907722E+04  0.15504907722E+04  0.00000000000E+00 0.  1.
         21    1    1    2  503  504 -0.17094266777E+02  0.13304283388E+02 -0.93544949716E+02  0.96020182933E+02  0.00000000000E+00 0. -1.
         21    1    1    2  504  502  0.17094266777E+02 -0.13304283388E+02 -0.14556276235E+04  0.14557887883E+04  0.00000000000E+00 0.  1.
<mgrwt>
<rscale>  2 0.21661438E+02</rscale>
<asrwt>0</asrwt>
<pdfrwt beam="1">  1       21 0.20280038E-03 0.21661438E+02</pdfrwt>
<pdfrwt beam="2">  1       21 0.23853641E+00 0.21661438E+02</pdfrwt>
<totfact> 0.35135038E+06</totfact>
</mgrwt>
</event>
<event>
 4    1  0.4619222E+006  0.2875799E+02  0.7546771E-02  0.1612238E+00
         21   -1    0    0  502  501  0.00000000000E+00  0.00000000000E+00  0.13773881936E+01  0.13773881936E+01  0.00000000000E+00 0.  1.
         21   -1    0    0  504  502 -0.00000000000E+00 -0.00000000000E+00 -0.88353755689E+03  0.88353755689E+03  0.00000000000E+00 0. -1.
         21    1    1    2  503  501  0.28554432462E+02 -0.34156279862E+01 -0.19062118677E+03  0.19277826375E+03  0.00000000000E+00 0.  1.
         21    1    1    2  504  503 -0.28554432462E+02  0.34156279862E+01 -0.69153898193E+03  0.69213668134E+03  0.00000000000E+00 0. -1.
<mgrwt>
<rscale>  2 0.28757992E+02</rscale>
<asrwt>0</asrwt>
<pdfrwt beam="1">  1       21 0.21190629E-03 0.28757992E+02</pdfrwt>
<pdfrwt beam="2">  1       21 0.13592859E+00 0.28757992E+02</pdfrwt>
<totfact> 0.14020460E+07</totfact>
</mgrwt>
</event>
<event>
 4    1  0.4619222E+006  0.2494156E+02  0.7546771E-02  0.1661843E+00
         21   -1    0    0  504  501  0.00000000000E+00  0.00000000000E+00  0.10530348574E+03  0.10530348574E+03  0.00000000000E+00 0.  1.
         21   -1    0    0  503  502 -0.00000000000E+00 -0.00000000000E+00 -0.62450300390E+01  0.62450300390E+01  0.00000000000E+00 0.  1.
         21    1    1    2  503  501  0.14443173315E+02 -0.20334116487E+02  0.62495507288E+02  0.67288706184E+02  0.00000000000E+00 0.  1.
         21    1    1    2  504  502 -0.14443173315E+02  0.20334116487E+02  0.36562948409E+02  0.44259809592E+02  0.00000000000E+00 0.  1.
<mgrwt>
<rscale>  2 0.24941563E+02</rscale>
<asrwt>0</asrwt>
<pdfrwt beam="1">  1       21 0.16200535E-01 0.24941563E+02</pdfrwt>
<pdfrwt beam="2">  1       21 0.96077393E-03 0.24941563E+02</pdfrwt>
<totfact> 0.96236977E+07</totfact>
</mgrwt>
</event>
<event>
 4    1  0.4619222E+006  0.2107769E+02  0.7546771E-02  0.1724709E+00
         21   -1    0    0  502  501  0.00000000000E+00  0.00000000000E+00  0.10275622747E+02  0.10275622747E+02  0.00000000000E+00 0.  1.
         21   -1    0    0  503  502 -0.00000000000E+00 -0.00000000000E+00 -0.57869369710E+03  0.57869369710E+03  0.00000000000E+00 0. -1.
         21    1    1    2  503  504 -0.10065413631E+02  0.18519080790E+02 -0.56747943740E+03  0.56787074302E+03  0.00000000000E+00 0. -1.
         21    1    1    2  504  501  0.10065413631E+02 -0.18519080790E+02 -0.93863695340E+00  0.21098576828E+02  0.00000000000E+00 0.  1.
<mgrwt>
<rscale>  2 0.21077687E+02</rscale>
<asrwt>0</asrwt>
<pdfrwt beam="1">  1       21 0.15808652E-02 0.21077687E+02</pdfrwt>
<pdfrwt beam="2">  1       21 0.89029792E-01 0.21077687E+02</pdfrwt>
<totfact> 0.17554716E+06</totfact>
</mgrwt>
</event>
<event>
 4    1  0.4619222E+006  0.2423710E+02  0.7546771E-02  0.1672208E+00
         21   -1    0    0  503  501  0.00000000000E+00  0.00000000000E+00  0.44416779633E+01  0.44416779633E+01  0.00000000000E+00 0.  1.
         21   -1    0    0  504  502 -0.00000000000E+00 -0.00000000000E+00 -0.15103810484E+03  0.15103810484E+03  0.00000000000E+00 0.  1.
         21    1    1    2  503  502 -0.22757746262E+02 -0.83379862785E+01 -0.10071248938E+03  0.10358784942E+03  0.00000000000E+00 0.  1.
         21    1    1    2  504  501  0.22757746262E+02  0.83379862785E+01 -0.45883937491E+02  0.51891933379E+02  0.00000000000E+00 0.  1.
<mgrwt>
<rscale>  2 0.24237100E+02</rscale>
<asrwt>0</asrwt>
<pdfrwt beam="1">  1       21 0.68333515E-03 0.24237100E+02</pdfrwt>
<pdfrwt beam="2">  1       21 0.23236629E-01 0.24237100E+02</pdfrwt>
<totfact> 0.84765105E+07</totfact>
</mgrwt>
</event>
<event>
 4    1  0.4619222E+006  0.2394574E+02  0.7546771E-02  0.1676623E+00
         21   -1    0    0  502  501  0.00000000000E+00  0.00000000000E+00  0.40856988845E+02  0.40856988845E+02  0.00000000000E+00 0. -1.
         21   -1    0    0  504  502 -0.00000000000E+00 -0.00000000000E+00 -0.41992865125E+02  0.41992865125E+02  0.00000000000E+00 0.  1.
         21    1    1    2  503  501 -0.23917837161E+02 -0.11556510402E+01  0.33233220309E+02  0.40961511152E+02  0.00000000000E+00 0. -1.
         21    1    1    2  504  503  0.23917837161E+02  0.11556510402E+01 -0.34369096588E+02  0.41888342818E+02  0.00000000000E+00 0.  1.
<mgrwt>
<rscale>  2 0.23945740E+02</rscale>
<asrwt>0</asrwt>
<pdfrwt beam="1">  1       21 0.62856906E-02 0.23945740E+02</pdfrwt>
<pdfrwt beam="2">  1       21 0.64604408E-02 0.23945740E+02</pdfrwt>
<totfact> 0.23808021E+07</totfact>
</mgrwt>
</event>
<event>
 4    1  0.4619222E+006  0.2464658E+02  0.7546771E-02  0.1666131E+00
         21   -1    0    0  504  501  0.00000000000E+00  0.00000000000E+00  0.12280130465E+03  0.12280130465E+03  0.00000000000E+00 0. -1.
         21   -1    0    0  503  502 -0.00000000000E+00 -0.00000000000E+00 -0.21170089831E+02  0.21170089831E+02  0.00000000000E+00 0.  1.
         21    1    1    2  503  501 -0.23251857326E+02  0.81734265164E+01  0.11383242663E+03  0.11647006106E+03  0.00000000000E+00 0. -1.
         21    1    1    2  504  502  0.23251857326E+02 -0.81734265164E+01 -0.12201211815E+02  0.27501333420E+02  0.00000000000E+00 0.  1.
<mgrwt>
<rscale>  2 0.24646577E+02</rscale>
<asrwt>0</asrwt>
<pdfrwt beam="1">  1       21 0.18892508E-01 0.24646577E+02</pdfrwt>
<pdfrwt beam="2">  1       21 0.32569370E-02 0.24646577E+02</pdfrwt>
<totfact> 0.11318428E+07</totfact>
</mgrwt>
</event>
<event>
 4    1  0.4619222E+006  0.2393936E+02  0.7546771E-02  0.1676721E+00
         21   -1    0    0  502  501  0.00000000000E+00  0.00000000000E+00  0.10911004228E+03  0.10911004228E+03  0.00000000000E+00 0.  1.
         21   -1    0    0  504  502 -0.00000000000E+00 -0.00000000000E+00 -0.24403114287E+02  0.24403114287E+02  0.00000000000E+00 0. -1.
         21    1    1    2  503  501  0.23604311093E+02  0.39911858368E+01  0.10149104665E+03  0.10427619870E+03  0.00000000000E+00 0.  1.
         21    1    1    2  504  503 -0.23604311093E+02 -0.39911858368E+01 -0.16784118649E+02  0.29236957868E+02  0.00000000000E+00 0. -1.
<mgrwt>
<rscale>  2 0.23939362E+02</rscale>
<asrwt>0</asrwt>
<pdfrwt beam="1">  1       21 0.16786160E-01 0.23939362E+02</pdfrwt>
<pdfrwt beam="2">  1       21 0.37543253E-02 0.23939362E+02</pdfrwt>
<totfact> 0.11048682E+07</totfact>
</mgrwt>
</event>
<event>
 4    1  0.4619222E+006  0.2041698E+02  0.7546771E-02  0.1737161E+00
         21   -1    0    0  504  501  0.00000000000E+00  0.00000000000E+00  0.15698102443E+03  0.15698102443E+03  0.00000000000E+00 0. -1.
         21   -1    0    0  503  502 -0.00000000000E+00 -0.00000000000E+00 -0.26645048531E+01  0.26645048531E+01  0.00000000000E+00 0. -1.
         21    1    1    2  503  501 -0.17845146906E+02  0.99198688708E+01  0.81815131194E+02  0.84324188456E+02  0.00000000000E+00 0. -1.
         21    1    1    2  504  502  0.17845146906E+02 -0.99198688708E+01  0.72501388380E+02  0.75321340824E+02  0.00000000000E+00 0. -1.
<mgrwt>
<rscale>  2 0.20416980E+02</rscale>
<asrwt>0</asrwt>
<pdfrwt beam="1">  1       21 0.24150920E-01 0.20416980E+02</pdfrwt>
<pdfrwt beam="2">  1       21 0.40992395E-03 0.20416980E+02</pdfrwt>
<totfact> 0.16031746E+08</totfact>
</mgrwt>
</event>
<event>
 4    1  0.4619222E+006  0.2077909E+02  0.7546771E-02  0.1730264E+00
         21   -1    0    0  504  501  0.00000000000E+00  0.00000000000E+00  0.28824315597E+02  0.28824315597E+02  0.00000000000E+00 0.  1.
         21   -1    0    0  503  502 -0.00000000000E+00 -0.00000000000E+00 -0.47948488162E+02  0.47948488162E+02  0.00000000000E+00 0. -1.
         21    1    1    2  503  501 -0.20352826499E+02 -0.41872704050E+01 -0.41392585805E+02  0.46315407151E+02  0.00000000000E+00 0. -1.
         21    1    1    2  504  502  0.20352826499E+02  0.41872704050E+01  0.22268413239E+02  0.30457396608E+02  0.00000000000E+00 0.  1.
<mgrwt>
<rscale>  2 0.20779095E+02</rscale>
<asrwt>0</asrwt>
<pdfrwt beam="1">  1       21 0.44345101E-02 0.20779095E+02</pdfrwt>
<pdfrwt beam="2">  1       21 0.73766905E-02 0.20779095E+02</pdfrwt>
<totfact> 0.32393389E+07</totfact>
</mgrwt>
</event>
<event>
 4    1  0.4619222E+006  0.4428972E+02  0.7546771E-02  0.1478825E+00
         21   -1    0    0  504  501  0.00000000000E+00  0.00000000000E+00  0.11076805800E+03  0.11076805800E+03  0.00000000000E+00 0. -1.
         21   -1    0    0  503  502 -0.00000000000E+00 -0.00000000000E+00 -0.17709155803E+02  0.17709155803E+02  0.00000000000E+00 0. -1.
         21    1    1    2  503  501 -0.44263942556E+02  0.15109938054E+01  0.46282097198E+02  0.64059442973E+02  0.00000000000E+00 0. -1.
         21    1    1    2  504  502  0.44263942556E+02 -0.15109938054E+01  0.46776805000E+02  0.64417770832E+02  0.00000000000E+00 0. -1.
<mgrwt>
<rscale>  2 0.44289725E+02</rscale>
<asrwt>0</asrwt>
<pdfrwt beam="1">  1       21 0.17041239E-01 0.44289725E+02</pdfrwt>
<pdfrwt beam="2">  1       21 0.27244856E-02 0.44289725E+02</pdfrwt>
<totfact> 0.19806943E+07</totfact>
</mgrwt>
</event>
<event>
 4    1  0.4619222E+006  0.2641308E+02  0.7546771E-02  0.1641497E+00
         21   -1    0    0  503  501  0.00000000000E+00  0.00000000000E+00  0.64824682682E+01  0.64824682682E+01  0.00000000000E+00 0. -1.
         21   -1    0    0  504  502 -0.00000000000E+00 -0.00000000000E+00 -0.18214910023E+03  0.18214910023E+03  0.00000000000E+00 0. -1.
         21    1    1    2  503  502 -0.18844965847E+02  0.18507243145E+02 -0.14816291101E+03  0.15049883384E+03  0.00000000000E+00 0. -1.
         21    1    1    2  504  501  0.18844965847E+02 -0.18507243145E+02 -0.27503720947E+02  0.38132734659E+02  0.00000000000E+00 0. -1.
<mgrwt>
<rscale>  2 0.26413080E+02</rscale>
<asrwt>0</asrwt>
<pdfrwt beam="1">  1       21 0.99730269E-03 0.26413080E+02</pdfrwt>
<pdfrwt beam="2">  1       21 0.28022942E-01 0.26413080E+02</pdfrwt>
<totfact> 0.35063516E+07</totfact>
</mgrwt>
</event>
<event>
 4    1  0.4619222E+006  0.2673660E+02  0.7546771E-02  0.1637242E+00
         21   -1    0    0  504  501  0.00000000000E+00  0.00000000000E+00  0.54044272216E+03  0.54044272216E+03  0.00000000000E+00 0.  1.
         21   -1    0    0  503  502 -0.00000000000E+00 -0.00000000000E+00 -0.14670745900E+01  0.14670745900E+01  0.00000000000E+00 0.  1.
         21    1    1    2  503  501 -0.42980275234E+01  0.26388876789E+02  0.35448607162E+03  0.35549292656E+03  0.00000000000E+00 0.  1.
         21    1    1    2  504  502  0.42980275234E+01 -0.26388876789E+02  0.18448957595E+03  0.18641687020E+03  0.00000000000E+00 0.  1.
<mgrwt>
<rscale>  2 0.26736601E+02</rscale>
<asrwt>0</asrwt>
<pdfrwt beam="1">  1       21 0.83144875E-01 0.26736601E+02</pdfrwt>
<pdfrwt beam="2">  1       21 0.22570421E-03 0.26736601E+02</pdfrwt>
<totfact> 0.37876615E+07</totfact>
</mgrwt>
</event>
<event>
 4    1  0.4619222E+006  0.7187396E+02  0.7546771E-02  0.1353834E+00
         21   -1    0    0  504  501  0.00000000000E+00  0.00000000000E+00  0.45793862833E+02  0.45793862833E+02  0.00000000000E+00 0.  1.
         21   -1    0    0  503  502 -0.00000000000E+00 -0.00000000000E+00 -0.14109579155E+03  0.14109579155E+03  0.00000000000E+00 0.  1.
         21    1    1    2  503  501 -0.62849746920E+02  0.34867963576E+02 -0.58095951766E+01  0.72108369611E+02  0.00000000000E+00 0.  1.
         21    1    1    2  504  502  0.62849746920E+02 -0.34867963576E+02 -0.89492333544E+02  0.11478128478E+03  0.00000000000E+00 0.  1.
<mgrwt>
<rscale>  2 0.71873956E+02</rscale>
<asrwt>0</asrwt>
<pdfrwt beam="1">  1       21 0.70452098E-02 0.71873956E+02</pdfrwt>
<pdfrwt beam="2">  1       21 0.21707044E-01 0.71873956E+02</pdfrwt>
<totfact> 0.28542006E+06</totfact>
</mgrwt>
</event>
<event>
 4    1  0.4619222E+006  0.3109037E+02  0.7546771E-02  0.1586340E+00
         21   -1    0    0  504  501  0.00000000000E+00  0.00000000000E+00  0.91250207599E+03  0.91250207599E+03  0.00000000000E+00 0. -1.
         21   -1    0    0  503  502 -0.00000000000E+00 -0.00000000000E+00 -0.18330471085E+02  0.18330471085E+02  0.00000000000E+00 0. -1.
         21    1    1    2  503  501  0.29476329010E+02 -0.98872247787E+01 -0.46824163651E+01  0.31440995670E+02  0.00000000000E+00 0. -1.
         21    1    1    2  504  502 -0.29476329010E+02  0.98872247787E+01  0.89885402127E+03  0.89939155141E+03  0.00000000000E+00 0. -1.
<mgrwt>
<rscale>  2 0.31090371E+02</rscale>
<asrwt>0</asrwt>
<pdfrwt beam="1">  1       21 0.14038490E+00 0.31090371E+02</pdfrwt>
<pdfrwt beam="2">  1       21 0.28200732E-02 0.31090371E+02</pdfrwt>
<totfact> 0.26400238E+05</totfact>
</mgrwt>
</event>
<event>
 4    1  0.4619222E+006  0.3285174E+02  0.7546771E-02  0.1568549E+00
         21   -1    0    0  503  501  0.00000000000E+00  0.00000000000E+00  0.11092154525E+02  0.11092154525E+02  0.00000000000E+00 0.  1.
         21   -1    0    0  501  502 -0.00000000000E+00 -0.00000000000E+00 -0.19065840505E+03  0.19065840505E+03  0.00000000000E+00 0.  1.
         21    1    1    2  503  504 -0.29091773503E+02 -0.15261245492E+02 -0.19193687701E+02  0.38047792933E+02  0.00000000000E+00 0.  1.
         21    1    1    2  504  502  0.29091773503E+02  0.15261245492E+02 -0.16037256283E+03  0.16370276665E+03  0.00000000000E+00 0.  1.
<mgrwt>
<rscale>  2 0.32851741E+02</rscale>
<asrwt>0</asrwt>
<pdfrwt beam="1">  1       21 0.17064853E-02 0.32851741E+02</pdfrwt>
<pdfrwt beam="2">  1       21 0.29332063E-01 0.32851741E+02</pdfrwt>
<totfact> 0.14797535E+07</totfact>
</mgrwt>
</event>
<event>
 4    1  0.4619222E+006  0.2726684E+02  0.7546771E-02  0.1630427E+00
         21   -1    0    0  504  501  0.00000000000E+00  0.00000000000E+00  0.10236795038E+01  0.10236795038E+01  0.00000000000E+00 0. -1.
         21   -1    0    0  501  502 -0.00000000000E+00 -0.00000000000E+00 -0.14722526138E+04  0.14722526138E+04  0.00000000000E+00 0. -1.
         21    1    1    2  503  502 -0.26655276587E+02 -0.57425603783E+01 -0.12599673717E+04  0.12602623769E+04  0.00000000000E+00 0. -1.
         21    1    1    2  504  503  0.26655276587E+02  0.57425603783E+01 -0.21126156252E+03  0.21301391637E+03  0.00000000000E+00 0. -1.
<mgrwt>
<rscale>  2 0.27266844E+02</rscale>
<asrwt>0</asrwt>
<pdfrwt beam="1">  1       21 0.15749039E-03 0.27266844E+02</pdfrwt>
<pdfrwt beam="2">  1       21 0.22649862E+00 0.27266844E+02</pdfrwt>
<totfact> 0.59218755E+06</totfact>
</mgrwt>
</event>
<event>
 4    1  0.4619222E+006  0.3699154E+02  0.7546771E-02  0.1531594E+00
         21   -1    0    0  504  501  0.00000000000E+00  0.00000000000E+00  0.11145910550E+04  0.11145910550E+04  0.00000000000E+00 0. -1.
         21   -1    0    0  503  502 -0.00000000000E+00 -0.00000000000E+00 -0.78281972041E+02  0.78281972041E+02  0.00000000000E+00 0.  1.
         21    1    1    2  503  501  0.33624062112E+02  0.15420662677E+02 -0.73586549180E+02  0.82361123174E+02  0.00000000000E+00 0.  1.
         21    1    1    2  504  502 -0.33624062112E+02 -0.15420662677E+02  0.11098956321E+04  0.11105119038E+04  0.00000000000E+00 0. -1.
<mgrwt>
<rscale>  2 0.36991545E+02</rscale>
<asrwt>0</asrwt>
<pdfrwt beam="1">  1       21 0.17147554E+00 0.36991545E+02</pdfrwt>
<pdfrwt beam="2">  1       21 0.12043381E-01 0.36991545E+02</pdfrwt>
<totfact> 0.14997691E+04</totfact>
</mgrwt>
</event>
<event>
 4    1  0.4619222E+006  0.2096572E+02  0.7546771E-02  0.1726779E+00
         21   -1    0    0  503  501  0.00000000000E+00  0.00000000000E+00  0.61057054453E+02  0.61057054453E+02  0.00000000000E+00 0. -1.
         21   -1    0    0  504  502 -0.00000000000E+00 -0.00000000000E+00 -0.14978786614E+03  0.14978786614E+03  0.00000000000E+00 0. -1.
         21    1    1    2  503  502 -0.16789293693E+02 -0.12557114054E+02 -0.14722323278E+03  0.14870858000E+03  0.00000000000E+00 0. -1.
         21    1    1    2  504  501  0.16789293693E+02  0.12557114054E+02  0.58492421096E+02  0.62136340588E+02  0.00000000000E+00 0. -1.
<mgrwt>
<rscale>  2 0.20965722E+02</rscale>
<asrwt>0</asrwt>
<pdfrwt beam="1">  1       21 0.93933932E-02 0.20965722E+02</pdfrwt>
<pdfrwt beam="2">  1       21 0.23044286E-01 0.20965722E+02</pdfrwt>
<totfact> 0.14306569E+06</totfact>
</mgrwt>
</event>
<event>
 4    1  0.4619222E+006  0.2356189E+02  0.7546771E-02  0.1682561E+00
         21   -1    0    0  504  501  0.00000000000E+00  0.00000000000E+00  0.38466264028E+01  0.38466264028E+01  0.00000000000E+00 0.  1.
         21   -1    0    0  503  502 -0.00000000000E+00 -0.00000000000E+00 -0.14489099657E+03  0.14489099657E+03  0.00000000000E+00 0. -1.
         21    1    1    2  503  501 -0.73740741333E+01  0.22378239892E+02 -0.75172186328E+02  0.78778297692E+02  0.00000000000E+00 0.  1.
         21    1    1    2  504  502  0.73740741333E+01 -0.22378239892E+02 -0.65872183844E+02  0.69959325285E+02  0.00000000000E+00 0. -1.
<mgrwt>
<rscale>  2 0.23561889E+02</rscale>
<asrwt>0</asrwt>
<pdfrwt beam="1">  1       21 0.59178869E-03 0.23561889E+02</pdfrwt>
<pdfrwt beam="2">  1       21 0.22290922E-01 0.23561889E+02</pdfrwt>
<totfact> 0.11210623E+08</totfact>
</mgrwt>
</event>
<event>
 4    1  0.4619222E+006  0.3081508E+02  0.7546771E-02  0.1589250E+00
         21   -1    0    0  504  501  0.00000000000E+00  0.00000000000E+00  0.21683113141E+01  0.21683113141E+01  0.00000000000E+00 0.  1.
         21   -1    0    0  503  502 -0.00000000000E+00 -0.00000000000E+00 -0.44340660243E+03  0.44340660243E+03  0.00000000000E+00 0.  1.
         21    1    1    2  503  501 -0.30663794715E+02 -0.30497547904E+01 -0.24537807103E+03  0.24730541250E+03  0.00000000000E+00 0.  1.
         21    1    1    2  504  502  0.30663794715E+02  0.30497547904E+01 -0.19586022009E+03  0.19826950124E+03  0.00000000000E+00 0.  1.
<mgrwt>
<rscale>  2 0.30815083E+02</rscale>
<asrwt>0</asrwt>
<pdfrwt beam="1">  1       21 0.33358604E-03 0.30815083E+02</pdfrwt>
<pdfrwt beam="2">  1       21 0.68216466E-01 0.30815083E+02</pdfrwt>
<totfact> 0.33237244E+07</totfact>
</mgrwt>
</event>
<event>
 4    1  0.4619222E+006  0.2501613E+02  0.7546771E-02  0.1660770E+00
         21   -1    0    0  503  501  0.00000000000E+00  0.00000000000E+00  0.41447255368E+02  0.41447255368E+02  0.00000000000E+00 0.  1.
         21   -1    0    0  504  502 -0.00000000000E+00 -0.00000000000E+00 -0.36352639589E+02  0.36352639589E+02  0.00000000000E+00 0. -1.
         21    1    1    2  503  502  0.15716337530E+02  0.19462872793E+02 -0.27196668863E+02  0.36952205346E+02  0.00000000000E+00 0. -1.
         21    1    1    2  504  501 -0.15716337530E+02 -0.19462872793E+02  0.32291284642E+02  0.40847689611E+02  0.00000000000E+00 0.  1.
<mgrwt>
<rscale>  2 0.25016128E+02</rscale>
<asrwt>0</asrwt>
<pdfrwt beam="1">  1       21 0.63765008E-02 0.25016128E+02</pdfrwt>
<pdfrwt beam="2">  1       21 0.55927138E-02 0.25016128E+02</pdfrwt>
<totfact> 0.29634023E+07</totfact>
</mgrwt>
</event>
<event>
 4    1  0.4619222E+006  0.2166762E+02  0.7546771E-02  0.1714064E+00
         21   -1    0    0  503  501  0.00000000000E+00  0.00000000000E+00  0.22177407737E+03  0.22177407737E+03  0.00000000000E+00 0.  1.
         21   -1    0    0  504  502 -0.00000000000E+00 -0.00000000000E+00 -0.20836313035E+03  0.20836313035E+03  0.00000000000E+00 0. -1.
         21    1    1    2  503  502  0.21294285408E+02 -0.40049111132E+01  0.22067874669E+03  0.22173992682E+03  0.00000000000E+00 0.  1.
         21    1    1    2  504  501 -0.21294285408E+02  0.40049111132E+01 -0.20726779967E+03  0.20839728090E+03  0.00000000000E+00 0. -1.
<mgrwt>
<rscale>  2 0.21667623E+02</rscale>
<asrwt>0</asrwt>
<pdfrwt beam="1">  1       21 0.34119089E-01 0.21667623E+02</pdfrwt>
<pdfrwt beam="2">  1       21 0.32055866E-01 0.21667623E+02</pdfrwt>
<totfact> 0.85315230E+04</totfact>
</mgrwt>
</event>
<event>
 4    1  0.4619222E+006  0.2681869E+02  0.7546771E-02  0.1636174E+00
         21   -1    0    0  504  501  0.00000000000E+00  0.00000000000E+00  0.54170114197E+02  0.54170114197E+02  0.00000000000E+00 0. -1.
         21   -1    0    0  501  502 -0.00000000000E+00 -0.00000000000E+00 -0.22681290851E+02  0.22681290851E+02  0.00000000000E+00 0.  1.
         21    1    1    2  503  502  0.62503551045E+01  0.26080173602E+02 -0.89978824998E+01  0.28287882273E+02  0.00000000000E+00 0.  1.
         21    1    1    2  504  503 -0.62503551045E+01 -0.26080173602E+02  0.40486705846E+02  0.48563522775E+02  0.00000000000E+00 0. -1.
<mgrwt>
<rscale>  2 0.26818695E+02</rscale>
<asrwt>0</asrwt>
<pdfrwt beam="1">  1       21 0.83338637E-02 0.26818695E+02</pdfrwt>
<pdfrwt beam="2">  1       21 0.34894294E-02 0.26818695E+02</pdfrwt>
<totfact> 0.41186424E+07</totfact>
</mgrwt>
</event>
<event>
 4    1  0.4619222E+006  0.4936881E+02  0.7546771E-02  0.1448776E+00
         21   -1    0    0  503  501  0.00000000000E+00  0.00000000000E+00  0.32393380109E+02  0.32393380109E+02  0.00000000000E+00 0.  1.
         21   -1    0    0  504  502 -0.00000000000E+00 -0.00000000000E+00 -0.15913955511E+03  0.15913955511E+03  0.00000000000E+00 0.  1.
         21    1    1    2  503  502 -0.48285617240E+02  0.10284851485E+02  0.61620217273E+01  0.49751879503E+02  0.00000000000E+00 0.  1.
         21    1    1    2  504  501  0.48285617240E+02 -0.10284851485E+02 -0.13290819673E+03  0.14178105572E+03  0.00000000000E+00 0.  1.
<mgrwt>
<rscale>  2 0.49368806E+02</rscale>
<asrwt>0</asrwt>
<pdfrwt beam="1">  1       21 0.49835969E-02 0.49368806E+02</pdfrwt>
<pdfrwt beam="2">  1       21 0.24483008E-01 0.49368806E+02</pdfrwt>
<totfact> 0.39565298E+06</totfact>
</mgrwt>
</event>
<event>
 4    1  0.4619222E+006  0.3321359E+02  0.7546771E-02  0.1565062E+00
         21   -1    0    0  504  501  0.00000000000E+00  0.00000000000E+00  0.10426344233E+02  0.10426344233E+02  0.00000000000E+00 0. -1.
         21   -1    0    0  503  502 -0.00000000000E+00 -0.00000000000E+00 -0.10751162743E+03  0.10751162743E+03  0.00000000000E+00 0. -1.
         21    1    1    2  503  501 -0.97740891283E+01 -0.31742867065E+02 -0.41109511531E+02  0.52850112262E+02  0.00000000000E+00 0. -1.
         21    1    1    2  504  502  0.97740891283E+01  0.31742867065E+02 -0.55975771669E+02  0.65087859404E+02  0.00000000000E+00 0. -1.
<mgrwt>
<rscale>  2 0.33213588E+02</rscale>
<asrwt>0</asrwt>
<pdfrwt beam="1">  1       21 0.16040530E-02 0.33213588E+02</pdfrwt>
<pdfrwt beam="2">  1       21 0.16540250E-01 0.33213588E+02</pdfrwt>
<totfact> 0.45444916E+07</totfact>
</mgrwt>
</event>
<event>
 4    1  0.4619222E+006  0.2976549E+02  0.7546771E-02  0.1600695E+00
         21   -1    0    0  504  501  0.00000000000E+00  0.00000000000E+00  0.24541988722E+03  0.24541988722E+03  0.00000000000E+00 0. -1.
         21   -1    0    0  503  502 -0.00000000000E+00 -0.00000000000E+00 -0.11565486606E+02  0.11565486606E+02  0.00000000000E+00 0.  1.
         21    1    1    2  503  501 -0.28749748149E+02 -0.77095008180E+01  0.22349543171E+03  0.22546882804E+03  0.00000000000E+00 0. -1.
         21    1    1    2  504  502  0.28749748149E+02  0.77095008180E+01  0.10358968901E+02  0.31516545785E+02  0.00000000000E+00 0.  1.
<mgrwt>
<rscale>  2 0.29765490E+02</rscale>
<asrwt>0</asrwt>
<pdfrwt beam="1">  1       21 0.37756902E-01 0.29765490E+02</pdfrwt>
<pdfrwt beam="2">  1       21 0.17793058E-02 0.29765490E+02</pdfrwt>
<totfact> 0.85330705E+06</totfact>
</mgrwt>
</event>
<event>
 4    1  0.4619222E+006  0.2704119E+02  0.7546771E-02  0.1633304E+00
         21   -1    0    0  504  501  0.00000000000E+00  0.00000000000E+00  0.73127963460E+02  0.73127963460E+02  0.00000000000E+00 0. -1.
         21   -1    0    0  501  502 -0.00000000000E+00 -0.00000000000E+00 -0.16037938783E+02  0.16037938783E+02  0.00000000000E+00 0.  1.
         21    1    1    2  503  502  0.23453666331E+02 -0.13459257098E+02  0.11882162776E+01  0.27067285123E+02  0.00000000000E+00 0.  1.
         21    1    1    2  504  503 -0.23453666331E+02  0.13459257098E+02  0.55901808399E+02  0.62098617120E+02  0.00000000000E+00 0. -1.
<mgrwt>
<rscale>  2 0.27041192E+02</rscale>
<asrwt>0</asrwt>
<pdfrwt beam="1">  1       21 0.11250456E-01 0.27041192E+02</pdfrwt>
<pdfrwt beam="2">  1       21 0.24673752E-02 0.27041192E+02</pdfrwt>
<totfact> 0.43115533E+07</totfact>
</mgrwt>
</event>
<event>
 4    1  0.4619222E+006  0.2253133E+02  0.7546771E-02  0.1699222E+00
         21   -1    0    0  503  501  0.00000000000E+00  0.00000000000E+00  0.96387869795E+00  0.96387869795E+00  0.00000000000E+00 0.  1.
         21   -1    0    0  504  502 -0.00000000000E+00 -0.00000000000E+00 -0.74882664339E+03  0.74882664339E+03  0.00000000000E+00 0.  1.
         21    1    1    2  503  502 -0.18654128178E+02 -0.12636630203E+02 -0.16974168702E+03  0.17123054994E+03  0.00000000000E+00 0.  1.
         21    1    1    2  504  501  0.18654128178E+02  0.12636630203E+02 -0.57812107768E+03  0.57855997215E+03  0.00000000000E+00 0.  1.
<mgrwt>
<rscale>  2 0.22531332E+02</rscale>
<asrwt>0</asrwt>
<pdfrwt beam="1">  1       21 0.14828952E-03 0.22531332E+02</pdfrwt>
<pdfrwt beam="2">  1       21 0.11520372E+00 0.22531332E+02</pdfrwt>
<totfact> 0.32936689E+07</totfact>
</mgrwt>
</event>
<event>
 4    1  0.4619222E+006  0.2903877E+02  0.7546771E-02  0.1608963E+00
         21   -1    0    0  502  501  0.00000000000E+00  0.00000000000E+00  0.93557438367E+01  0.93557438367E+01  0.00000000000E+00 0.  1.
         21   -1    0    0  504  502 -0.00000000000E+00 -0.00000000000E+00 -0.24415981872E+03  0.24415981872E+03  0.00000000000E+00 0.  1.
         21    1    1    2  503  501 -0.20034167957E+02 -0.21020995848E+02 -0.16723388610E+02  0.33510026541E+02  0.00000000000E+00 0.  1.
         21    1    1    2  504  503  0.20034167957E+02  0.21020995848E+02 -0.21808068627E+03  0.22000553601E+03  0.00000000000E+00 0.  1.
<mgrwt>
<rscale>  2 0.29038770E+02</rscale>
<asrwt>0</asrwt>
<pdfrwt beam="1">  1       21 0.14393454E-02 0.29038770E+02</pdfrwt>
<pdfrwt beam="2">  1       21 0.37563044E-01 0.29038770E+02</pdfrwt>
<totfact> 0.11888254E+07</totfact>
</mgrwt>
</event>
<event>
 4    1  0.4619222E+006  0.2157974E+02  0.7546771E-02  0.1715623E+00
         21   -1    0    0  504  501  0.00000000000E+00  0.00000000000E+00  0.71842750696E+02  0.71842750696E+02  0.00000000000E+00 0. -1.
         21   -1    0    0  501  502 -0.00000000000E+00 -0.00000000000E+00 -0.50192507138E+02  0.50192507138E+02  0.00000000000E+00 0.  1.
         21    1    1    2  503  502  0.20630311872E+02  0.63304985714E+01 -0.46116362899E+02  0.50915654834E+02  0.00000000000E+00 0.  1.
         21    1    1    2  504  503 -0.20630311872E+02 -0.63304985714E+01  0.67766606458E+02  0.71119603000E+02  0.00000000000E+00 0. -1.
<mgrwt>
<rscale>  2 0.21579735E+02</rscale>
<asrwt>0</asrwt>
<pdfrwt beam="1">  1       21 0.11052731E-01 0.21579735E+02</pdfrwt>
<pdfrwt beam="2">  1       21 0.77219242E-02 0.21579735E+02</pdfrwt>
<totfact> 0.69350695E+06</totfact>
</mgrwt>
</event>
<event>
 4    1  0.4619222E+006  0.2860857E+02  0.7546771E-02  0.1613999E+00
         21   -1    0    0  504  501  0.00000000000E+00  0.00000000000E+00  0.79356069953E+03  0.79356069953E+03  0.00000000000E+00 0.  1.
         21   -1    0    0  501  502 -0.00000000000E+00 -0.00000000000E+00 -0.16771310176E+03  0.16771310176E+03  0.00000000000E+00 0. -1.
         21    1    1    2  503  502  0.28422811764E+02  0.32548373321E+01 -0.16623296633E+03  0.16867675978E+03  0.00000000000E+00 0. -1.
         21    1    1    2  504  503 -0.28422811764E+02 -0.32548373321E+01  0.79208056410E+03  0.79259704152E+03  0.00000000000E+00 0.  1.
<mgrwt>
<rscale>  2 0.28608569E+02</rscale>
<asrwt>0</asrwt>
<pdfrwt beam="1">  1       21 0.12208626E+00 0.28608569E+02</pdfrwt>
<pdfrwt beam="2">  1       21 0.25802016E-01 0.28608569E+02</pdfrwt>
<totfact> 0.92043499E+03</totfact>
</mgrwt>
</event>
<event>
 4    1  0.4619222E+006  0.2427320E+02  0.7546771E-02  0.1671666E+00
         21   -1    0    0  504  501  0.00000000000E+00  0.00000000000E+00  0.11842719811E+01  0.11842719811E+01  0.00000000000E+00 0.  1.
         21   -1    0    0  503  502 -0.00000000000E+00 -0.00000000000E+00 -0.12391528066E+04  0.12391528066E+04  0.00000000000E+00 0.  1.
         21    1    1    2  503  501  0.24237193816E+02 -0.13216254603E+01 -0.13920174879E+03  0.14130221203E+03  0.00000000000E+00 0.  1.
         21    1    1    2  504  502 -0.24237193816E+02  0.13216254603E+01 -0.10987667859E+04  0.10990348666E+04  0.00000000000E+00 0.  1.
<mgrwt>
<rscale>  2 0.24273200E+02</rscale>
<asrwt>0</asrwt>
<pdfrwt beam="1">  1       21 0.18219583E-03 0.24273200E+02</pdfrwt>
<pdfrwt beam="2">  1       21 0.19063875E+00 0.24273200E+02</pdfrwt>
<totfact> 0.74861372E+06</totfact>
</mgrwt>
</event>
<event>
 4    1  0.4619222E+006  0.2512283E+02  0.7546771E-02  0.1659244E+00
         21   -1    0    0  504  501  0.00000000000E+00  0.00000000000E+00  0.53608144045E+03  0.53608144045E+03  0.00000000000E+00 0.  1.
         21   -1    0    0  503  502 -0.00000000000E+00 -0.00000000000E+00 -0.16251299151E+01  0.16251299151E+01  0.00000000000E+00 0.  1.
         21    1    1    2  503  501 -0.38750005030E+01 -0.24822186702E+02  0.40835272053E+03  0.40912479874E+03  0.00000000000E+00 0.  1.
         21    1    1    2  504  502  0.38750005030E+01  0.24822186702E+02  0.12610359000E+03  0.12858177162E+03  0.00000000000E+00 0.  1.
<mgrwt>
<rscale>  2 0.25122830E+02</rscale>
<asrwt>0</asrwt>
<pdfrwt beam="1">  1       21 0.82473926E-01 0.25122830E+02</pdfrwt>
<pdfrwt beam="2">  1       21 0.25002042E-03 0.25122830E+02</pdfrwt>
<totfact> 0.32800420E+07</totfact>
</mgrwt>
</event>
<event>
 4    1  0.4619222E+006  0.2724190E+02  0.7546771E-02  0.1630743E+00
         21   -1    0    0  503  501  0.00000000000E+00  0.00000000000E+00  0.23417622803E+02  0.23417622803E+02  0.00000000000E+00 0. -1.
         21   -1    0    0  501  502 -0.00000000000E+00 -0.00000000000E+00 -0.41158323146E+03  0.41158323146E+03  0.00000000000E+00 0.  1.
         21    1    1    2  503  504 -0.48160225007E+00  0.27237641712E+02  0.14876469609E+02  0.31039175486E+02  0.00000000000E+00 0. -1.
         21    1    1    2  504  502  0.48160225007E+00 -0.27237641712E+02 -0.40304207827E+03  0.40396167878E+03  0.00000000000E+00 0.  1.
<mgrwt>
<rscale>  2 0.27241899E+02</rscale>
<asrwt>0</asrwt>
<pdfrwt beam="1">  1       21 0.36027114E-02 0.27241899E+02</pdfrwt>
<pdfrwt beam="2">  1       21 0.63320494E-01 0.27241899E+02</pdfrwt>
<totfact> 0.10216803E+06</totfact>
</mgrwt>
</event>
<event>
 4    1  0.4619222E+006  0.2789173E+02  0.7546771E-02  0.1622634E+00
         21   -1    0    0  504  501  0.00000000000E+00  0.00000000000E+00  0.18667879754E+03  0.18667879754E+03  0.00000000000E+00 0. -1.
         21   -1    0    0  501  502 -0.00000000000E+00 -0.00000000000E+00 -0.17888454722E+02  0.17888454722E+02  0.00000000000E+00 0.  1.
         21    1    1    2  503  502 -0.26338669469E+02 -0.91773196895E+01 -0.51856110055E+01  0.28369689240E+02  0.00000000000E+00 0.  1.
         21    1    1    2  504  503  0.26338669469E+02  0.91773196895E+01  0.17397595382E+03  0.17619756302E+03  0.00000000000E+00 0. -1.
<mgrwt>
<rscale>  2 0.27891732E+02</rscale>
<asrwt>0</asrwt>
<pdfrwt beam="1">  1       21 0.28719814E-01 0.27891732E+02</pdfrwt>
<pdfrwt beam="2">  1       21 0.27520701E-02 0.27891732E+02</pdfrwt>
<totfact> 0.71332761E+06</totfact>
</mgrwt>
</event>
<event>
 4    1  0.4619222E+006  0.2168693E+02  0.7546771E-02  0.1713723E+00
         21   -1    0    0  502  501  0.00000000000E+00  0.00000000000E+00  0.53139139042E+02  0.53139139042E+02  0.00000000000E+00 0.  1.
         21   -1    0    0  503  502 -0.00000000000E+00 -0.00000000000E+00 -0.12093754895E+02  0.12093754895E+02  0.00000000000E+00 0. -1.
         21    1    1    2  503  504 -0.14546092939E+02  0.16085219954E+02  0.36327758859E+01  0.21989092328E+02  0.00000000000E+00 0. -1.
         21    1    1    2  504  501  0.14546092939E+02 -0.16085219954E+02  0.37412608261E+02  0.43243801610E+02  0.00000000000E+00 0.  1.
<mgrwt>
<rscale>  2 0.21686934E+02</rscale>
<asrwt>0</asrwt>
<pdfrwt beam="1">  1       21 0.81752521E-02 0.21686934E+02</pdfrwt>
<pdfrwt beam="2">  1       21 0.18605777E-02 0.21686934E+02</pdfrwt>
<totfact> 0.10662338E+08</totfact>
</mgrwt>
</event>
<event>
 4    1  0.4619222E+006  0.3038030E+02  0.7546771E-02  0.1593923E+00
         21   -1    0    0  504  501  0.00000000000E+00  0.00000000000E+00  0.71984942596E+03  0.71984942596E+03  0.00000000000E+00 0. -1.
         21   -1    0    0  503  502 -0.00000000000E+00 -0.00000000000E+00 -0.17450692265E+02  0.17450692265E+02  0.00000000000E+00 0.  1.
         21    1    1    2  503  501  0.39873378928E+01  0.30117496775E+02 -0.36493755749E+01  0.30598699606E+02  0.00000000000E+00 0.  1.
         21    1    1    2  504  502 -0.39873378928E+01 -0.30117496775E+02  0.70604810927E+03  0.70670141862E+03  0.00000000000E+00 0. -1.
<mgrwt>
<rscale>  2 0.30380297E+02</rscale>
<asrwt>0</asrwt>
<pdfrwt beam="1">  1       21 0.11074604E+00 0.30380297E+02</pdfrwt>
<pdfrwt beam="2">  1       21 0.26847224E-02 0.30380297E+02</pdfrwt>
<totfact> 0.49368281E+05</totfact>
</mgrwt>
</event>
<event>
 4    1  0.4619222E+006  0.2665021E+02  0.7546771E-02  0.1638371E+00
         21   -1    0    0  503  501  0.00000000000E+00  0.00000000000E+00  0.53588259657E+02  0.53588259657E+02  0.00000000000E+00 0. -1.
         21   -1    0    0  504  502 -0.00000000000E+00 -0.00000000000E+00 -0.27705507638E+02  0.27705507638E+02  0.00000000000E+00 0. -1.
         21    1    1    2  503  502  0.18234058156E+02 -0.19435866994E+02 -0.16415361113E+02  0.31300125928E+02  0.00000000000E+00 0. -1.
         21    1    1    2  504  501 -0.18234058156E+02  0.19435866994E+02  0.42298113131E+02  0.49993641367E+02  0.00000000000E+00 0. -1.
<mgrwt>
<rscale>  2 0.26650212E+02</rscale>
<asrwt>0</asrwt>
<pdfrwt beam="1">  1       21 0.82443476E-02 0.26650212E+02</pdfrwt>
<pdfrwt beam="2">  1       21 0.42623858E-02 0.26650212E+02</pdfrwt>
<totfact> 0.30503590E+07</totfact>
</mgrwt>
</event>
<event>
 4    1  0.4619222E+006  0.2101746E+02  0.7546771E-02  0.1725820E+00
         21   -1    0    0  504  501  0.00000000000E+00  0.00000000000E+00  0.83096866310E+00  0.83096866310E+00  0.00000000000E+00 0. -1.
         21   -1    0    0  503  502 -0.00000000000E+00 -0.00000000000E+00 -0.58311505361E+03  0.58311505361E+03  0.00000000000E+00 0. -1.
         21    1    1    2  503  501  0.13075343593E+02 -0.16455054359E+02 -0.20434979535E+03  0.20542777875E+03  0.00000000000E+00 0. -1.
         21    1    1    2  504  502 -0.13075343593E+02  0.16455054359E+02 -0.37793428960E+03  0.37851824352E+03  0.00000000000E+00 0. -1.
<mgrwt>
<rscale>  2 0.21017455E+02</rscale>
<asrwt>0</asrwt>
<pdfrwt beam="1">  1       21 0.12784089E-03 0.21017455E+02</pdfrwt>
<pdfrwt beam="2">  1       21 0.89710320E-01 0.21017455E+02</pdfrwt>
<totfact> 0.69303550E+07</totfact>
</mgrwt>
</event>
<event>
 4    1  0.4619222E+006  0.2683713E+02  0.7546771E-02  0.1635935E+00
         21   -1    0    0  504  501  0.00000000000E+00  0.00000000000E+00  0.48690698115E+01  0.48690698115E+01  0.00000000000E+00 0.  1.
         21   -1    0    0  503  502 -0.00000000000E+00 -0.00000000000E+00 -0.20296855169E+03  0.20296855169E+03  0.00000000000E+00 0.  1.
         21    1    1    2  503  501 -0.15617896495E+02  0.21824595651E+02 -0.15316922704E+03  0.15550255232E+03  0.00000000000E+00 0.  1.
         21    1    1    2  504  502  0.15617896495E+02 -0.21824595651E+02 -0.44930254834E+02  0.52335069177E+02  0.00000000000E+00 0.  1.
<mgrwt>
<rscale>  2 0.26837132E+02</rscale>
<asrwt>0</asrwt>
<pdfrwt beam="1">  1       21 0.74908740E-03 0.26837132E+02</pdfrwt>
<pdfrwt beam="2">  1       21 0.31225942E-01 0.26837132E+02</pdfrwt>
<totfact> 0.44393731E+07</totfact>
</mgrwt>
</event>
<event>
 4    1  0.4619222E+006  0.4020209E+02  0.7546771E-02  0.1506730E+00
         21   -1    0    0  503  501  0.00000000000E+00  0.00000000000E+00  0.26776058789E+03  0.26776058789E+03  0.00000000000E+00 0.  1.
         21   -1    0    0  504  502 -0.00000000000E+00 -0.00000000000E+00 -0.60672847399E+01  0.60672847399E+01  0.00000000000E+00 0.  1.
         21    1    1    2  503  502 -0.97815012642E+01  0.38993979136E+02  0.14067499124E+03  0.14630673715E+03  0.00000000000E+00 0.  1.
         21    1    1    2  504  501  0.97815012642E+01 -0.38993979136E+02  0.12101831191E+03  0.12752113548E+03  0.00000000000E+00 0.  1.
<mgrwt>
<rscale>  2 0.40202092E+02</rscale>
<asrwt>0</asrwt>
<pdfrwt beam="1">  1       21 0.41193927E-01 0.40202092E+02</pdfrwt>
<pdfrwt beam="2">  1       21 0.93342863E-03 0.40202092E+02</pdfrwt>
<totfact> 0.20323102E+07</totfact>
</mgrwt>
</event>
<event>
 4    1  0.4619222E+006  0.3066752E+02  0.7546771E-02  0.1590825E+00
         21   -1    0    0  504  501  0.00000000000E+00  0.00000000000E+00  0.17043444521E+02  0.17043444521E+02  0.00000000000E+00 0. -1.
         21   -1    0    0  503  502 -0.00000000000E+00 -0.00000000000E+00 -0.97029972412E+02  0.97029972412E+02  0.00000000000E+00 0.  1.
         21    1    1    2  503  501 -0.98070386449E+01  0.29057161832E+02 -0.77450618001E+02  0.83301229819E+02  0.00000000000E+00 0.  1.
         21    1    1    2  504  502  0.98070386449E+01 -0.29057161832E+02 -0.25359098907E+01  0.30772187113E+02  0.00000000000E+00 0. -1.
<mgrwt>
<rscale>  2 0.30667518E+02</rscale>
<asrwt>0</asrwt>
<pdfrwt beam="1">  1       21 0.26220683E-02 0.30667518E+02</pdfrwt>
<pdfrwt beam="2">  1       21 0.14927688E-01 0.30667518E+02</pdfrwt>
<totfact> 0.24900866E+07</totfact>
</mgrwt>
</event>
<event>
 4    1  0.4619222E+006  0.2172654E+02  0.7546771E-02  0.1713025E+00
         21   -1    0    0  502  501  0.00000000000E+00  0.00000000000E+00  0.72319788566E+02  0.72319788566E+02  0.00000000000E+00 0. -1.
         21   -1    0    0  503  502 -0.00000000000E+00 -0.00000000000E+00 -0.77375965945E+01  0.77375965945E+01  0.00000000000E+00 0. -1.
         21    1    1    2  503  504  0.18069923222E+02 -0.12063190956E+02  0.16458952830E+02  0.27256922599E+02  0.00000000000E+00 0. -1.
         21    1    1    2  504  501 -0.18069923222E+02  0.12063190956E+02  0.48123239141E+02  0.52800462562E+02  0.00000000000E+00 0. -1.
<mgrwt>
<rscale>  2 0.21726544E+02</rscale>
<asrwt>0</asrwt>
<pdfrwt beam="1">  1       21 0.11126121E-01 0.21726544E+02</pdfrwt>
<pdfrwt beam="2">  1       21 0.11903995E-02 0.21726544E+02</pdfrwt>
<totfact> 0.12647668E+08</totfact>
</mgrwt>
</event>
<event>
 4    1  0.4619222E+006  0.2309443E+02  0.7546771E-02  0.1689984E+00
         21   -1    0    0  503  501  0.00000000000E+00  0.00000000000E+00  0.88388386961E+03  0.88388386961E+03  0.00000000000E+00 0.  1.
         21   -1    0    0  504  502 -0.00000000000E+00 -0.00000000000E+00 -0.27677460501E+02  0.27677460501E+02  0.00000000000E+00 0.  1.
         21    1    1    2  503  502  0.22440632318E+02  0.54562597728E+01  0.87888806221E+03  0.87919143458E+03  0.00000000000E+00 0.  1.
         21    1    1    2  504  501 -0.22440632318E+02 -0.54562597728E+01 -0.22681653097E+02  0.32369895532E+02  0.00000000000E+00 0.  1.
<mgrwt>
<rscale>  2 0.23094431E+02</rscale>
<asrwt>0</asrwt>
<pdfrwt beam="1">  1       21 0.13598211E+00 0.23094431E+02</pdfrwt>
<pdfrwt beam="2">  1       21 0.42580715E-02 0.23094431E+02</pdfrwt>
<totfact> 0.14858519E+05</totfact>
</mgrwt>
</event>
<event>
 4    1  0.4619222E+006  0.2421157E+02  0.7546771E-02  0.1672592E+00
         21   -1    0    0  502  501  0.00000000000E+00  0.00000000000E+00  0.27734735143E+03  0.27734735143E+03  0.00000000000E+00 0.  1.
         21   -1    0    0  503  502 -0.00000000000E+00 -0.00000000000E+00 -0.98659042049E+01  0.98659042049E+01  0.00000000000E+00 0. -1.
         21    1    1    2  503  504 -0.21935961683E+02  0.10247624396E+02  0.64427309274E+01  0.25054121468E+02  0.00000000000E+00 0. -1.
         21    1    1    2  504  501  0.21935961683E+02 -0.10247624396E+02  0.26103871629E+03  0.26215913416E+03  0.00000000000E+00 0.  1.
<mgrwt>
<rscale>  2 0.24211572E+02</rscale>
<asrwt>0</asrwt>
<pdfrwt beam="1">  1       21 0.42668817E-01 0.24211572E+02</pdfrwt>
<pdfrwt beam="2">  1       21 0.15178316E-02 0.24211572E+02</pdfrwt>
<totfact> 0.83535607E+06</totfact>
</mgrwt>
</event>
<event>
 4    1  0.4619222E+006  0.2245950E+02  0.7546771E-02  0.1700424E+00
         21   -1    0    0  502  501  0.00000000000E+00  0.00000000000E+00  0.14361442270E+03  0.14361442270E+03  0.00000000000E+00 0. -1.
         21   -1    0    0  503  502 -0.00000000000E+00 -0.00000000000E+00 -0.18625741982E+02  0.18625741982E+02  0.00000000000E+00 0. -1.
         21    1    1    2  503  504  0.18092829094E+02  0.13307093804E+02 -0.10577838163E+02  0.24825790427E+02  0.00000000000E+00 0. -1.
         21    1    1    2  504  501 -0.18092829094E+02 -0.13307093804E+02  0.13556651888E+03  0.13741437425E+03  0.00000000000E+00 0. -1.
<mgrwt>
<rscale>  2 0.22459502E+02</rscale>
<asrwt>0</asrwt>
<pdfrwt beam="1">  1       21 0.22094526E-01 0.22459502E+02</pdfrwt>
<pdfrwt beam="2">  1       21 0.28654989E-02 0.22459502E+02</pdfrwt>
<totfact> 0.10321460E+07</totfact>
</mgrwt>
</event>
<event>
 4    1  0.4619222E+006  0.2598407E+02  0.7546771E-02  0.1647257E+00
         21   -1    0    0  504  501  0.00000000000E+00  0.00000000000E+00  0.48742184775E+02  0.48742184775E+02  0.00000000000E+00 0.  1.
         21   -1    0    0  501  502 -0.00000000000E+00 -0.00000000000E+00 -0.31424427814E+02  0.31424427814E+02  0.00000000000E+00 0.  1.
         21    1    1    2  503  502  0.21779638833E+02 -0.14171078604E+02 -0.21315273153E+02  0.33608228250E+02  0.00000000000E+00 0.  1.
         21    1    1    2  504  503 -0.21779638833E+02  0.14171078604E+02  0.38633030114E+02  0.46558384339E+02  0.00000000000E+00 0.  1.
<mgrwt>
<rscale>  2 0.25984075E+02</rscale>
<asrwt>0</asrwt>
<pdfrwt beam="1">  1       21 0.74987977E-02 0.25984075E+02</pdfrwt>
<pdfrwt beam="2">  1       21 0.48345273E-02 0.25984075E+02</pdfrwt>
<totfact> 0.28991743E+07</totfact>
</mgrwt>
</event>
<event>
 4    1  0.4619222E+006  0.2233931E+02  0.7546771E-02  0.1702449E+00
         21   -1    0    0  504  501  0.00000000000E+00  0.00000000000E+00  0.18210828139E+02  0.18210828139E+02  0.00000000000E+00 0. -1.
         21   -1    0    0  503  502 -0.00000000000E+00 -0.00000000000E+00 -0.88618065769E+02  0.88618065769E+02  0.00000000000E+00 0.  1.
         21    1    1    2  503  501 -0.61798621918E+01  0.21467507936E+02  0.91903710044E+01  0.24155900167E+02  0.00000000000E+00 0. -1.
         21    1    1    2  504  502  0.61798621918E+01 -0.21467507936E+02 -0.79597608635E+02  0.82672993741E+02  0.00000000000E+00 0.  1.
<mgrwt>
<rscale>  2 0.22339306E+02</rscale>
<asrwt>0</asrwt>
<pdfrwt beam="1">  1       21 0.28016659E-02 0.22339306E+02</pdfrwt>
<pdfrwt beam="2">  1       21 0.13633549E-01 0.22339306E+02</pdfrwt>
<totfact> 0.24517787E+07</totfact>
</mgrwt>
</event>
<event>
 4    1  0.4619222E+006  0.2142065E+02  0.7546771E-02  0.1718468E+00
         21   -1    0    0  502  501  0.00000000000E+00  0.00000000000E+00  0.17958337712E+03  0.17958337712E+03  0.00000000000E+00 0. -1.
         21   -1    0    0  504  502 -0.00000000000E+00 -0.00000000000E+00 -0.28866289240E+01  0.28866289240E+01  0.00000000000E+00 0. -1.
         21    1    1    2  503  501  0.16624611636E+02 -0.13508018150E+02  0.11926985964E+03  0.12117814855E+03  0.00000000000E+00 0. -1.
         21    1    1    2  504  503 -0.16624611636E+02  0.13508018150E+02  0.57426888556E+02  0.61291857499E+02  0.00000000000E+00 0. -1.
<mgrwt>
<rscale>  2 0.21420650E+02</rscale>
<asrwt>0</asrwt>
<pdfrwt beam="1">  1       21 0.27628203E-01 0.21420650E+02</pdfrwt>
<pdfrwt beam="2">  1       21 0.44409690E-03 0.21420650E+02</pdfrwt>
<totfact> 0.11377020E+08</totfact>
</mgrwt>
</event>
<event>
 4    1  0.4619222E+006  0.2013269E+02  0.7546771E-02  0.1742702E+00
         21   -1    0    0  504  501  0.00000000000E+00  0.00000000000E+00  0.11033679656E+02  0.11033679656E+02  0.00000000000E+00 0.  1.
         21   -1    0    0  503  502 -0.00000000000E+00 -0.00000000000E+00 -0.38130874629E+02  0.38130874629E+02  0.00000000000E+00 0.  1.
         21    1    1    2  503  501  0.10597071568E+02 -0.17118040779E+02 -0.18251481827E+02  0.27174286279E+02  0.00000000000E+00 0.  1.
         21    1    1    2  504  502 -0.10597071568E+02  0.17118040779E+02 -0.88457131467E+01  0.21990268006E+02  0.00000000000E+00 0.  1.
<mgrwt>
<rscale>  2 0.20132691E+02</rscale>
<asrwt>0</asrwt>
<pdfrwt beam="1">  1       21 0.16974892E-02 0.20132691E+02</pdfrwt>
<pdfrwt beam="2">  1       21 0.58662883E-02 0.20132691E+02</pdfrwt>
<totfact> 0.20460890E+08</totfact>
</mgrwt>
</event>
<event>
 4    1  0.4619222E+006  0.2126622E+02  0.7546771E-02  0.1721260E+00
         21   -1    0    0  503  501  0.00000000000E+00  0.00000000000E+00  0.10466728350E+03  0.10466728350E+03  0.00000000000E+00 0. -1.
         21   -1    0    0  504  502 -0.00000000000E+00 -0.00000000000E+00 -0.48550779409E+01  0.48550779409E+01  0.00000000000E+00 0. -1.
         21    1    1    2  503  502  0.61370944206E+01  0.20361440934E+02  0.31741087197E+02  0.38206659384E+02  0.00000000000E+00 0. -1.
         21    1    1    2  504  501 -0.61370944206E+01 -0.20361440934E+02  0.68071118364E+02  0.71315702059E+02  0.00000000000E+00 0. -1.
<mgrwt>
<rscale>  2 0.21266222E+02</rscale>
<asrwt>0</asrwt>
<pdfrwt beam="1">  1       21 0.16102657E-01 0.21266222E+02</pdfrwt>
<pdfrwt beam="2">  1       21 0.74693515E-03 0.21266222E+02</pdfrwt>
<totfact> 0.13545352E+08</totfact>
</mgrwt>
</event>
<event>
 4    1  0.4619222E+006  0.3555115E+02  0.7546771E-02  0.1543760E+00
         21   -1    0    0  504  501  0.00000000000E+00  0.00000000000E+00  0.51298610006E+03  0.51298610006E+03  0.00000000000E+00 0.  1.
         21   -1    0    0  503  502 -0.00000000000E+00 -0.00000000000E+00 -0.31791213662E+01  0.31791213662E+01  0.00000000000E+00 0.  1.
         21    1    1    2  503  501  0.29521480972E+02 -0.19808243654E+02  0.13248072615E+03  0.13716787946E+03  0.00000000000E+00 0.  1.
         21    1    1    2  504  502 -0.29521480972E+02  0.19808243654E+02  0.37732625255E+03  0.37899734196E+03  0.00000000000E+00 0.  1.
<mgrwt>
<rscale>  2 0.35551151E+02</rscale>
<asrwt>0</asrwt>
<pdfrwt beam="1">  1       21 0.78920873E-01 0.35551151E+02</pdfrwt>
<pdfrwt beam="2">  1       21 0.48909600E-03 0.35551151E+02</pdfrwt>
<totfact> 0.14189702E+07</totfact>
</mgrwt>
</event>
<event>
 4    1  0.4619222E+006  0.3220822E+02  0.7546771E-02  0.1574888E+00
         21   -1    0    0  503  501  0.00000000000E+00  0.00000000000E+00  0.12747684585E+02  0.12747684585E+02  0.00000000000E+00 0.  1.
         21   -1    0    0  501  502 -0.00000000000E+00 -0.00000000000E+00 -0.45750570238E+03  0.45750570238E+03  0.00000000000E+00 0.  1.
         21    1    1    2  503  504  0.31717091800E+02 -0.56031951527E+01 -0.91865414046E+01  0.33492719376E+02  0.00000000000E+00 0.  1.
         21    1    1    2  504  502 -0.31717091800E+02  0.56031951527E+01 -0.43557147639E+03  0.43676066759E+03  0.00000000000E+00 0.  1.
<mgrwt>
<rscale>  2 0.32208224E+02</rscale>
<asrwt>0</asrwt>
<pdfrwt beam="1">  1       21 0.19611825E-02 0.32208224E+02</pdfrwt>
<pdfrwt beam="2">  1       21 0.70385482E-01 0.32208224E+02</pdfrwt>
<totfact> 0.21585632E+06</totfact>
</mgrwt>
</event>
<event>
 4    1  0.4619222E+006  0.3089795E+02  0.7546771E-02  0.1588370E+00
         21   -1    0    0  503  501  0.00000000000E+00  0.00000000000E+00  0.11382719568E+01  0.11382719568E+01  0.00000000000E+00 0. -1.
         21   -1    0    0  504  502 -0.00000000000E+00 -0.00000000000E+00 -0.10022823414E+04  0.10022823414E+04  0.00000000000E+00 0. -1.
         21    1    1    2  503  502 -0.28948981036E+02  0.10800002438E+02 -0.29789298628E+03  0.29949109308E+03  0.00000000000E+00 0. -1.
         21    1    1    2  504  501  0.28948981036E+02 -0.10800002438E+02 -0.70325108315E+03  0.70392952027E+03  0.00000000000E+00 0. -1.
<mgrwt>
<rscale>  2 0.30897954E+02</rscale>
<asrwt>0</asrwt>
<pdfrwt beam="1">  1       21 0.17511831E-03 0.30897954E+02</pdfrwt>
<pdfrwt beam="2">  1       21 0.15419768E+00 0.30897954E+02</pdfrwt>
<totfact> 0.13818857E+07</totfact>
</mgrwt>
</event>
<event>
 4    1  0.4619222E+006  0.2991878E+02  0.7546771E-02  0.1598988E+00
         21   -1    0    0  504  501  0.00000000000E+00  0.00000000000E+00  0.11499804974E+03  0.11499804974E+03  0.00000000000E+00 0. -1.
         21   -1    0    0  503  502 -0.00000000000E+00 -0.00000000000E+00 -0.15116177177E+02  0.15116177177E+02  0.00000000000E+00 0. -1.
         21    1    1    2  503  501  0.28300257386E+02  0.97071482820E+01  0.46310214117E+01  0.30275066560E+02  0.00000000000E+00 0. -1.
         21    1    1    2  504  502 -0.28300257386E+02 -0.97071482820E+01  0.95250851152E+02  0.99839160359E+02  0.00000000000E+00 0. -1.
<mgrwt>
<rscale>  2 0.29918778E+02</rscale>
<asrwt>0</asrwt>
<pdfrwt beam="1">  1       21 0.17692007E-01 0.29918778E+02</pdfrwt>
<pdfrwt beam="2">  1       21 0.23255658E-02 0.29918778E+02</pdfrwt>
<totfact> 0.22270166E+07</totfact>
</mgrwt>
</event>
<event>
 4    1  0.4619222E+006  0.4162941E+02  0.7546771E-02  0.1496552E+00
         21   -1    0    0  503  501  0.00000000000E+00  0.00000000000E+00  0.11741361996E+03  0.11741361996E+03  0.00000000000E+00 0.  1.
         21   -1    0    0  504  502 -0.00000000000E+00 -0.00000000000E+00 -0.24554007576E+02  0.24554007576E+02  0.00000000000E+00 0.  1.
         21    1    1    2  503  502  0.33090393425E+02  0.25259329421E+02  0.91261133447E+02  0.10030753879E+03  0.00000000000E+00 0.  1.
         21    1    1    2  504  501 -0.33090393425E+02 -0.25259329421E+02  0.15984789408E+01  0.41660088751E+02  0.00000000000E+00 0.  1.
<mgrwt>
<rscale>  2 0.41629411E+02</rscale>
<asrwt>0</asrwt>
<pdfrwt beam="1">  1       21 0.18063634E-01 0.41629411E+02</pdfrwt>
<pdfrwt beam="2">  1       21 0.37775397E-02 0.41629411E+02</pdfrwt>
<totfact> 0.10515136E+07</totfact>
</mgrwt>
</event>
<event>
 4    1  0.4619222E+006  0.3364009E+02  0.7546771E-02  0.1561019E+00
         21   -1    0    0  503  501  0.00000000000E+00  0.00000000000E+00  0.45803546496E+02  0.45803546496E+02  0.00000000000E+00 0.  1.
         21   -1    0    0  504  502 -0.00000000000E+00 -0.00000000000E+00 -0.27158260378E+03  0.27158260378E+03  0.00000000000E+00 0.  1.
         21    1    1    2  503  502  0.74557649632E+01 -0.32803459005E+02 -0.26419210972E+03  0.26632522635E+03  0.00000000000E+00 0.  1.
         21    1    1    2  504  501 -0.74557649632E+01  0.32803459005E+02  0.38413052439E+02  0.51060923920E+02  0.00000000000E+00 0.  1.
<mgrwt>
<rscale>  2 0.33640086E+02</rscale>
<asrwt>0</asrwt>
<pdfrwt beam="1">  1       21 0.70466995E-02 0.33640086E+02</pdfrwt>
<pdfrwt beam="2">  1       21 0.41781939E-01 0.33640086E+02</pdfrwt>
<totfact> 0.79999607E+05</totfact>
</mgrwt>
</event>
<event>
 4    1  0.4619222E+006  0.4029497E+02  0.7546771E-02  0.1506052E+00
         21   -1    0    0  504  501  0.00000000000E+00  0.00000000000E+00  0.20054775584E+02  0.20054775584E+02  0.00000000000E+00 0. -1.
         21   -1    0    0  503  502 -0.00000000000E+00 -0.00000000000E+00 -0.34945282167E+03  0.34945282167E+03  0.00000000000E+00 0. -1.
         21    1    1    2  503  501 -0.14535354261E+02  0.37582017433E+02 -0.27555582597E+01  0.40389078463E+02  0.00000000000E+00 0. -1.
         21    1    1    2  504  502  0.14535354261E+02 -0.37582017433E+02 -0.32664248782E+03  0.32911851879E+03  0.00000000000E+00 0. -1.
<mgrwt>
<rscale>  2 0.40294969E+02</rscale>
<asrwt>0</asrwt>
<pdfrwt beam="1">  1       21 0.30853501E-02 0.40294969E+02</pdfrwt>
<pdfrwt beam="2">  1       21 0.53761972E-01 0.40294969E+02</pdfrwt>
<totfact> 0.18715756E+06</totfact>
</mgrwt>
</event>
<event>
 4    1  0.4619222E+006  0.2467930E+02  0.7546771E-02  0.1665651E+00
         21   -1    0    0  504  501  0.00000000000E+00  0.00000000000E+00  0.11463161195E+02  0.11463161195E+02  0.00000000000E+00 0.  1.
         21   -1    0    0  503  502 -0.00000000000E+00 -0.00000000000E+00 -0.53712407912E+02  0.53712407912E+02  0.00000000000E+00 0.  1.
         21    1    1    2  503  501 -0.47666149700E+00 -0.24674699486E+02 -0.17738949337E+02  0.30393063756E+02  0.00000000000E+00 0.  1.
         21    1    1    2  504  502  0.47666149700E+00  0.24674699486E+02 -0.24510297379E+02  0.34782505351E+02  0.00000000000E+00 0.  1.
<mgrwt>
<rscale>  2 0.24679303E+02</rscale>
<asrwt>0</asrwt>
<pdfrwt beam="1">  1       21 0.17635633E-02 0.24679303E+02</pdfrwt>
<pdfrwt beam="2">  1       21 0.82634473E-02 0.24679303E+02</pdfrwt>
<totfact> 0.11804018E+08</totfact>
</mgrwt>
</event>
<event>
 4    1  0.4619222E+006  0.2459531E+02  0.7546771E-02  0.1666884E+00
         21   -1    0    0  503  501  0.00000000000E+00  0.00000000000E+00  0.19575233735E+02  0.19575233735E+02  0.00000000000E+00 0.  1.
         21   -1    0    0  504  502 -0.00000000000E+00 -0.00000000000E+00 -0.30964871455E+02  0.30964871455E+02  0.00000000000E+00 0.  1.
         21    1    1    2  503  502  0.92351343551E+01 -0.22795647138E+02 -0.68263609936E+01  0.25525055130E+02  0.00000000000E+00 0.  1.
         21    1    1    2  504  501 -0.92351343551E+01  0.22795647138E+02 -0.45632767262E+01  0.25015050059E+02  0.00000000000E+00 0.  1.
<mgrwt>
<rscale>  2 0.24595309E+02</rscale>
<asrwt>0</asrwt>
<pdfrwt beam="1">  1       21 0.30115744E-02 0.24595309E+02</pdfrwt>
<pdfrwt beam="2">  1       21 0.47638264E-02 0.24595309E+02</pdfrwt>
<totfact> 0.12549047E+08</totfact>
</mgrwt>
</event>
<event>
 4    1  0.4619222E+006  0.5107633E+02  0.7546771E-02  0.1439621E+00
         21   -1    0    0  502  501  0.00000000000E+00  0.00000000000E+00  0.97372432752E+01  0.97372432752E+01  0.00000000000E+00 0.  1.
         21   -1    0    0  504  502 -0.00000000000E+00 -0.00000000000E+00 -0.42595824792E+03  0.42595824792E+03  0.00000000000E+00 0. -1.
         21    1    1    2  503  501  0.50145046028E+02  0.97090580068E+01 -0.75416230106E+02  0.91084571755E+02  0.00000000000E+00 0.  1.
         21    1    1    2  504  503 -0.50145046028E+02 -0.97090580068E+01 -0.34080477454E+03  0.34461091944E+03  0.00000000000E+00 0. -1.
<mgrwt>
<rscale>  2 0.51076330E+02</rscale>
<asrwt>0</asrwt>
<pdfrwt beam="1">  1       21 0.14980372E-02 0.51076330E+02</pdfrwt>
<pdfrwt beam="2">  1       21 0.65532048E-01 0.51076330E+02</pdfrwt>
<totfact> 0.39591803E+06</totfact>
</mgrwt>
</event>
<event>
 4    1  0.4619222E+006  0.2237843E+02  0.7546771E-02  0.1701788E+00
         21   -1    0    0  502  501  0.00000000000E+00  0.00000000000E+00  0.38182366937E+01  0.38182366937E+01  0.00000000000E+00 0.  1.
         21   -1    0    0  503  502 -0.00000000000E+00 -0.00000000000E+00 -0.17698236416E+03  0.17698236416E+03  0.00000000000E+00 0. -1.
         21    1    1    2  503  504 -0.40667603120E+01  0.22005812936E+02 -0.13258129270E+03  0.13445666036E+03  0.00000000000E+00 0. -1.
         21    1    1    2  504  501  0.40667603120E+01 -0.22005812936E+02 -0.40582834770E+02  0.46343940493E+02  0.00000000000E+00 0.  1.
<mgrwt>
<rscale>  2 0.22378435E+02</rscale>
<asrwt>0</asrwt>
<pdfrwt beam="1">  1       21 0.58742113E-03 0.22378435E+02</pdfrwt>
<pdfrwt beam="2">  1       21 0.27228051E-01 0.22378435E+02</pdfrwt>
<totfact> 0.78279485E+07</totfact>
</mgrwt>
</event>
<event>
 4    1  0.4619222E+006  0.2982920E+02  0.7546771E-02  0.1599984E+00
         21   -1    0    0  504  501  0.00000000000E+00  0.00000000000E+00  0.26128406251E+01  0.26128406251E+01  0.00000000000E+00 0. -1.
         21   -1    0    0  503  502 -0.00000000000E+00 -0.00000000000E+00 -0.35938711695E+03  0.35938711695E+03  0.00000000000E+00 0.  1.
         21    1    1    2  503  501  0.18984664768E+02 -0.23007906328E+02 -0.21983478465E+03  0.22184930424E+03  0.00000000000E+00 0.  1.
         21    1    1    2  504  502 -0.18984664768E+02  0.23007906328E+02 -0.13693949168E+03  0.14015065333E+03  0.00000000000E+00 0. -1.
<mgrwt>
<rscale>  2 0.29829201E+02</rscale>
<asrwt>0</asrwt>
<pdfrwt beam="1">  1       21 0.40197543E-03 0.29829201E+02</pdfrwt>
<pdfrwt beam="2">  1       21 0.55290333E-01 0.29829201E+02</pdfrwt>
<totfact> 0.38429685E+07</totfact>
</mgrwt>
</event>
<event>
 4    1  0.4619222E+006  0.3110360E+02  0.7546771E-02  0.1586201E+00
         21   -1    0    0  504  501  0.00000000000E+00  0.00000000000E+00  0.23251463545E+04  0.23251463545E+04  0.00000000000E+00 0. -1.
         21   -1    0    0  501  502 -0.00000000000E+00 -0.00000000000E+00 -0.18090147464E+01  0.18090147464E+01  0.00000000000E+00 0. -1.
         21    1    1    2  503  502 -0.28617476969E+02 -0.12184984219E+02  0.14072150736E+03  0.14411792554E+03  0.00000000000E+00 0. -1.
         21    1    1    2  504  503  0.28617476969E+02  0.12184984219E+02  0.21826158324E+04  0.21828374437E+04  0.00000000000E+00 0. -1.
<mgrwt>
<rscale>  2 0.31103598E+02</rscale>
<asrwt>0</asrwt>
<pdfrwt beam="1">  1       21 0.35771243E+00 0.31103598E+02</pdfrwt>
<pdfrwt beam="2">  1       21 0.27831182E-03 0.31103598E+02</pdfrwt>
<totfact> 0.55976865E+05</totfact>
</mgrwt>
</event>
<event>
 4    1  0.4619222E+006  0.2245940E+02  0.7546771E-02  0.1700426E+00
         21   -1    0    0  502  501  0.00000000000E+00  0.00000000000E+00  0.50376740455E+03  0.50376740455E+03  0.00000000000E+00 0.  1.
         21   -1    0    0  503  502 -0.00000000000E+00 -0.00000000000E+00 -0.32473858171E+03  0.32473858171E+03  0.00000000000E+00 0.  1.
         21    1    1    2  503  504 -0.14308653766E+02  0.17311474297E+02 -0.32409943107E+03  0.32487669343E+03  0.00000000000E+00 0.  1.
         21    1    1    2  504  501  0.14308653766E+02 -0.17311474297E+02  0.50312825391E+03  0.50362929283E+03  0.00000000000E+00 0.  1.
<mgrwt>
<rscale>  2 0.22459401E+02</rscale>
<asrwt>0</asrwt>
<pdfrwt beam="1">  1       21 0.77502677E-01 0.22459401E+02</pdfrwt>
<pdfrwt beam="2">  1       21 0.49959782E-01 0.22459401E+02</pdfrwt>
<totfact> 0.74369364E+03</totfact>
</mgrwt>
</event>
<event>
 4    1  0.4619222E+006  0.2368049E+02  0.7546771E-02  0.1680711E+00
         21   -1    0    0  503  501  0.00000000000E+00  0.00000000000E+00  0.12326446482E+03  0.12326446482E+03  0.00000000000E+00 0.  1.
         21   -1    0    0  504  502 -0.00000000000E+00 -0.00000000000E+00 -0.82408425650E+01  0.82408425650E+01  0.00000000000E+00 0.  1.
         21    1    1    2  503  502 -0.31682934694E+01  0.23467579914E+02  0.13503753679E+02  0.27260167900E+02  0.00000000000E+00 0.  1.
         21    1    1    2  504  501  0.31682934694E+01 -0.23467579914E+02  0.10151986857E+03  0.10424513948E+03  0.00000000000E+00 0.  1.
<mgrwt>
<rscale>  2 0.23680485E+02</rscale>
<asrwt>0</asrwt>
<pdfrwt beam="1">  1       21 0.18963762E-01 0.23680485E+02</pdfrwt>
<pdfrwt beam="2">  1       21 0.12678220E-02 0.23680485E+02</pdfrwt>
<totfact> 0.47601890E+07</totfact>
</mgrwt>
</event>
<event>
 4    1  0.4619222E+006  0.2428922E+02  0.7546771E-02  0.1671426E+00
         21   -1    0    0  504  501  0.00000000000E+00  0.00000000000E+00  0.24917889569E+02  0.24917889569E+02  0.00000000000E+00 0.  1.
         21   -1    0    0  501  502 -0.00000000000E+00 -0.00000000000E+00 -0.59476349148E+02  0.59476349148E+02  0.00000000000E+00 0. -1.
         21    1    1    2  503  502  0.18803907501E+02 -0.15374638061E+02 -0.50017198806E+02  0.55602937056E+02  0.00000000000E+00 0. -1.
         21    1    1    2  504  503 -0.18803907501E+02  0.15374638061E+02  0.15458739228E+02  0.28791301661E+02  0.00000000000E+00 0.  1.
<mgrwt>
<rscale>  2 0.24289225E+02</rscale>
<asrwt>0</asrwt>
<pdfrwt beam="1">  1       21 0.38335215E-02 0.24289225E+02</pdfrwt>
<pdfrwt beam="2">  1       21 0.91502075E-02 0.24289225E+02</pdfrwt>
<totfact> 0.29774553E+07</totfact>
</mgrwt>
</event>
<event>
 4    1  0.4619222E+006  0.2275641E+02  0.7546771E-02  0.1695489E+00
         21   -1    0    0  503  501  0.00000000000E+00  0.00000000000E+00  0.55158930061E+03  0.55158930061E+03  0.00000000000E+00 0.  1.
         21   -1    0    0  501  502 -0.00000000000E+00 -0.00000000000E+00 -0.53699272665E+01  0.53699272665E+01  0.00000000000E+00 0.  1.
         21    1    1    2  503  504  0.91336532882E+00  0.22738069716E+02  0.52607697326E+03  0.52656892792E+03  0.00000000000E+00 0.  1.
         21    1    1    2  504  502 -0.91336532882E+00 -0.22738069716E+02  0.20142400082E+02  0.30390299961E+02  0.00000000000E+00 0.  1.
<mgrwt>
<rscale>  2 0.22756407E+02</rscale>
<asrwt>0</asrwt>
<pdfrwt beam="1">  1       21 0.84859848E-01 0.22756407E+02</pdfrwt>
<pdfrwt beam="2">  1       21 0.82614309E-03 0.22756407E+02</pdfrwt>
<totfact> 0.52143716E+06</totfact>
</mgrwt>
</event>
<event>
 4    1  0.4619222E+006  0.2112323E+02  0.7546771E-02  0.1723872E+00
         21   -1    0    0  502  501  0.00000000000E+00  0.00000000000E+00  0.78579960144E+03  0.78579960144E+03  0.00000000000E+00 0. -1.
         21   -1    0    0  504  502 -0.00000000000E+00 -0.00000000000E+00 -0.60546844825E+00  0.60546844825E+00  0.00000000000E+00 0. -1.
         21    1    1    2  503  501 -0.79958089568E+01 -0.19551418650E+02  0.29454487941E+03  0.29530133241E+03  0.00000000000E+00 0. -1.
         21    1    1    2  504  503  0.79958089568E+01  0.19551418650E+02  0.49064925358E+03  0.49110373748E+03  0.00000000000E+00 0. -1.
<mgrwt>
<rscale>  2 0.21123232E+02</rscale>
<asrwt>0</asrwt>
<pdfrwt beam="1">  1       21 0.12089143E+00 0.21123232E+02</pdfrwt>
<pdfrwt beam="2">  1       21 0.93149621E-04 0.21123232E+02</pdfrwt>
<totfact> 0.56555185E+07</totfact>
</mgrwt>
</event>
<event>
 4    1  0.4619222E+006  0.3410678E+02  0.7546771E-02  0.1556679E+00
         21   -1    0    0  504  501  0.00000000000E+00  0.00000000000E+00  0.86324623165E+02  0.86324623165E+02  0.00000000000E+00 0.  1.
         21   -1    0    0  501  502 -0.00000000000E+00 -0.00000000000E+00 -0.11688887533E+04  0.11688887533E+04  0.00000000000E+00 0.  1.
         21    1    1    2  503  502 -0.32605639513E+01  0.33950569104E+02 -0.11652605779E+04  0.11657596180E+04  0.00000000000E+00 0.  1.
         21    1    1    2  504  503  0.32605639513E+01 -0.33950569104E+02  0.82696447826E+02  0.89453758461E+02  0.00000000000E+00 0.  1.
<mgrwt>
<rscale>  2 0.34106780E+02</rscale>
<asrwt>0</asrwt>
<pdfrwt beam="1">  1       21 0.13280712E-01 0.34106780E+02</pdfrwt>
<pdfrwt beam="2">  1       21 0.17982903E+00 0.34106780E+02</pdfrwt>
<totfact> 0.11353090E+04</totfact>
</mgrwt>
</event>
<event>
 4    1  0.4619222E+006  0.2410223E+02  0.7546771E-02  0.1674242E+00
         21   -1    0    0  504  501  0.00000000000E+00  0.00000000000E+00  0.37312009736E+01  0.37312009736E+01  0.00000000000E+00 0. -1.
         21   -1    0    0  503  502 -0.00000000000E+00 -0.00000000000E+00 -0.20770920633E+03  0.20770920633E+03  0.00000000000E+00 0. -1.
         21    1    1    2  503  501  0.10357918422E+01 -0.24079962404E+02 -0.49083067007E+02  0.54681486089E+02  0.00000000000E+00 0. -1.
         21    1    1    2  504  502 -0.10357918422E+01  0.24079962404E+02 -0.15489493835E+03  0.15675892122E+03  0.00000000000E+00 0. -1.
<mgrwt>
<rscale>  2 0.24102229E+02</rscale>
<asrwt>0</asrwt>
<pdfrwt beam="1">  1       21 0.57403094E-03 0.24102229E+02</pdfrwt>
<pdfrwt beam="2">  1       21 0.31955261E-01 0.24102229E+02</pdfrwt>
<totfact> 0.61724979E+07</totfact>
</mgrwt>
</event>
<event>
 4    1  0.4619222E+006  0.3492217E+02  0.7546771E-02  0.1549293E+00
         21   -1    0    0  504  501  0.00000000000E+00  0.00000000000E+00  0.25792058554E+02  0.25792058554E+02  0.00000000000E+00 0.  1.
         21   -1    0    0  501  502 -0.00000000000E+00 -0.00000000000E+00 -0.49658698851E+02  0.49658698851E+02  0.00000000000E+00 0.  1.
         21    1    1    2  503  502 -0.25059070232E+02 -0.24322852838E+02 -0.20182623153E+02  0.40334804430E+02  0.00000000000E+00 0.  1.
         21    1    1    2  504  503  0.25059070232E+02  0.24322852838E+02 -0.36840171437E+01  0.35115952976E+02  0.00000000000E+00 0.  1.
<mgrwt>
<rscale>  2 0.34922173E+02</rscale>
<asrwt>0</asrwt>
<pdfrwt beam="1">  1       21 0.39680090E-02 0.34922173E+02</pdfrwt>
<pdfrwt beam="2">  1       21 0.76397998E-02 0.34922173E+02</pdfrwt>
<totfact> 0.41018524E+07</totfact>
</mgrwt>
</event>
<event>
 4    1  0.4619222E+006  0.2162696E+02  0.7546771E-02  0.1714785E+00
         21   -1    0    0  504  501  0.00000000000E+00  0.00000000000E+00  0.14178519643E+03  0.14178519643E+03  0.00000000000E+00 0.  1.
         21   -1    0    0  501  502 -0.00000000000E+00 -0.00000000000E+00 -0.36412297753E+03  0.36412297753E+03  0.00000000000E+00 0.  1.
         21    1    1    2  503  502  0.15694890983E+02  0.14879374061E+02 -0.36297453131E+03  0.36361825554E+03  0.00000000000E+00 0.  1.
         21    1    1    2  504  503 -0.15694890983E+02 -0.14879374061E+02  0.14063675021E+03  0.14228991842E+03  0.00000000000E+00 0.  1.
<mgrwt>
<rscale>  2 0.21626959E+02</rscale>
<asrwt>0</asrwt>
<pdfrwt beam="1">  1       21 0.21813107E-01 0.21626959E+02</pdfrwt>
<pdfrwt beam="2">  1       21 0.56018920E-01 0.21626959E+02</pdfrwt>
<totfact> 0.66124354E+04</totfact>
</mgrwt>
</event>
<event>
 4    1  0.4619222E+006  0.3308208E+02  0.7546771E-02  0.1566323E+00
         21   -1    0    0  504  501  0.00000000000E+00  0.00000000000E+00  0.88151016247E+02  0.88151016247E+02  0.00000000000E+00 0.  1.
         21   -1    0    0  503  502 -0.00000000000E+00 -0.00000000000E+00 -0.17065680999E+02  0.17065680999E+02  0.00000000000E+00 0. -1.
         21    1    1    2  503  501  0.17177498155E+01  0.33037454061E+02  0.63004890220E+02  0.71162070142E+02  0.00000000000E+00 0.  1.
         21    1    1    2  504  502 -0.17177498155E+01 -0.33037454061E+02  0.80804450277E+01  0.34054627103E+02  0.00000000000E+00 0. -1.
<mgrwt>
<rscale>  2 0.33082080E+02</rscale>
<asrwt>0</asrwt>
<pdfrwt beam="1">  1       21 0.13561695E-01 0.33082080E+02</pdfrwt>
<pdfrwt beam="2">  1       21 0.26254894E-02 0.33082080E+02</pdfrwt>
<totfact> 0.29729596E+07</totfact>
</mgrwt>
</event>
<event>
 4    1  0.4619222E+006  0.2698115E+02  0.7546771E-02  0.1634075E+00
         21   -1    0    0  503  501  0.00000000000E+00  0.00000000000E+00  0.38299963094E+02  0.38299963094E+02  0.00000000000E+00 0.  1.
         21   -1    0    0  504  502 -0.00000000000E+00 -0.00000000000E+00 -0.13017176408E+03  0.13017176408E+03  0.00000000000E+00 0. -1.
         21    1    1    2  503  502 -0.16714410970E+02 -0.21180439821E+02 -0.12377923644E+03  0.12668576060E+03  0.00000000000E+00 0. -1.
         21    1    1    2  504  501  0.16714410970E+02  0.21180439821E+02  0.31907435455E+02  0.41785966573E+02  0.00000000000E+00 0.  1.
<mgrwt>
<rscale>  2 0.26981152E+02</rscale>
<asrwt>0</asrwt>
<pdfrwt beam="1">  1       21 0.58923020E-02 0.26981152E+02</pdfrwt>
<pdfrwt beam="2">  1       21 0.20026425E-01 0.26981152E+02</pdfrwt>
<totfact> 0.40404527E+06</totfact>
</mgrwt>
</event>
<event>
 4    1  0.4619222E+006  0.2628535E+02  0.7546771E-02  0.1643198E+00
         21   -1    0    0  504  501  0.00000000000E+00  0.00000000000E+00  0.98326351825E+01  0.98326351825E+01  0.00000000000E+00 0. -1.
         21   -1    0    0  501  502 -0.00000000000E+00 -0.00000000000E+00 -0.34893949155E+03  0.34893949155E+03  0.00000000000E+00 0. -1.
         21    1    1    2  503  502 -0.25733843736E+02  0.53561874149E+01 -0.32986317215E+03  0.33090879680E+03  0.00000000000E+00 0. -1.
         21    1    1    2  504  503  0.25733843736E+02 -0.53561874149E+01 -0.92436842146E+01  0.27863329932E+02  0.00000000000E+00 0. -1.
<mgrwt>
<rscale>  2 0.26285347E+02</rscale>
<asrwt>0</asrwt>
<pdfrwt beam="1">  1       21 0.15127135E-02 0.26285347E+02</pdfrwt>
<pdfrwt beam="2">  1       21 0.53682983E-01 0.26285347E+02</pdfrwt>
<totfact> 0.54467867E+06</totfact>
</mgrwt>
</event>
<event>
 4    1  0.4619222E+006  0.2549871E+02  0.7546771E-02  0.1653940E+00
         21   -1    0    0  504  501  0.00000000000E+00  0.00000000000E+00  0.82393209017E+03  0.82393209017E+03  0.00000000000E+00 0. -1.
         21   -1    0    0  503  502 -0.00000000000E+00 -0.00000000000E+00 -0.90424105547E+00  0.90424105547E+00  0.00000000000E+00 0. -1.
         21    1    1    2  503  501 -0.10701100406E+00 -0.25498485843E+02  0.55866597724E+03  0.55924758234E+03  0.00000000000E+00 0. -1.
         21    1    1    2  504  502  0.10701100406E+00  0.25498485843E+02  0.26436187188E+03  0.26558874889E+03  0.00000000000E+00 0. -1.
<mgrwt>
<rscale>  2 0.25498710E+02</rscale>
<asrwt>0</asrwt>
<pdfrwt beam="1">  1       21 0.12675818E+00 0.25498710E+02</pdfrwt>
<pdfrwt beam="2">  1       21 0.13911467E-03 0.25498710E+02</pdfrwt>
<totfact> 0.29740832E+07</totfact>
</mgrwt>
</event>
<event>
 4    1  0.4619222E+006  0.4307277E+02  0.7546771E-02  0.1486744E+00
         21   -1    0    0  503  501  0.00000000000E+00  0.00000000000E+00  0.20876989747E+03  0.20876989747E+03  0.00000000000E+00 0.  1.
         21   -1    0    0  501  502 -0.00000000000E+00 -0.00000000000E+00 -0.46609983670E+02  0.46609983670E+02  0.00000000000E+00 0.  1.
         21    1    1    2  503  504 -0.40290732612E+02 -0.15228940512E+02  0.19595409776E+03  0.20063218135E+03  0.00000000000E+00 0.  1.
         21    1    1    2  504  502  0.40290732612E+02  0.15228940512E+02 -0.33794183957E+02  0.54747699795E+02  0.00000000000E+00 0.  1.
<mgrwt>
<rscale>  2 0.43072773E+02</rscale>
<asrwt>0</asrwt>
<pdfrwt beam="1">  1       21 0.32118445E-01 0.43072773E+02</pdfrwt>
<pdfrwt beam="2">  1       21 0.71707668E-02 0.43072773E+02</pdfrwt>
<totfact> 0.13002806E+06</totfact>
</mgrwt>
</event>
<event>
 4    1  0.4619222E+006  0.2107830E+02  0.7546771E-02  0.1724698E+00
         21   -1    0    0  503  501  0.00000000000E+00  0.00000000000E+00  0.29811465896E+03  0.29811465896E+03  0.00000000000E+00 0. -1.
         21   -1    0    0  501  502 -0.00000000000E+00 -0.00000000000E+00 -0.11728046025E+02  0.11728046025E+02  0.00000000000E+00 0.  1.
         21    1    1    2  503  504 -0.10266657653E+02 -0.18408977724E+02  0.28793698215E+03  0.28870746511E+03  0.00000000000E+00 0. -1.
         21    1    1    2  504  502  0.10266657653E+02  0.18408977724E+02 -0.15503692092E+01  0.21135239882E+02  0.00000000000E+00 0.  1.
<mgrwt>
<rscale>  2 0.21078300E+02</rscale>
<asrwt>0</asrwt>
<pdfrwt beam="1">  1       21 0.45863788E-01 0.21078300E+02</pdfrwt>
<pdfrwt beam="2">  1       21 0.18043150E-02 0.21078300E+02</pdfrwt>
<totfact> 0.54625935E+06</totfact>
</mgrwt>
</event>
<event>
 4    1  0.4619222E+006  0.2489377E+02  0.7546771E-02  0.1662532E+00
         21   -1    0    0  503  501  0.00000000000E+00  0.00000000000E+00  0.30849923204E+02  0.30849923204E+02  0.00000000000E+00 0.  1.
         21   -1    0    0  504  502 -0.00000000000E+00 -0.00000000000E+00 -0.90470717088E+02  0.90470717088E+02  0.00000000000E+00 0. -1.
         21    1    1    2  503  502  0.13727318748E+02 -0.20766813332E+02 -0.83314247727E+02  0.86953802047E+02  0.00000000000E+00 0. -1.
         21    1    1    2  504  501 -0.13727318748E+02  0.20766813332E+02  0.23693453843E+02  0.34366838246E+02  0.00000000000E+00 0.  1.
<mgrwt>
<rscale>  2 0.24893771E+02</rscale>
<asrwt>0</asrwt>
<pdfrwt beam="1">  1       21 0.47461420E-02 0.24893771E+02</pdfrwt>
<pdfrwt beam="2">  1       21 0.13918572E-01 0.24893771E+02</pdfrwt>
<totfact> 0.10577371E+07</totfact>
</mgrwt>
</event>
<event>
 4    1  0.4619222E+006  0.4025323E+02  0.7546771E-02  0.1506356E+00
         21   -1    0    0  502  501  0.00000000000E+00  0.00000000000E+00  0.16050847380E+02  0.16050847380E+02  0.00000000000E+00 0. -1.
         21   -1    0    0  503  502 -0.00000000000E+00 -0.00000000000E+00 -0.24110057310E+03  0.24110057310E+03  0.00000000000E+00 0. -1.
         21    1    1    2  503  504 -0.19020760984E+02 -0.35475808680E+02 -0.21055470017E+03  0.21436791764E+03  0.00000000000E+00 0. -1.
         21    1    1    2  504  501  0.19020760984E+02  0.35475808680E+02 -0.14495025557E+02  0.42783502846E+02  0.00000000000E+00 0. -1.
<mgrwt>
<rscale>  2 0.40253228E+02</rscale>
<asrwt>0</asrwt>
<pdfrwt beam="1">  1       21 0.24693614E-02 0.40253228E+02</pdfrwt>
<pdfrwt beam="2">  1       21 0.37092393E-01 0.40253228E+02</pdfrwt>
<totfact> 0.55042060E+06</totfact>
</mgrwt>
</event>
<event>
 4    1  0.4619222E+006  0.3757973E+02  0.7546771E-02  0.1526817E+00
         21   -1    0    0  504  501  0.00000000000E+00  0.00000000000E+00  0.97285736187E+01  0.97285736187E+01  0.00000000000E+00 0. -1.
         21   -1    0    0  503  502 -0.00000000000E+00 -0.00000000000E+00 -0.71902172062E+03  0.71902172062E+03  0.00000000000E+00 0.  1.
         21    1    1    2  503  501 -0.62376447394E+01 -0.37058436916E+02 -0.68016828634E+03  0.68120564715E+03  0.00000000000E+00 0.  1.
         21    1    1    2  504  502  0.62376447394E+01  0.37058436916E+02 -0.29124860654E+02  0.47544647087E+02  0.00000000000E+00 0. -1.
<mgrwt>
<rscale>  2 0.37579728E+02</rscale>
<asrwt>0</asrwt>
<pdfrwt beam="1">  1       21 0.14967037E-02 0.37579728E+02</pdfrwt>
<pdfrwt beam="2">  1       21 0.11061872E+00 0.37579728E+02</pdfrwt>
<totfact> 0.12395264E+06</totfact>
</mgrwt>
</event>
<event>
 4    1  0.4619222E+006  0.2321248E+02  0.7546771E-02  0.1688089E+00
         21   -1    0    0  502  501  0.00000000000E+00  0.00000000000E+00  0.17548163441E+01  0.17548163441E+01  0.00000000000E+00 0.  1.
         21   -1    0    0  503  502 -0.00000000000E+00 -0.00000000000E+00 -0.36945379588E+03  0.36945379588E+03  0.00000000000E+00 0.  1.
         21    1    1    2  503  504 -0.23211402721E+02 -0.22393285362E+00 -0.26012893553E+03  0.26116255946E+03  0.00000000000E+00 0.  1.
         21    1    1    2  504  501  0.23211402721E+02  0.22393285362E+00 -0.10757004401E+03  0.11004605277E+03  0.00000000000E+00 0.  1.
<mgrwt>
<rscale>  2 0.23212483E+02</rscale>
<asrwt>0</asrwt>
<pdfrwt beam="1">  1       21 0.26997143E-03 0.23212483E+02</pdfrwt>
<pdfrwt beam="2">  1       21 0.56839111E-01 0.23212483E+02</pdfrwt>
<totfact> 0.61798589E+07</totfact>
</mgrwt>
</event>
<event>
 4    1  0.4619222E+006  0.2631963E+02  0.7546771E-02  0.1642740E+00
         21   -1    0    0  504  501  0.00000000000E+00  0.00000000000E+00  0.84680128374E+02  0.84680128374E+02  0.00000000000E+00 0. -1.
         21   -1    0    0  503  502 -0.00000000000E+00 -0.00000000000E+00 -0.16645196904E+02  0.16645196904E+02  0.00000000000E+00 0.  1.
         21    1    1    2  503  501 -0.17512553202E+01 -0.26261301557E+02 -0.21110514845E+01  0.26404154844E+02  0.00000000000E+00 0.  1.
         21    1    1    2  504  502  0.17512553202E+01  0.26261301557E+02  0.70145982954E+02  0.74921170435E+02  0.00000000000E+00 0. -1.
<mgrwt>
<rscale>  2 0.26319629E+02</rscale>
<asrwt>0</asrwt>
<pdfrwt beam="1">  1       21 0.13027712E-01 0.26319629E+02</pdfrwt>
<pdfrwt beam="2">  1       21 0.25607996E-02 0.26319629E+02</pdfrwt>
<totfact> 0.31588916E+07</totfact>
</mgrwt>
</event>
<event>
 4    1  0.4619222E+006  0.2566027E+02  0.7546771E-02  0.1651695E+00
         21   -1    0    0  503  501  0.00000000000E+00  0.00000000000E+00  0.15734609916E+01  0.15734609916E+01  0.00000000000E+00 0.  1.
         21   -1    0    0  501  502 -0.00000000000E+00 -0.00000000000E+00 -0.48886391289E+03  0.48886391289E+03  0.00000000000E+00 0.  1.
         21    1    1    2  503  504  0.64251487305E+01  0.24842845540E+02 -0.15059430481E+03  0.15276483284E+03  0.00000000000E+00 0.  1.
         21    1    1    2  504  502 -0.64251487305E+01 -0.24842845540E+02 -0.33669614708E+03  0.33767254104E+03  0.00000000000E+00 0.  1.
<mgrwt>
<rscale>  2 0.25660271E+02</rscale>
<asrwt>0</asrwt>
<pdfrwt beam="1">  1       21 0.24207073E-03 0.25660271E+02</pdfrwt>
<pdfrwt beam="2">  1       21 0.75209893E-01 0.25660271E+02</pdfrwt>
<totfact> 0.41906534E+07</totfact>
</mgrwt>
</event>
<event>
 4    1  0.4619222E+006  0.2180540E+02  0.7546771E-02  0.1711639E+00
         21   -1    0    0  504  501  0.00000000000E+00  0.00000000000E+00  0.24903305745E+02  0.24903305745E+02  0.00000000000E+00 0. -1.
         21   -1    0    0  503  502 -0.00000000000E+00 -0.00000000000E+00 -0.42942066320E+02  0.42942066320E+02  0.00000000000E+00 0. -1.
         21    1    1    2  503  501 -0.21189998379E+02 -0.51438788999E+01  0.16261119703E+02  0.27201094380E+02  0.00000000000E+00 0. -1.
         21    1    1    2  504  502  0.21189998379E+02  0.51438788999E+01 -0.34299880278E+02  0.40644277685E+02  0.00000000000E+00 0. -1.
<mgrwt>
<rscale>  2 0.21805401E+02</rscale>
<asrwt>0</asrwt>
<pdfrwt beam="1">  1       21 0.38312778E-02 0.21805401E+02</pdfrwt>
<pdfrwt beam="2">  1       21 0.66064718E-02 0.21805401E+02</pdfrwt>
<totfact> 0.49317364E+07</totfact>
</mgrwt>
</event>
<event>
 4    1  0.4619222E+006  0.3316455E+02  0.7546771E-02  0.1565531E+00
         21   -1    0    0  503  501  0.00000000000E+00  0.00000000000E+00  0.65721848343E+02  0.65721848343E+02  0.00000000000E+00 0. -1.
         21   -1    0    0  501  502 -0.00000000000E+00 -0.00000000000E+00 -0.28940694050E+02  0.28940694050E+02  0.00000000000E+00 0. -1.
         21    1    1    2  503  504  0.31156821120E+02 -0.11363971667E+02  0.49127912457E+02  0.59274270445E+02  0.00000000000E+00 0. -1.
         21    1    1    2  504  502 -0.31156821120E+02  0.11363971667E+02 -0.12346758164E+02  0.35388271948E+02  0.00000000000E+00 0. -1.
<mgrwt>
<rscale>  2 0.33164550E+02</rscale>
<asrwt>0</asrwt>
<pdfrwt beam="1">  1       21 0.10111054E-01 0.33164550E+02</pdfrwt>
<pdfrwt beam="2">  1       21 0.44524145E-02 0.33164550E+02</pdfrwt>
<totfact> 0.21169353E+07</totfact>
</mgrwt>
</event>
<event>
 4    1  0.4619222E+006  0.2440499E+02  0.7546771E-02  0.1669698E+00
         21   -1    0    0  502  501  0.00000000000E+00  0.00000000000E+00  0.74785798604E+02  0.74785798604E+02  0.00000000000E+00 0.  1.
         21   -1    0    0  503  502 -0.00000000000E+00 -0.00000000000E+00 -0.24734482129E+02  0.24734482129E+02  0.00000000000E+00 0. -1.
         21    1    1    2  503  504  0.78438148763E+01 -0.23110127684E+02 -0.15947679540E+02  0.29153591822E+02  0.00000000000E+00 0. -1.
         21    1    1    2  504  501 -0.78438148763E+01  0.23110127684E+02  0.65998996015E+02  0.70366688912E+02  0.00000000000E+00 0.  1.
<mgrwt>
<rscale>  2 0.24404988E+02</rscale>
<asrwt>0</asrwt>
<pdfrwt beam="1">  1       21 0.11505507E-01 0.24404988E+02</pdfrwt>
<pdfrwt beam="2">  1       21 0.38053050E-02 0.24404988E+02</pdfrwt>
<totfact> 0.20613424E+07</totfact>
</mgrwt>
</event>
<event>
 4    1  0.4619222E+006  0.2373497E+02  0.7546771E-02  0.1679866E+00
         21   -1    0    0  504  501  0.00000000000E+00  0.00000000000E+00  0.66639255766E+01  0.66639255766E+01  0.00000000000E+00 0.  1.
         21   -1    0    0  503  502 -0.00000000000E+00 -0.00000000000E+00 -0.11401733421E+03  0.11401733421E+03  0.00000000000E+00 0.  1.
         21    1    1    2  503  501 -0.18454385047E+02  0.14925965265E+02 -0.84359155911E+02  0.87634559122E+02  0.00000000000E+00 0.  1.
         21    1    1    2  504  502  0.18454385047E+02 -0.14925965265E+02 -0.22994252723E+02  0.33046700665E+02  0.00000000000E+00 0.  1.
<mgrwt>
<rscale>  2 0.23734969E+02</rscale>
<asrwt>0</asrwt>
<pdfrwt beam="1">  1       21 0.10252194E-02 0.23734969E+02</pdfrwt>
<pdfrwt beam="2">  1       21 0.17541127E-01 0.23734969E+02</pdfrwt>
<totfact> 0.75121897E+07</totfact>
</mgrwt>
</event>
<event>
 4    1  0.4619222E+006  0.2765841E+02  0.7546771E-02  0.1625514E+00
         21   -1    0    0  503  501  0.00000000000E+00  0.00000000000E+00  0.20357240668E+03  0.20357240668E+03  0.00000000000E+00 0. -1.
         21   -1    0    0  501  502 -0.00000000000E+00 -0.00000000000E+00 -0.54788350132E+01  0.54788350132E+01  0.00000000000E+00 0. -1.
         21    1    1    2  503  504 -0.22535125002E+02  0.16036072436E+02  0.15762978253E+03  0.16003791994E+03  0.00000000000E+00 0. -1.
         21    1    1    2  504  502  0.22535125002E+02 -0.16036072436E+02  0.40463789137E+02  0.49013321754E+02  0.00000000000E+00 0. -1.
<mgrwt>
<rscale>  2 0.27658407E+02</rscale>
<asrwt>0</asrwt>
<pdfrwt beam="1">  1       21 0.31318826E-01 0.27658407E+02</pdfrwt>
<pdfrwt beam="2">  1       21 0.84289785E-03 0.27658407E+02</pdfrwt>
<totfact> 0.37225536E+07</totfact>
</mgrwt>
</event>
<event>
 4    1  0.4619222E+006  0.2924135E+02  0.7546771E-02  0.1606629E+00
         21   -1    0    0  503  501  0.00000000000E+00  0.00000000000E+00  0.10830153621E+03  0.10830153621E+03  0.00000000000E+00 0. -1.
         21   -1    0    0  504  502 -0.00000000000E+00 -0.00000000000E+00 -0.82812038927E+01  0.82812038927E+01  0.00000000000E+00 0. -1.
         21    1    1    2  503  502  0.22475647317E+02  0.18705670114E+02  0.62595994019E+02  0.69089183552E+02  0.00000000000E+00 0. -1.
         21    1    1    2  504  501 -0.22475647317E+02 -0.18705670114E+02  0.37424338300E+02  0.47493556551E+02  0.00000000000E+00 0. -1.
<mgrwt>
<rscale>  2 0.29241355E+02</rscale>
<asrwt>0</asrwt>
<pdfrwt beam="1">  1       21 0.16661774E-01 0.29241355E+02</pdfrwt>
<pdfrwt beam="2">  1       21 0.12740314E-02 0.29241355E+02</pdfrwt>
<totfact> 0.62175975E+07</totfact>
</mgrwt>
</event>
<event>
 4    1  0.4619222E+006  0.2150605E+02  0.7546771E-02  0.1716937E+00
         21   -1    0    0  503  501  0.00000000000E+00  0.00000000000E+00  0.65543465142E+02  0.65543465142E+02  0.00000000000E+00 0. -1.
         21   -1    0    0  504  502 -0.00000000000E+00 -0.00000000000E+00 -0.71880126822E+01  0.71880126822E+01  0.00000000000E+00 0. -1.
         21    1    1    2  503  502 -0.20009787532E+02 -0.78815213037E+01  0.24259500118E+02  0.32419644062E+02  0.00000000000E+00 0. -1.
         21    1    1    2  504  501  0.20009787532E+02  0.78815213037E+01  0.34095952342E+02  0.40311833762E+02  0.00000000000E+00 0. -1.
<mgrwt>
<rscale>  2 0.21506045E+02</rscale>
<asrwt>0</asrwt>
<pdfrwt beam="1">  1       21 0.10083610E-01 0.21506045E+02</pdfrwt>
<pdfrwt beam="2">  1       21 0.11058482E-02 0.21506045E+02</pdfrwt>
<totfact> 0.16579447E+08</totfact>
</mgrwt>
</event>
<event>
 4    1  0.4619222E+006  0.4091388E+02  0.7546771E-02  0.1501592E+00
         21   -1    0    0  502  501  0.00000000000E+00  0.00000000000E+00  0.72147326863E+02  0.72147326863E+02  0.00000000000E+00 0. -1.
         21   -1    0    0  503  502 -0.00000000000E+00 -0.00000000000E+00 -0.87899758187E+02  0.87899758187E+02  0.00000000000E+00 0. -1.
         21    1    1    2  503  504  0.37834125642E+02 -0.15573187608E+02 -0.76530768353E+02  0.86780779784E+02  0.00000000000E+00 0. -1.
         21    1    1    2  504  501 -0.37834125642E+02  0.15573187608E+02  0.60778337028E+02  0.73266305265E+02  0.00000000000E+00 0. -1.
<mgrwt>
<rscale>  2 0.40913876E+02</rscale>
<asrwt>0</asrwt>
<pdfrwt beam="1">  1       21 0.11099589E-01 0.40913876E+02</pdfrwt>
<pdfrwt beam="2">  1       21 0.13523040E-01 0.40913876E+02</pdfrwt>
<totfact> 0.29399740E+06</totfact>
</mgrwt>
</event>
<event>
 4    1  0.4619222E+006  0.2114868E+02  0.7546771E-02  0.1723405E+00
         21   -1    0    0  504  501  0.00000000000E+00  0.00000000000E+00  0.21139464032E+02  0.21139464032E+02  0.00000000000E+00 0. -1.
         21   -1    0    0  501  502 -0.00000000000E+00 -0.00000000000E+00 -0.35045407146E+02  0.35045407146E+02  0.00000000000E+00 0. -1.
         21    1    1    2  503  502  0.65073563024E+01 -0.20122646228E+02 -0.24637197385E+02  0.32469340496E+02  0.00000000000E+00 0. -1.
         21    1    1    2  504  503 -0.65073563024E+01  0.20122646228E+02  0.10731254271E+02  0.23715530681E+02  0.00000000000E+00 0. -1.
<mgrwt>
<rscale>  2 0.21148678E+02</rscale>
<asrwt>0</asrwt>
<pdfrwt beam="1">  1       21 0.32522253E-02 0.21148678E+02</pdfrwt>
<pdfrwt beam="2">  1       21 0.53916011E-02 0.21148678E+02</pdfrwt>
<totfact> 0.87482053E+07</totfact>
</mgrwt>
</event>
<event>
 4    1  0.4619222E+006  0.2151312E+02  0.7546771E-02  0.1716811E+00
         21   -1    0    0  504  501  0.00000000000E+00  0.00000000000E+00  0.65559367951E+02  0.65559367951E+02  0.00000000000E+00 0.  1.
         21   -1    0    0  503  502 -0.00000000000E+00 -0.00000000000E+00 -0.43011702133E+03  0.43011702133E+03  0.00000000000E+00 0. -1.
         21    1    1    2  503  501  0.12459298266E+02 -0.17537968508E+02 -0.42807473400E+03  0.42861496980E+03  0.00000000000E+00 0. -1.
         21    1    1    2  504  502 -0.12459298266E+02  0.17537968508E+02  0.63517080616E+02  0.67061419480E+02  0.00000000000E+00 0.  1.
<mgrwt>
<rscale>  2 0.21513123E+02</rscale>
<asrwt>0</asrwt>
<pdfrwt beam="1">  1       21 0.10086057E-01 0.21513123E+02</pdfrwt>
<pdfrwt beam="2">  1       21 0.66171849E-01 0.21513123E+02</pdfrwt>
<totfact> 0.17568897E+05</totfact>
</mgrwt>
</event>
<event>
 4    1  0.4619222E+006  0.2136773E+02  0.7546771E-02  0.1719422E+00
         21   -1    0    0  502  501  0.00000000000E+00  0.00000000000E+00  0.14743849273E+03  0.14743849273E+03  0.00000000000E+00 0. -1.
         21   -1    0    0  503  502 -0.00000000000E+00 -0.00000000000E+00 -0.11488566753E+02  0.11488566753E+02  0.00000000000E+00 0.  1.
         21    1    1    2  503  504 -0.20850887923E+02  0.46712352500E+01  0.60393037641E-01  0.21367817232E+02  0.00000000000E+00 0.  1.
         21    1    1    2  504  501  0.20850887923E+02 -0.46712352500E+01  0.13588953294E+03  0.13755924225E+03  0.00000000000E+00 0. -1.
<mgrwt>
<rscale>  2 0.21367732E+02</rscale>
<asrwt>0</asrwt>
<pdfrwt beam="1">  1       21 0.22682844E-01 0.21367732E+02</pdfrwt>
<pdfrwt beam="2">  1       21 0.17674719E-02 0.21367732E+02</pdfrwt>
<totfact> 0.20507458E+07</totfact>
</mgrwt>
</event>
<event>
 4    1  0.4619222E+006  0.2042982E+02  0.7546771E-02  0.1736913E+00
         21   -1    0    0  502  501  0.00000000000E+00  0.00000000000E+00  0.40735810952E+01  0.40735810952E+01  0.00000000000E+00 0. -1.
         21   -1    0    0  503  502 -0.00000000000E+00 -0.00000000000E+00 -0.10246010621E+03  0.10246010621E+03  0.00000000000E+00 0. -1.
         21    1    1    2  503  504 -0.78627096858E+01  0.18856178260E+02 -0.49306597559E+02  0.53371511361E+02  0.00000000000E+00 0. -1.
         21    1    1    2  504  501  0.78627096858E+01 -0.18856178260E+02 -0.49079927551E+02  0.53162175939E+02  0.00000000000E+00 0. -1.
<mgrwt>
<rscale>  2 0.20429823E+02</rscale>
<asrwt>0</asrwt>
<pdfrwt beam="1">  1       21 0.62670487E-03 0.20429823E+02</pdfrwt>
<pdfrwt beam="2">  1       21 0.15763091E-01 0.20429823E+02</pdfrwt>
<totfact> 0.17997232E+08</totfact>
</mgrwt>
</event>
<event>
 4    1  0.4619222E+006  0.3856900E+02  0.7546771E-02  0.1519014E+00
         21   -1    0    0  502  501  0.00000000000E+00  0.00000000000E+00  0.26741074280E+04  0.26741074280E+04  0.00000000000E+00 0.  1.
         21   -1    0    0  504  502 -0.00000000000E+00 -0.00000000000E+00 -0.14940611696E+01  0.14940611696E+01  0.00000000000E+00 0. -1.
         21    1    1    2  503  501 -0.38386249109E+02 -0.37501241916E+01  0.23961866732E+04  0.23964970562E+04  0.00000000000E+00 0.  1.
         21    1    1    2  504  503  0.38386249109E+02  0.37501241916E+01  0.27642669363E+03  0.27910443297E+03  0.00000000000E+00 0. -1.
<mgrwt>
<rscale>  2 0.38568997E+02</rscale>
<asrwt>0</asrwt>
<pdfrwt beam="1">  1       21 0.41139731E+00 0.38568997E+02</pdfrwt>
<pdfrwt beam="2">  1       21 0.22985770E-03 0.38568997E+02</pdfrwt>
<totfact> 0.36385441E+05</totfact>
</mgrwt>
</event>
<event>
 4    1  0.4619222E+006  0.2235127E+02  0.7546771E-02  0.1702247E+00
         21   -1    0    0  503  501  0.00000000000E+00  0.00000000000E+00  0.56117093629E+02  0.56117093629E+02  0.00000000000E+00 0.  1.
         21   -1    0    0  504  502 -0.00000000000E+00 -0.00000000000E+00 -0.10053660450E+02  0.10053660450E+02  0.00000000000E+00 0.  1.
         21    1    1    2  503  502 -0.14482676600E+02  0.17024439403E+02  0.11836000244E+02  0.25291705365E+02  0.00000000000E+00 0.  1.
         21    1    1    2  504  501  0.14482676600E+02 -0.17024439403E+02  0.34227432935E+02  0.40879048714E+02  0.00000000000E+00 0.  1.
<mgrwt>
<rscale>  2 0.22351274E+02</rscale>
<asrwt>0</asrwt>
<pdfrwt beam="1">  1       21 0.86333988E-02 0.22351274E+02</pdfrwt>
<pdfrwt beam="2">  1       21 0.15467170E-02 0.22351274E+02</pdfrwt>
<totfact> 0.13040234E+08</totfact>
</mgrwt>
</event>
<event>
 4    1  0.4619222E+006  0.2199488E+02  0.7546771E-02  0.1708341E+00
         21   -1    0    0  503  501  0.00000000000E+00  0.00000000000E+00  0.13145554985E+03  0.13145554985E+03  0.00000000000E+00 0.  1.
         21   -1    0    0  504  502 -0.00000000000E+00 -0.00000000000E+00 -0.58063274294E+01  0.58063274294E+01  0.00000000000E+00 0.  1.
         21    1    1    2  503  502  0.14274133134E+02 -0.16733911595E+02  0.21293832976E+02  0.30613755027E+02  0.00000000000E+00 0.  1.
         21    1    1    2  504  501 -0.14274133134E+02  0.16733911595E+02  0.10435538945E+03  0.10664812226E+03  0.00000000000E+00 0.  1.
<mgrwt>
<rscale>  2 0.21994878E+02</rscale>
<asrwt>0</asrwt>
<pdfrwt beam="1">  1       21 0.20223929E-01 0.21994878E+02</pdfrwt>
<pdfrwt beam="2">  1       21 0.89328124E-03 0.21994878E+02</pdfrwt>
<totfact> 0.70704126E+07</totfact>
</mgrwt>
</event>
<event>
 4    1  0.4619222E+006  0.2231414E+02  0.7546771E-02  0.1702875E+00
         21   -1    0    0  503  501  0.00000000000E+00  0.00000000000E+00  0.42841233825E+03  0.42841233825E+03  0.00000000000E+00 0.  1.
         21   -1    0    0  501  502 -0.00000000000E+00 -0.00000000000E+00 -0.36198634143E+02  0.36198634143E+02  0.00000000000E+00 0. -1.
         21    1    1    2  503  504  0.22096332651E+02 -0.31101063928E+01  0.42465254260E+03  0.42523840680E+03  0.00000000000E+00 0.  1.
         21    1    1    2  504  502 -0.22096332651E+02  0.31101063928E+01 -0.32438838496E+02  0.39372565593E+02  0.00000000000E+00 0. -1.
<mgrwt>
<rscale>  2 0.22314136E+02</rscale>
<asrwt>0</asrwt>
<pdfrwt beam="1">  1       21 0.65909587E-01 0.22314136E+02</pdfrwt>
<pdfrwt beam="2">  1       21 0.55690209E-02 0.22314136E+02</pdfrwt>
<totfact> 0.46510964E+05</totfact>
</mgrwt>
</event>
<event>
 4    1  0.4619222E+006  0.3333140E+02  0.7546771E-02  0.1563938E+00
         21   -1    0    0  503  501  0.00000000000E+00  0.00000000000E+00  0.40449884322E+01  0.40449884322E+01  0.00000000000E+00 0.  1.
         21   -1    0    0  504  502 -0.00000000000E+00 -0.00000000000E+00 -0.28351449136E+03  0.28351449136E+03  0.00000000000E+00 0.  1.
         21    1    1    2  503  502 -0.15120055744E+02  0.29704653560E+02 -0.11432053657E+03  0.11908050895E+03  0.00000000000E+00 0.  1.
         21    1    1    2  504  501  0.15120055744E+02 -0.29704653560E+02 -0.16514896635E+03  0.16847897084E+03  0.00000000000E+00 0.  1.
<mgrwt>
<rscale>  2 0.33331405E+02</rscale>
<asrwt>0</asrwt>
<pdfrwt beam="1">  1       21 0.62230582E-03 0.33331405E+02</pdfrwt>
<pdfrwt beam="2">  1       21 0.43617620E-01 0.33331405E+02</pdfrwt>
<totfact> 0.32589487E+07</totfact>
</mgrwt>
</event>
<event>
 4    1  0.4619222E+006  0.2534538E+02  0.7546771E-02  0.1656090E+00
         21   -1    0    0  503  501  0.00000000000E+00  0.00000000000E+00  0.80232445668E+01  0.80232445668E+01  0.00000000000E+00 0. -1.
         21   -1    0    0  504  502 -0.00000000000E+00 -0.00000000000E+00 -0.23397416458E+03  0.23397416458E+03  0.00000000000E+00 0. -1.
         21    1    1    2  503  502  0.23335973117E+02 -0.98904308387E+01 -0.14839597310E+02  0.29370085322E+02  0.00000000000E+00 0. -1.
         21    1    1    2  504  501 -0.23335973117E+02  0.98904308387E+01 -0.21111132270E+03  0.21262732382E+03  0.00000000000E+00 0. -1.
<mgrwt>
<rscale>  2 0.25345380E+02</rscale>
<asrwt>0</asrwt>
<pdfrwt beam="1">  1       21 0.12343452E-02 0.25345380E+02</pdfrwt>
<pdfrwt beam="2">  1       21 0.35996030E-01 0.25345380E+02</pdfrwt>
<totfact> 0.15888006E+07</totfact>
</mgrwt>
</event>
<event>
 4    1  0.4619222E+006  0.4231823E+02  0.7546771E-02  0.1491813E+00
         21   -1    0    0  503  501  0.00000000000E+00  0.00000000000E+00  0.66401665240E+02  0.66401665240E+02  0.00000000000E+00 0.  1.
         21   -1    0    0  504  502 -0.00000000000E+00 -0.00000000000E+00 -0.30776232341E+02  0.30776232341E+02  0.00000000000E+00 0. -1.
         21    1    1    2  503  502  0.59409094463E+01  0.41899140121E+02  0.72456471141E+00  0.42324429612E+02  0.00000000000E+00 0. -1.
         21    1    1    2  504  501 -0.59409094463E+01 -0.41899140121E+02  0.34900868188E+02  0.54853467969E+02  0.00000000000E+00 0.  1.
<mgrwt>
<rscale>  2 0.42318227E+02</rscale>
<asrwt>0</asrwt>
<pdfrwt beam="1">  1       21 0.10215641E-01 0.42318227E+02</pdfrwt>
<pdfrwt beam="2">  1       21 0.47348050E-02 0.42318227E+02</pdfrwt>
<totfact> 0.19625538E+07</totfact>
</mgrwt>
</event>
<event>
 4    1  0.4619222E+006  0.2295360E+02  0.7546771E-02  0.1692263E+00
         21   -1    0    0  504  501  0.00000000000E+00  0.00000000000E+00  0.62803129409E+01  0.62803129409E+01  0.00000000000E+00 0.  1.
         21   -1    0    0  503  502 -0.00000000000E+00 -0.00000000000E+00 -0.14789149553E+03  0.14789149553E+03  0.00000000000E+00 0.  1.
         21    1    1    2  503  501 -0.38536098768E+01  0.22627804577E+02 -0.12151537228E+03  0.12366427758E+03  0.00000000000E+00 0.  1.
         21    1    1    2  504  502  0.38536098768E+01 -0.22627804577E+02 -0.20095810308E+02  0.30507530890E+02  0.00000000000E+00 0.  1.
<mgrwt>
<rscale>  2 0.22953602E+02</rscale>
<asrwt>0</asrwt>
<pdfrwt beam="1">  1       21 0.96620209E-03 0.22953602E+02</pdfrwt>
<pdfrwt beam="2">  1       21 0.22752536E-01 0.22953602E+02</pdfrwt>
<totfact> 0.51694120E+07</totfact>
</mgrwt>
</event>
<event>
 4    1  0.4619222E+006  0.2350173E+02  0.7546771E-02  0.1683504E+00
         21   -1    0    0  502  501  0.00000000000E+00  0.00000000000E+00  0.45769270256E+02  0.45769270256E+02  0.00000000000E+00 0.  1.
         21   -1    0    0  504  502 -0.00000000000E+00 -0.00000000000E+00 -0.11242030276E+03  0.11242030276E+03  0.00000000000E+00 0.  1.
         21    1    1    2  503  501  0.22404561388E+02  0.70969741137E+01  0.41403579668E+02  0.47608694814E+02  0.00000000000E+00 0.  1.
         21    1    1    2  504  503 -0.22404561388E+02 -0.70969741137E+01 -0.10805461217E+03  0.11058087821E+03  0.00000000000E+00 0.  1.
<mgrwt>
<rscale>  2 0.23501732E+02</rscale>
<asrwt>0</asrwt>
<pdfrwt beam="1">  1       21 0.70414261E-02 0.23501732E+02</pdfrwt>
<pdfrwt beam="2">  1       21 0.17295431E-01 0.23501732E+02</pdfrwt>
<totfact> 0.38324258E+06</totfact>
</mgrwt>
</event>
<event>
 4    1  0.4619222E+006  0.3357208E+02  0.7546771E-02  0.1561659E+00
         21   -1    0    0  503  501  0.00000000000E+00  0.00000000000E+00  0.30657086839E+03  0.30657086839E+03  0.00000000000E+00 0.  1.
         21   -1    0    0  504  502 -0.00000000000E+00 -0.00000000000E+00 -0.51686621286E+01  0.51686621286E+01  0.00000000000E+00 0.  1.
         21    1    1    2  503  502  0.13960659155E+01 -0.33543043769E+02  0.66949767915E+02  0.74895635448E+02  0.00000000000E+00 0.  1.
         21    1    1    2  504  501 -0.13960659155E+01  0.33543043769E+02  0.23445243835E+03  0.23684389507E+03  0.00000000000E+00 0.  1.
<mgrwt>
<rscale>  2 0.33572083E+02</rscale>
<asrwt>0</asrwt>
<pdfrwt beam="1">  1       21 0.47164735E-01 0.33572083E+02</pdfrwt>
<pdfrwt beam="2">  1       21 0.79517903E-03 0.33572083E+02</pdfrwt>
<totfact> 0.19372275E+07</totfact>
</mgrwt>
</event>
<event>
 4    1  0.4619222E+006  0.2080198E+02  0.7546771E-02  0.1729834E+00
         21   -1    0    0  503  501  0.00000000000E+00  0.00000000000E+00  0.36198649582E+01  0.36198649582E+01  0.00000000000E+00 0.  1.
         21   -1    0    0  504  502 -0.00000000000E+00 -0.00000000000E+00 -0.12441905274E+03  0.12441905274E+03  0.00000000000E+00 0. -1.
         21    1    1    2  503  502 -0.67021307309E+01  0.19692733214E+02 -0.73075865709E+02  0.75978973715E+02  0.00000000000E+00 0.  1.
         21    1    1    2  504  501  0.67021307309E+01 -0.19692733214E+02 -0.47723322072E+02  0.52059943981E+02  0.00000000000E+00 0. -1.
<mgrwt>
<rscale>  2 0.20801978E+02</rscale>
<asrwt>0</asrwt>
<pdfrwt beam="1">  1       21 0.55690232E-03 0.20801978E+02</pdfrwt>
<pdfrwt beam="2">  1       21 0.19141392E-01 0.20801978E+02</pdfrwt>
<totfact> 0.15439342E+08</totfact>
</mgrwt>
</event>
<event>
 4    1  0.4619222E+006  0.2960313E+02  0.7546771E-02  0.1602517E+00
         21   -1    0    0  502  501  0.00000000000E+00  0.00000000000E+00  0.68231079126E+02  0.68231079126E+02  0.00000000000E+00 0. -1.
         21   -1    0    0  504  502 -0.00000000000E+00 -0.00000000000E+00 -0.15982964550E+02  0.15982964550E+02  0.00000000000E+00 0. -1.
         21    1    1    2  503  501  0.16826871966E+02  0.24355734218E+02  0.44785010995E+02  0.53684659069E+02  0.00000000000E+00 0. -1.
         21    1    1    2  504  503 -0.16826871966E+02 -0.24355734218E+02  0.74631035799E+01  0.30529384607E+02  0.00000000000E+00 0. -1.
<mgrwt>
<rscale>  2 0.29603132E+02</rscale>
<asrwt>0</asrwt>
<pdfrwt beam="1">  1       21 0.10497089E-01 0.29603132E+02</pdfrwt>
<pdfrwt beam="2">  1       21 0.24589177E-02 0.29603132E+02</pdfrwt>
<totfact> 0.49709211E+07</totfact>
</mgrwt>
</event>
<event>
 4    1  0.4619222E+006  0.2038244E+02  0.7546771E-02  0.1737828E+00
         21   -1    0    0  504  501  0.00000000000E+00  0.00000000000E+00  0.44709447834E+00  0.44709447834E+00  0.00000000000E+00 0. -1.
         21   -1    0    0  503  502 -0.00000000000E+00 -0.00000000000E+00 -0.13968275428E+04  0.13968275428E+04  0.00000000000E+00 0.  1.
         21    1    1    2  503  501 -0.19520719815E+02 -0.58638903597E+01 -0.11024185731E+04  0.11026069807E+04  0.00000000000E+00 0.  1.
         21    1    1    2  504  502  0.19520719815E+02  0.58638903597E+01 -0.29396187527E+03  0.29466765656E+03  0.00000000000E+00 0. -1.
<mgrwt>
<rscale>  2 0.20382436E+02</rscale>
<asrwt>0</asrwt>
<pdfrwt beam="1">  1       21 0.68782501E-04 0.20382436E+02</pdfrwt>
<pdfrwt beam="2">  1       21 0.21490050E+00 0.20382436E+02</pdfrwt>
<totfact> 0.21546642E+07</totfact>
</mgrwt>
</event>
<event>
 4    1  0.4619222E+006  0.2617476E+02  0.7546771E-02  0.1644680E+00
         21   -1    0    0  503  501  0.00000000000E+00  0.00000000000E+00  0.23734221281E+01  0.23734221281E+01  0.00000000000E+00 0. -1.
         21   -1    0    0  504  502 -0.00000000000E+00 -0.00000000000E+00 -0.30193928637E+03  0.30193928637E+03  0.00000000000E+00 0. -1.
         21    1    1    2  503  502 -0.25075917590E+02  0.75044185583E+01 -0.18168926793E+03  0.18356499672E+03  0.00000000000E+00 0. -1.
         21    1    1    2  504  501  0.25075917590E+02 -0.75044185583E+01 -0.11787659631E+03  0.12074771177E+03  0.00000000000E+00 0. -1.
<mgrwt>
<rscale>  2 0.26174758E+02</rscale>
<asrwt>0</asrwt>
<pdfrwt beam="1">  1       21 0.36514177E-03 0.26174758E+02</pdfrwt>
<pdfrwt beam="2">  1       21 0.46452211E-01 0.26174758E+02</pdfrwt>
<totfact> 0.60655327E+07</totfact>
</mgrwt>
</event>
<event>
 4    1  0.4619222E+006  0.3202966E+02  0.7546771E-02  0.1576679E+00
         21   -1    0    0  503  501  0.00000000000E+00  0.00000000000E+00  0.46274960570E+01  0.46274960570E+01  0.00000000000E+00 0.  1.
         21   -1    0    0  504  502 -0.00000000000E+00 -0.00000000000E+00 -0.22281107889E+03  0.22281107889E+03  0.00000000000E+00 0.  1.
         21    1    1    2  503  502  0.20655135526E+02 -0.24479885054E+02 -0.11713506961E+03  0.12143526642E+03  0.00000000000E+00 0.  1.
         21    1    1    2  504  501 -0.20655135526E+02  0.24479885054E+02 -0.10104851322E+03  0.10600330853E+03  0.00000000000E+00 0.  1.
<mgrwt>
<rscale>  2 0.32029664E+02</rscale>
<asrwt>0</asrwt>
<pdfrwt beam="1">  1       21 0.71192255E-03 0.32029664E+02</pdfrwt>
<pdfrwt beam="2">  1       21 0.34278624E-01 0.32029664E+02</pdfrwt>
<totfact> 0.41802675E+07</totfact>
</mgrwt>
</event>
<event>
 4    1  0.4619222E+006  0.2056875E+02  0.7546771E-02  0.1734249E+00
         21   -1    0    0  503  501  0.00000000000E+00  0.00000000000E+00  0.11119180646E+02  0.11119180646E+02  0.00000000000E+00 0. -1.
         21   -1    0    0  504  502 -0.00000000000E+00 -0.00000000000E+00 -0.45638622452E+02  0.45638622452E+02  0.00000000000E+00 0.  1.
         21    1    1    2  503  502  0.16981836956E+02  0.11605622969E+02 -0.56868656986E+01  0.21340424372E+02  0.00000000000E+00 0. -1.
         21    1    1    2  504  501 -0.16981836956E+02 -0.11605622969E+02 -0.28832576108E+02  0.35417378727E+02  0.00000000000E+00 0.  1.
<mgrwt>
<rscale>  2 0.20568745E+02</rscale>
<asrwt>0</asrwt>
<pdfrwt beam="1">  1       21 0.17106432E-02 0.20568745E+02</pdfrwt>
<pdfrwt beam="2">  1       21 0.70213266E-02 0.20568745E+02</pdfrwt>
<totfact> 0.15262738E+08</totfact>
</mgrwt>
</event>
<event>
 4    1  0.4619222E+006  0.2419817E+02  0.7546771E-02  0.1672793E+00
         21   -1    0    0  502  501  0.00000000000E+00  0.00000000000E+00  0.31753092957E+03  0.31753092957E+03  0.00000000000E+00 0.  1.
         21   -1    0    0  504  502 -0.00000000000E+00 -0.00000000000E+00 -0.22933319372E+01  0.22933319372E+01  0.00000000000E+00 0.  1.
         21    1    1    2  503  501  0.21089475897E+02 -0.11865295362E+02  0.22839622574E+03  0.22967452441E+03  0.00000000000E+00 0.  1.
         21    1    1    2  504  503 -0.21089475897E+02  0.11865295362E+02  0.86841371889E+02  0.90149737100E+02  0.00000000000E+00 0.  1.
<mgrwt>
<rscale>  2 0.24198166E+02</rscale>
<asrwt>0</asrwt>
<pdfrwt beam="1">  1       21 0.48850877E-01 0.24198166E+02</pdfrwt>
<pdfrwt beam="2">  1       21 0.35282055E-03 0.24198166E+02</pdfrwt>
<totfact> 0.56838949E+07</totfact>
</mgrwt>
</event>
<event>
 4    1  0.4619222E+006  0.2260127E+02  0.7546771E-02  0.1698056E+00
         21   -1    0    0  503  501  0.00000000000E+00  0.00000000000E+00  0.66705096266E+01  0.66705096266E+01  0.00000000000E+00 0.  1.
         21   -1    0    0  501  502 -0.00000000000E+00 -0.00000000000E+00 -0.81763976298E+02  0.81763976298E+02  0.00000000000E+00 0.  1.
         21    1    1    2  503  504 -0.12468615555E+02  0.18850755436E+02 -0.26411311814E+02  0.34761685030E+02  0.00000000000E+00 0.  1.
         21    1    1    2  504  502  0.12468615555E+02 -0.18850755436E+02 -0.48682154857E+02  0.53672800895E+02  0.00000000000E+00 0.  1.
<mgrwt>
<rscale>  2 0.22601269E+02</rscale>
<asrwt>0</asrwt>
<pdfrwt beam="1">  1       21 0.10262322E-02 0.22601269E+02</pdfrwt>
<pdfrwt beam="2">  1       21 0.12579073E-01 0.22601269E+02</pdfrwt>
<totfact> 0.13031044E+08</totfact>
</mgrwt>
</event>
<event>
 4    1  0.4619222E+006  0.2078474E+02  0.7546771E-02  0.1730158E+00
         21   -1    0    0  502  501  0.00000000000E+00  0.00000000000E+00  0.47214742006E+02  0.47214742006E+02  0.00000000000E+00 0. -1.
         21   -1    0    0  504  502 -0.00000000000E+00 -0.00000000000E+00 -0.24086558592E+02  0.24086558592E+02  0.00000000000E+00 0.  1.
         21    1    1    2  503  501  0.19549328464E+02  0.70589637192E+01  0.39638352657E+02  0.44757169409E+02  0.00000000000E+00 0. -1.
         21    1    1    2  504  503 -0.19549328464E+02 -0.70589637192E+01 -0.16510169242E+02  0.26544131189E+02  0.00000000000E+00 0.  1.
<mgrwt>
<rscale>  2 0.20784735E+02</rscale>
<asrwt>0</asrwt>
<pdfrwt beam="1">  1       21 0.72638065E-02 0.20784735E+02</pdfrwt>
<pdfrwt beam="2">  1       21 0.37056244E-02 0.20784735E+02</pdfrwt>
<totfact> 0.44032947E+07</totfact>
</mgrwt>
</event>
<event>
 4    1  0.4619222E+006  0.3593460E+02  0.7546771E-02  0.1540454E+00
         21   -1    0    0  503  501  0.00000000000E+00  0.00000000000E+00  0.26619329578E+03  0.26619329578E+03  0.00000000000E+00 0. -1.
         21   -1    0    0  504  502 -0.00000000000E+00 -0.00000000000E+00 -0.10077808168E+02  0.10077808168E+02  0.00000000000E+00 0.  1.
         21    1    1    2  503  502  0.35253620559E+02  0.69626076431E+01  0.28576328679E+02  0.45911896372E+02  0.00000000000E+00 0.  1.
         21    1    1    2  504  501 -0.35253620559E+02 -0.69626076431E+01  0.22753915893E+03  0.23035920757E+03  0.00000000000E+00 0. -1.
<mgrwt>
<rscale>  2 0.35934603E+02</rscale>
<asrwt>0</asrwt>
<pdfrwt beam="1">  1       21 0.40952809E-01 0.35934603E+02</pdfrwt>
<pdfrwt beam="2">  1       21 0.15504322E-02 0.35934603E+02</pdfrwt>
<totfact> 0.92834338E+06</totfact>
</mgrwt>
</event>
<event>
 4    1  0.4619222E+006  0.2473798E+02  0.7546771E-02  0.1664794E+00
         21   -1    0    0  503  501  0.00000000000E+00  0.00000000000E+00  0.21597841217E+02  0.21597841217E+02  0.00000000000E+00 0.  1.
         21   -1    0    0  504  502 -0.00000000000E+00 -0.00000000000E+00 -0.28526362240E+02  0.28526362240E+02  0.00000000000E+00 0.  1.
         21    1    1    2  503  502 -0.99161935395E+01  0.22663551660E+02 -0.55187735677E+01  0.25346091017E+02  0.00000000000E+00 0.  1.
         21    1    1    2  504  501  0.99161935395E+01 -0.22663551660E+02 -0.14097474550E+01  0.24778112439E+02  0.00000000000E+00 0.  1.
<mgrwt>
<rscale>  2 0.24737976E+02</rscale>
<asrwt>0</asrwt>
<pdfrwt beam="1">  1       21 0.33227448E-02 0.24737976E+02</pdfrwt>
<pdfrwt beam="2">  1       21 0.43886711E-02 0.24737976E+02</pdfrwt>
<totfact> 0.12277568E+08</totfact>
</mgrwt>
</event>
<event>
 4    1  0.4619222E+006  0.2008059E+02  0.7546771E-02  0.1743730E+00
         21   -1    0    0  504  501  0.00000000000E+00  0.00000000000E+00  0.20274251434E+03  0.20274251434E+03  0.00000000000E+00 0.  1.
         21   -1    0    0  503  502 -0.00000000000E+00 -0.00000000000E+00 -0.19980931134E+01  0.19980931134E+01  0.00000000000E+00 0.  1.
         21    1    1    2  503  501  0.19913903973E+02  0.25819865537E+01  0.10732413272E+03  0.10918653622E+03  0.00000000000E+00 0.  1.
         21    1    1    2  504  502 -0.19913903973E+02 -0.25819865537E+01  0.93420288505E+02  0.95554071239E+02  0.00000000000E+00 0.  1.
<mgrwt>
<rscale>  2 0.20080593E+02</rscale>
<asrwt>0</asrwt>
<pdfrwt beam="1">  1       21 0.31191140E-01 0.20080593E+02</pdfrwt>
<pdfrwt beam="2">  1       21 0.30739910E-03 0.20080593E+02</pdfrwt>
<totfact> 0.15341052E+08</totfact>
</mgrwt>
</event>
<event>
 4    1  0.4619222E+006  0.2471623E+02  0.7546771E-02  0.1665112E+00
         21   -1    0    0  502  501  0.00000000000E+00  0.00000000000E+00  0.64735621338E+02  0.64735621338E+02  0.00000000000E+00 0.  1.
         21   -1    0    0  503  502 -0.00000000000E+00 -0.00000000000E+00 -0.40751389971E+02  0.40751389971E+02  0.00000000000E+00 0.  1.
         21    1    1    2  503  504  0.20831325181E+02 -0.13302179139E+02 -0.34242971710E+02  0.42231187412E+02  0.00000000000E+00 0.  1.
         21    1    1    2  504  501 -0.20831325181E+02  0.13302179139E+02  0.58227203077E+02  0.63255823897E+02  0.00000000000E+00 0.  1.
<mgrwt>
<rscale>  2 0.24716231E+02</rscale>
<asrwt>0</asrwt>
<pdfrwt beam="1">  1       21 0.99593263E-02 0.24716231E+02</pdfrwt>
<pdfrwt beam="2">  1       21 0.62694446E-02 0.24716231E+02</pdfrwt>
<totfact> 0.11854168E+07</totfact>
</mgrwt>
</event>
<event>
 4    1  0.4619222E+006  0.3809660E+02  0.7546771E-02  0.1522705E+00
         21   -1    0    0  504  501  0.00000000000E+00  0.00000000000E+00  0.22983940514E+03  0.22983940514E+03  0.00000000000E+00 0.  1.
         21   -1    0    0  503  502 -0.00000000000E+00 -0.00000000000E+00 -0.74933258695E+01  0.74933258695E+01  0.00000000000E+00 0.  1.
         21    1    1    2  503  501 -0.20928036013E+02  0.31833442918E+02  0.64108780030E+02  0.74574033392E+02  0.00000000000E+00 0.  1.
         21    1    1    2  504  502  0.20928036013E+02 -0.31833442918E+02  0.15823729925E+03  0.16275869762E+03  0.00000000000E+00 0.  1.
<mgrwt>
<rscale>  2 0.38096598E+02</rscale>
<asrwt>0</asrwt>
<pdfrwt beam="1">  1       21 0.35359903E-01 0.38096598E+02</pdfrwt>
<pdfrwt beam="2">  1       21 0.11528195E-02 0.38096598E+02</pdfrwt>
<totfact> 0.19546076E+07</totfact>
</mgrwt>
</event>
<event>
 4    1  0.4619222E+006  0.2060733E+02  0.7546771E-02  0.1733513E+00
         21   -1    0    0  504  501  0.00000000000E+00  0.00000000000E+00  0.37985346151E+02  0.37985346151E+02  0.00000000000E+00 0. -1.
         21   -1    0    0  503  502 -0.00000000000E+00 -0.00000000000E+00 -0.28912782320E+03  0.28912782320E+03  0.00000000000E+00 0.  1.
         21    1    1    2  503  501  0.73230560461E+01  0.19262270431E+02 -0.28593454994E+03  0.28667617456E+03  0.00000000000E+00 0.  1.
         21    1    1    2  504  502 -0.73230560461E+01 -0.19262270431E+02  0.34792072888E+02  0.40436994792E+02  0.00000000000E+00 0. -1.
<mgrwt>
<rscale>  2 0.20607334E+02</rscale>
<asrwt>0</asrwt>
<pdfrwt beam="1">  1       21 0.58438993E-02 0.20607334E+02</pdfrwt>
<pdfrwt beam="2">  1       21 0.44481205E-01 0.20607334E+02</pdfrwt>
<totfact> 0.92580810E+05</totfact>
</mgrwt>
</event>
<event>
 4    1  0.4619222E+006  0.3344772E+02  0.7546771E-02  0.1562834E+00
         21   -1    0    0  503  501  0.00000000000E+00  0.00000000000E+00  0.10763693754E+02  0.10763693754E+02  0.00000000000E+00 0. -1.
         21   -1    0    0  501  502 -0.00000000000E+00 -0.00000000000E+00 -0.11388494099E+03  0.11388494099E+03  0.00000000000E+00 0. -1.
         21    1    1    2  503  504 -0.22959398338E+02  0.24323153059E+02 -0.33140885209E+02  0.47085751764E+02  0.00000000000E+00 0. -1.
         21    1    1    2  504  502  0.22959398338E+02 -0.24323153059E+02 -0.69980362024E+02  0.77562882977E+02  0.00000000000E+00 0. -1.
<mgrwt>
<rscale>  2 0.33447717E+02</rscale>
<asrwt>0</asrwt>
<pdfrwt beam="1">  1       21 0.16559528E-02 0.33447717E+02</pdfrwt>
<pdfrwt beam="2">  1       21 0.17520761E-01 0.33447717E+02</pdfrwt>
<totfact> 0.39181924E+07</totfact>
</mgrwt>
</event>
<event>
 4    1  0.4619222E+006  0.2219213E+02  0.7546771E-02  0.1704950E+00
         21   -1    0    0  504  501  0.00000000000E+00  0.00000000000E+00  0.34312329990E+02  0.34312329990E+02  0.00000000000E+00 0.  1.
         21   -1    0    0  503  502 -0.00000000000E+00 -0.00000000000E+00 -0.76394529992E+02  0.76394529992E+02  0.00000000000E+00 0.  1.
         21    1    1    2  503  501  0.15398852931E+01 -0.22138640887E+02 -0.70924272265E+02  0.74315160387E+02  0.00000000000E+00 0.  1.
         21    1    1    2  504  502 -0.15398852931E+01  0.22138640887E+02  0.28842072262E+02  0.36391699595E+02  0.00000000000E+00 0.  1.
<mgrwt>
<rscale>  2 0.22192131E+02</rscale>
<asrwt>0</asrwt>
<pdfrwt beam="1">  1       21 0.52788201E-02 0.22192131E+02</pdfrwt>
<pdfrwt beam="2">  1       21 0.11753004E-01 0.22192131E+02</pdfrwt>
<totfact> 0.11605640E+07</totfact>
</mgrwt>
</event>
<event>
 4    1  0.4619222E+006  0.2006846E+02  0.7546771E-02  0.1743970E+00
         21   -1    0    0  503  501  0.00000000000E+00  0.00000000000E+00  0.30884717861E+01  0.30884717861E+01  0.00000000000E+00 0.  1.
         21   -1    0    0  504  502 -0.00000000000E+00 -0.00000000000E+00 -0.19662665371E+03  0.19662665371E+03  0.00000000000E+00 0.  1.
         21    1    1    2  503  502  0.99057154846E+01  0.17453367362E+02 -0.15472120210E+03  0.15601728626E+03  0.00000000000E+00 0.  1.
         21    1    1    2  504  501 -0.99057154846E+01 -0.17453367362E+02 -0.38816979819E+02  0.43697839235E+02  0.00000000000E+00 0.  1.
<mgrwt>
<rscale>  2 0.20068464E+02</rscale>
<asrwt>0</asrwt>
<pdfrwt beam="1">  1       21 0.47514952E-03 0.20068464E+02</pdfrwt>
<pdfrwt beam="2">  1       21 0.30250253E-01 0.20068464E+02</pdfrwt>
<totfact> 0.85911388E+07</totfact>
</mgrwt>
</event>
<event>
 4    1  0.4619222E+006  0.2218582E+02  0.7546771E-02  0.1705058E+00
         21   -1    0    0  503  501  0.00000000000E+00  0.00000000000E+00  0.46113077121E+02  0.46113077121E+02  0.00000000000E+00 0.  1.
         21   -1    0    0  501  502 -0.00000000000E+00 -0.00000000000E+00 -0.19213733035E+02  0.19213733035E+02  0.00000000000E+00 0.  1.
         21    1    1    2  503  504  0.11198772958E+02  0.19151974333E+02  0.35225662629E+02  0.41630012543E+02  0.00000000000E+00 0.  1.
         21    1    1    2  504  502 -0.11198772958E+02 -0.19151974333E+02 -0.83263185431E+01  0.23696797613E+02  0.00000000000E+00 0.  1.
<mgrwt>
<rscale>  2 0.22185821E+02</rscale>
<asrwt>0</asrwt>
<pdfrwt beam="1">  1       21 0.70943195E-02 0.22185821E+02</pdfrwt>
<pdfrwt beam="2">  1       21 0.29559590E-02 0.22185821E+02</pdfrwt>
<totfact> 0.66219031E+07</totfact>
</mgrwt>
</event>
<event>
 4    1  0.4619222E+006  0.2012112E+02  0.7546771E-02  0.1742930E+00
         21   -1    0    0  503  501  0.00000000000E+00  0.00000000000E+00  0.49123038951E+02  0.49123038951E+02  0.00000000000E+00 0.  1.
         21   -1    0    0  504  502 -0.00000000000E+00 -0.00000000000E+00 -0.10667076315E+02  0.10667076315E+02  0.00000000000E+00 0.  1.
         21    1    1    2  503  502  0.14860986342E+02  0.13565049926E+02  0.49731411707E+01  0.20726592283E+02  0.00000000000E+00 0.  1.
         21    1    1    2  504  501 -0.14860986342E+02 -0.13565049926E+02  0.33482821466E+02  0.39063522983E+02  0.00000000000E+00 0.  1.
<mgrwt>
<rscale>  2 0.20121121E+02</rscale>
<asrwt>0</asrwt>
<pdfrwt beam="1">  1       21 0.75573905E-02 0.20121121E+02</pdfrwt>
<pdfrwt beam="2">  1       21 0.16410887E-02 0.20121121E+02</pdfrwt>
<totfact> 0.14335134E+08</totfact>
</mgrwt>
</event>
<event>
 4    1  0.4619222E+006  0.2341349E+02  0.7546771E-02  0.1684894E+00
         21   -1    0    0  504  501  0.00000000000E+00  0.00000000000E+00  0.13239716130E+03  0.13239716130E+03  0.00000000000E+00 0.  1.
         21   -1    0    0  503  502 -0.00000000000E+00 -0.00000000000E+00 -0.46895191645E+02  0.46895191645E+02  0.00000000000E+00 0.  1.
         21    1    1    2  503  501 -0.23359026820E+02  0.15960673739E+01 -0.42846195733E+02  0.48826100130E+02  0.00000000000E+00 0.  1.
         21    1    1    2  504  502  0.23359026820E+02 -0.15960673739E+01  0.12834816539E+03  0.13046625282E+03  0.00000000000E+00 0.  1.
<mgrwt>
<rscale>  2 0.23413491E+02</rscale>
<asrwt>0</asrwt>
<pdfrwt beam="1">  1       21 0.20368794E-01 0.23413491E+02</pdfrwt>
<pdfrwt beam="2">  1       21 0.72146449E-02 0.23413491E+02</pdfrwt>
<totfact> 0.27718479E+06</totfact>
</mgrwt>
</event>
<event>
 4    1  0.4619222E+006  0.2860453E+02  0.7546771E-02  0.1614047E+00
         21   -1    0    0  502  501  0.00000000000E+00  0.00000000000E+00  0.48765142368E+01  0.48765142368E+01  0.00000000000E+00 0. -1.
         21   -1    0    0  504  502 -0.00000000000E+00 -0.00000000000E+00 -0.95607929061E+03  0.95607929061E+03  0.00000000000E+00 0.  1.
         21    1    1    2  503  501  0.96722508562E+01  0.26919632074E+02 -0.39316756899E+02  0.48621254619E+02  0.00000000000E+00 0. -1.
         21    1    1    2  504  503 -0.96722508562E+01 -0.26919632074E+02 -0.91188601947E+03  0.91233455022E+03  0.00000000000E+00 0.  1.
<mgrwt>
<rscale>  2 0.28604528E+02</rscale>
<asrwt>0</asrwt>
<pdfrwt beam="1">  1       21 0.75023377E-03 0.28604528E+02</pdfrwt>
<pdfrwt beam="2">  1       21 0.14708896E+00 0.28604528E+02</pdfrwt>
<totfact> 0.17940470E+06</totfact>
</mgrwt>
</event>
<event>
 4    1  0.4619222E+006  0.2433886E+02  0.7546771E-02  0.1670684E+00
         21   -1    0    0  504  501  0.00000000000E+00  0.00000000000E+00  0.27433891793E+02  0.27433891793E+02  0.00000000000E+00 0. -1.
         21   -1    0    0  501  502 -0.00000000000E+00 -0.00000000000E+00 -0.79444977811E+03  0.79444977811E+03  0.00000000000E+00 0.  1.
         21    1    1    2  503  502  0.17575074810E+02 -0.16837358469E+02 -0.78882664516E+03  0.78920203751E+03  0.00000000000E+00 0.  1.
         21    1    1    2  504  503 -0.17575074810E+02  0.16837358469E+02  0.21810758841E+02  0.32681632395E+02  0.00000000000E+00 0. -1.
<mgrwt>
<rscale>  2 0.24338856E+02</rscale>
<asrwt>0</asrwt>
<pdfrwt beam="1">  1       21 0.42205984E-02 0.24338856E+02</pdfrwt>
<pdfrwt beam="2">  1       21 0.12222305E+00 0.24338856E+02</pdfrwt>
<totfact> 0.19266433E+05</totfact>
</mgrwt>
</event>
<event>
 4    1  0.4619222E+006  0.2634376E+02  0.7546771E-02  0.1642419E+00
         21   -1    0    0  503  501  0.00000000000E+00  0.00000000000E+00  0.21717181737E+03  0.21717181737E+03  0.00000000000E+00 0. -1.
         21   -1    0    0  504  502 -0.00000000000E+00 -0.00000000000E+00 -0.32653164380E+01  0.32653164380E+01  0.00000000000E+00 0. -1.
         21    1    1    2  503  502 -0.26146148410E+02 -0.32206484905E+01  0.12305853535E+03  0.12584671936E+03  0.00000000000E+00 0. -1.
         21    1    1    2  504  501  0.26146148410E+02  0.32206484905E+01  0.90847965582E+02  0.94590414439E+02  0.00000000000E+00 0. -1.
<mgrwt>
<rscale>  2 0.26343759E+02</rscale>
<asrwt>0</asrwt>
<pdfrwt beam="1">  1       21 0.33411037E-01 0.26343759E+02</pdfrwt>
<pdfrwt beam="2">  1       21 0.50235655E-03 0.26343759E+02</pdfrwt>
<totfact> 0.70758360E+07</totfact>
</mgrwt>
</event>
<event>
 4    1  0.4619222E+006  0.2366892E+02  0.7546771E-02  0.1680891E+00
         21   -1    0    0  504  501  0.00000000000E+00  0.00000000000E+00  0.43412977527E+03  0.43412977527E+03  0.00000000000E+00 0. -1.
         21   -1    0    0  503  502 -0.00000000000E+00 -0.00000000000E+00 -0.17381950937E+01  0.17381950937E+01  0.00000000000E+00 0. -1.
         21    1    1    2  503  501  0.10421368684E+02  0.21251186122E+02  0.10558522077E+03  0.10820562222E+03  0.00000000000E+00 0. -1.
         21    1    1    2  504  502 -0.10421368684E+02 -0.21251186122E+02  0.32680635941E+03  0.32766234814E+03  0.00000000000E+00 0. -1.
<mgrwt>
<rscale>  2 0.23668921E+02</rscale>
<asrwt>0</asrwt>
<pdfrwt beam="1">  1       21 0.66789110E-01 0.23668921E+02</pdfrwt>
<pdfrwt beam="2">  1       21 0.26741498E-03 0.23668921E+02</pdfrwt>
<totfact> 0.45515522E+07</totfact>
</mgrwt>
</event>
<event>
 4    1  0.4619222E+006  0.2269823E+02  0.7546771E-02  0.1696449E+00
         21   -1    0    0  504  501  0.00000000000E+00  0.00000000000E+00  0.31913922650E+01  0.31913922650E+01  0.00000000000E+00 0.  1.
         21   -1    0    0  501  502 -0.00000000000E+00 -0.00000000000E+00 -0.53033020564E+03  0.53033020564E+03  0.00000000000E+00 0. -1.
         21    1    1    2  503  502  0.17797523205E+01  0.22628345892E+02 -0.48605352505E+03  0.48658322903E+03  0.00000000000E+00 0. -1.
         21    1    1    2  504  503 -0.17797523205E+01 -0.22628345892E+02 -0.41085288316E+02  0.46938368869E+02  0.00000000000E+00 0.  1.
<mgrwt>
<rscale>  2 0.22698228E+02</rscale>
<asrwt>0</asrwt>
<pdfrwt beam="1">  1       21 0.49098324E-03 0.22698228E+02</pdfrwt>
<pdfrwt beam="2">  1       21 0.81589294E-01 0.22698228E+02</pdfrwt>
<totfact> 0.12253772E+07</totfact>
</mgrwt>
</event>
<event>
 4    1  0.4619222E+006  0.4240572E+02  0.7546771E-02  0.1491219E+00
         21   -1    0    0  503  501  0.00000000000E+00  0.00000000000E+00  0.67209880402E+02  0.67209880402E+02  0.00000000000E+00 0. -1.
         21   -1    0    0  501  502 -0.00000000000E+00 -0.00000000000E+00 -0.86436430870E+02  0.86436430870E+02  0.00000000000E+00 0. -1.
         21    1    1    2  503  504 -0.13587833329E+00 -0.42405501815E+02  0.54222027659E+02  0.68835116987E+02  0.00000000000E+00 0. -1.
         21    1    1    2  504  502  0.13587833329E+00  0.42405501815E+02 -0.73448578128E+02  0.84811194285E+02  0.00000000000E+00 0. -1.
<mgrwt>
<rscale>  2 0.42405720E+02</rscale>
<asrwt>0</asrwt>
<pdfrwt beam="1">  1       21 0.10339982E-01 0.42405720E+02</pdfrwt>
<pdfrwt beam="2">  1       21 0.13297912E-01 0.42405720E+02</pdfrwt>
<totfact> 0.34259752E+06</totfact>
</mgrwt>
</event>
<event>
 4    1  0.4619222E+006  0.2300753E+02  0.7546771E-02  0.1691388E+00
         21   -1    0    0  503  501  0.00000000000E+00  0.00000000000E+00  0.18414490222E+03  0.18414490222E+03  0.00000000000E+00 0. -1.
         21   -1    0    0  501  502 -0.00000000000E+00 -0.00000000000E+00 -0.16558373611E+02  0.16558373611E+02  0.00000000000E+00 0.  1.
         21    1    1    2  503  504 -0.15480715834E+02  0.17020391178E+02  0.17501918996E+03  0.17652496461E+03  0.00000000000E+00 0. -1.
         21    1    1    2  504  502  0.15480715834E+02 -0.17020391178E+02 -0.74326613493E+01  0.24178311217E+02  0.00000000000E+00 0.  1.
<mgrwt>
<rscale>  2 0.23007527E+02</rscale>
<asrwt>0</asrwt>
<pdfrwt beam="1">  1       21 0.28329984E-01 0.23007527E+02</pdfrwt>
<pdfrwt beam="2">  1       21 0.25474422E-02 0.23007527E+02</pdfrwt>
<totfact> 0.79885028E+06</totfact>
</mgrwt>
</event>
<event>
 4    1  0.4619222E+006  0.2473959E+02  0.7546771E-02  0.1664771E+00
         21   -1    0    0  504  501  0.00000000000E+00  0.00000000000E+00  0.36143679918E+03  0.36143679918E+03  0.00000000000E+00 0. -1.
         21   -1    0    0  503  502 -0.00000000000E+00 -0.00000000000E+00 -0.50345090571E+02  0.50345090571E+02  0.00000000000E+00 0.  1.
         21    1    1    2  503  501  0.14067763438E+02 -0.20350555777E+02 -0.46852871799E+02  0.52983381210E+02  0.00000000000E+00 0.  1.
         21    1    1    2  504  502 -0.14067763438E+02  0.20350555777E+02  0.35794458041E+03  0.35879850854E+03  0.00000000000E+00 0. -1.
<mgrwt>
<rscale>  2 0.24739585E+02</rscale>
<asrwt>0</asrwt>
<pdfrwt beam="1">  1       21 0.55605660E-01 0.24739585E+02</pdfrwt>
<pdfrwt beam="2">  1       21 0.77453988E-02 0.24739585E+02</pdfrwt>
<totfact> 0.38600155E+05</totfact>
</mgrwt>
</event>
<event>
 4    1  0.4619222E+006  0.2126531E+02  0.7546771E-02  0.1721277E+00
         21   -1    0    0  502  501  0.00000000000E+00  0.00000000000E+00  0.10233911976E+03  0.10233911976E+03  0.00000000000E+00 0. -1.
         21   -1    0    0  504  502 -0.00000000000E+00 -0.00000000000E+00 -0.64287007270E+02  0.64287007270E+02  0.00000000000E+00 0. -1.
         21    1    1    2  503  501 -0.65858580550E+01  0.20219784734E+02  0.99424886258E+02  0.10167360143E+03  0.00000000000E+00 0. -1.
         21    1    1    2  504  503  0.65858580550E+01 -0.20219784734E+02 -0.61372773770E+02  0.64952525595E+02  0.00000000000E+00 0. -1.
<mgrwt>
<rscale>  2 0.21265306E+02</rscale>
<asrwt>0</asrwt>
<pdfrwt beam="1">  1       21 0.15744480E-01 0.21265306E+02</pdfrwt>
<pdfrwt beam="2">  1       21 0.98903088E-02 0.21265306E+02</pdfrwt>
<totfact> 0.25462382E+06</totfact>
</mgrwt>
</event>
<event>
 4    1  0.4619222E+006  0.2393542E+02  0.7546771E-02  0.1676781E+00
         21   -1    0    0  504  501  0.00000000000E+00  0.00000000000E+00  0.44082512609E+02  0.44082512609E+02  0.00000000000E+00 0.  1.
         21   -1    0    0  503  502 -0.00000000000E+00 -0.00000000000E+00 -0.13417012726E+02  0.13417012726E+02  0.00000000000E+00 0. -1.
         21    1    1    2  503  501 -0.23852240452E+02 -0.19937690108E+01  0.10241100242E+02  0.26034297064E+02  0.00000000000E+00 0.  1.
         21    1    1    2  504  502  0.23852240452E+02  0.19937690108E+01  0.20424399641E+02  0.31465228271E+02  0.00000000000E+00 0. -1.
<mgrwt>
<rscale>  2 0.23935423E+02</rscale>
<asrwt>0</asrwt>
<pdfrwt beam="1">  1       21 0.67819250E-02 0.23935423E+02</pdfrwt>
<pdfrwt beam="2">  1       21 0.20641558E-02 0.23935423E+02</pdfrwt>
<totfact> 0.12680069E+08</totfact>
</mgrwt>
</event>
<event>
 4    1  0.4619222E+006  0.2747224E+02  0.7546771E-02  0.1627837E+00
         21   -1    0    0  502  501  0.00000000000E+00  0.00000000000E+00  0.27691737054E+01  0.27691737054E+01  0.00000000000E+00 0.  1.
         21   -1    0    0  503  502 -0.00000000000E+00 -0.00000000000E+00 -0.13777218387E+04  0.13777218387E+04  0.00000000000E+00 0. -1.
         21    1    1    2  503  504 -0.32804904598E+01  0.27275671794E+02 -0.13056902011E+04  0.13059791825E+04  0.00000000000E+00 0. -1.
         21    1    1    2  504  501  0.32804904598E+01 -0.27275671794E+02 -0.69262463819E+02  0.74511829824E+02  0.00000000000E+00 0.  1.
<mgrwt>
<rscale>  2 0.27472239E+02</rscale>
<asrwt>0</asrwt>
<pdfrwt beam="1">  1       21 0.42602772E-03 0.27472239E+02</pdfrwt>
<pdfrwt beam="2">  1       21 0.21195671E+00 0.27472239E+02</pdfrwt>
<totfact> 0.16575279E+06</totfact>
</mgrwt>
</event>
<event>
 4    1  0.4619222E+006  0.2166844E+02  0.7546771E-02  0.1714050E+00
         21   -1    0    0  503  501  0.00000000000E+00  0.00000000000E+00  0.84148720556E+02  0.84148720556E+02  0.00000000000E+00 0.  1.
         21   -1    0    0  504  502 -0.00000000000E+00 -0.00000000000E+00 -0.15623283444E+02  0.15623283444E+02  0.00000000000E+00 0. -1.
         21    1    1    2  503  502  0.95742279192E+01 -0.19438506700E+02  0.74260667394E+02  0.77357404977E+02  0.00000000000E+00 0.  1.
         21    1    1    2  504  501 -0.95742279192E+01  0.19438506700E+02 -0.57352302826E+01  0.22414599023E+02  0.00000000000E+00 0. -1.
<mgrwt>
<rscale>  2 0.21668442E+02</rscale>
<asrwt>0</asrwt>
<pdfrwt beam="1">  1       21 0.12945957E-01 0.21668442E+02</pdfrwt>
<pdfrwt beam="2">  1       21 0.24035821E-02 0.21668442E+02</pdfrwt>
<totfact> 0.33656580E+07</totfact>
</mgrwt>
</event>
<event>
 4    1  0.4619222E+006  0.3362022E+02  0.7546771E-02  0.1561206E+00
         21   -1    0    0  504  501  0.00000000000E+00  0.00000000000E+00  0.22929614003E+03  0.22929614003E+03  0.00000000000E+00 0. -1.
         21   -1    0    0  503  502 -0.00000000000E+00 -0.00000000000E+00 -0.16800671576E+02  0.16800671576E+02  0.00000000000E+00 0.  1.
         21    1    1    2  503  501  0.15905712977E+02 -0.29619719879E+02  0.20968073563E+03  0.21235896591E+03  0.00000000000E+00 0. -1.
         21    1    1    2  504  502 -0.15905712977E+02  0.29619719879E+02  0.28147328267E+01  0.33737845691E+02  0.00000000000E+00 0.  1.
<mgrwt>
<rscale>  2 0.33620225E+02</rscale>
<asrwt>0</asrwt>
<pdfrwt beam="1">  1       21 0.35276327E-01 0.33620225E+02</pdfrwt>
<pdfrwt beam="2">  1       21 0.25847189E-02 0.33620225E+02</pdfrwt>
<totfact> 0.55166228E+06</totfact>
</mgrwt>
</event>
<event>
 4    1  0.4619222E+006  0.2108907E+02  0.7546771E-02  0.1724500E+00
         21   -1    0    0  503  501  0.00000000000E+00  0.00000000000E+00  0.39192784494E+03  0.39192784494E+03  0.00000000000E+00 0. -1.
         21   -1    0    0  501  502 -0.00000000000E+00 -0.00000000000E+00 -0.15330168400E+02  0.15330168400E+02  0.00000000000E+00 0.  1.
         21    1    1    2  503  504  0.19241231537E+02 -0.86327100449E+01  0.38424643666E+03  0.38482472992E+03  0.00000000000E+00 0. -1.
         21    1    1    2  504  502 -0.19241231537E+02  0.86327100449E+01 -0.76487601167E+01  0.22433283422E+02  0.00000000000E+00 0.  1.
<mgrwt>
<rscale>  2 0.21089065E+02</rscale>
<asrwt>0</asrwt>
<pdfrwt beam="1">  1       21 0.60296584E-01 0.21089065E+02</pdfrwt>
<pdfrwt beam="2">  1       21 0.23584877E-02 0.21089065E+02</pdfrwt>
<totfact> 0.21255763E+06</totfact>
</mgrwt>
</event>
<event>
 4    1  0.4619222E+006  0.2064194E+02  0.7546771E-02  0.1732856E+00
         21   -1    0    0  502  501  0.00000000000E+00  0.00000000000E+00  0.25747350569E+03  0.25747350569E+03  0.00000000000E+00 0. -1.
         21   -1    0    0  503  502 -0.00000000000E+00 -0.00000000000E+00 -0.26724461920E+02  0.26724461920E+02  0.00000000000E+00 0. -1.
         21    1    1    2  503  504 -0.20419361979E+02 -0.30231326946E+01 -0.22254482571E+02  0.30353775209E+02  0.00000000000E+00 0. -1.
         21    1    1    2  504  501  0.20419361979E+02  0.30231326946E+01  0.25300352634E+03  0.25384419240E+03  0.00000000000E+00 0. -1.
<mgrwt>
<rscale>  2 0.20641940E+02</rscale>
<asrwt>0</asrwt>
<pdfrwt beam="1">  1       21 0.39611307E-01 0.20641940E+02</pdfrwt>
<pdfrwt beam="2">  1       21 0.41114559E-02 0.20641940E+02</pdfrwt>
<totfact> 0.20113361E+06</totfact>
</mgrwt>
</event>
<event>
 4    1  0.4619222E+006  0.2407523E+02  0.7546771E-02  0.1674651E+00
         21   -1    0    0  502  501  0.00000000000E+00  0.00000000000E+00  0.57372811698E+01  0.57372811698E+01  0.00000000000E+00 0. -1.
         21   -1    0    0  503  502 -0.00000000000E+00 -0.00000000000E+00 -0.12696585120E+04  0.12696585120E+04  0.00000000000E+00 0.  1.
         21    1    1    2  503  504 -0.18180033693E+02  0.15783001745E+02 -0.12437619656E+04  0.12439949533E+04  0.00000000000E+00 0.  1.
         21    1    1    2  504  501  0.18180033693E+02 -0.15783001745E+02 -0.20159265204E+02  0.31400839841E+02  0.00000000000E+00 0. -1.
<mgrwt>
<rscale>  2 0.24075231E+02</rscale>
<asrwt>0</asrwt>
<pdfrwt beam="1">  1       21 0.88265700E-03 0.24075231E+02</pdfrwt>
<pdfrwt beam="2">  1       21 0.19533244E+00 0.24075231E+02</pdfrwt>
<totfact> 0.69130796E+05</totfact>
</mgrwt>
</event>
<event>
 4    1  0.4619222E+006  0.2793679E+02  0.7546771E-02  0.1622082E+00
         21   -1    0    0  503  501  0.00000000000E+00  0.00000000000E+00  0.37491617681E+02  0.37491617681E+02  0.00000000000E+00 0.  1.
         21   -1    0    0  504  502 -0.00000000000E+00 -0.00000000000E+00 -0.20962293991E+02  0.20962293991E+02  0.00000000000E+00 0. -1.
         21    1    1    2  503  502  0.19769761050E+02  0.19738816264E+02  0.10697625446E+02  0.29914937902E+02  0.00000000000E+00 0. -1.
         21    1    1    2  504  501 -0.19769761050E+02 -0.19738816264E+02  0.58316982441E+01  0.28538973771E+02  0.00000000000E+00 0.  1.
<mgrwt>
<rscale>  2 0.27936792E+02</rscale>
<asrwt>0</asrwt>
<pdfrwt beam="1">  1       21 0.57679412E-02 0.27936792E+02</pdfrwt>
<pdfrwt beam="2">  1       21 0.32249683E-02 0.27936792E+02</pdfrwt>
<totfact> 0.85795786E+07</totfact>
</mgrwt>
</event>
<event>
 4    1  0.4619222E+006  0.2283805E+02  0.7546771E-02  0.1694149E+00
         21   -1    0    0  503  501  0.00000000000E+00  0.00000000000E+00  0.23123055663E+02  0.23123055663E+02  0.00000000000E+00 0.  1.
         21   -1    0    0  504  502 -0.00000000000E+00 -0.00000000000E+00 -0.39742607291E+02  0.39742607291E+02  0.00000000000E+00 0. -1.
         21    1    1    2  503  502  0.22810446957E+02  0.11224848549E+01  0.12360363258E+02  0.25968346934E+02  0.00000000000E+00 0.  1.
         21    1    1    2  504  501 -0.22810446957E+02 -0.11224848549E+01 -0.28979914886E+02  0.36897316019E+02  0.00000000000E+00 0. -1.
<mgrwt>
<rscale>  2 0.22838049E+02</rscale>
<asrwt>0</asrwt>
<pdfrwt beam="1">  1       21 0.35573932E-02 0.22838049E+02</pdfrwt>
<pdfrwt beam="2">  1       21 0.61142472E-02 0.22838049E+02</pdfrwt>
<totfact> 0.63533704E+07</totfact>
</mgrwt>
</event>
<event>
 4    1  0.4619222E+006  0.3688029E+02  0.7546771E-02  0.1532510E+00
         21   -1    0    0  502  501  0.00000000000E+00  0.00000000000E+00  0.46243502471E+02  0.46243502471E+02  0.00000000000E+00 0.  1.
         21   -1    0    0  504  502 -0.00000000000E+00 -0.00000000000E+00 -0.49627993966E+02  0.49627993966E+02  0.00000000000E+00 0.  1.
         21    1    1    2  503  501 -0.25469676128E+02 -0.26673049576E+02  0.28901589605E+02  0.46855713178E+02  0.00000000000E+00 0.  1.
         21    1    1    2  504  503  0.25469676128E+02  0.26673049576E+02 -0.32286081099E+02  0.49015783259E+02  0.00000000000E+00 0.  1.
<mgrwt>
<rscale>  2 0.36880293E+02</rscale>
<asrwt>0</asrwt>
<pdfrwt beam="1">  1       21 0.71143850E-02 0.36880293E+02</pdfrwt>
<pdfrwt beam="2">  1       21 0.76350760E-02 0.36880293E+02</pdfrwt>
<totfact> 0.16065857E+07</totfact>
</mgrwt>
</event>
<event>
 4    1  0.4619222E+006  0.3948613E+02  0.7546771E-02  0.1512027E+00
         21   -1    0    0  502  501  0.00000000000E+00  0.00000000000E+00  0.30476619186E+02  0.30476619186E+02  0.00000000000E+00 0.  1.
         21   -1    0    0  504  502 -0.00000000000E+00 -0.00000000000E+00 -0.12776452061E+03  0.12776452061E+03  0.00000000000E+00 0.  1.
         21    1    1    2  503  501 -0.25841017660E+02 -0.29856256773E+02  0.12621301013E+02  0.41454209695E+02  0.00000000000E+00 0.  1.
         21    1    1    2  504  503  0.25841017660E+02  0.29856256773E+02 -0.10990920243E+03  0.11678693010E+03  0.00000000000E+00 0.  1.
<mgrwt>
<rscale>  2 0.39486127E+02</rscale>
<asrwt>0</asrwt>
<pdfrwt beam="1">  1       21 0.46887107E-02 0.39486127E+02</pdfrwt>
<pdfrwt beam="2">  1       21 0.19656080E-01 0.39486127E+02</pdfrwt>
<totfact> 0.63455762E+06</totfact>
</mgrwt>
</event>
<event>
 4    1  0.4619222E+006  0.2367962E+02  0.7546771E-02  0.1680725E+00
         21   -1    0    0  502  501  0.00000000000E+00  0.00000000000E+00  0.53760391403E+03  0.53760391403E+03  0.00000000000E+00 0. -1.
         21   -1    0    0  503  502 -0.00000000000E+00 -0.00000000000E+00 -0.26687201718E+01  0.26687201718E+01  0.00000000000E+00 0.  1.
         21    1    1    2  503  504 -0.19544670669E+01  0.23598823063E+02  0.56627367158E+02  0.61379011908E+02  0.00000000000E+00 0.  1.
         21    1    1    2  504  501  0.19544670669E+01 -0.23598823063E+02  0.47830782670E+03  0.47889362229E+03  0.00000000000E+00 0. -1.
<mgrwt>
<rscale>  2 0.23679620E+02</rscale>
<asrwt>0</asrwt>
<pdfrwt beam="1">  1       21 0.82708209E-01 0.23679620E+02</pdfrwt>
<pdfrwt beam="2">  1       21 0.41057276E-03 0.23679620E+02</pdfrwt>
<totfact> 0.15610650E+07</totfact>
</mgrwt>
</event>
<event>
 4    1  0.4619222E+006  0.2527988E+02  0.7546771E-02  0.1657014E+00
         21   -1    0    0  503  501  0.00000000000E+00  0.00000000000E+00  0.26042757042E+02  0.26042757042E+02  0.00000000000E+00 0.  1.
         21   -1    0    0  504  502 -0.00000000000E+00 -0.00000000000E+00 -0.24989126274E+02  0.24989126274E+02  0.00000000000E+00 0.  1.
         21    1    1    2  503  502  0.24468478740E+02 -0.63534297048E+01 -0.28963729892E+01  0.25445264733E+02  0.00000000000E+00 0.  1.
         21    1    1    2  504  501 -0.24468478740E+02  0.63534297048E+01  0.39500037569E+01  0.25586618583E+02  0.00000000000E+00 0.  1.
<mgrwt>
<rscale>  2 0.25279884E+02</rscale>
<asrwt>0</asrwt>
<pdfrwt beam="1">  1       21 0.40065780E-02 0.25279884E+02</pdfrwt>
<pdfrwt beam="2">  1       21 0.38444810E-02 0.25279884E+02</pdfrwt>
<totfact> 0.11342015E+08</totfact>
</mgrwt>
</event>
<event>
 4    1  0.4619222E+006  0.2967910E+02  0.7546771E-02  0.1601663E+00
         21   -1    0    0  503  501  0.00000000000E+00  0.00000000000E+00  0.79552423435E+01  0.79552423435E+01  0.00000000000E+00 0. -1.
         21   -1    0    0  501  502 -0.00000000000E+00 -0.00000000000E+00 -0.11109544517E+03  0.11109544517E+03  0.00000000000E+00 0. -1.
         21    1    1    2  503  504 -0.27640016506E+02  0.10811037670E+02 -0.55004564635E+02  0.62500809423E+02  0.00000000000E+00 0. -1.
         21    1    1    2  504  502  0.27640016506E+02 -0.10811037670E+02 -0.48135638195E+02  0.56549878093E+02  0.00000000000E+00 0. -1.
<mgrwt>
<rscale>  2 0.29679101E+02</rscale>
<asrwt>0</asrwt>
<pdfrwt beam="1">  1       21 0.12238835E-02 0.29679101E+02</pdfrwt>
<pdfrwt beam="2">  1       21 0.17091606E-01 0.29679101E+02</pdfrwt>
<totfact> 0.63455593E+07</totfact>
</mgrwt>
</event>
<event>
 4    1  0.4619222E+006  0.2009690E+02  0.7546771E-02  0.1743408E+00
         21   -1    0    0  504  501  0.00000000000E+00  0.00000000000E+00  0.36611835504E+01  0.36611835504E+01  0.00000000000E+00 0. -1.
         21   -1    0    0  501  502 -0.00000000000E+00 -0.00000000000E+00 -0.29271922084E+03  0.29271922084E+03  0.00000000000E+00 0.  1.
         21    1    1    2  503  502 -0.20090447415E+02  0.50924908471E+00 -0.26150876587E+03  0.26227985062E+03  0.00000000000E+00 0.  1.
         21    1    1    2  504  503  0.20090447415E+02 -0.50924908471E+00 -0.27549271414E+02  0.34100553770E+02  0.00000000000E+00 0. -1.
<mgrwt>
<rscale>  2 0.20096901E+02</rscale>
<asrwt>0</asrwt>
<pdfrwt beam="1">  1       21 0.56325893E-03 0.20096901E+02</pdfrwt>
<pdfrwt beam="2">  1       21 0.45033733E-01 0.20096901E+02</pdfrwt>
<totfact> 0.32003554E+07</totfact>
</mgrwt>
</event>
<event>
 4    1  0.4619222E+006  0.3716556E+02  0.7546771E-02  0.1530170E+00
         21   -1    0    0  502  501  0.00000000000E+00  0.00000000000E+00  0.12312672092E+03  0.12312672092E+03  0.00000000000E+00 0.  1.
         21   -1    0    0  503  502 -0.00000000000E+00 -0.00000000000E+00 -0.51906856210E+02  0.51906856210E+02  0.00000000000E+00 0.  1.
         21    1    1    2  503  504 -0.24403654828E+02  0.28031061366E+02 -0.41874575236E+02  0.55988916952E+02  0.00000000000E+00 0.  1.
         21    1    1    2  504  501  0.24403654828E+02 -0.28031061366E+02  0.11309443995E+03  0.11904466018E+03  0.00000000000E+00 0.  1.
<mgrwt>
<rscale>  2 0.37165559E+02</rscale>
<asrwt>0</asrwt>
<pdfrwt beam="1">  1       21 0.18942572E-01 0.37165559E+02</pdfrwt>
<pdfrwt beam="2">  1       21 0.79856702E-02 0.37165559E+02</pdfrwt>
<totfact> 0.28122973E+06</totfact>
</mgrwt>
</event>
<event>
 4    1  0.4619222E+006  0.2264051E+02  0.7546771E-02  0.1697405E+00
         21   -1    0    0  504  501  0.00000000000E+00  0.00000000000E+00  0.19277453553E+03  0.19277453553E+03  0.00000000000E+00 0.  1.
         21   -1    0    0  501  502 -0.00000000000E+00 -0.00000000000E+00 -0.10999238165E+02  0.10999238165E+02  0.00000000000E+00 0. -1.
         21    1    1    2  503  502 -0.20787244434E+02 -0.89712311168E+01  0.21668308045E+01  0.22743959081E+02  0.00000000000E+00 0. -1.
         21    1    1    2  504  503  0.20787244434E+02  0.89712311168E+01  0.17960846656E+03  0.18102981461E+03  0.00000000000E+00 0.  1.
<mgrwt>
<rscale>  2 0.22640506E+02</rscale>
<asrwt>0</asrwt>
<pdfrwt beam="1">  1       21 0.29657619E-01 0.22640506E+02</pdfrwt>
<pdfrwt beam="2">  1       21 0.16921906E-02 0.22640506E+02</pdfrwt>
<totfact> 0.13740022E+07</totfact>
</mgrwt>
</event>
<event>
 4    1  0.4619222E+006  0.2184069E+02  0.7546771E-02  0.1711022E+00
         21   -1    0    0  503  501  0.00000000000E+00  0.00000000000E+00  0.56409188038E+03  0.56409188038E+03  0.00000000000E+00 0. -1.
         21   -1    0    0  504  502 -0.00000000000E+00 -0.00000000000E+00 -0.25361686277E+01  0.25361686277E+01  0.00000000000E+00 0. -1.
         21    1    1    2  503  502 -0.18595321303E+02  0.11455548352E+02  0.51208602974E+03  0.51255157537E+03  0.00000000000E+00 0. -1.
         21    1    1    2  504  501  0.18595321303E+02 -0.11455548352E+02  0.49469682019E+02  0.54076473641E+02  0.00000000000E+00 0. -1.
<mgrwt>
<rscale>  2 0.21840686E+02</rscale>
<asrwt>0</asrwt>
<pdfrwt beam="1">  1       21 0.86783266E-01 0.21840686E+02</pdfrwt>
<pdfrwt beam="2">  1       21 0.39018024E-03 0.21840686E+02</pdfrwt>
<totfact> 0.14966994E+07</totfact>
</mgrwt>
</event>
<event>
 4    1  0.4619222E+006  0.2982102E+02  0.7546771E-02  0.1600075E+00
         21   -1    0    0  502  501  0.00000000000E+00  0.00000000000E+00  0.19099092757E+03  0.19099092757E+03  0.00000000000E+00 0.  1.
         21   -1    0    0  504  502 -0.00000000000E+00 -0.00000000000E+00 -0.69117698977E+01  0.69117698977E+01  0.00000000000E+00 0.  1.
         21    1    1    2  503  501 -0.29647646210E+02 -0.32109780655E+01  0.14856639794E+03  0.15152975913E+03  0.00000000000E+00 0.  1.
         21    1    1    2  504  503  0.29647646210E+02  0.32109780655E+01  0.35512759727E+02  0.46372938330E+02  0.00000000000E+00 0.  1.
<mgrwt>
<rscale>  2 0.29821021E+02</rscale>
<asrwt>0</asrwt>
<pdfrwt beam="1">  1       21 0.29383216E-01 0.29821021E+02</pdfrwt>
<pdfrwt beam="2">  1       21 0.10633494E-02 0.29821021E+02</pdfrwt>
<totfact> 0.29922100E+07</totfact>
</mgrwt>
</event>
<event>
 4    1  0.4619222E+006  0.2145105E+02  0.7546771E-02  0.1717922E+00
         21   -1    0    0  503  501  0.00000000000E+00  0.00000000000E+00  0.13762963249E+02  0.13762963249E+02  0.00000000000E+00 0.  1.
         21   -1    0    0  501  502 -0.00000000000E+00 -0.00000000000E+00 -0.72608390028E+02  0.72608390028E+02  0.00000000000E+00 0. -1.
         21    1    1    2  503  504  0.20901952407E+02  0.48224560984E+01  0.22984233281E+01  0.21573837096E+02  0.00000000000E+00 0.  1.
         21    1    1    2  504  502 -0.20901952407E+02 -0.48224560984E+01 -0.61143850107E+02  0.64797516181E+02  0.00000000000E+00 0. -1.
<mgrwt>
<rscale>  2 0.21451054E+02</rscale>
<asrwt>0</asrwt>
<pdfrwt beam="1">  1       21 0.21173790E-02 0.21451054E+02</pdfrwt>
<pdfrwt beam="2">  1       21 0.11170521E-01 0.21451054E+02</pdfrwt>
<totfact> 0.52188434E+07</totfact>
</mgrwt>
</event>
<event>
 4    1  0.4619222E+006  0.2038727E+02  0.7546771E-02  0.1737735E+00
         21   -1    0    0  503  501  0.00000000000E+00  0.00000000000E+00  0.49714567203E+03  0.49714567203E+03  0.00000000000E+00 0.  1.
         21   -1    0    0  501  502 -0.00000000000E+00 -0.00000000000E+00 -0.11213455633E+01  0.11213455633E+01  0.00000000000E+00 0. -1.
         21    1    1    2  503  504 -0.18964383297E+02  0.74828323261E+01  0.37367501067E+03  0.37423074995E+03  0.00000000000E+00 0.  1.
         21    1    1    2  504  502  0.18964383297E+02 -0.74828323261E+01  0.12234931580E+03  0.12403626764E+03  0.00000000000E+00 0. -1.
<mgrwt>
<rscale>  2 0.20387266E+02</rscale>
<asrwt>0</asrwt>
<pdfrwt beam="1">  1       21 0.76483774E-01 0.20387266E+02</pdfrwt>
<pdfrwt beam="2">  1       21 0.17251510E-03 0.20387266E+02</pdfrwt>
<totfact> 0.62650088E+07</totfact>
</mgrwt>
</event>
<event>
 4    1  0.4619222E+006  0.2688308E+02  0.7546771E-02  0.1635340E+00
         21   -1    0    0  503  501  0.00000000000E+00  0.00000000000E+00  0.23410603309E+02  0.23410603309E+02  0.00000000000E+00 0. -1.
         21   -1    0    0  504  502 -0.00000000000E+00 -0.00000000000E+00 -0.32185853140E+02  0.32185853140E+02  0.00000000000E+00 0. -1.
         21    1    1    2  503  502 -0.22497275918E+02  0.14716405750E+02 -0.10006956806E+02  0.28685173983E+02  0.00000000000E+00 0. -1.
         21    1    1    2  504  501  0.22497275918E+02 -0.14716405750E+02  0.12317069754E+01  0.26911282467E+02  0.00000000000E+00 0. -1.
<mgrwt>
<rscale>  2 0.26883081E+02</rscale>
<asrwt>0</asrwt>
<pdfrwt beam="1">  1       21 0.36016313E-02 0.26883081E+02</pdfrwt>
<pdfrwt beam="2">  1       21 0.49516697E-02 0.26883081E+02</pdfrwt>
<totfact> 0.91230230E+07</totfact>
</mgrwt>
</event>
<event>
 4    1  0.4619222E+006  0.2476465E+02  0.7546771E-02  0.1664406E+00
         21   -1    0    0  504  501  0.00000000000E+00  0.00000000000E+00  0.48509599531E+02  0.48509599531E+02  0.00000000000E+00 0.  1.
         21   -1    0    0  503  502 -0.00000000000E+00 -0.00000000000E+00 -0.12645184216E+02  0.12645184216E+02  0.00000000000E+00 0.  1.
         21    1    1    2  503  501 -0.20157925730E+02  0.14385607957E+02  0.17495475039E+02  0.30321268655E+02  0.00000000000E+00 0.  1.
         21    1    1    2  504  502  0.20157925730E+02 -0.14385607957E+02  0.18368940276E+02  0.30833515091E+02  0.00000000000E+00 0.  1.
<mgrwt>
<rscale>  2 0.24764646E+02</rscale>
<asrwt>0</asrwt>
<pdfrwt beam="1">  1       21 0.74630152E-02 0.24764646E+02</pdfrwt>
<pdfrwt beam="2">  1       21 0.19454130E-02 0.24764646E+02</pdfrwt>
<totfact> 0.12005248E+08</totfact>
</mgrwt>
</event>
<event>
 4    1  0.4619222E+006  0.2203029E+02  0.7546771E-02  0.1707729E+00
         21   -1    0    0  504  501  0.00000000000E+00  0.00000000000E+00  0.20351787582E+02  0.20351787582E+02  0.00000000000E+00 0.  1.
         21   -1    0    0  503  502 -0.00000000000E+00 -0.00000000000E+00 -0.73490605095E+02  0.73490605095E+02  0.00000000000E+00 0. -1.
         21    1    1    2  503  501 -0.97963907815E+01  0.19732319577E+02  0.11994746811E+02  0.25084012025E+02  0.00000000000E+00 0.  1.
         21    1    1    2  504  502  0.97963907815E+01 -0.19732319577E+02 -0.65133564325E+02  0.68758380652E+02  0.00000000000E+00 0. -1.
<mgrwt>
<rscale>  2 0.22030291E+02</rscale>
<asrwt>0</asrwt>
<pdfrwt beam="1">  1       21 0.31310442E-02 0.22030291E+02</pdfrwt>
<pdfrwt beam="2">  1       21 0.11306247E-01 0.22030291E+02</pdfrwt>
<totfact> 0.28136827E+07</totfact>
</mgrwt>
</event>
<event>
 4    1  0.4619222E+006  0.2122572E+02  0.7546771E-02  0.1721997E+00
         21   -1    0    0  503  501  0.00000000000E+00  0.00000000000E+00  0.23577172895E+01  0.23577172895E+01  0.00000000000E+00 0. -1.
         21   -1    0    0  504  502 -0.00000000000E+00 -0.00000000000E+00 -0.11591194700E+04  0.11591194700E+04  0.00000000000E+00 0. -1.
         21    1    1    2  503  502 -0.18295469603E+02 -0.10761363542E+02 -0.47665882711E+02  0.52178228486E+02  0.00000000000E+00 0. -1.
         21    1    1    2  504  501  0.18295469603E+02  0.10761363542E+02 -0.11090958700E+04  0.11092989588E+04  0.00000000000E+00 0. -1.
<mgrwt>
<rscale>  2 0.21225719E+02</rscale>
<asrwt>0</asrwt>
<pdfrwt beam="1">  1       21 0.36272580E-03 0.21225719E+02</pdfrwt>
<pdfrwt beam="2">  1       21 0.17832604E+00 0.21225719E+02</pdfrwt>
<totfact> 0.32120046E+06</totfact>
</mgrwt>
</event>
<event>
 4    1  0.4619222E+006  0.2573361E+02  0.7546771E-02  0.1650683E+00
         21   -1    0    0  503  501  0.00000000000E+00  0.00000000000E+00  0.31407214684E+03  0.31407214684E+03  0.00000000000E+00 0. -1.
         21   -1    0    0  504  502 -0.00000000000E+00 -0.00000000000E+00 -0.31634848325E+02  0.31634848325E+02  0.00000000000E+00 0.  1.
         21    1    1    2  503  502 -0.48979870978E+00  0.25728952242E+02 -0.25775099910E+02  0.36422172665E+02  0.00000000000E+00 0.  1.
         21    1    1    2  504  501  0.48979870978E+00 -0.25728952242E+02  0.30821239843E+03  0.30928482250E+03  0.00000000000E+00 0. -1.
<mgrwt>
<rscale>  2 0.25733614E+02</rscale>
<asrwt>0</asrwt>
<pdfrwt beam="1">  1       21 0.48318790E-01 0.25733614E+02</pdfrwt>
<pdfrwt beam="2">  1       21 0.48669000E-02 0.25733614E+02</pdfrwt>
<totfact> 0.10793123E+06</totfact>
</mgrwt>
</event>
<event>
 4    1  0.4619222E+006  0.2291563E+02  0.7546771E-02  0.1692881E+00
         21   -1    0    0  504  501  0.00000000000E+00  0.00000000000E+00  0.27376593763E+03  0.27376593763E+03  0.00000000000E+00 0.  1.
         21   -1    0    0  503  502 -0.00000000000E+00 -0.00000000000E+00 -0.19254751942E+01  0.19254751942E+01  0.00000000000E+00 0.  1.
         21    1    1    2  503  501  0.20573475281E+02  0.10092494099E+02  0.12742262322E+03  0.12946679586E+03  0.00000000000E+00 0.  1.
         21    1    1    2  504  502 -0.20573475281E+02 -0.10092494099E+02  0.14441783922E+03  0.14622461697E+03  0.00000000000E+00 0.  1.
<mgrwt>
<rscale>  2 0.22915635E+02</rscale>
<asrwt>0</asrwt>
<pdfrwt beam="1">  1       21 0.42117806E-01 0.22915635E+02</pdfrwt>
<pdfrwt beam="2">  1       21 0.29622717E-03 0.22915635E+02</pdfrwt>
<totfact> 0.96220398E+07</totfact>
</mgrwt>
</event>
<event>
 4    1  0.4619222E+006  0.2018465E+02  0.7546771E-02  0.1741681E+00
         21   -1    0    0  503  501  0.00000000000E+00  0.00000000000E+00  0.70746369955E+01  0.70746369955E+01  0.00000000000E+00 0.  1.
         21   -1    0    0  504  502 -0.00000000000E+00 -0.00000000000E+00 -0.15262913739E+03  0.15262913739E+03  0.00000000000E+00 0.  1.
         21    1    1    2  503  502 -0.10020496791E+02 -0.17521688069E+02 -0.97656618624E+01  0.22422936033E+02  0.00000000000E+00 0.  1.
         21    1    1    2  504  501  0.10020496791E+02  0.17521688069E+02 -0.13578883853E+03  0.13728083835E+03  0.00000000000E+00 0.  1.
<mgrwt>
<rscale>  2 0.20184645E+02</rscale>
<asrwt>0</asrwt>
<pdfrwt beam="1">  1       21 0.10884057E-02 0.20184645E+02</pdfrwt>
<pdfrwt beam="2">  1       21 0.23481407E-01 0.20184645E+02</pdfrwt>
<totfact> 0.39603130E+07</totfact>
</mgrwt>
</event>
<event>
 4    1  0.4619222E+006  0.4278266E+02  0.7546771E-02  0.1488679E+00
         21   -1    0    0  503  501  0.00000000000E+00  0.00000000000E+00  0.12814851287E+01  0.12814851287E+01  0.00000000000E+00 0. -1.
         21   -1    0    0  504  502 -0.00000000000E+00 -0.00000000000E+00 -0.27156605437E+04  0.27156605437E+04  0.00000000000E+00 0.  1.
         21    1    1    2  503  502 -0.20990110121E+02  0.37279635687E+02 -0.22925118902E+04  0.22929110587E+04  0.00000000000E+00 0.  1.
         21    1    1    2  504  501  0.20990110121E+02 -0.37279635687E+02 -0.42186716830E+03  0.42403097016E+03  0.00000000000E+00 0. -1.
<mgrwt>
<rscale>  2 0.42782660E+02</rscale>
<asrwt>0</asrwt>
<pdfrwt beam="1">  1       21 0.19715394E-03 0.42782660E+02</pdfrwt>
<pdfrwt beam="2">  1       21 0.41778888E+00 0.42782660E+02</pdfrwt>
<totfact> 0.41032519E+05</totfact>
</mgrwt>
</event>
<event>
 4    1  0.4619222E+006  0.2307330E+02  0.7546771E-02  0.1690325E+00
         21   -1    0    0  504  501  0.00000000000E+00  0.00000000000E+00  0.39135526622E+03  0.39135526622E+03  0.00000000000E+00 0. -1.
         21   -1    0    0  503  502 -0.00000000000E+00 -0.00000000000E+00 -0.53016412187E+01  0.53016412187E+01  0.00000000000E+00 0. -1.
         21    1    1    2  503  501  0.13200879198E+02  0.18923902237E+02  0.22025468903E+02  0.31898253367E+02  0.00000000000E+00 0. -1.
         21    1    1    2  504  502 -0.13200879198E+02 -0.18923902237E+02  0.36402815610E+03  0.36475865407E+03  0.00000000000E+00 0. -1.
<mgrwt>
<rscale>  2 0.23073302E+02</rscale>
<asrwt>0</asrwt>
<pdfrwt beam="1">  1       21 0.60208480E-01 0.23073302E+02</pdfrwt>
<pdfrwt beam="2">  1       21 0.81563741E-03 0.23073302E+02</pdfrwt>
<totfact> 0.10794588E+07</totfact>
</mgrwt>
</event>
<event>
 4    1  0.4619222E+006  0.4468523E+02  0.7546771E-02  0.1476316E+00
         21   -1    0    0  503  501  0.00000000000E+00  0.00000000000E+00  0.21637997292E+03  0.21637997292E+03  0.00000000000E+00 0.  1.
         21   -1    0    0  504  502 -0.00000000000E+00 -0.00000000000E+00 -0.34398374516E+02  0.34398374516E+02  0.00000000000E+00 0.  1.
         21    1    1    2  503  502  0.10253536043E+01 -0.44673464359E+02 -0.16268586632E+02  0.47554565278E+02  0.00000000000E+00 0.  1.
         21    1    1    2  504  501 -0.10253536043E+01  0.44673464359E+02  0.19825018504E+03  0.20322378216E+03  0.00000000000E+00 0.  1.
<mgrwt>
<rscale>  2 0.44685230E+02</rscale>
<asrwt>0</asrwt>
<pdfrwt beam="1">  1       21 0.33289226E-01 0.44685230E+02</pdfrwt>
<pdfrwt beam="2">  1       21 0.52920578E-02 0.44685230E+02</pdfrwt>
<totfact> 0.20091981E+06</totfact>
</mgrwt>
</event>
<event>
 4    1  0.4619222E+006  0.2157419E+02  0.7546771E-02  0.1715722E+00
         21   -1    0    0  504  501  0.00000000000E+00  0.00000000000E+00  0.11490979554E+02  0.11490979554E+02  0.00000000000E+00 0. -1.
         21   -1    0    0  501  502 -0.00000000000E+00 -0.00000000000E+00 -0.10087373883E+03  0.10087373883E+03  0.00000000000E+00 0.  1.
         21    1    1    2  503  502 -0.19656562725E+02 -0.88918691246E+01 -0.88153990989E+02  0.90755561383E+02  0.00000000000E+00 0.  1.
         21    1    1    2  504  503  0.19656562725E+02  0.88918691246E+01 -0.12287682859E+01  0.21609156999E+02  0.00000000000E+00 0. -1.
<mgrwt>
<rscale>  2 0.21574193E+02</rscale>
<asrwt>0</asrwt>
<pdfrwt beam="1">  1       21 0.17678430E-02 0.21574193E+02</pdfrwt>
<pdfrwt beam="2">  1       21 0.15519037E-01 0.21574193E+02</pdfrwt>
<totfact> 0.39621750E+07</totfact>
</mgrwt>
</event>
<event>
 4    1  0.4619222E+006  0.3395798E+02  0.7546771E-02  0.1558054E+00
         21   -1    0    0  503  501  0.00000000000E+00  0.00000000000E+00  0.84202499033E+01  0.84202499033E+01  0.00000000000E+00 0.  1.
         21   -1    0    0  504  502 -0.00000000000E+00 -0.00000000000E+00 -0.13751855827E+03  0.13751855827E+03  0.00000000000E+00 0.  1.
         21    1    1    2  503  502 -0.87040109222E+01  0.32823535498E+02 -0.59852889609E+02  0.68815061457E+02  0.00000000000E+00 0.  1.
         21    1    1    2  504  501  0.87040109222E+01 -0.32823535498E+02 -0.69245418758E+02  0.77123746717E+02  0.00000000000E+00 0.  1.
<mgrwt>
<rscale>  2 0.33957978E+02</rscale>
<asrwt>0</asrwt>
<pdfrwt beam="1">  1       21 0.12954232E-02 0.33957978E+02</pdfrwt>
<pdfrwt beam="2">  1       21 0.21156698E-01 0.33957978E+02</pdfrwt>
<totfact> 0.41103602E+07</totfact>
</mgrwt>
</event>
<event>
 4    1  0.4619222E+006  0.2054246E+02  0.7546771E-02  0.1734751E+00
         21   -1    0    0  504  501  0.00000000000E+00  0.00000000000E+00  0.25860132073E+02  0.25860132073E+02  0.00000000000E+00 0.  1.
         21   -1    0    0  501  502 -0.00000000000E+00 -0.00000000000E+00 -0.30144211024E+02  0.30144211024E+02  0.00000000000E+00 0.  1.
         21    1    1    2  503  502 -0.19329451782E+02  0.69544794174E+01 -0.21106355265E+02  0.29452855935E+02  0.00000000000E+00 0.  1.
         21    1    1    2  504  503  0.19329451782E+02 -0.69544794174E+01  0.16822276313E+02  0.26551487162E+02  0.00000000000E+00 0.  1.
<mgrwt>
<rscale>  2 0.20542456E+02</rscale>
<asrwt>0</asrwt>
<pdfrwt beam="1">  1       21 0.39784819E-02 0.20542456E+02</pdfrwt>
<pdfrwt beam="2">  1       21 0.46375709E-02 0.20542456E+02</pdfrwt>
<totfact> 0.80399171E+07</totfact>
</mgrwt>
</event>
<event>
 4    1  0.4619222E+006  0.2197740E+02  0.7546771E-02  0.1708643E+00
         21   -1    0    0  504  501  0.00000000000E+00  0.00000000000E+00  0.26040034366E+02  0.26040034366E+02  0.00000000000E+00 0.  1.
         21   -1    0    0  503  502 -0.00000000000E+00 -0.00000000000E+00 -0.12734495170E+03  0.12734495170E+03  0.00000000000E+00 0.  1.
         21    1    1    2  503  501 -0.14260993429E+02  0.16722142803E+02 -0.12153987857E+03  0.12351092290E+03  0.00000000000E+00 0.  1.
         21    1    1    2  504  502  0.14260993429E+02 -0.16722142803E+02  0.20234961237E+02  0.29874063162E+02  0.00000000000E+00 0.  1.
<mgrwt>
<rscale>  2 0.21977397E+02</rscale>
<asrwt>0</asrwt>
<pdfrwt beam="1">  1       21 0.40061592E-02 0.21977397E+02</pdfrwt>
<pdfrwt beam="2">  1       21 0.19591531E-01 0.21977397E+02</pdfrwt>
<totfact> 0.75134644E+06</totfact>
</mgrwt>
</event>
<event>
 4    1  0.4619222E+006  0.2036198E+02  0.7546771E-02  0.1738224E+00
         21   -1    0    0  502  501  0.00000000000E+00  0.00000000000E+00  0.53101946432E+02  0.53101946432E+02  0.00000000000E+00 0. -1.
         21   -1    0    0  503  502 -0.00000000000E+00 -0.00000000000E+00 -0.22064642028E+02  0.22064642028E+02  0.00000000000E+00 0. -1.
         21    1    1    2  503  504 -0.12620265770E+02 -0.15979332641E+02 -0.14691842681E+02  0.25108970929E+02  0.00000000000E+00 0. -1.
         21    1    1    2  504  501  0.12620265770E+02  0.15979332641E+02  0.45729147085E+02  0.50057617531E+02  0.00000000000E+00 0. -1.
<mgrwt>
<rscale>  2 0.20361979E+02</rscale>
<asrwt>0</asrwt>
<pdfrwt beam="1">  1       21 0.81695302E-02 0.20361979E+02</pdfrwt>
<pdfrwt beam="2">  1       21 0.33945603E-02 0.20361979E+02</pdfrwt>
<totfact> 0.41513940E+07</totfact>
</mgrwt>
</event>
<event>
 4    1  0.4619222E+006  0.2192357E+02  0.7546771E-02  0.1709577E+00
         21   -1    0    0  503  501  0.00000000000E+00  0.00000000000E+00  0.33266525832E+01  0.33266525832E+01  0.00000000000E+00 0. -1.
         21   -1    0    0  504  502 -0.00000000000E+00 -0.00000000000E+00 -0.27082125082E+03  0.27082125082E+03  0.00000000000E+00 0. -1.
         21    1    1    2  503  502  0.11227628821E+02 -0.18830382215E+02 -0.40124434725E+02  0.45723223917E+02  0.00000000000E+00 0. -1.
         21    1    1    2  504  501 -0.11227628821E+02  0.18830382215E+02 -0.22737016351E+03  0.22842467949E+03  0.00000000000E+00 0. -1.
<mgrwt>
<rscale>  2 0.21923570E+02</rscale>
<asrwt>0</asrwt>
<pdfrwt beam="1">  1       21 0.51179253E-03 0.21923570E+02</pdfrwt>
<pdfrwt beam="2">  1       21 0.41664822E-01 0.21923570E+02</pdfrwt>
<totfact> 0.43602018E+07</totfact>
</mgrwt>
</event>
<event>
 4    1  0.4619222E+006  0.2202391E+02  0.7546771E-02  0.1707839E+00
         21   -1    0    0  504  501  0.00000000000E+00  0.00000000000E+00  0.28184896462E+02  0.28184896462E+02  0.00000000000E+00 0. -1.
         21   -1    0    0  503  502 -0.00000000000E+00 -0.00000000000E+00 -0.19579274702E+02  0.19579274702E+02  0.00000000000E+00 0.  1.
         21    1    1    2  503  501  0.19034816450E+02  0.11078286189E+02 -0.40054905196E+01  0.22385187435E+02  0.00000000000E+00 0.  1.
         21    1    1    2  504  502 -0.19034816450E+02 -0.11078286189E+02  0.12611112279E+02  0.25378983729E+02  0.00000000000E+00 0. -1.
<mgrwt>
<rscale>  2 0.22023911E+02</rscale>
<asrwt>0</asrwt>
<pdfrwt beam="1">  1       21 0.43361379E-02 0.22023911E+02</pdfrwt>
<pdfrwt beam="2">  1       21 0.30121961E-02 0.22023911E+02</pdfrwt>
<totfact> 0.14091515E+08</totfact>
</mgrwt>
</event>
<event>
 4    1  0.4619222E+006  0.2139581E+02  0.7546771E-02  0.1718915E+00
         21   -1    0    0  503  501  0.00000000000E+00  0.00000000000E+00  0.31165352785E+03  0.31165352785E+03  0.00000000000E+00 0.  1.
         21   -1    0    0  504  502 -0.00000000000E+00 -0.00000000000E+00 -0.24961671776E+01  0.24961671776E+01  0.00000000000E+00 0.  1.
         21    1    1    2  503  502  0.20249592264E+02 -0.69090416802E+01  0.25534520542E+03  0.25624003352E+03  0.00000000000E+00 0.  1.
         21    1    1    2  504  501 -0.20249592264E+02  0.69090416802E+01  0.53812155249E+02  0.57909661511E+02  0.00000000000E+00 0.  1.
<mgrwt>
<rscale>  2 0.21395814E+02</rscale>
<asrwt>0</asrwt>
<pdfrwt beam="1">  1       21 0.47946666E-01 0.21395814E+02</pdfrwt>
<pdfrwt beam="2">  1       21 0.38402597E-03 0.21395814E+02</pdfrwt>
<totfact> 0.50540548E+07</totfact>
</mgrwt>
</event>
<event>
 4    1  0.4619222E+006  0.2347938E+02  0.7546771E-02  0.1683855E+00
         21   -1    0    0  504  501  0.00000000000E+00  0.00000000000E+00  0.41317094288E+03  0.41317094288E+03  0.00000000000E+00 0. -1.
         21   -1    0    0  503  502 -0.00000000000E+00 -0.00000000000E+00 -0.41813196432E+02  0.41813196432E+02  0.00000000000E+00 0. -1.
         21    1    1    2  503  501  0.21898524827E+02  0.84696911505E+01  0.40951185353E+03  0.41018439663E+03  0.00000000000E+00 0. -1.
         21    1    1    2  504  502 -0.21898524827E+02 -0.84696911505E+01 -0.38154107077E+02  0.44799742685E+02  0.00000000000E+00 0. -1.
<mgrwt>
<rscale>  2 0.23479375E+02</rscale>
<asrwt>0</asrwt>
<pdfrwt beam="1">  1       21 0.63564758E-01 0.23479375E+02</pdfrwt>
<pdfrwt beam="2">  1       21 0.64327997E-02 0.23479375E+02</pdfrwt>
<totfact> 0.39821581E+05</totfact>
</mgrwt>
</event>
<event>
 4    1  0.4619222E+006  0.3174768E+02  0.7546771E-02  0.1579537E+00
         21   -1    0    0  504  501  0.00000000000E+00  0.00000000000E+00  0.14166617056E+03  0.14166617056E+03  0.00000000000E+00 0. -1.
         21   -1    0    0  503  502 -0.00000000000E+00 -0.00000000000E+00 -0.26483676154E+02  0.26483676154E+02  0.00000000000E+00 0.  1.
         21    1    1    2  503  501  0.25269717931E+02  0.19218644688E+02 -0.14309014106E+02  0.34823308754E+02  0.00000000000E+00 0.  1.
         21    1    1    2  504  502 -0.25269717931E+02 -0.19218644688E+02  0.12949150851E+03  0.13332653796E+03  0.00000000000E+00 0. -1.
<mgrwt>
<rscale>  2 0.31747676E+02</rscale>
<asrwt>0</asrwt>
<pdfrwt beam="1">  1       21 0.21794795E-01 0.31747676E+02</pdfrwt>
<pdfrwt beam="2">  1       21 0.40744118E-02 0.31747676E+02</pdfrwt>
<totfact> 0.64321955E+06</totfact>
</mgrwt>
</event>
<event>
 4    1  0.4619222E+006  0.2241679E+02  0.7546771E-02  0.1701142E+00
         21   -1    0    0  503  501  0.00000000000E+00  0.00000000000E+00  0.10785088478E+02  0.10785088478E+02  0.00000000000E+00 0. -1.
         21   -1    0    0  504  502 -0.00000000000E+00 -0.00000000000E+00 -0.46703134093E+02  0.46703134093E+02  0.00000000000E+00 0. -1.
         21    1    1    2  503  502 -0.11983072698E+02  0.18945143269E+02 -0.16564859092E+02  0.27873052246E+02  0.00000000000E+00 0. -1.
         21    1    1    2  504  501  0.11983072698E+02 -0.18945143269E+02 -0.19353186524E+02  0.29615170325E+02  0.00000000000E+00 0. -1.
<mgrwt>
<rscale>  2 0.22416790E+02</rscale>
<asrwt>0</asrwt>
<pdfrwt beam="1">  1       21 0.16592444E-02 0.22416790E+02</pdfrwt>
<pdfrwt beam="2">  1       21 0.71850976E-02 0.22416790E+02</pdfrwt>
<totfact> 0.15816882E+08</totfact>
</mgrwt>
</event>
<event>
 4    1  0.4619222E+006  0.2496072E+02  0.7546771E-02  0.1661567E+00
         21   -1    0    0  503  501  0.00000000000E+00  0.00000000000E+00  0.14637428790E+02  0.14637428790E+02  0.00000000000E+00 0. -1.
         21   -1    0    0  501  502 -0.00000000000E+00 -0.00000000000E+00 -0.60001507158E+03  0.60001507158E+03  0.00000000000E+00 0. -1.
         21    1    1    2  503  504  0.54133846723E+01 -0.24366633775E+02  0.35361641610E+01  0.25209958986E+02  0.00000000000E+00 0. -1.
         21    1    1    2  504  502 -0.54133846723E+01  0.24366633775E+02 -0.58891380695E+03  0.58944254138E+03  0.00000000000E+00 0. -1.
<mgrwt>
<rscale>  2 0.24960721E+02</rscale>
<asrwt>0</asrwt>
<pdfrwt beam="1">  1       21 0.22519126E-02 0.24960721E+02</pdfrwt>
<pdfrwt beam="2">  1       21 0.92309992E-01 0.24960721E+02</pdfrwt>
<totfact> 0.96032618E+05</totfact>
</mgrwt>
</event>
<event>
 4    1  0.4619222E+006  0.2250916E+02  0.7546771E-02  0.1699592E+00
         21   -1    0    0  504  501  0.00000000000E+00  0.00000000000E+00  0.12471890156E+03  0.12471890156E+03  0.00000000000E+00 0. -1.
         21   -1    0    0  503  502 -0.00000000000E+00 -0.00000000000E+00 -0.12524262634E+02  0.12524262634E+02  0.00000000000E+00 0. -1.
         21    1    1    2  503  501 -0.20895663479E+02 -0.83686057260E+01 -0.30757031462E+00  0.22511261927E+02  0.00000000000E+00 0. -1.
         21    1    1    2  504  502  0.20895663479E+02  0.83686057260E+01  0.11250220924E+03  0.11473190227E+03  0.00000000000E+00 0. -1.
<mgrwt>
<rscale>  2 0.22509161E+02</rscale>
<asrwt>0</asrwt>
<pdfrwt beam="1">  1       21 0.19187522E-01 0.22509161E+02</pdfrwt>
<pdfrwt beam="2">  1       21 0.19268097E-02 0.22509161E+02</pdfrwt>
<totfact> 0.24366130E+07</totfact>
</mgrwt>
</event>
<event>
 4    1  0.4619222E+006  0.2201743E+02  0.7546771E-02  0.1707951E+00
         21   -1    0    0  503  501  0.00000000000E+00  0.00000000000E+00  0.34138231681E+03  0.34138231681E+03  0.00000000000E+00 0.  1.
         21   -1    0    0  501  502 -0.00000000000E+00 -0.00000000000E+00 -0.96315350467E+01  0.96315350467E+01  0.00000000000E+00 0. -1.
         21    1    1    2  503  504 -0.17889154693E+02  0.12835324674E+02  0.32792885894E+03  0.32866716286E+03  0.00000000000E+00 0.  1.
         21    1    1    2  504  502  0.17889154693E+02 -0.12835324674E+02  0.38219228216E+01  0.22346688998E+02  0.00000000000E+00 0. -1.
<mgrwt>
<rscale>  2 0.22017434E+02</rscale>
<asrwt>0</asrwt>
<pdfrwt beam="1">  1       21 0.52520347E-01 0.22017434E+02</pdfrwt>
<pdfrwt beam="2">  1       21 0.14817749E-02 0.22017434E+02</pdfrwt>
<totfact> 0.57117748E+06</totfact>
</mgrwt>
</event>
<event>
 4    1  0.4619222E+006  0.2045082E+02  0.7546771E-02  0.1736509E+00
         21   -1    0    0  503  501  0.00000000000E+00  0.00000000000E+00  0.95901771148E+01  0.95901771148E+01  0.00000000000E+00 0.  1.
         21   -1    0    0  501  502 -0.00000000000E+00 -0.00000000000E+00 -0.37845254784E+03  0.37845254784E+03  0.00000000000E+00 0. -1.
         21    1    1    2  503  504  0.16701260635E+02  0.11802707023E+02 -0.19308840376E+01  0.20541769959E+02  0.00000000000E+00 0.  1.
         21    1    1    2  504  502 -0.16701260635E+02 -0.11802707023E+02 -0.36693148669E+03  0.36750095500E+03  0.00000000000E+00 0. -1.
<mgrwt>
<rscale>  2 0.20450819E+02</rscale>
<asrwt>0</asrwt>
<pdfrwt beam="1">  1       21 0.14754121E-02 0.20450819E+02</pdfrwt>
<pdfrwt beam="2">  1       21 0.58223461E-01 0.20450819E+02</pdfrwt>
<totfact> 0.46393906E+06</totfact>
</mgrwt>
</event>
<event>
 4    1  0.4619222E+006  0.2078213E+02  0.7546771E-02  0.1730207E+00
         21   -1    0    0  504  501  0.00000000000E+00  0.00000000000E+00  0.13621840603E+01  0.13621840603E+01  0.00000000000E+00 0.  1.
         21   -1    0    0  501  502 -0.00000000000E+00 -0.00000000000E+00 -0.34160690292E+03  0.34160690292E+03  0.00000000000E+00 0. -1.
         21    1    1    2  503  502 -0.19229328593E+02 -0.78822421175E+01 -0.21608894185E+03  0.21708599128E+03  0.00000000000E+00 0. -1.
         21    1    1    2  504  503  0.19229328593E+02  0.78822421175E+01 -0.12415577700E+03  0.12588309570E+03  0.00000000000E+00 0.  1.
<mgrwt>
<rscale>  2 0.20782127E+02</rscale>
<asrwt>0</asrwt>
<pdfrwt beam="1">  1       21 0.20956675E-03 0.20782127E+02</pdfrwt>
<pdfrwt beam="2">  1       21 0.52554916E-01 0.20782127E+02</pdfrwt>
<totfact> 0.10112613E+08</totfact>
</mgrwt>
</event>
<event>
 4    1  0.4619222E+006  0.2352258E+02  0.7546771E-02  0.1683177E+00
         21   -1    0    0  503  501  0.00000000000E+00  0.00000000000E+00  0.36479715530E+02  0.36479715530E+02  0.00000000000E+00 0.  1.
         21   -1    0    0  504  502 -0.00000000000E+00 -0.00000000000E+00 -0.14170869021E+03  0.14170869021E+03  0.00000000000E+00 0.  1.
         21    1    1    2  503  502 -0.62804916199E+01  0.22668634344E+02 -0.13680572706E+03  0.13881325050E+03  0.00000000000E+00 0.  1.
         21    1    1    2  504  501  0.62804916199E+01 -0.22668634344E+02  0.31576752389E+02  0.39375155231E+02  0.00000000000E+00 0.  1.
<mgrwt>
<rscale>  2 0.23522575E+02</rscale>
<asrwt>0</asrwt>
<pdfrwt beam="1">  1       21 0.56122640E-02 0.23522575E+02</pdfrwt>
<pdfrwt beam="2">  1       21 0.21801337E-01 0.23522575E+02</pdfrwt>
<totfact> 0.36911944E+06</totfact>
</mgrwt>
</event>
<event>
 4    1  0.4619222E+006  0.2471688E+02  0.7546771E-02  0.1665102E+00
         21   -1    0    0  503  501  0.00000000000E+00  0.00000000000E+00  0.57338424808E+03  0.57338424808E+03  0.00000000000E+00 0.  1.
         21   -1    0    0  504  502 -0.00000000000E+00 -0.00000000000E+00 -0.67488538532E+02  0.67488538532E+02  0.00000000000E+00 0.  1.
         21    1    1    2  503  502 -0.91869310012E+01  0.22946115493E+02 -0.64949042599E+02  0.69493179895E+02  0.00000000000E+00 0.  1.
         21    1    1    2  504  501  0.91869310012E+01 -0.22946115493E+02  0.57084475214E+03  0.57137960671E+03  0.00000000000E+00 0.  1.
<mgrwt>
<rscale>  2 0.24716875E+02</rscale>
<asrwt>0</asrwt>
<pdfrwt beam="1">  1       21 0.88212958E-01 0.24716875E+02</pdfrwt>
<pdfrwt beam="2">  1       21 0.10382852E-01 0.24716875E+02</pdfrwt>
<totfact> 0.92110798E+04</totfact>
</mgrwt>
</event>
<event>
 4    1  0.4619222E+006  0.3111954E+02  0.7546771E-02  0.1586033E+00
         21   -1    0    0  503  501  0.00000000000E+00  0.00000000000E+00  0.12475409802E+03  0.12475409802E+03  0.00000000000E+00 0. -1.
         21   -1    0    0  504  502 -0.00000000000E+00 -0.00000000000E+00 -0.13095571319E+02  0.13095571319E+02  0.00000000000E+00 0. -1.
         21    1    1    2  503  502  0.28154800878E+02 -0.13256440099E+02  0.99813282882E+02  0.10455198447E+03  0.00000000000E+00 0. -1.
         21    1    1    2  504  501 -0.28154800878E+02  0.13256440099E+02  0.11845243819E+02  0.33297684870E+02  0.00000000000E+00 0. -1.
<mgrwt>
<rscale>  2 0.31119544E+02</rscale>
<asrwt>0</asrwt>
<pdfrwt beam="1">  1       21 0.19192937E-01 0.31119544E+02</pdfrwt>
<pdfrwt beam="2">  1       21 0.20147034E-02 0.31119544E+02</pdfrwt>
<totfact> 0.24309247E+07</totfact>
</mgrwt>
</event>
<event>
 4    1  0.4619222E+006  0.3453206E+02  0.7546771E-02  0.1552796E+00
         21   -1    0    0  504  501  0.00000000000E+00  0.00000000000E+00  0.10811346684E+04  0.10811346684E+04  0.00000000000E+00 0.  1.
         21   -1    0    0  501  502 -0.00000000000E+00 -0.00000000000E+00 -0.15167054362E+01  0.15167054362E+01  0.00000000000E+00 0.  1.
         21    1    1    2  503  502 -0.29188181254E+02 -0.18453004175E+02  0.25708194357E+03  0.25939080361E+03  0.00000000000E+00 0.  1.
         21    1    1    2  504  503  0.29188181254E+02  0.18453004175E+02  0.82253601938E+03  0.82326057021E+03  0.00000000000E+00 0.  1.
<mgrwt>
<rscale>  2 0.34532062E+02</rscale>
<asrwt>0</asrwt>
<pdfrwt beam="1">  1       21 0.16632779E+00 0.34532062E+02</pdfrwt>
<pdfrwt beam="2">  1       21 0.23334016E-03 0.34532062E+02</pdfrwt>
<totfact> 0.76299328E+06</totfact>
</mgrwt>
</event>
<event>
 4    1  0.4619222E+006  0.2042178E+02  0.7546771E-02  0.1737068E+00
         21   -1    0    0  503  501  0.00000000000E+00  0.00000000000E+00  0.19179689731E+03  0.19179689731E+03  0.00000000000E+00 0.  1.
         21   -1    0    0  504  502 -0.00000000000E+00 -0.00000000000E+00 -0.21839994087E+01  0.21839994087E+01  0.00000000000E+00 0.  1.
         21    1    1    2  503  502 -0.20274008444E+02 -0.24522448198E+01  0.88386290008E+02  0.90714856470E+02  0.00000000000E+00 0.  1.
         21    1    1    2  504  501  0.20274008444E+02  0.24522448198E+01  0.10122660789E+03  0.10326604025E+03  0.00000000000E+00 0.  1.
<mgrwt>
<rscale>  2 0.20421776E+02</rscale>
<asrwt>0</asrwt>
<pdfrwt beam="1">  1       21 0.29507202E-01 0.20421776E+02</pdfrwt>
<pdfrwt beam="2">  1       21 0.33600006E-03 0.20421776E+02</pdfrwt>
<totfact> 0.14981883E+08</totfact>
</mgrwt>
</event>
<event>
 4    1  0.4619222E+006  0.2032746E+02  0.7546771E-02  0.1738893E+00
         21   -1    0    0  502  501  0.00000000000E+00  0.00000000000E+00  0.24260595979E+02  0.24260595979E+02  0.00000000000E+00 0.  1.
         21   -1    0    0  503  502 -0.00000000000E+00 -0.00000000000E+00 -0.70710033630E+02  0.70710033630E+02  0.00000000000E+00 0.  1.
         21    1    1    2  503  504 -0.28456265578E+01  0.20127297533E+02 -0.64597739266E+02  0.67720555334E+02  0.00000000000E+00 0.  1.
         21    1    1    2  504  501  0.28456265578E+01 -0.20127297533E+02  0.18148301615E+02  0.27250074275E+02  0.00000000000E+00 0.  1.
<mgrwt>
<rscale>  2 0.20327462E+02</rscale>
<asrwt>0</asrwt>
<pdfrwt beam="1">  1       21 0.37323994E-02 0.20327462E+02</pdfrwt>
<pdfrwt beam="2">  1       21 0.10878467E-01 0.20327462E+02</pdfrwt>
<totfact> 0.22376865E+07</totfact>
</mgrwt>
</event>
<event>
 4    1  0.4619222E+006  0.2360137E+02  0.7546771E-02  0.1681944E+00
         21   -1    0    0  504  501  0.00000000000E+00  0.00000000000E+00  0.22474084116E+01  0.22474084116E+01  0.00000000000E+00 0. -1.
         21   -1    0    0  503  502 -0.00000000000E+00 -0.00000000000E+00 -0.17150314614E+04  0.17150314614E+04  0.00000000000E+00 0. -1.
         21    1    1    2  503  501  0.23598681529E+02 -0.35628921108E+00 -0.62216679464E+02  0.66542767567E+02  0.00000000000E+00 0. -1.
         21    1    1    2  504  502 -0.23598681529E+02  0.35628921108E+00 -0.16505673736E+04  0.16507361023E+04  0.00000000000E+00 0. -1.
<mgrwt>
<rscale>  2 0.23601371E+02</rscale>
<asrwt>0</asrwt>
<pdfrwt beam="1">  1       21 0.34575501E-03 0.23601371E+02</pdfrwt>
<pdfrwt beam="2">  1       21 0.26385109E+00 0.23601371E+02</pdfrwt>
<totfact> 0.12155794E+06</totfact>
</mgrwt>
</event>
<event>
 4    1  0.4619222E+006  0.2070765E+02  0.7546771E-02  0.1731611E+00
         21   -1    0    0  504  501  0.00000000000E+00  0.00000000000E+00  0.19337490990E+03  0.19337490990E+03  0.00000000000E+00 0.  1.
         21   -1    0    0  503  502 -0.00000000000E+00 -0.00000000000E+00 -0.22175272130E+01  0.22175272130E+01  0.00000000000E+00 0. -1.
         21    1    1    2  503  501  0.15834583013E+01 -0.20647015762E+02  0.95169016358E+02  0.97395832943E+02  0.00000000000E+00 0.  1.
         21    1    1    2  504  502 -0.15834583013E+01  0.20647015762E+02  0.95988366328E+02  0.98196604169E+02  0.00000000000E+00 0. -1.
<mgrwt>
<rscale>  2 0.20707646E+02</rscale>
<asrwt>0</asrwt>
<pdfrwt beam="1">  1       21 0.29749973E-01 0.20707646E+02</pdfrwt>
<pdfrwt beam="2">  1       21 0.34115819E-03 0.20707646E+02</pdfrwt>
<totfact> 0.14496742E+08</totfact>
</mgrwt>
</event>
<event>
 4    1  0.4619222E+006  0.2489340E+02  0.7546771E-02  0.1662538E+00
         21   -1    0    0  503  501  0.00000000000E+00  0.00000000000E+00  0.28839505130E+02  0.28839505130E+02  0.00000000000E+00 0. -1.
         21   -1    0    0  504  502 -0.00000000000E+00 -0.00000000000E+00 -0.28108566757E+02  0.28108566757E+02  0.00000000000E+00 0. -1.
         21    1    1    2  503  502 -0.24699494631E+02 -0.31009823546E+01  0.14185291625E+02  0.28651415760E+02  0.00000000000E+00 0. -1.
         21    1    1    2  504  501  0.24699494631E+02  0.31009823546E+01 -0.13454353252E+02  0.28296656127E+02  0.00000000000E+00 0. -1.
<mgrwt>
<rscale>  2 0.24893395E+02</rscale>
<asrwt>0</asrwt>
<pdfrwt beam="1">  1       21 0.44368469E-02 0.24893395E+02</pdfrwt>
<pdfrwt beam="2">  1       21 0.43243949E-02 0.24893395E+02</pdfrwt>
<totfact> 0.79776012E+07</totfact>
</mgrwt>
</event>
<event>
 4    1  0.4619222E+006  0.2230918E+02  0.7546771E-02  0.1702959E+00
         21   -1    0    0  503  501  0.00000000000E+00  0.00000000000E+00  0.13975540811E+04  0.13975540811E+04  0.00000000000E+00 0.  1.
         21   -1    0    0  504  502 -0.00000000000E+00 -0.00000000000E+00 -0.50065256633E+01  0.50065256633E+01  0.00000000000E+00 0.  1.
         21    1    1    2  503  502 -0.20356791546E+02 -0.91269066252E+01  0.20395083795E+02  0.30226789932E+02  0.00000000000E+00 0.  1.
         21    1    1    2  504  501  0.20356791546E+02  0.91269066252E+01  0.13721524716E+04  0.13723338168E+04  0.00000000000E+00 0.  1.
<mgrwt>
<rscale>  2 0.22309177E+02</rscale>
<asrwt>0</asrwt>
<pdfrwt beam="1">  1       21 0.21500801E+00 0.22309177E+02</pdfrwt>
<pdfrwt beam="2">  1       21 0.77023583E-03 0.22309177E+02</pdfrwt>
<totfact> 0.65910422E+05</totfact>
</mgrwt>
</event>
<event>
 4    1  0.4619222E+006  0.2302107E+02  0.7546771E-02  0.1691169E+00
         21   -1    0    0  503  501  0.00000000000E+00  0.00000000000E+00  0.64401629150E+01  0.64401629150E+01  0.00000000000E+00 0. -1.
         21   -1    0    0  504  502 -0.00000000000E+00 -0.00000000000E+00 -0.82408022330E+02  0.82408022330E+02  0.00000000000E+00 0. -1.
         21    1    1    2  503  502 -0.22995454201E+02 -0.10857751688E+01 -0.36312520664E+02  0.42994987831E+02  0.00000000000E+00 0. -1.
         21    1    1    2  504  501  0.22995454201E+02  0.10857751688E+01 -0.39655338751E+02  0.45853197414E+02  0.00000000000E+00 0. -1.
<mgrwt>
<rscale>  2 0.23021073E+02</rscale>
<asrwt>0</asrwt>
<pdfrwt beam="1">  1       21 0.99079438E-03 0.23021073E+02</pdfrwt>
<pdfrwt beam="2">  1       21 0.12678156E-01 0.23021073E+02</pdfrwt>
<totfact> 0.13630829E+08</totfact>
</mgrwt>
</event>
<event>
 4    1  0.4619222E+006  0.2206412E+02  0.7546771E-02  0.1707146E+00
         21   -1    0    0  503  501  0.00000000000E+00  0.00000000000E+00  0.32982117896E+03  0.32982117896E+03  0.00000000000E+00 0.  1.
         21   -1    0    0  504  502 -0.00000000000E+00 -0.00000000000E+00 -0.39655937259E+01  0.39655937259E+01  0.00000000000E+00 0. -1.
         21    1    1    2  503  502  0.21754565105E+02  0.36829453378E+01  0.30692663511E+02  0.37800327811E+02  0.00000000000E+00 0. -1.
         21    1    1    2  504  501 -0.21754565105E+02 -0.36829453378E+01  0.29516292172E+03  0.29598644487E+03  0.00000000000E+00 0.  1.
<mgrwt>
<rscale>  2 0.22064115E+02</rscale>
<asrwt>0</asrwt>
<pdfrwt beam="1">  1       21 0.50741698E-01 0.22064115E+02</pdfrwt>
<pdfrwt beam="2">  1       21 0.61009160E-03 0.22064115E+02</pdfrwt>
<totfact> 0.23087353E+07</totfact>
</mgrwt>
</event>
<event>
 4    1  0.4619222E+006  0.3186569E+02  0.7546771E-02  0.1578336E+00
         21   -1    0    0  503  501  0.00000000000E+00  0.00000000000E+00  0.17464018356E+01  0.17464018356E+01  0.00000000000E+00 0.  1.
         21   -1    0    0  504  502 -0.00000000000E+00 -0.00000000000E+00 -0.58263457675E+03  0.58263457675E+03  0.00000000000E+00 0.  1.
         21    1    1    2  503  502  0.26559959519E+02  0.17606557978E+02 -0.30369213476E+03  0.30535935395E+03  0.00000000000E+00 0.  1.
         21    1    1    2  504  501 -0.26559959519E+02 -0.17606557978E+02 -0.27719604016E+03  0.27902162463E+03  0.00000000000E+00 0.  1.
<mgrwt>
<rscale>  2 0.31865692E+02</rscale>
<asrwt>0</asrwt>
<pdfrwt beam="1">  1       21 0.26867723E-03 0.31865692E+02</pdfrwt>
<pdfrwt beam="2">  1       21 0.89636081E-01 0.31865692E+02</pdfrwt>
<totfact> 0.25776988E+07</totfact>
</mgrwt>
</event>
<event>
 4    1  0.4619222E+006  0.2756139E+02  0.7546771E-02  0.1626722E+00
         21   -1    0    0  502  501  0.00000000000E+00  0.00000000000E+00  0.56310456327E+01  0.56310456327E+01  0.00000000000E+00 0. -1.
         21   -1    0    0  504  502 -0.00000000000E+00 -0.00000000000E+00 -0.30369984677E+03  0.30369984677E+03  0.00000000000E+00 0. -1.
         21    1    1    2  503  501  0.27223133406E+02 -0.43048165561E+01 -0.33727183061E+02  0.43556323481E+02  0.00000000000E+00 0. -1.
         21    1    1    2  504  503 -0.27223133406E+02  0.43048165561E+01 -0.26434161807E+03  0.26577456892E+03  0.00000000000E+00 0. -1.
<mgrwt>
<rscale>  2 0.27561394E+02</rscale>
<asrwt>0</asrwt>
<pdfrwt beam="1">  1       21 0.86631476E-03 0.27561394E+02</pdfrwt>
<pdfrwt beam="2">  1       21 0.46723051E-01 0.27561394E+02</pdfrwt>
<totfact> 0.16768895E+07</totfact>
</mgrwt>
</event>
<event>
 4    1  0.4619222E+006  0.2119253E+02  0.7546771E-02  0.1722603E+00
         21   -1    0    0  504  501  0.00000000000E+00  0.00000000000E+00  0.33941148028E+02  0.33941148028E+02  0.00000000000E+00 0.  1.
         21   -1    0    0  503  502 -0.00000000000E+00 -0.00000000000E+00 -0.38294895045E+02  0.38294895045E+02  0.00000000000E+00 0.  1.
         21    1    1    2  503  501  0.21090093841E+02  0.20811305737E+01 -0.31395889247E+02  0.37879084258E+02  0.00000000000E+00 0.  1.
         21    1    1    2  504  502 -0.21090093841E+02 -0.20811305737E+01  0.27042142229E+02  0.34356958815E+02  0.00000000000E+00 0.  1.
<mgrwt>
<rscale>  2 0.21192526E+02</rscale>
<asrwt>0</asrwt>
<pdfrwt beam="1">  1       21 0.52217151E-02 0.21192526E+02</pdfrwt>
<pdfrwt beam="2">  1       21 0.58915223E-02 0.21192526E+02</pdfrwt>
<totfact> 0.36079090E+07</totfact>
</mgrwt>
</event>
<event>
 4    1  0.4619222E+006  0.4343250E+02  0.7546771E-02  0.1484371E+00
         21   -1    0    0  504  501  0.00000000000E+00  0.00000000000E+00  0.10214456149E+04  0.10214456149E+04  0.00000000000E+00 0. -1.
         21   -1    0    0  503  502 -0.00000000000E+00 -0.00000000000E+00 -0.39344889181E+01  0.39344889181E+01  0.00000000000E+00 0.  1.
         21    1    1    2  503  501 -0.29881566056E+01 -0.43329580751E+02  0.13529385783E+03  0.14209436869E+03  0.00000000000E+00 0.  1.
         21    1    1    2  504  502  0.29881566056E+01  0.43329580751E+02  0.88221726815E+03  0.88328573512E+03  0.00000000000E+00 0. -1.
<mgrwt>
<rscale>  2 0.43432495E+02</rscale>
<asrwt>0</asrwt>
<pdfrwt beam="1">  1       21 0.15714527E+00 0.43432495E+02</pdfrwt>
<pdfrwt beam="2">  1       21 0.60530680E-03 0.43432495E+02</pdfrwt>
<totfact> 0.21593669E+06</totfact>
</mgrwt>
</event>
<event>
 4    1  0.4619222E+006  0.2720978E+02  0.7546771E-02  0.1631151E+00
         21   -1    0    0  504  501  0.00000000000E+00  0.00000000000E+00  0.16709661506E+03  0.16709661506E+03  0.00000000000E+00 0. -1.
         21   -1    0    0  503  502 -0.00000000000E+00 -0.00000000000E+00 -0.52044765802E+01  0.52044765802E+01  0.00000000000E+00 0. -1.
         21    1    1    2  503  501  0.86060143197E+01  0.25812957192E+02  0.11416214249E+03  0.11735998901E+03  0.00000000000E+00 0. -1.
         21    1    1    2  504  502 -0.86060143197E+01 -0.25812957192E+02  0.47729995986E+02  0.54941102631E+02  0.00000000000E+00 0. -1.
<mgrwt>
<rscale>  2 0.27209782E+02</rscale>
<asrwt>0</asrwt>
<pdfrwt beam="1">  1       21 0.25707168E-01 0.27209782E+02</pdfrwt>
<pdfrwt beam="2">  1       21 0.80068883E-03 0.27209782E+02</pdfrwt>
<totfact> 0.57408458E+07</totfact>
</mgrwt>
</event>
<event>
 4    1  0.4619222E+006  0.2145662E+02  0.7546771E-02  0.1717823E+00
         21   -1    0    0  504  501  0.00000000000E+00  0.00000000000E+00  0.19372434768E+02  0.19372434768E+02  0.00000000000E+00 0.  1.
         21   -1    0    0  503  502 -0.00000000000E+00 -0.00000000000E+00 -0.30276700126E+02  0.30276700126E+02  0.00000000000E+00 0.  1.
         21    1    1    2  503  501  0.10461341845E+02 -0.18733570323E+02 -0.16964745439E+02  0.27353042208E+02  0.00000000000E+00 0.  1.
         21    1    1    2  504  502 -0.10461341845E+02  0.18733570323E+02  0.60604800804E+01  0.22296092686E+02  0.00000000000E+00 0.  1.
<mgrwt>
<rscale>  2 0.21456615E+02</rscale>
<asrwt>0</asrwt>
<pdfrwt beam="1">  1       21 0.29803746E-02 0.21456615E+02</pdfrwt>
<pdfrwt beam="2">  1       21 0.46579538E-02 0.21456615E+02</pdfrwt>
<totfact> 0.12692364E+08</totfact>
</mgrwt>
</event>
<event>
 4    1  0.4619222E+006  0.2185170E+02  0.7546771E-02  0.1710829E+00
         21   -1    0    0  503  501  0.00000000000E+00  0.00000000000E+00  0.82893298291E+01  0.82893298291E+01  0.00000000000E+00 0.  1.
         21   -1    0    0  504  502 -0.00000000000E+00 -0.00000000000E+00 -0.59322101910E+02  0.59322101910E+02  0.00000000000E+00 0. -1.
         21    1    1    2  503  502  0.20826090140E+02  0.66159413290E+01 -0.19762854931E+02  0.29462979231E+02  0.00000000000E+00 0.  1.
         21    1    1    2  504  501 -0.20826090140E+02 -0.66159413290E+01 -0.31269917150E+02  0.38148452508E+02  0.00000000000E+00 0. -1.
<mgrwt>
<rscale>  2 0.21851698E+02</rscale>
<asrwt>0</asrwt>
<pdfrwt beam="1">  1       21 0.12752815E-02 0.21851698E+02</pdfrwt>
<pdfrwt beam="2">  1       21 0.91264770E-02 0.21851698E+02</pdfrwt>
<totfact> 0.15839189E+08</totfact>
</mgrwt>
</event>
<event>
 4    1  0.4619222E+006  0.3356070E+02  0.7546771E-02  0.1561766E+00
         21   -1    0    0  502  501  0.00000000000E+00  0.00000000000E+00  0.98686737006E+00  0.98686737006E+00  0.00000000000E+00 0.  1.
         21   -1    0    0  503  502 -0.00000000000E+00 -0.00000000000E+00 -0.11617351886E+04  0.11617351886E+04  0.00000000000E+00 0.  1.
         21    1    1    2  503  504  0.51060778615E+01 -0.33169994560E+02 -0.65746210311E+03  0.65831811276E+03  0.00000000000E+00 0.  1.
         21    1    1    2  504  501 -0.51060778615E+01  0.33169994560E+02 -0.50328621816E+03  0.50440394324E+03  0.00000000000E+00 0.  1.
<mgrwt>
<rscale>  2 0.33560700E+02</rscale>
<asrwt>0</asrwt>
<pdfrwt beam="1">  1       21 0.15182529E-03 0.33560700E+02</pdfrwt>
<pdfrwt beam="2">  1       21 0.17872903E+00 0.33560700E+02</pdfrwt>
<totfact> 0.11883763E+07</totfact>
</mgrwt>
</event>
<event>
 4    1  0.4619222E+006  0.2487349E+02  0.7546771E-02  0.1662826E+00
         21   -1    0    0  504  501  0.00000000000E+00  0.00000000000E+00  0.78943597871E+01  0.78943597871E+01  0.00000000000E+00 0.  1.
         21   -1    0    0  503  502 -0.00000000000E+00 -0.00000000000E+00 -0.13247709069E+04  0.13247709069E+04  0.00000000000E+00 0.  1.
         21    1    1    2  503  501  0.14959115071E+02 -0.19872473439E+02 -0.12115641093E+02  0.27667292665E+02  0.00000000000E+00 0.  1.
         21    1    1    2  504  502 -0.14959115071E+02  0.19872473439E+02 -0.13047609060E+04  0.13049979740E+04  0.00000000000E+00 0.  1.
<mgrwt>
<rscale>  2 0.24873486E+02</rscale>
<asrwt>0</asrwt>
<pdfrwt beam="1">  1       21 0.12145171E-02 0.24873486E+02</pdfrwt>
<pdfrwt beam="2">  1       21 0.20381087E+00 0.24873486E+02</pdfrwt>
<totfact> 0.38304471E+05</totfact>
</mgrwt>
</event>
<event>
 4    1  0.4619222E+006  0.2341067E+02  0.7546771E-02  0.1684939E+00
         21   -1    0    0  504  501  0.00000000000E+00  0.00000000000E+00  0.61636939437E+02  0.61636939437E+02  0.00000000000E+00 0.  1.
         21   -1    0    0  501  502 -0.00000000000E+00 -0.00000000000E+00 -0.42258089371E+02  0.42258089371E+02  0.00000000000E+00 0. -1.
         21    1    1    2  503  502  0.23202308422E+02 -0.31164287987E+01 -0.36470408264E+02  0.43337627109E+02  0.00000000000E+00 0. -1.
         21    1    1    2  504  503 -0.23202308422E+02  0.31164287987E+01  0.55849258330E+02  0.60557401699E+02  0.00000000000E+00 0.  1.
<mgrwt>
<rscale>  2 0.23410665E+02</rscale>
<asrwt>0</asrwt>
<pdfrwt beam="1">  1       21 0.94826061E-02 0.23410665E+02</pdfrwt>
<pdfrwt beam="2">  1       21 0.65012445E-02 0.23410665E+02</pdfrwt>
<totfact> 0.11994737E+07</totfact>
</mgrwt>
</event>
<event>
 4    1  0.4619222E+006  0.2151268E+02  0.7546771E-02  0.1716819E+00
         21   -1    0    0  502  501  0.00000000000E+00  0.00000000000E+00  0.32304668535E+02  0.32304668535E+02  0.00000000000E+00 0.  1.
         21   -1    0    0  504  502 -0.00000000000E+00 -0.00000000000E+00 -0.27130318290E+02  0.27130318290E+02  0.00000000000E+00 0.  1.
         21    1    1    2  503  501 -0.18840333838E+02 -0.10384474267E+02  0.23002842880E+02  0.31494860938E+02  0.00000000000E+00 0.  1.
         21    1    1    2  504  503  0.18840333838E+02  0.10384474267E+02 -0.17828492636E+02  0.27940125887E+02  0.00000000000E+00 0.  1.
<mgrwt>
<rscale>  2 0.21512682E+02</rscale>
<asrwt>0</asrwt>
<pdfrwt beam="1">  1       21 0.49699490E-02 0.21512682E+02</pdfrwt>
<pdfrwt beam="2">  1       21 0.41738951E-02 0.21512682E+02</pdfrwt>
<totfact> 0.67698208E+07</totfact>
</mgrwt>
</event>
<event>
 4    1  0.4619222E+006  0.2547917E+02  0.7546771E-02  0.1654213E+00
         21   -1    0    0  504  501  0.00000000000E+00  0.00000000000E+00  0.29941636114E+02  0.29941636114E+02  0.00000000000E+00 0.  1.
         21   -1    0    0  503  502 -0.00000000000E+00 -0.00000000000E+00 -0.25253519719E+02  0.25253519719E+02  0.00000000000E+00 0.  1.
         21    1    1    2  503  501 -0.31853793785E+01  0.25279271033E+02 -0.80347973509E+01  0.26716028039E+02  0.00000000000E+00 0.  1.
         21    1    1    2  504  502  0.31853793785E+01 -0.25279271033E+02  0.12722913746E+02  0.28479127794E+02  0.00000000000E+00 0.  1.
<mgrwt>
<rscale>  2 0.25479172E+02</rscale>
<asrwt>0</asrwt>
<pdfrwt beam="1">  1       21 0.46064055E-02 0.25479172E+02</pdfrwt>
<pdfrwt beam="2">  1       21 0.38851569E-02 0.25479172E+02</pdfrwt>
<totfact> 0.89583573E+07</totfact>
</mgrwt>
</event>
<event>
 4    1  0.4619222E+006  0.2049414E+02  0.7546771E-02  0.1735676E+00
         21   -1    0    0  502  501  0.00000000000E+00  0.00000000000E+00  0.69322638763E+03  0.69322638763E+03  0.00000000000E+00 0.  1.
         21   -1    0    0  503  502 -0.00000000000E+00 -0.00000000000E+00 -0.14375875078E+01  0.14375875078E+01  0.00000000000E+00 0. -1.
         21    1    1    2  503  504  0.52690271136E+01 -0.19805234565E+02  0.81706017515E+02  0.84237065838E+02  0.00000000000E+00 0. -1.
         21    1    1    2  504  501 -0.52690271136E+01  0.19805234565E+02  0.61008278260E+03  0.61042690930E+03  0.00000000000E+00 0.  1.
<mgrwt>
<rscale>  2 0.20494145E+02</rscale>
<asrwt>0</asrwt>
<pdfrwt beam="1">  1       21 0.10664995E+00 0.20494145E+02</pdfrwt>
<pdfrwt beam="2">  1       21 0.22116786E-03 0.20494145E+02</pdfrwt>
<totfact> 0.21588680E+07</totfact>
</mgrwt>
</event>
<event>
 4    1  0.4619222E+006  0.2119103E+02  0.7546771E-02  0.1722630E+00
         21   -1    0    0  502  501  0.00000000000E+00  0.00000000000E+00  0.35543034919E+02  0.35543034919E+02  0.00000000000E+00 0. -1.
         21   -1    0    0  504  502 -0.00000000000E+00 -0.00000000000E+00 -0.70454173686E+02  0.70454173686E+02  0.00000000000E+00 0. -1.
         21    1    1    2  503  501 -0.13529082314E+02 -0.16310231112E+02  0.30556432503E+02  0.37185417498E+02  0.00000000000E+00 0. -1.
         21    1    1    2  504  503  0.13529082314E+02  0.16310231112E+02 -0.65467571271E+02  0.68811791106E+02  0.00000000000E+00 0. -1.
<mgrwt>
<rscale>  2 0.21191029E+02</rscale>
<asrwt>0</asrwt>
<pdfrwt beam="1">  1       21 0.54681593E-02 0.21191029E+02</pdfrwt>
<pdfrwt beam="2">  1       21 0.10839104E-01 0.21191029E+02</pdfrwt>
<totfact> 0.12435066E+07</totfact>
</mgrwt>
</event>
<event>
 4    1  0.4619222E+006  0.2485441E+02  0.7546771E-02  0.1663102E+00
         21   -1    0    0  504  501  0.00000000000E+00  0.00000000000E+00  0.79717224771E+02  0.79717224771E+02  0.00000000000E+00 0. -1.
         21   -1    0    0  503  502 -0.00000000000E+00 -0.00000000000E+00 -0.12322446484E+02  0.12322446484E+02  0.00000000000E+00 0. -1.
         21    1    1    2  503  501 -0.16976114925E+02 -0.18153606527E+02  0.56617429081E+01  0.25491120820E+02  0.00000000000E+00 0. -1.
         21    1    1    2  504  502  0.16976114925E+02  0.18153606527E+02  0.61733035379E+02  0.66548550435E+02  0.00000000000E+00 0. -1.
<mgrwt>
<rscale>  2 0.24854414E+02</rscale>
<asrwt>0</asrwt>
<pdfrwt beam="1">  1       21 0.12264188E-01 0.24854414E+02</pdfrwt>
<pdfrwt beam="2">  1       21 0.18957610E-02 0.24854414E+02</pdfrwt>
<totfact> 0.54949887E+07</totfact>
</mgrwt>
</event>
<event>
 4    1  0.4619222E+006  0.2321524E+02  0.7546771E-02  0.1688045E+00
         21   -1    0    0  504  501  0.00000000000E+00  0.00000000000E+00  0.77666782129E+00  0.77666782129E+00  0.00000000000E+00 0.  1.
         21   -1    0    0  503  502 -0.00000000000E+00 -0.00000000000E+00 -0.72812998107E+03  0.72812998107E+03  0.00000000000E+00 0.  1.
         21    1    1    2  503  501 -0.22252438811E+02 -0.66163624544E+01 -0.44267135297E+03  0.44327967924E+03  0.00000000000E+00 0.  1.
         21    1    1    2  504  502  0.22252438811E+02  0.66163624544E+01 -0.28468196028E+03  0.28562696966E+03  0.00000000000E+00 0.  1.
<mgrwt>
<rscale>  2 0.23215238E+02</rscale>
<asrwt>0</asrwt>
<pdfrwt beam="1">  1       21 0.11948682E-03 0.23215238E+02</pdfrwt>
<pdfrwt beam="2">  1       21 0.11202050E+00 0.23215238E+02</pdfrwt>
<totfact> 0.48062543E+07</totfact>
</mgrwt>
</event>
<event>
 4    1  0.4619222E+006  0.3740216E+02  0.7546771E-02  0.1528248E+00
         21   -1    0    0  504  501  0.00000000000E+00  0.00000000000E+00  0.73107007193E+02  0.73107007193E+02  0.00000000000E+00 0. -1.
         21   -1    0    0  501  502 -0.00000000000E+00 -0.00000000000E+00 -0.22515065944E+02  0.22515065944E+02  0.00000000000E+00 0. -1.
         21    1    1    2  503  502  0.68632149382E+00  0.37395862269E+02  0.67718558015E+01  0.38010256288E+02  0.00000000000E+00 0. -1.
         21    1    1    2  504  503 -0.68632149382E+00 -0.37395862269E+02  0.43820085448E+02  0.57611816850E+02  0.00000000000E+00 0. -1.
<mgrwt>
<rscale>  2 0.37402160E+02</rscale>
<asrwt>0</asrwt>
<pdfrwt beam="1">  1       21 0.11247232E-01 0.37402160E+02</pdfrwt>
<pdfrwt beam="2">  1       21 0.34638564E-02 0.37402160E+02</pdfrwt>
<totfact> 0.26996099E+07</totfact>
</mgrwt>
</event>
<event>
 4    1  0.4619222E+006  0.6626695E+02  0.7546771E-02  0.1373268E+00
         21   -1    0    0  503  501  0.00000000000E+00  0.00000000000E+00  0.22490239315E+03  0.22490239315E+03  0.00000000000E+00 0. -1.
         21   -1    0    0  501  502 -0.00000000000E+00 -0.00000000000E+00 -0.14578382388E+03  0.14578382388E+03  0.00000000000E+00 0.  1.
         21    1    1    2  503  504  0.66578865001E+01  0.65931636846E+02  0.21204453494E+03  0.22215803607E+03  0.00000000000E+00 0. -1.
         21    1    1    2  504  502 -0.66578865001E+01 -0.65931636846E+02 -0.13292596567E+03  0.14852818096E+03  0.00000000000E+00 0.  1.
<mgrwt>
<rscale>  2 0.66266946E+02</rscale>
<asrwt>0</asrwt>
<pdfrwt beam="1">  1       21 0.34600368E-01 0.66266946E+02</pdfrwt>
<pdfrwt beam="2">  1       21 0.22428281E-01 0.66266946E+02</pdfrwt>
<totfact> 0.15647545E+05</totfact>
</mgrwt>
</event>
<event>
 4    1  0.4619222E+006  0.2151824E+02  0.7546771E-02  0.1716719E+00
         21   -1    0    0  504  501  0.00000000000E+00  0.00000000000E+00  0.99795730059E+02  0.99795730059E+02  0.00000000000E+00 0. -1.
         21   -1    0    0  503  502 -0.00000000000E+00 -0.00000000000E+00 -0.30480093896E+02  0.30480093896E+02  0.00000000000E+00 0.  1.
         21    1    1    2  503  501 -0.21515105063E+02 -0.36745966286E+00 -0.25317725505E+02  0.33226826469E+02  0.00000000000E+00 0.  1.
         21    1    1    2  504  502  0.21515105063E+02  0.36745966286E+00  0.94633361668E+02  0.97048997486E+02  0.00000000000E+00 0. -1.
<mgrwt>
<rscale>  2 0.21518243E+02</rscale>
<asrwt>0</asrwt>
<pdfrwt beam="1">  1       21 0.15353189E-01 0.21518243E+02</pdfrwt>
<pdfrwt beam="2">  1       21 0.46892452E-02 0.21518243E+02</pdfrwt>
<totfact> 0.88757978E+06</totfact>
</mgrwt>
</event>
<event>
 4    1  0.4619222E+006  0.2244254E+02  0.7546771E-02  0.1700709E+00
         21   -1    0    0  502  501  0.00000000000E+00  0.00000000000E+00  0.32473675008E+02  0.32473675008E+02  0.00000000000E+00 0. -1.
         21   -1    0    0  504  502 -0.00000000000E+00 -0.00000000000E+00 -0.23950351568E+03  0.23950351568E+03  0.00000000000E+00 0. -1.
         21    1    1    2  503  501 -0.10579774266E+02 -0.19792317563E+02  0.27996734300E+02  0.35881535495E+02  0.00000000000E+00 0. -1.
         21    1    1    2  504  503  0.10579774266E+02  0.19792317563E+02 -0.23502657497E+03  0.23609565520E+03  0.00000000000E+00 0. -1.
<mgrwt>
<rscale>  2 0.22442537E+02</rscale>
<asrwt>0</asrwt>
<pdfrwt beam="1">  1       21 0.49959501E-02 0.22442537E+02</pdfrwt>
<pdfrwt beam="2">  1       21 0.36846694E-01 0.22442537E+02</pdfrwt>
<totfact> 0.17094338E+06</totfact>
</mgrwt>
</event>
<event>
 4    1  0.4619222E+006  0.2014747E+02  0.7546771E-02  0.1742411E+00
         21   -1    0    0  503  501  0.00000000000E+00  0.00000000000E+00  0.38522295257E+01  0.38522295257E+01  0.00000000000E+00 0.  1.
         21   -1    0    0  504  502 -0.00000000000E+00 -0.00000000000E+00 -0.56932868772E+03  0.56932868772E+03  0.00000000000E+00 0.  1.
         21    1    1    2  503  502 -0.19735580789E+02 -0.40530520147E+01 -0.54145138770E+03  0.54182610275E+03  0.00000000000E+00 0.  1.
         21    1    1    2  504  501  0.19735580789E+02  0.40530520147E+01 -0.24025070491E+02  0.31354814492E+02  0.00000000000E+00 0.  1.
<mgrwt>
<rscale>  2 0.20147466E+02</rscale>
<asrwt>0</asrwt>
<pdfrwt beam="1">  1       21 0.59265102E-03 0.20147466E+02</pdfrwt>
<pdfrwt beam="2">  1       21 0.87588982E-01 0.20147466E+02</pdfrwt>
<totfact> 0.78284839E+06</totfact>
</mgrwt>
</event>
<event>
 4    1  0.4619222E+006  0.2086555E+02  0.7546771E-02  0.1728644E+00
         21   -1    0    0  503  501  0.00000000000E+00  0.00000000000E+00  0.20250579952E+03  0.20250579952E+03  0.00000000000E+00 0.  1.
         21   -1    0    0  501  502 -0.00000000000E+00 -0.00000000000E+00 -0.26662687191E+01  0.26662687191E+01  0.00000000000E+00 0.  1.
         21    1    1    2  503  504 -0.16507445984E+02 -0.12762261962E+02  0.14506461152E+03  0.14655754030E+03  0.00000000000E+00 0.  1.
         21    1    1    2  504  502  0.16507445984E+02  0.12762261962E+02  0.54774919280E+02  0.58614527938E+02  0.00000000000E+00 0.  1.
<mgrwt>
<rscale>  2 0.20865548E+02</rscale>
<asrwt>0</asrwt>
<pdfrwt beam="1">  1       21 0.31154726E-01 0.20865548E+02</pdfrwt>
<pdfrwt beam="2">  1       21 0.41019535E-03 0.20865548E+02</pdfrwt>
<totfact> 0.10210545E+08</totfact>
</mgrwt>
</event>
<event>
 4    1  0.4619222E+006  0.3498652E+02  0.7546771E-02  0.1548720E+00
         21   -1    0    0  503  501  0.00000000000E+00  0.00000000000E+00  0.26889478593E+03  0.26889478593E+03  0.00000000000E+00 0. -1.
         21   -1    0    0  504  502 -0.00000000000E+00 -0.00000000000E+00 -0.48286646532E+01  0.48286646532E+01  0.00000000000E+00 0. -1.
         21    1    1    2  503  502 -0.18554241271E+02  0.29661367217E+02  0.99283414706E+02  0.10526753065E+03  0.00000000000E+00 0. -1.
         21    1    1    2  504  501  0.18554241271E+02 -0.29661367217E+02  0.16478270657E+03  0.16845591993E+03  0.00000000000E+00 0. -1.
<mgrwt>
<rscale>  2 0.34986520E+02</rscale>
<asrwt>0</asrwt>
<pdfrwt beam="1">  1       21 0.41368417E-01 0.34986520E+02</pdfrwt>
<pdfrwt beam="2">  1       21 0.74287169E-03 0.34986520E+02</pdfrwt>
<totfact> 0.27888190E+07</totfact>
</mgrwt>
</event>
<event>
 4    1  0.4619222E+006  0.2012091E+02  0.7546771E-02  0.1742934E+00
         21   -1    0    0  502  501  0.00000000000E+00  0.00000000000E+00  0.14123159756E+03  0.14123159756E+03  0.00000000000E+00 0. -1.
         21   -1    0    0  504  502 -0.00000000000E+00 -0.00000000000E+00 -0.62267041462E+01  0.62267041462E+01  0.00000000000E+00 0. -1.
         21    1    1    2  503  501  0.79490202015E+01  0.18484161411E+02  0.12166361448E+03  0.12331620427E+03  0.00000000000E+00 0. -1.
         21    1    1    2  504  503 -0.79490202015E+01 -0.18484161411E+02  0.13341278925E+02  0.24142097436E+02  0.00000000000E+00 0. -1.
<mgrwt>
<rscale>  2 0.20120913E+02</rscale>
<asrwt>0</asrwt>
<pdfrwt beam="1">  1       21 0.21727936E-01 0.20120913E+02</pdfrwt>
<pdfrwt beam="2">  1       21 0.95795459E-03 0.20120913E+02</pdfrwt>
<totfact> 0.54881860E+07</totfact>
</mgrwt>
</event>
<event>
 4    1  0.4619222E+006  0.2052419E+02  0.7546771E-02  0.1735100E+00
         21   -1    0    0  504  501  0.00000000000E+00  0.00000000000E+00  0.59620142115E+03  0.59620142115E+03  0.00000000000E+00 0. -1.
         21   -1    0    0  501  502 -0.00000000000E+00 -0.00000000000E+00 -0.38959035615E+02  0.38959035615E+02  0.00000000000E+00 0. -1.
         21    1    1    2  503  502  0.30826147255E+01 -0.20291373646E+02 -0.36066112698E+02  0.41497070296E+02  0.00000000000E+00 0. -1.
         21    1    1    2  504  503 -0.30826147255E+01  0.20291373646E+02  0.59330849823E+03  0.59366338647E+03  0.00000000000E+00 0. -1.
<mgrwt>
<rscale>  2 0.20524190E+02</rscale>
<asrwt>0</asrwt>
<pdfrwt beam="1">  1       21 0.91723289E-01 0.20524190E+02</pdfrwt>
<pdfrwt beam="2">  1       21 0.59936982E-02 0.20524190E+02</pdfrwt>
<totfact> 0.20711916E+05</totfact>
</mgrwt>
</event>
<event>
 4    1  0.4619222E+006  0.2758668E+02  0.7546771E-02  0.1626407E+00
         21   -1    0    0  503  501  0.00000000000E+00  0.00000000000E+00  0.25684139775E+03  0.25684139775E+03  0.00000000000E+00 0.  1.
         21   -1    0    0  504  502 -0.00000000000E+00 -0.00000000000E+00 -0.43012307292E+01  0.43012307292E+01  0.00000000000E+00 0.  1.
         21    1    1    2  503  502  0.38401607717E+01  0.27318088136E+02  0.19910079608E+03  0.20100286509E+03  0.00000000000E+00 0.  1.
         21    1    1    2  504  501 -0.38401607717E+01 -0.27318088136E+02  0.53439370945E+02  0.60139763394E+02  0.00000000000E+00 0.  1.
<mgrwt>
<rscale>  2 0.27586677E+02</rscale>
<asrwt>0</asrwt>
<pdfrwt beam="1">  1       21 0.39514049E-01 0.27586677E+02</pdfrwt>
<pdfrwt beam="2">  1       21 0.66172801E-03 0.27586677E+02</pdfrwt>
<totfact> 0.34642266E+07</totfact>
</mgrwt>
</event>
<event>
 4    1  0.4619222E+006  0.2097836E+02  0.7546771E-02  0.1726544E+00
         21   -1    0    0  504  501  0.00000000000E+00  0.00000000000E+00  0.34895352509E+02  0.34895352509E+02  0.00000000000E+00 0.  1.
         21   -1    0    0  503  502 -0.00000000000E+00 -0.00000000000E+00 -0.20894492650E+02  0.20894492650E+02  0.00000000000E+00 0. -1.
         21    1    1    2  503  501  0.69865060946E+01 -0.19780811925E+02  0.24563324099E+02  0.32302456232E+02  0.00000000000E+00 0.  1.
         21    1    1    2  504  502 -0.69865060946E+01  0.19780811925E+02 -0.10562464240E+02  0.23487388928E+02  0.00000000000E+00 0. -1.
<mgrwt>
<rscale>  2 0.20978365E+02</rscale>
<asrwt>0</asrwt>
<pdfrwt beam="1">  1       21 0.53685158E-02 0.20978365E+02</pdfrwt>
<pdfrwt beam="2">  1       21 0.32145373E-02 0.20978365E+02</pdfrwt>
<totfact> 0.89485347E+07</totfact>
</mgrwt>
</event>
<event>
 4    1  0.4619222E+006  0.2143386E+02  0.7546771E-02  0.1718231E+00
         21   -1    0    0  504  501  0.00000000000E+00  0.00000000000E+00  0.22588718030E+03  0.22588718030E+03  0.00000000000E+00 0. -1.
         21   -1    0    0  503  502 -0.00000000000E+00 -0.00000000000E+00 -0.74875769969E+01  0.74875769969E+01  0.00000000000E+00 0. -1.
         21    1    1    2  503  501  0.81089949006E+01 -0.19840729901E+02  0.20878659353E+03  0.20988390124E+03  0.00000000000E+00 0. -1.
         21    1    1    2  504  502 -0.81089949006E+01  0.19840729901E+02  0.96130097687E+01  0.23490856054E+02  0.00000000000E+00 0. -1.
<mgrwt>
<rscale>  2 0.21433860E+02</rscale>
<asrwt>0</asrwt>
<pdfrwt beam="1">  1       21 0.34751869E-01 0.21433860E+02</pdfrwt>
<pdfrwt beam="2">  1       21 0.11519351E-02 0.21433860E+02</pdfrwt>
<totfact> 0.18198802E+07</totfact>
</mgrwt>
</event>
<event>
 4    1  0.4619222E+006  0.2193607E+02  0.7546771E-02  0.1709360E+00
         21   -1    0    0  503  501  0.00000000000E+00  0.00000000000E+00  0.10335778489E+02  0.10335778489E+02  0.00000000000E+00 0. -1.
         21   -1    0    0  504  502 -0.00000000000E+00 -0.00000000000E+00 -0.19015984550E+03  0.19015984550E+03  0.00000000000E+00 0.  1.
         21    1    1    2  503  502 -0.18980055028E+01 -0.21853799214E+02 -0.27958673536E+01  0.22113521638E+02  0.00000000000E+00 0. -1.
         21    1    1    2  504  501  0.18980055028E+01  0.21853799214E+02 -0.17702819966E+03  0.17838210235E+03  0.00000000000E+00 0.  1.
<mgrwt>
<rscale>  2 0.21936065E+02</rscale>
<asrwt>0</asrwt>
<pdfrwt beam="1">  1       21 0.15901199E-02 0.21936065E+02</pdfrwt>
<pdfrwt beam="2">  1       21 0.29255359E-01 0.21936065E+02</pdfrwt>
<totfact> 0.15384415E+07</totfact>
</mgrwt>
</event>
<event>
 4    1  0.4619222E+006  0.2564807E+02  0.7546771E-02  0.1651864E+00
         21   -1    0    0  504  501  0.00000000000E+00  0.00000000000E+00  0.78073648021E+02  0.78073648021E+02  0.00000000000E+00 0. -1.
         21   -1    0    0  501  502 -0.00000000000E+00 -0.00000000000E+00 -0.28611511123E+02  0.28611511123E+02  0.00000000000E+00 0. -1.
         21    1    1    2  503  502  0.60002319680E+01 -0.24936331011E+02 -0.20073980833E+02  0.32569742008E+02  0.00000000000E+00 0. -1.
         21    1    1    2  504  503 -0.60002319680E+01  0.24936331011E+02  0.69536117732E+02  0.74115417136E+02  0.00000000000E+00 0. -1.
<mgrwt>
<rscale>  2 0.25648068E+02</rscale>
<asrwt>0</asrwt>
<pdfrwt beam="1">  1       21 0.12011330E-01 0.25648068E+02</pdfrwt>
<pdfrwt beam="2">  1       21 0.44017710E-02 0.25648068E+02</pdfrwt>
<totfact> 0.15381727E+07</totfact>
</mgrwt>
</event>
<event>
 4    1  0.4619222E+006  0.2699685E+02  0.7546771E-02  0.1633873E+00
         21   -1    0    0  502  501  0.00000000000E+00  0.00000000000E+00  0.45490390164E+01  0.45490390164E+01  0.00000000000E+00 0.  1.
         21   -1    0    0  503  502 -0.00000000000E+00 -0.00000000000E+00 -0.26157527479E+03  0.26157527479E+03  0.00000000000E+00 0.  1.
         21    1    1    2  503  504 -0.45930299933E+00  0.26992944969E+02 -0.21134306708E+03  0.21306037182E+03  0.00000000000E+00 0.  1.
         21    1    1    2  504  501  0.45930299933E+00 -0.26992944969E+02 -0.45683168701E+02  0.53063941994E+02  0.00000000000E+00 0.  1.
<mgrwt>
<rscale>  2 0.26996852E+02</rscale>
<asrwt>0</asrwt>
<pdfrwt beam="1">  1       21 0.69985229E-03 0.26996852E+02</pdfrwt>
<pdfrwt beam="2">  1       21 0.40242343E-01 0.26996852E+02</pdfrwt>
<totfact> 0.30638926E+07</totfact>
</mgrwt>
</event>
<event>
 4    1  0.4619222E+006  0.2756718E+02  0.7546771E-02  0.1626650E+00
         21   -1    0    0  503  501  0.00000000000E+00  0.00000000000E+00  0.72701744901E+02  0.72701744901E+02  0.00000000000E+00 0.  1.
         21   -1    0    0  504  502 -0.00000000000E+00 -0.00000000000E+00 -0.14186954834E+02  0.14186954834E+02  0.00000000000E+00 0.  1.
         21    1    1    2  503  502  0.18924389402E+02 -0.20045364328E+02  0.51545594962E+02  0.58454234280E+02  0.00000000000E+00 0.  1.
         21    1    1    2  504  501 -0.18924389402E+02  0.20045364328E+02  0.69691951051E+01  0.28434465455E+02  0.00000000000E+00 0.  1.
<mgrwt>
<rscale>  2 0.27567175E+02</rscale>
<asrwt>0</asrwt>
<pdfrwt beam="1">  1       21 0.11184884E-01 0.27567175E+02</pdfrwt>
<pdfrwt beam="2">  1       21 0.21826085E-02 0.27567175E+02</pdfrwt>
<totfact> 0.52905373E+07</totfact>
</mgrwt>
</event>
<event>
 4    1  0.4619222E+006  0.2848366E+02  0.7546771E-02  0.1615481E+00
         21   -1    0    0  502  501  0.00000000000E+00  0.00000000000E+00  0.58768041823E+01  0.58768041823E+01  0.00000000000E+00 0. -1.
         21   -1    0    0  503  502 -0.00000000000E+00 -0.00000000000E+00 -0.13888329467E+03  0.13888329467E+03  0.00000000000E+00 0. -1.
         21    1    1    2  503  504 -0.28460493182E+02 -0.11486253994E+01 -0.72094747606E+02  0.77517557010E+02  0.00000000000E+00 0. -1.
         21    1    1    2  504  501  0.28460493182E+02  0.11486253994E+01 -0.60911742878E+02  0.67242541839E+02  0.00000000000E+00 0. -1.
<mgrwt>
<rscale>  2 0.28483662E+02</rscale>
<asrwt>0</asrwt>
<pdfrwt beam="1">  1       21 0.90412381E-03 0.28483662E+02</pdfrwt>
<pdfrwt beam="2">  1       21 0.21366659E-01 0.28483662E+02</pdfrwt>
<totfact> 0.67236463E+07</totfact>
</mgrwt>
</event>
<event>
 4    1  0.4619222E+006  0.2206363E+02  0.7546771E-02  0.1707154E+00
         21   -1    0    0  504  501  0.00000000000E+00  0.00000000000E+00  0.34251525111E+02  0.34251525111E+02  0.00000000000E+00 0.  1.
         21   -1    0    0  503  502 -0.00000000000E+00 -0.00000000000E+00 -0.40579060836E+02  0.40579060836E+02  0.00000000000E+00 0. -1.
         21    1    1    2  503  501  0.15144607550E+02  0.16045077134E+02 -0.33323256564E+02  0.39965523468E+02  0.00000000000E+00 0. -1.
         21    1    1    2  504  502 -0.15144607550E+02 -0.16045077134E+02  0.26995720838E+02  0.34865062479E+02  0.00000000000E+00 0.  1.
<mgrwt>
<rscale>  2 0.22063627E+02</rscale>
<asrwt>0</asrwt>
<pdfrwt beam="1">  1       21 0.52694654E-02 0.22063627E+02</pdfrwt>
<pdfrwt beam="2">  1       21 0.62429324E-02 0.22063627E+02</pdfrwt>
<totfact> 0.32732691E+07</totfact>
</mgrwt>
</event>
<event>
 4    1  0.4619222E+006  0.2124176E+02  0.7546771E-02  0.1721705E+00
         21   -1    0    0  504  501  0.00000000000E+00  0.00000000000E+00  0.67665275111E+01  0.67665275111E+01  0.00000000000E+00 0. -1.
         21   -1    0    0  503  502 -0.00000000000E+00 -0.00000000000E+00 -0.67304662945E+02  0.67304662945E+02  0.00000000000E+00 0.  1.
         21    1    1    2  503  501 -0.92482820155E+01 -0.19122804460E+02 -0.26709695681E+02  0.34126532406E+02  0.00000000000E+00 0.  1.
         21    1    1    2  504  502  0.92482820155E+01  0.19122804460E+02 -0.33828439754E+02  0.39944658051E+02  0.00000000000E+00 0. -1.
<mgrwt>
<rscale>  2 0.21241760E+02</rscale>
<asrwt>0</asrwt>
<pdfrwt beam="1">  1       21 0.10410043E-02 0.21241760E+02</pdfrwt>
<pdfrwt beam="2">  1       21 0.10354563E-01 0.21241760E+02</pdfrwt>
<totfact> 0.17309570E+08</totfact>
</mgrwt>
</event>
<event>
 4    1  0.4619222E+006  0.2220994E+02  0.7546771E-02  0.1704646E+00
         21   -1    0    0  504  501  0.00000000000E+00  0.00000000000E+00  0.46748735191E+01  0.46748735191E+01  0.00000000000E+00 0. -1.
         21   -1    0    0  503  502 -0.00000000000E+00 -0.00000000000E+00 -0.10740054725E+03  0.10740054725E+03  0.00000000000E+00 0. -1.
         21    1    1    2  503  501 -0.14908178629E+01  0.22159851835E+02 -0.58782647601E+02  0.62838533005E+02  0.00000000000E+00 0. -1.
         21    1    1    2  504  502  0.14908178629E+01 -0.22159851835E+02 -0.43943026131E+02  0.49236887765E+02  0.00000000000E+00 0. -1.
<mgrwt>
<rscale>  2 0.22209943E+02</rscale>
<asrwt>0</asrwt>
<pdfrwt beam="1">  1       21 0.71921128E-03 0.22209943E+02</pdfrwt>
<pdfrwt beam="2">  1       21 0.16523162E-01 0.22209943E+02</pdfrwt>
<totfact> 0.13887236E+08</totfact>
</mgrwt>
</event>
<event>
 4    1  0.4619222E+006  0.2688588E+02  0.7546771E-02  0.1635304E+00
         21   -1    0    0  503  501  0.00000000000E+00  0.00000000000E+00  0.19402712537E+02  0.19402712537E+02  0.00000000000E+00 0. -1.
         21   -1    0    0  504  502 -0.00000000000E+00 -0.00000000000E+00 -0.51068206492E+02  0.51068206492E+02  0.00000000000E+00 0. -1.
         21    1    1    2  503  502 -0.71043980025E+01 -0.25930252280E+02 -0.34157998545E+02  0.43469751769E+02  0.00000000000E+00 0. -1.
         21    1    1    2  504  501  0.71043980025E+01  0.25930252280E+02  0.24925045893E+01  0.27001167260E+02  0.00000000000E+00 0. -1.
<mgrwt>
<rscale>  2 0.26885878E+02</rscale>
<asrwt>0</asrwt>
<pdfrwt beam="1">  1       21 0.29850327E-02 0.26885878E+02</pdfrwt>
<pdfrwt beam="2">  1       21 0.78566472E-02 0.26885878E+02</pdfrwt>
<totfact> 0.58023388E+07</totfact>
</mgrwt>
</event>
<event>
 4    1  0.4619222E+006  0.2037764E+02  0.7546771E-02  0.1737921E+00
         21   -1    0    0  503  501  0.00000000000E+00  0.00000000000E+00  0.40646317779E+03  0.40646317779E+03  0.00000000000E+00 0. -1.
         21   -1    0    0  504  502 -0.00000000000E+00 -0.00000000000E+00 -0.10221158389E+01  0.10221158389E+01  0.00000000000E+00 0. -1.
         21    1    1    2  503  502  0.19553019680E+02 -0.57382431642E+01  0.20724016105E+03  0.20823960326E+03  0.00000000000E+00 0. -1.
         21    1    1    2  504  501 -0.19553019680E+02  0.57382431642E+01  0.19820090090E+03  0.19924569037E+03  0.00000000000E+00 0. -1.
<mgrwt>
<rscale>  2 0.20377635E+02</rscale>
<asrwt>0</asrwt>
<pdfrwt beam="1">  1       21 0.62532667E-01 0.20377635E+02</pdfrwt>
<pdfrwt beam="2">  1       21 0.15724892E-03 0.20377635E+02</pdfrwt>
<totfact> 0.10777220E+08</totfact>
</mgrwt>
</event>
<event>
 4    1  0.4619222E+006  0.2098620E+02  0.7546771E-02  0.1726399E+00
         21   -1    0    0  504  501  0.00000000000E+00  0.00000000000E+00  0.29553963528E+02  0.29553963528E+02  0.00000000000E+00 0. -1.
         21   -1    0    0  503  502 -0.00000000000E+00 -0.00000000000E+00 -0.11111767825E+03  0.11111767825E+03  0.00000000000E+00 0.  1.
         21    1    1    2  503  501 -0.15118907978E+02 -0.14554692119E+02  0.24667795646E+02  0.32387043446E+02  0.00000000000E+00 0. -1.
         21    1    1    2  504  502  0.15118907978E+02  0.14554692119E+02 -0.10623151037E+03  0.10828459833E+03  0.00000000000E+00 0.  1.
<mgrwt>
<rscale>  2 0.20986196E+02</rscale>
<asrwt>0</asrwt>
<pdfrwt beam="1">  1       21 0.45467637E-02 0.20986196E+02</pdfrwt>
<pdfrwt beam="2">  1       21 0.17095027E-01 0.20986196E+02</pdfrwt>
<totfact> 0.77208405E+06</totfact>
</mgrwt>
</event>
<event>
 4    1  0.4619222E+006  0.2264941E+02  0.7546771E-02  0.1697257E+00
         21   -1    0    0  502  501  0.00000000000E+00  0.00000000000E+00  0.17197606661E+03  0.17197606661E+03  0.00000000000E+00 0.  1.
         21   -1    0    0  503  502 -0.00000000000E+00 -0.00000000000E+00 -0.99761635499E+02  0.99761635499E+02  0.00000000000E+00 0.  1.
         21    1    1    2  503  504 -0.51016159917E+01 -0.22067375591E+02 -0.97714929867E+02  0.10030554855E+03  0.00000000000E+00 0.  1.
         21    1    1    2  504  501  0.51016159917E+01  0.22067375591E+02  0.16992936098E+03  0.17143215356E+03  0.00000000000E+00 0.  1.
<mgrwt>
<rscale>  2 0.22649405E+02</rscale>
<asrwt>0</asrwt>
<pdfrwt beam="1">  1       21 0.26457856E-01 0.22649405E+02</pdfrwt>
<pdfrwt beam="2">  1       21 0.15347944E-01 0.22649405E+02</pdfrwt>
<totfact> 0.49616476E+05</totfact>
</mgrwt>
</event>
<event>
 4    1  0.4619222E+006  0.2033665E+02  0.7546771E-02  0.1738715E+00
         21   -1    0    0  503  501  0.00000000000E+00  0.00000000000E+00  0.11382971074E+03  0.11382971074E+03  0.00000000000E+00 0. -1.
         21   -1    0    0  504  502 -0.00000000000E+00 -0.00000000000E+00 -0.70767947173E+01  0.70767947173E+01  0.00000000000E+00 0. -1.
         21    1    1    2  503  502  0.18155941579E+02  0.91619473568E+01  0.95546105798E+02  0.97686426013E+02  0.00000000000E+00 0. -1.
         21    1    1    2  504  501 -0.18155941579E+02 -0.91619473568E+01  0.11206810224E+02  0.23220079444E+02  0.00000000000E+00 0. -1.
<mgrwt>
<rscale>  2 0.20336654E+02</rscale>
<asrwt>0</asrwt>
<pdfrwt beam="1">  1       21 0.17512262E-01 0.20336654E+02</pdfrwt>
<pdfrwt beam="2">  1       21 0.10887377E-02 0.20336654E+02</pdfrwt>
<totfact> 0.66030744E+07</totfact>
</mgrwt>
</event>
<event>
 4    1  0.4619222E+006  0.2451449E+02  0.7546771E-02  0.1668075E+00
         21   -1    0    0  502  501  0.00000000000E+00  0.00000000000E+00  0.81189847415E+01  0.81189847415E+01  0.00000000000E+00 0.  1.
         21   -1    0    0  504  502 -0.00000000000E+00 -0.00000000000E+00 -0.88515405474E+02  0.88515405474E+02  0.00000000000E+00 0.  1.
         21    1    1    2  503  501  0.22680415231E+02  0.93036988757E+01 -0.20644879154E+02  0.32049509873E+02  0.00000000000E+00 0.  1.
         21    1    1    2  504  503 -0.22680415231E+02 -0.93036988757E+01 -0.59751541579E+02  0.64584880343E+02  0.00000000000E+00 0.  1.
<mgrwt>
<rscale>  2 0.24514486E+02</rscale>
<asrwt>0</asrwt>
<pdfrwt beam="1">  1       21 0.12490745E-02 0.24514486E+02</pdfrwt>
<pdfrwt beam="2">  1       21 0.13617755E-01 0.24514486E+02</pdfrwt>
<totfact> 0.86711845E+07</totfact>
</mgrwt>
</event>
<event>
 4    1  0.4619222E+006  0.2085047E+02  0.7546771E-02  0.1728926E+00
         21   -1    0    0  502  501  0.00000000000E+00  0.00000000000E+00  0.43037535077E+02  0.43037535077E+02  0.00000000000E+00 0.  1.
         21   -1    0    0  503  502 -0.00000000000E+00 -0.00000000000E+00 -0.48691996363E+02  0.48691996363E+02  0.00000000000E+00 0.  1.
         21    1    1    2  503  504 -0.11815596478E+02  0.17179460640E+02 -0.43658300912E+02  0.48381705494E+02  0.00000000000E+00 0.  1.
         21    1    1    2  504  501  0.11815596478E+02 -0.17179460640E+02  0.38003839626E+02  0.43347825947E+02  0.00000000000E+00 0.  1.
<mgrwt>
<rscale>  2 0.20850472E+02</rscale>
<asrwt>0</asrwt>
<pdfrwt beam="1">  1       21 0.66211592E-02 0.20850472E+02</pdfrwt>
<pdfrwt beam="2">  1       21 0.74910764E-02 0.20850472E+02</pdfrwt>
<totfact> 0.16705665E+07</totfact>
</mgrwt>
</event>
<event>
 4    1  0.4619222E+006  0.2459752E+02  0.7546771E-02  0.1666851E+00
         21   -1    0    0  502  501  0.00000000000E+00  0.00000000000E+00  0.11120596661E+02  0.11120596661E+02  0.00000000000E+00 0. -1.
         21   -1    0    0  503  502 -0.00000000000E+00 -0.00000000000E+00 -0.73165871578E+02  0.73165871578E+02  0.00000000000E+00 0. -1.
         21    1    1    2  503  504 -0.24594828572E+02  0.36396239552E+00 -0.52361791182E+02  0.57851492953E+02  0.00000000000E+00 0. -1.
         21    1    1    2  504  501  0.24594828572E+02 -0.36396239552E+00 -0.96834837347E+01  0.26434975286E+02  0.00000000000E+00 0. -1.
<mgrwt>
<rscale>  2 0.24597521E+02</rscale>
<asrwt>0</asrwt>
<pdfrwt beam="1">  1       21 0.17108611E-02 0.24597521E+02</pdfrwt>
<pdfrwt beam="2">  1       21 0.11256287E-01 0.24597521E+02</pdfrwt>
<totfact> 0.74068934E+07</totfact>
</mgrwt>
</event>
<event>
 4    1  0.4619222E+006  0.2071987E+02  0.7546771E-02  0.1731380E+00
         21   -1    0    0  503  501  0.00000000000E+00  0.00000000000E+00  0.78457076806E+01  0.78457076806E+01  0.00000000000E+00 0.  1.
         21   -1    0    0  504  502 -0.00000000000E+00 -0.00000000000E+00 -0.80711481189E+02  0.80711481189E+02  0.00000000000E+00 0.  1.
         21    1    1    2  503  502 -0.18998207930E+01  0.20632584100E+02 -0.11305562828E+02  0.23603571691E+02  0.00000000000E+00 0.  1.
         21    1    1    2  504  501  0.18998207930E+01 -0.20632584100E+02 -0.61560210680E+02  0.64953617179E+02  0.00000000000E+00 0.  1.
<mgrwt>
<rscale>  2 0.20719866E+02</rscale>
<asrwt>0</asrwt>
<pdfrwt beam="1">  1       21 0.12070319E-02 0.20719866E+02</pdfrwt>
<pdfrwt beam="2">  1       21 0.12417151E-01 0.20719866E+02</pdfrwt>
<totfact> 0.10173238E+08</totfact>
</mgrwt>
</event>
<event>
 4    1  0.4619222E+006  0.2806201E+02  0.7546771E-02  0.1620554E+00
         21   -1    0    0  504  501  0.00000000000E+00  0.00000000000E+00  0.57100127734E+01  0.57100127734E+01  0.00000000000E+00 0. -1.
         21   -1    0    0  503  502 -0.00000000000E+00 -0.00000000000E+00 -0.14580910563E+03  0.14580910563E+03  0.00000000000E+00 0. -1.
         21    1    1    2  503  501 -0.15947884717E+02 -0.23089859312E+02 -0.52417941002E+02  0.59456851320E+02  0.00000000000E+00 0. -1.
         21    1    1    2  504  502  0.15947884717E+02  0.23089859312E+02 -0.87681151856E+02  0.92062267085E+02  0.00000000000E+00 0. -1.
<mgrwt>
<rscale>  2 0.28062014E+02</rscale>
<asrwt>0</asrwt>
<pdfrwt beam="1">  1       21 0.87846354E-03 0.28062014E+02</pdfrwt>
<pdfrwt beam="2">  1       21 0.22432169E-01 0.28062014E+02</pdfrwt>
<totfact> 0.64184105E+07</totfact>
</mgrwt>
</event>
<event>
 4    1  0.4619222E+006  0.4568201E+02  0.7546771E-02  0.1470128E+00
         21   -1    0    0  503  501  0.00000000000E+00  0.00000000000E+00  0.55779033673E+03  0.55779033673E+03  0.00000000000E+00 0. -1.
         21   -1    0    0  504  502 -0.00000000000E+00 -0.00000000000E+00 -0.50081201491E+01  0.50081201491E+01  0.00000000000E+00 0. -1.
         21    1    1    2  503  502 -0.38215345521E+02  0.25028659881E+02  0.41792077414E+03  0.42041006162E+03  0.00000000000E+00 0. -1.
         21    1    1    2  504  501  0.38215345521E+02 -0.25028659881E+02  0.13486144243E+03  0.14238839526E+03  0.00000000000E+00 0. -1.
<mgrwt>
<rscale>  2 0.45682014E+02</rscale>
<asrwt>0</asrwt>
<pdfrwt beam="1">  1       21 0.85813849E-01 0.45682014E+02</pdfrwt>
<pdfrwt beam="2">  1       21 0.77048047E-03 0.45682014E+02</pdfrwt>
<totfact> 0.61389801E+06</totfact>
</mgrwt>
</event>
<event>
 4    1  0.4619222E+006  0.2422421E+02  0.7546771E-02  0.1672401E+00
         21   -1    0    0  504  501  0.00000000000E+00  0.00000000000E+00  0.41096957736E+03  0.41096957736E+03  0.00000000000E+00 0.  1.
         21   -1    0    0  503  502 -0.00000000000E+00 -0.00000000000E+00 -0.15031499119E+01  0.15031499119E+01  0.00000000000E+00 0.  1.
         21    1    1    2  503  501  0.95311811344E+01  0.22270359865E+02  0.25088570398E+03  0.25205247232E+03  0.00000000000E+00 0.  1.
         21    1    1    2  504  502 -0.95311811344E+01 -0.22270359865E+02  0.15858072347E+03  0.16042025495E+03  0.00000000000E+00 0.  1.
<mgrwt>
<rscale>  2 0.24224210E+02</rscale>
<asrwt>0</asrwt>
<pdfrwt beam="1">  1       21 0.63225999E-01 0.24224210E+02</pdfrwt>
<pdfrwt beam="2">  1       21 0.23125416E-03 0.24224210E+02</pdfrwt>
<totfact> 0.63158932E+07</totfact>
</mgrwt>
</event>
<event>
 4    1  0.4619222E+006  0.2287894E+02  0.7546771E-02  0.1693480E+00
         21   -1    0    0  504  501  0.00000000000E+00  0.00000000000E+00  0.41266407741E+03  0.41266407741E+03  0.00000000000E+00 0.  1.
         21   -1    0    0  503  502 -0.00000000000E+00 -0.00000000000E+00 -0.28064879231E+01  0.28064879231E+01  0.00000000000E+00 0.  1.
         21    1    1    2  503  501  0.18387864508E+02 -0.13613684360E+02  0.51144692779E+02  0.56028792264E+02  0.00000000000E+00 0.  1.
         21    1    1    2  504  502 -0.18387864508E+02  0.13613684360E+02  0.35871289671E+03  0.35944177307E+03  0.00000000000E+00 0.  1.
<mgrwt>
<rscale>  2 0.22878941E+02</rscale>
<asrwt>0</asrwt>
<pdfrwt beam="1">  1       21 0.63486733E-01 0.22878941E+02</pdfrwt>
<pdfrwt beam="2">  1       21 0.43176770E-03 0.22878941E+02</pdfrwt>
<totfact> 0.24856573E+07</totfact>
</mgrwt>
</event>
<event>
 4    1  0.4619222E+006  0.2320531E+02  0.7546771E-02  0.1688204E+00
         21   -1    0    0  504  501  0.00000000000E+00  0.00000000000E+00  0.23349074017E+02  0.23349074017E+02  0.00000000000E+00 0. -1.
         21   -1    0    0  503  502 -0.00000000000E+00 -0.00000000000E+00 -0.27976346910E+02  0.27976346910E+02  0.00000000000E+00 0.  1.
         21    1    1    2  503  501 -0.39275868042E+01 -0.22870514627E+02  0.84416242246E+01  0.24693063742E+02  0.00000000000E+00 0. -1.
         21    1    1    2  504  502  0.39275868042E+01  0.22870514627E+02 -0.13068897118E+02  0.26632357186E+02  0.00000000000E+00 0.  1.
<mgrwt>
<rscale>  2 0.23205309E+02</rscale>
<asrwt>0</asrwt>
<pdfrwt beam="1">  1       21 0.35921652E-02 0.23205309E+02</pdfrwt>
<pdfrwt beam="2">  1       21 0.43040534E-02 0.23205309E+02</pdfrwt>
<totfact> 0.10999573E+08</totfact>
</mgrwt>
</event>
<event>
 4    1  0.4619222E+006  0.5155873E+02  0.7546771E-02  0.1437111E+00
         21   -1    0    0  504  501  0.00000000000E+00  0.00000000000E+00  0.53334285204E+02  0.53334285204E+02  0.00000000000E+00 0. -1.
         21   -1    0    0  501  502 -0.00000000000E+00 -0.00000000000E+00 -0.88934326640E+02  0.88934326640E+02  0.00000000000E+00 0.  1.
         21    1    1    2  503  502  0.17365709285E+02 -0.48546208335E+02 -0.64961629349E+02  0.82935610508E+02  0.00000000000E+00 0.  1.
         21    1    1    2  504  503 -0.17365709285E+02  0.48546208335E+02  0.29361587913E+02  0.59333001335E+02  0.00000000000E+00 0. -1.
<mgrwt>
<rscale>  2 0.51558726E+02</rscale>
<asrwt>0</asrwt>
<pdfrwt beam="1">  1       21 0.82052747E-02 0.51558726E+02</pdfrwt>
<pdfrwt beam="2">  1       21 0.13682204E-01 0.51558726E+02</pdfrwt>
<totfact> 0.49096813E+06</totfact>
</mgrwt>
</event>
<event>
 4    1  0.4619222E+006  0.2062259E+02  0.7546771E-02  0.1733223E+00
         21   -1    0    0  502  501  0.00000000000E+00  0.00000000000E+00  0.29886858985E+01  0.29886858985E+01  0.00000000000E+00 0.  1.
         21   -1    0    0  504  502 -0.00000000000E+00 -0.00000000000E+00 -0.70370609440E+03  0.70370609440E+03  0.00000000000E+00 0. -1.
         21    1    1    2  503  501  0.20619404041E+02 -0.36253133960E+00 -0.34753154342E+02  0.40411297786E+02  0.00000000000E+00 0.  1.
         21    1    1    2  504  503 -0.20619404041E+02  0.36253133960E+00 -0.66596425416E+03  0.66628348252E+03  0.00000000000E+00 0. -1.
<mgrwt>
<rscale>  2 0.20622591E+02</rscale>
<asrwt>0</asrwt>
<pdfrwt beam="1">  1       21 0.45979825E-03 0.20622591E+02</pdfrwt>
<pdfrwt beam="2">  1       21 0.10826238E+00 0.20622591E+02</pdfrwt>
<totfact> 0.72160960E+06</totfact>
</mgrwt>
</event>
<event>
 4    1  0.4619222E+006  0.2451038E+02  0.7546771E-02  0.1668136E+00
         21   -1    0    0  504  501  0.00000000000E+00  0.00000000000E+00  0.11055928614E+03  0.11055928614E+03  0.00000000000E+00 0. -1.
         21   -1    0    0  503  502 -0.00000000000E+00 -0.00000000000E+00 -0.69587217997E+02  0.69587217997E+02  0.00000000000E+00 0.  1.
         21    1    1    2  503  501 -0.23535578561E+02  0.68436180725E+01 -0.65998999715E+02  0.70403313344E+02  0.00000000000E+00 0.  1.
         21    1    1    2  504  502  0.23535578561E+02 -0.68436180725E+01  0.10697106786E+03  0.10974319080E+03  0.00000000000E+00 0. -1.
<mgrwt>
<rscale>  2 0.24510377E+02</rscale>
<asrwt>0</asrwt>
<pdfrwt beam="1">  1       21 0.17009121E-01 0.24510377E+02</pdfrwt>
<pdfrwt beam="2">  1       21 0.10705726E-01 0.24510377E+02</pdfrwt>
<totfact> 0.19933571E+06</totfact>
</mgrwt>
</event>
<event>
 4    1  0.4619222E+006  0.3606435E+02  0.7546771E-02  0.1539347E+00
         21   -1    0    0  504  501  0.00000000000E+00  0.00000000000E+00  0.89079851495E+02  0.89079851495E+02  0.00000000000E+00 0.  1.
         21   -1    0    0  501  502 -0.00000000000E+00 -0.00000000000E+00 -0.52421215626E+02  0.52421215626E+02  0.00000000000E+00 0. -1.
         21    1    1    2  503  502  0.35049922441E+02  0.84935577573E+01 -0.41765813929E+02  0.55181707110E+02  0.00000000000E+00 0. -1.
         21    1    1    2  504  503 -0.35049922441E+02 -0.84935577573E+01  0.78424449798E+02  0.86319360011E+02  0.00000000000E+00 0.  1.
<mgrwt>
<rscale>  2 0.36064353E+02</rscale>
<asrwt>0</asrwt>
<pdfrwt beam="1">  1       21 0.13704593E-01 0.36064353E+02</pdfrwt>
<pdfrwt beam="2">  1       21 0.80648024E-02 0.36064353E+02</pdfrwt>
<totfact> 0.48508108E+06</totfact>
</mgrwt>
</event>
<event>
 4    1  0.4619222E+006  0.2286879E+02  0.7546771E-02  0.1693646E+00
         21   -1    0    0  504  501  0.00000000000E+00  0.00000000000E+00  0.37843922389E+02  0.37843922389E+02  0.00000000000E+00 0. -1.
         21   -1    0    0  501  502 -0.00000000000E+00 -0.00000000000E+00 -0.39524760747E+02  0.39524760747E+02  0.00000000000E+00 0. -1.
         21    1    1    2  503  502 -0.92880534922E+01  0.20897698053E+02 -0.32037367887E+02  0.39362096778E+02  0.00000000000E+00 0. -1.
         21    1    1    2  504  503  0.92880534922E+01 -0.20897698053E+02  0.30356529529E+02  0.38006586358E+02  0.00000000000E+00 0. -1.
<mgrwt>
<rscale>  2 0.22868794E+02</rscale>
<asrwt>0</asrwt>
<pdfrwt beam="1">  1       21 0.58221419E-02 0.22868794E+02</pdfrwt>
<pdfrwt beam="2">  1       21 0.60807324E-02 0.22868794E+02</pdfrwt>
<totfact> 0.29370308E+07</totfact>
</mgrwt>
</event>
<event>
 4    1  0.4619222E+006  0.5385280E+02  0.7546771E-02  0.1425603E+00
         21   -1    0    0  504  501  0.00000000000E+00  0.00000000000E+00  0.24901842737E+03  0.24901842737E+03  0.00000000000E+00 0.  1.
         21   -1    0    0  503  502 -0.00000000000E+00 -0.00000000000E+00 -0.22593692827E+02  0.22593692827E+02  0.00000000000E+00 0. -1.
         21    1    1    2  503  501 -0.35601033379E+02  0.40406560049E+02  0.20774515285E+03  0.21461167770E+03  0.00000000000E+00 0.  1.
         21    1    1    2  504  502  0.35601033379E+02 -0.40406560049E+02  0.18679581693E+02  0.57000442497E+02  0.00000000000E+00 0. -1.
<mgrwt>
<rscale>  2 0.53852796E+02</rscale>
<asrwt>0</asrwt>
<pdfrwt beam="1">  1       21 0.38310525E-01 0.53852796E+02</pdfrwt>
<pdfrwt beam="2">  1       21 0.34759529E-02 0.53852796E+02</pdfrwt>
<totfact> 0.30799275E+06</totfact>
</mgrwt>
</event>
<event>
 4    1  0.4619222E+006  0.2002787E+02  0.7546771E-02  0.1744775E+00
         21   -1    0    0  503  501  0.00000000000E+00  0.00000000000E+00  0.20543241844E+03  0.20543241844E+03  0.00000000000E+00 0.  1.
         21   -1    0    0  504  502 -0.00000000000E+00 -0.00000000000E+00 -0.49019930756E+01  0.49019930756E+01  0.00000000000E+00 0. -1.
         21    1    1    2  503  502 -0.10742245874E+02 -0.16903240391E+02  0.18688800231E+02  0.27393185944E+02  0.00000000000E+00 0. -1.
         21    1    1    2  504  501  0.10742245874E+02  0.16903240391E+02  0.18184162513E+03  0.18294122557E+03  0.00000000000E+00 0.  1.
<mgrwt>
<rscale>  2 0.20027865E+02</rscale>
<asrwt>0</asrwt>
<pdfrwt beam="1">  1       21 0.31604981E-01 0.20027865E+02</pdfrwt>
<pdfrwt beam="2">  1       21 0.75415294E-03 0.20027865E+02</pdfrwt>
<totfact> 0.40130661E+07</totfact>
</mgrwt>
</event>
<event>
 4    1  0.4619222E+006  0.2090555E+02  0.7546771E-02  0.1727897E+00
         21   -1    0    0  504  501  0.00000000000E+00  0.00000000000E+00  0.41093762454E+01  0.41093762454E+01  0.00000000000E+00 0.  1.
         21   -1    0    0  503  502 -0.00000000000E+00 -0.00000000000E+00 -0.21430562725E+03  0.21430562725E+03  0.00000000000E+00 0. -1.
         21    1    1    2  503  501 -0.92179256903E+00 -0.20885218778E+02 -0.18260736591E+03  0.18380014187E+03  0.00000000000E+00 0. -1.
         21    1    1    2  504  502  0.92179256903E+00  0.20885218778E+02 -0.27588885093E+02  0.34614861629E+02  0.00000000000E+00 0.  1.
<mgrwt>
<rscale>  2 0.20905551E+02</rscale>
<asrwt>0</asrwt>
<pdfrwt beam="1">  1       21 0.63221161E-03 0.20905551E+02</pdfrwt>
<pdfrwt beam="2">  1       21 0.32970103E-01 0.20905551E+02</pdfrwt>
<totfact> 0.48762107E+07</totfact>
</mgrwt>
</event>
<event>
 4    1  0.4619222E+006  0.2280736E+02  0.7546771E-02  0.1694652E+00
         21   -1    0    0  502  501  0.00000000000E+00  0.00000000000E+00  0.99908780440E+01  0.99908780440E+01  0.00000000000E+00 0.  1.
         21   -1    0    0  503  502 -0.00000000000E+00 -0.00000000000E+00 -0.83694786643E+02  0.83694786643E+02  0.00000000000E+00 0. -1.
         21    1    1    2  503  504  0.43281181330E+00  0.22803248118E+02 -0.65648593814E+02  0.69497577803E+02  0.00000000000E+00 0. -1.
         21    1    1    2  504  501 -0.43281181330E+00 -0.22803248118E+02 -0.80553147853E+01  0.24188086884E+02  0.00000000000E+00 0.  1.
<mgrwt>
<rscale>  2 0.22807355E+02</rscale>
<asrwt>0</asrwt>
<pdfrwt beam="1">  1       21 0.15370582E-02 0.22807355E+02</pdfrwt>
<pdfrwt beam="2">  1       21 0.12876121E-01 0.22807355E+02</pdfrwt>
<totfact> 0.68220615E+07</totfact>
</mgrwt>
</event>
<event>
 4    1  0.4619222E+006  0.2482911E+02  0.7546771E-02  0.1663469E+00
         21   -1    0    0  503  501  0.00000000000E+00  0.00000000000E+00  0.10731277014E+03  0.10731277014E+03  0.00000000000E+00 0. -1.
         21   -1    0    0  501  502 -0.00000000000E+00 -0.00000000000E+00 -0.61469797435E+01  0.61469797435E+01  0.00000000000E+00 0. -1.
         21    1    1    2  503  504 -0.10926006629E+02 -0.22295903551E+02  0.65094603178E+02  0.69669163185E+02  0.00000000000E+00 0. -1.
         21    1    1    2  504  502  0.10926006629E+02  0.22295903551E+02  0.36071187216E+02  0.43790586696E+02  0.00000000000E+00 0. -1.
<mgrwt>
<rscale>  2 0.24829115E+02</rscale>
<asrwt>0</asrwt>
<pdfrwt beam="1">  1       21 0.16509656E-01 0.24829115E+02</pdfrwt>
<pdfrwt beam="2">  1       21 0.94568927E-03 0.24829115E+02</pdfrwt>
<totfact> 0.95291403E+07</totfact>
</mgrwt>
</event>
<event>
 4    1  0.4619222E+006  0.2058176E+02  0.7546771E-02  0.1734000E+00
         21   -1    0    0  504  501  0.00000000000E+00  0.00000000000E+00  0.64987252910E+02  0.64987252910E+02  0.00000000000E+00 0.  1.
         21   -1    0    0  503  502 -0.00000000000E+00 -0.00000000000E+00 -0.65591970166E+01  0.65591970166E+01  0.00000000000E+00 0. -1.
         21    1    1    2  503  501  0.48259924748E+01 -0.20007966246E+02  0.32037436496E+02  0.38078947647E+02  0.00000000000E+00 0.  1.
         21    1    1    2  504  502 -0.48259924748E+01  0.20007966246E+02  0.26390619398E+02  0.33467502280E+02  0.00000000000E+00 0. -1.
<mgrwt>
<rscale>  2 0.20581762E+02</rscale>
<asrwt>0</asrwt>
<pdfrwt beam="1">  1       21 0.99980385E-02 0.20581762E+02</pdfrwt>
<pdfrwt beam="2">  1       21 0.10091073E-02 0.20581762E+02</pdfrwt>
<totfact> 0.19025707E+08</totfact>
</mgrwt>
</event>
<event>
 4    1  0.4619222E+006  0.4490300E+02  0.7546771E-02  0.1474948E+00
         21   -1    0    0  504  501  0.00000000000E+00  0.00000000000E+00  0.21490639463E+03  0.21490639463E+03  0.00000000000E+00 0.  1.
         21   -1    0    0  503  502 -0.00000000000E+00 -0.00000000000E+00 -0.15702843680E+02  0.15702843680E+02  0.00000000000E+00 0.  1.
         21    1    1    2  503  501 -0.93300007490E+01  0.43923007817E+02  0.17275620758E+03  0.17849646155E+03  0.00000000000E+00 0.  1.
         21    1    1    2  504  502  0.93300007490E+01 -0.43923007817E+02  0.26447343366E+02  0.52112776752E+02  0.00000000000E+00 0.  1.
<mgrwt>
<rscale>  2 0.44903001E+02</rscale>
<asrwt>0</asrwt>
<pdfrwt beam="1">  1       21 0.33062520E-01 0.44903001E+02</pdfrwt>
<pdfrwt beam="2">  1       21 0.24158223E-02 0.44903001E+02</pdfrwt>
<totfact> 0.71743268E+06</totfact>
</mgrwt>
</event>
<event>
 4    1  0.4619222E+006  0.2247293E+02  0.7546771E-02  0.1700199E+00
         21   -1    0    0  502  501  0.00000000000E+00  0.00000000000E+00  0.42269595813E+02  0.42269595813E+02  0.00000000000E+00 0. -1.
         21   -1    0    0  504  502 -0.00000000000E+00 -0.00000000000E+00 -0.20306365005E+02  0.20306365005E+02  0.00000000000E+00 0. -1.
         21    1    1    2  503  501  0.24977676273E+01 -0.22333690464E+02  0.31055198702E+02  0.38333509353E+02  0.00000000000E+00 0. -1.
         21    1    1    2  504  503 -0.24977676273E+01  0.22333690464E+02 -0.90919678946E+01  0.24242451465E+02  0.00000000000E+00 0. -1.
<mgrwt>
<rscale>  2 0.22472930E+02</rscale>
<asrwt>0</asrwt>
<pdfrwt beam="1">  1       21 0.65030147E-02 0.22472930E+02</pdfrwt>
<pdfrwt beam="2">  1       21 0.31240562E-02 0.22472930E+02</pdfrwt>
<totfact> 0.70173141E+07</totfact>
</mgrwt>
</event>
<event>
 4    1  0.4619222E+006  0.2629044E+02  0.7546771E-02  0.1643130E+00
         21   -1    0    0  503  501  0.00000000000E+00  0.00000000000E+00  0.12488281211E+04  0.12488281211E+04  0.00000000000E+00 0. -1.
         21   -1    0    0  504  502 -0.00000000000E+00 -0.00000000000E+00 -0.55473554182E+00  0.55473554182E+00  0.00000000000E+00 0. -1.
         21    1    1    2  503  502 -0.15898757022E+01  0.26242319743E+02  0.65399153805E+03  0.65451976204E+03  0.00000000000E+00 0. -1.
         21    1    1    2  504  501  0.15898757022E+01 -0.26242319743E+02  0.59428184748E+03  0.59486309458E+03  0.00000000000E+00 0. -1.
<mgrwt>
<rscale>  2 0.26290436E+02</rscale>
<asrwt>0</asrwt>
<pdfrwt beam="1">  1       21 0.19212515E+00 0.26290436E+02</pdfrwt>
<pdfrwt beam="2">  1       21 0.85344929E-04 0.26290436E+02</pdfrwt>
<totfact> 0.21991611E+07</totfact>
</mgrwt>
</event>
<event>
 4    1  0.4619222E+006  0.2840223E+02  0.7546771E-02  0.1616452E+00
         21   -1    0    0  503  501  0.00000000000E+00  0.00000000000E+00  0.14522598357E+02  0.14522598357E+02  0.00000000000E+00 0. -1.
         21   -1    0    0  501  502 -0.00000000000E+00 -0.00000000000E+00 -0.16755081681E+03  0.16755081681E+03  0.00000000000E+00 0. -1.
         21    1    1    2  503  504  0.25985537218E+02  0.11464673137E+02 -0.20821132064E+01  0.28478449221E+02  0.00000000000E+00 0. -1.
         21    1    1    2  504  502 -0.25985537218E+02 -0.11464673137E+02 -0.15094610525E+03  0.15359496595E+03  0.00000000000E+00 0. -1.
<mgrwt>
<rscale>  2 0.28402234E+02</rscale>
<asrwt>0</asrwt>
<pdfrwt beam="1">  1       21 0.22342461E-02 0.28402234E+02</pdfrwt>
<pdfrwt beam="2">  1       21 0.25777047E-01 0.28402234E+02</pdfrwt>
<totfact> 0.12044229E+07</totfact>
</mgrwt>
</event>
<event>
 4    1  0.4619222E+006  0.2686355E+02  0.7546771E-02  0.1635593E+00
         21   -1    0    0  503  501  0.00000000000E+00  0.00000000000E+00  0.14923691626E+03  0.14923691626E+03  0.00000000000E+00 0. -1.
         21   -1    0    0  501  502 -0.00000000000E+00 -0.00000000000E+00 -0.65623907145E+02  0.65623907145E+02  0.00000000000E+00 0.  1.
         21    1    1    2  503  504 -0.23656725392E+02  0.12728302748E+02  0.14520309433E+03  0.14766715597E+03  0.00000000000E+00 0. -1.
         21    1    1    2  504  502  0.23656725392E+02 -0.12728302748E+02 -0.61590085217E+02  0.67193667440E+02  0.00000000000E+00 0.  1.
<mgrwt>
<rscale>  2 0.26863551E+02</rscale>
<asrwt>0</asrwt>
<pdfrwt beam="1">  1       21 0.22959525E-01 0.26863551E+02</pdfrwt>
<pdfrwt beam="2">  1       21 0.10095986E-01 0.26863551E+02</pdfrwt>
<totfact> 0.13119899E+06</totfact>
</mgrwt>
</event>
<event>
 4    1  0.4619222E+006  0.2071354E+02  0.7546771E-02  0.1731500E+00
         21   -1    0    0  503  501  0.00000000000E+00  0.00000000000E+00  0.43884037093E+01  0.43884037093E+01  0.00000000000E+00 0. -1.
         21   -1    0    0  504  502 -0.00000000000E+00 -0.00000000000E+00 -0.10895068112E+03  0.10895068112E+03  0.00000000000E+00 0.  1.
         21    1    1    2  503  502 -0.11226618074E+02  0.17407295543E+02 -0.34126666003E+02  0.39920924638E+02  0.00000000000E+00 0. -1.
         21    1    1    2  504  501  0.11226618074E+02 -0.17407295543E+02 -0.70435611410E+02  0.73418160193E+02  0.00000000000E+00 0.  1.
<mgrwt>
<rscale>  2 0.20713544E+02</rscale>
<asrwt>0</asrwt>
<pdfrwt beam="1">  1       21 0.67513908E-03 0.20713544E+02</pdfrwt>
<pdfrwt beam="2">  1       21 0.16761642E-01 0.20713544E+02</pdfrwt>
<totfact> 0.14579131E+08</totfact>
</mgrwt>
</event>
<event>
 4    1  0.4619222E+006  0.2420036E+02  0.7546771E-02  0.1672760E+00
         21   -1    0    0  503  501  0.00000000000E+00  0.00000000000E+00  0.25835976983E+02  0.25835976983E+02  0.00000000000E+00 0. -1.
         21   -1    0    0  504  502 -0.00000000000E+00 -0.00000000000E+00 -0.10160221775E+04  0.10160221775E+04  0.00000000000E+00 0. -1.
         21    1    1    2  503  502  0.19698180745E+02  0.14058417228E+02 -0.10101782198E+04  0.10104680565E+04  0.00000000000E+00 0. -1.
         21    1    1    2  504  501 -0.19698180745E+02 -0.14058417228E+02  0.19992019260E+02  0.31390098021E+02  0.00000000000E+00 0. -1.
<mgrwt>
<rscale>  2 0.24200360E+02</rscale>
<asrwt>0</asrwt>
<pdfrwt beam="1">  1       21 0.39747656E-02 0.24200360E+02</pdfrwt>
<pdfrwt beam="2">  1       21 0.15631111E+00 0.24200360E+02</pdfrwt>
<totfact> 0.11918380E+05</totfact>
</mgrwt>
</event>
<event>
 4    1  0.4619222E+006  0.2232147E+02  0.7546771E-02  0.1702751E+00
         21   -1    0    0  504  501  0.00000000000E+00  0.00000000000E+00  0.75775873219E+01  0.75775873219E+01  0.00000000000E+00 0. -1.
         21   -1    0    0  503  502 -0.00000000000E+00 -0.00000000000E+00 -0.33021834541E+03  0.33021834541E+03  0.00000000000E+00 0. -1.
         21    1    1    2  503  501  0.92447481616E+00  0.22302315189E+02 -0.10170314857E+02  0.24529231965E+02  0.00000000000E+00 0. -1.
         21    1    1    2  504  502 -0.92447481616E+00 -0.22302315189E+02 -0.31247044323E+03  0.31326670076E+03  0.00000000000E+00 0. -1.
<mgrwt>
<rscale>  2 0.22321468E+02</rscale>
<asrwt>0</asrwt>
<pdfrwt beam="1">  1       21 0.11657827E-02 0.22321468E+02</pdfrwt>
<pdfrwt beam="2">  1       21 0.50802821E-01 0.22321468E+02</pdfrwt>
<totfact> 0.87785673E+06</totfact>
</mgrwt>
</event>
<event>
 4    1  0.4619222E+006  0.2377579E+02  0.7546771E-02  0.1679235E+00
         21   -1    0    0  504  501  0.00000000000E+00  0.00000000000E+00  0.32474173659E+02  0.32474173659E+02  0.00000000000E+00 0.  1.
         21   -1    0    0  503  502 -0.00000000000E+00 -0.00000000000E+00 -0.17802967435E+02  0.17802967435E+02  0.00000000000E+00 0.  1.
         21    1    1    2  503  501 -0.15014213481E+02 -0.18435334030E+02  0.11083189826E+02  0.26232141429E+02  0.00000000000E+00 0.  1.
         21    1    1    2  504  502  0.15014213481E+02  0.18435334030E+02  0.35880163983E+01  0.24044999665E+02  0.00000000000E+00 0.  1.
<mgrwt>
<rscale>  2 0.23775789E+02</rscale>
<asrwt>0</asrwt>
<pdfrwt beam="1">  1       21 0.49960267E-02 0.23775789E+02</pdfrwt>
<pdfrwt beam="2">  1       21 0.27389181E-02 0.23775789E+02</pdfrwt>
<totfact> 0.13352871E+08</totfact>
</mgrwt>
</event>
<event>
 4    1  0.4619222E+006  0.2050703E+02  0.7546771E-02  0.1735429E+00
         21   -1    0    0  502  501  0.00000000000E+00  0.00000000000E+00  0.17898940991E+03  0.17898940991E+03  0.00000000000E+00 0.  1.
         21   -1    0    0  504  502 -0.00000000000E+00 -0.00000000000E+00 -0.12539666627E+02  0.12539666627E+02  0.00000000000E+00 0. -1.
         21    1    1    2  503  501  0.20471533885E+02  0.12060769501E+01  0.16955294423E+03  0.17078858047E+03  0.00000000000E+00 0.  1.
         21    1    1    2  504  503 -0.20471533885E+02 -0.12060769501E+01 -0.31032009434E+01  0.20740496072E+02  0.00000000000E+00 0. -1.
<mgrwt>
<rscale>  2 0.20507031E+02</rscale>
<asrwt>0</asrwt>
<pdfrwt beam="1">  1       21 0.27536831E-01 0.20507031E+02</pdfrwt>
<pdfrwt beam="2">  1       21 0.19291796E-02 0.20507031E+02</pdfrwt>
<totfact> 0.12606897E+07</totfact>
</mgrwt>
</event>
<event>
 4    1  0.4619222E+006  0.2206392E+02  0.7546771E-02  0.1707149E+00
         21   -1    0    0  504  501  0.00000000000E+00  0.00000000000E+00  0.39184976287E+03  0.39184976287E+03  0.00000000000E+00 0. -1.
         21   -1    0    0  503  502 -0.00000000000E+00 -0.00000000000E+00 -0.17241746790E+01  0.17241746790E+01  0.00000000000E+00 0.  1.
         21    1    1    2  503  501 -0.12234215458E+02 -0.18361392040E+02  0.29909018430E+03  0.29990290943E+03  0.00000000000E+00 0. -1.
         21    1    1    2  504  502  0.12234215458E+02  0.18361392040E+02  0.91035403894E+02  0.93671028112E+02  0.00000000000E+00 0.  1.
<mgrwt>
<rscale>  2 0.22063924E+02</rscale>
<asrwt>0</asrwt>
<pdfrwt beam="1">  1       21 0.60284508E-01 0.22063924E+02</pdfrwt>
<pdfrwt beam="2">  1       21 0.26525795E-03 0.22063924E+02</pdfrwt>
<totfact> 0.55712351E+07</totfact>
</mgrwt>
</event>
<event>
 4    1  0.4619222E+006  0.2406178E+02  0.7546771E-02  0.1674855E+00
         21   -1    0    0  504  501  0.00000000000E+00  0.00000000000E+00  0.30224767526E+02  0.30224767526E+02  0.00000000000E+00 0. -1.
         21   -1    0    0  503  502 -0.00000000000E+00 -0.00000000000E+00 -0.19423436103E+02  0.19423436103E+02  0.00000000000E+00 0. -1.
         21    1    1    2  503  501 -0.30999458779E+01  0.23861259851E+02  0.24848711745E+01  0.24189749293E+02  0.00000000000E+00 0. -1.
         21    1    1    2  504  502  0.30999458779E+01 -0.23861259851E+02  0.83164602492E+01  0.25458454336E+02  0.00000000000E+00 0. -1.
<mgrwt>
<rscale>  2 0.24061783E+02</rscale>
<asrwt>0</asrwt>
<pdfrwt beam="1">  1       21 0.46499642E-02 0.24061783E+02</pdfrwt>
<pdfrwt beam="2">  1       21 0.29882209E-02 0.24061783E+02</pdfrwt>
<totfact> 0.13117389E+08</totfact>
</mgrwt>
</event>
<event>
 4    1  0.4619222E+006  0.5582703E+02  0.7546771E-02  0.1416228E+00
         21   -1    0    0  504  501  0.00000000000E+00  0.00000000000E+00  0.32558933694E+02  0.32558933694E+02  0.00000000000E+00 0. -1.
         21   -1    0    0  501  502 -0.00000000000E+00 -0.00000000000E+00 -0.12002318863E+03  0.12002318863E+03  0.00000000000E+00 0. -1.
         21    1    1    2  503  502 -0.50527372144E+02  0.23741142026E+02 -0.78059523575E+02  0.95968465557E+02  0.00000000000E+00 0. -1.
         21    1    1    2  504  503  0.50527372144E+02 -0.23741142026E+02 -0.94047313603E+01  0.56613656766E+02  0.00000000000E+00 0. -1.
<mgrwt>
<rscale>  2 0.55827029E+02</rscale>
<asrwt>0</asrwt>
<pdfrwt beam="1">  1       21 0.50090667E-02 0.55827029E+02</pdfrwt>
<pdfrwt beam="2">  1       21 0.18465106E-01 0.55827029E+02</pdfrwt>
<totfact> 0.66145468E+06</totfact>
</mgrwt>
</event>
<event>
 4    1  0.4619222E+006  0.2346040E+02  0.7546771E-02  0.1684154E+00
         21   -1    0    0  503  501  0.00000000000E+00  0.00000000000E+00  0.45790270865E+02  0.45790270865E+02  0.00000000000E+00 0.  1.
         21   -1    0    0  504  502 -0.00000000000E+00 -0.00000000000E+00 -0.16991408099E+02  0.16991408099E+02  0.00000000000E+00 0.  1.
         21    1    1    2  503  502  0.20531284686E+02 -0.11351512021E+02  0.31379370805E+02  0.39179782901E+02  0.00000000000E+00 0.  1.
         21    1    1    2  504  501 -0.20531284686E+02  0.11351512021E+02 -0.25805080389E+01  0.23601896063E+02  0.00000000000E+00 0.  1.
<mgrwt>
<rscale>  2 0.23460402E+02</rscale>
<asrwt>0</asrwt>
<pdfrwt beam="1">  1       21 0.70446570E-02 0.23460402E+02</pdfrwt>
<pdfrwt beam="2">  1       21 0.26140628E-02 0.23460402E+02</pdfrwt>
<totfact> 0.82315844E+07</totfact>
</mgrwt>
</event>
<event>
 4    1  0.4619222E+006  0.2408224E+02  0.7546771E-02  0.1674545E+00
         21   -1    0    0  503  501  0.00000000000E+00  0.00000000000E+00  0.58565885019E+02  0.58565885019E+02  0.00000000000E+00 0. -1.
         21   -1    0    0  504  502 -0.00000000000E+00 -0.00000000000E+00 -0.16643719540E+02  0.16643719540E+02  0.00000000000E+00 0.  1.
         21    1    1    2  503  502  0.23724991675E+02  0.41326818082E+01 -0.29712076375E+01  0.24264838011E+02  0.00000000000E+00 0.  1.
         21    1    1    2  504  501 -0.23724991675E+02 -0.41326818082E+01  0.44893373116E+02  0.50944766548E+02  0.00000000000E+00 0. -1.
<mgrwt>
<rscale>  2 0.24082240E+02</rscale>
<asrwt>0</asrwt>
<pdfrwt beam="1">  1       21 0.90101361E-02 0.24082240E+02</pdfrwt>
<pdfrwt beam="2">  1       21 0.25605723E-02 0.24082240E+02</pdfrwt>
<totfact> 0.57266277E+07</totfact>
</mgrwt>
</event>
<event>
 4    1  0.4619222E+006  0.2244937E+02  0.7546771E-02  0.1700594E+00
         21   -1    0    0  502  501  0.00000000000E+00  0.00000000000E+00  0.11363470436E+03  0.11363470436E+03  0.00000000000E+00 0. -1.
         21   -1    0    0  504  502 -0.00000000000E+00 -0.00000000000E+00 -0.62597846050E+02  0.62597846050E+02  0.00000000000E+00 0. -1.
         21    1    1    2  503  501  0.16644313520E+02  0.15064562115E+02  0.11045585982E+03  0.11271411258E+03  0.00000000000E+00 0. -1.
         21    1    1    2  504  503 -0.16644313520E+02 -0.15064562115E+02 -0.59419001513E+02  0.63518437836E+02  0.00000000000E+00 0. -1.
<mgrwt>
<rscale>  2 0.22449370E+02</rscale>
<asrwt>0</asrwt>
<pdfrwt beam="1">  1       21 0.17482262E-01 0.22449370E+02</pdfrwt>
<pdfrwt beam="2">  1       21 0.96304379E-02 0.22449370E+02</pdfrwt>
<totfact> 0.22402432E+06</totfact>
</mgrwt>
</event>
<event>
 4    1  0.4619222E+006  0.2426988E+02  0.7546771E-02  0.1671716E+00
         21   -1    0    0  504  501  0.00000000000E+00  0.00000000000E+00  0.94527415255E+02  0.94527415255E+02  0.00000000000E+00 0. -1.
         21   -1    0    0  503  502 -0.00000000000E+00 -0.00000000000E+00 -0.68392291408E+01  0.68392291408E+01  0.00000000000E+00 0. -1.
         21    1    1    2  503  501 -0.19478478385E+02 -0.14478115567E+02  0.58955138894E+02  0.63755277056E+02  0.00000000000E+00 0. -1.
         21    1    1    2  504  502  0.19478478385E+02  0.14478115567E+02  0.28733047220E+02  0.37611367339E+02  0.00000000000E+00 0. -1.
<mgrwt>
<rscale>  2 0.24269877E+02</rscale>
<asrwt>0</asrwt>
<pdfrwt beam="1">  1       21 0.14542678E-01 0.24269877E+02</pdfrwt>
<pdfrwt beam="2">  1       21 0.10521892E-02 0.24269877E+02</pdfrwt>
<totfact> 0.10022769E+08</totfact>
</mgrwt>
</event>
<event>
 4    1  0.4619222E+006  0.2082476E+02  0.7546771E-02  0.1729407E+00
         21   -1    0    0  502  501  0.00000000000E+00  0.00000000000E+00  0.20905620255E+02  0.20905620255E+02  0.00000000000E+00 0. -1.
         21   -1    0    0  504  502 -0.00000000000E+00 -0.00000000000E+00 -0.54939734977E+02  0.54939734977E+02  0.00000000000E+00 0.  1.
         21    1    1    2  503  501  0.19114820386E+02  0.82640401140E+01  0.12901476616E+02  0.24497322634E+02  0.00000000000E+00 0. -1.
         21    1    1    2  504  503 -0.19114820386E+02 -0.82640401140E+01 -0.46935591338E+02  0.51348032598E+02  0.00000000000E+00 0.  1.
<mgrwt>
<rscale>  2 0.20824762E+02</rscale>
<asrwt>0</asrwt>
<pdfrwt beam="1">  1       21 0.32162493E-02 0.20824762E+02</pdfrwt>
<pdfrwt beam="2">  1       21 0.84522667E-02 0.20824762E+02</pdfrwt>
<totfact> 0.42967753E+07</totfact>
</mgrwt>
</event>
<event>
 4    1  0.4619222E+006  0.2662417E+02  0.7546771E-02  0.1638713E+00
         21   -1    0    0  504  501  0.00000000000E+00  0.00000000000E+00  0.27030212855E+02  0.27030212855E+02  0.00000000000E+00 0.  1.
         21   -1    0    0  501  502 -0.00000000000E+00 -0.00000000000E+00 -0.29650087883E+02  0.29650087883E+02  0.00000000000E+00 0. -1.
         21    1    1    2  503  502 -0.26535886056E+02  0.21664016966E+01 -0.10943208287E+02  0.28785419099E+02  0.00000000000E+00 0. -1.
         21    1    1    2  504  503  0.26535886056E+02 -0.21664016966E+01  0.83233332587E+01  0.27894881639E+02  0.00000000000E+00 0.  1.
<mgrwt>
<rscale>  2 0.26624172E+02</rscale>
<asrwt>0</asrwt>
<pdfrwt beam="1">  1       21 0.41584943E-02 0.26624172E+02</pdfrwt>
<pdfrwt beam="2">  1       21 0.45615520E-02 0.26624172E+02</pdfrwt>
<totfact> 0.82637343E+07</totfact>
</mgrwt>
</event>
<event>
 4    1  0.4619222E+006  0.3163778E+02  0.7546771E-02  0.1580660E+00
         21   -1    0    0  504  501  0.00000000000E+00  0.00000000000E+00  0.38700507922E+02  0.38700507922E+02  0.00000000000E+00 0.  1.
         21   -1    0    0  501  502 -0.00000000000E+00 -0.00000000000E+00 -0.51807540037E+03  0.51807540037E+03  0.00000000000E+00 0. -1.
         21    1    1    2  503  502  0.30412782368E+02  0.87184591235E+01 -0.51103743018E+03  0.51201582388E+03  0.00000000000E+00 0. -1.
         21    1    1    2  504  503 -0.30412782368E+02 -0.87184591235E+01  0.31662537732E+02  0.44760084411E+02  0.00000000000E+00 0.  1.
<mgrwt>
<rscale>  2 0.31637776E+02</rscale>
<asrwt>0</asrwt>
<pdfrwt beam="1">  1       21 0.59539246E-02 0.31637776E+02</pdfrwt>
<pdfrwt beam="2">  1       21 0.79703904E-01 0.31637776E+02</pdfrwt>
<totfact> 0.28537009E+05</totfact>
</mgrwt>
</event>
<event>
 4    1  0.4619222E+006  0.2896640E+02  0.7546771E-02  0.1609803E+00
         21   -1    0    0  503  501  0.00000000000E+00  0.00000000000E+00  0.32351727562E+02  0.32351727562E+02  0.00000000000E+00 0.  1.
         21   -1    0    0  504  502 -0.00000000000E+00 -0.00000000000E+00 -0.35984982544E+02  0.35984982544E+02  0.00000000000E+00 0.  1.
         21    1    1    2  503  502 -0.25428841922E+02  0.13871783060E+02  0.16240106053E+02  0.33208333463E+02  0.00000000000E+00 0.  1.
         21    1    1    2  504  501  0.25428841922E+02 -0.13871783060E+02 -0.19873361034E+02  0.35128376643E+02  0.00000000000E+00 0.  1.
<mgrwt>
<rscale>  2 0.28966401E+02</rscale>
<asrwt>0</asrwt>
<pdfrwt beam="1">  1       21 0.49771889E-02 0.28966401E+02</pdfrwt>
<pdfrwt beam="2">  1       21 0.55361512E-02 0.28966401E+02</pdfrwt>
<totfact> 0.46408784E+07</totfact>
</mgrwt>
</event>
<event>
 4    1  0.4619222E+006  0.8062371E+02  0.7546771E-02  0.1327291E+00
         21   -1    0    0  504  501  0.00000000000E+00  0.00000000000E+00  0.60019651319E+02  0.60019651319E+02  0.00000000000E+00 0. -1.
         21   -1    0    0  503  502 -0.00000000000E+00 -0.00000000000E+00 -0.11068586624E+03  0.11068586624E+03  0.00000000000E+00 0.  1.
         21    1    1    2  503  501 -0.80168870718E+02  0.85519148120E+01 -0.12804253491E+02  0.81634134935E+02  0.00000000000E+00 0. -1.
         21    1    1    2  504  502  0.80168870718E+02 -0.85519148120E+01 -0.37861961433E+02  0.89071382625E+02  0.00000000000E+00 0.  1.
<mgrwt>
<rscale>  2 0.80623713E+02</rscale>
<asrwt>0</asrwt>
<pdfrwt beam="1">  1       21 0.92337925E-02 0.80623713E+02</pdfrwt>
<pdfrwt beam="2">  1       21 0.17028595E-01 0.80623713E+02</pdfrwt>
<totfact> 0.28169178E+06</totfact>
</mgrwt>
</event>
<event>
 4    1  0.4619222E+006  0.4414712E+02  0.7546771E-02  0.1479737E+00
         21   -1    0    0  504  501  0.00000000000E+00  0.00000000000E+00  0.28310965837E+03  0.28310965837E+03  0.00000000000E+00 0. -1.
         21   -1    0    0  503  502 -0.00000000000E+00 -0.00000000000E+00 -0.73704858629E+01  0.73704858629E+01  0.00000000000E+00 0. -1.
         21    1    1    2  503  501 -0.10899964100E+01  0.44133657165E+02  0.17517819185E+03  0.18065538100E+03  0.00000000000E+00 0. -1.
         21    1    1    2  504  502  0.10899964100E+01 -0.44133657165E+02  0.10056098066E+03  0.10982476323E+03  0.00000000000E+00 0. -1.
<mgrwt>
<rscale>  2 0.44147115E+02</rscale>
<asrwt>0</asrwt>
<pdfrwt beam="1">  1       21 0.43555324E-01 0.44147115E+02</pdfrwt>
<pdfrwt beam="2">  1       21 0.11339211E-02 0.44147115E+02</pdfrwt>
<totfact> 0.13710328E+07</totfact>
</mgrwt>
</event>
<event>
 4    1  0.4619222E+006  0.2441820E+02  0.7546771E-02  0.1669502E+00
         21   -1    0    0  503  501  0.00000000000E+00  0.00000000000E+00  0.10198040085E+03  0.10198040085E+03  0.00000000000E+00 0.  1.
         21   -1    0    0  504  502 -0.00000000000E+00 -0.00000000000E+00 -0.58922479691E+01  0.58922479691E+01  0.00000000000E+00 0. -1.
         21    1    1    2  503  502  0.24120069603E+02 -0.38040379361E+01  0.52786404439E+02  0.58160579054E+02  0.00000000000E+00 0. -1.
         21    1    1    2  504  501 -0.24120069603E+02  0.38040379361E+01  0.43301748445E+02  0.49712069769E+02  0.00000000000E+00 0.  1.
<mgrwt>
<rscale>  2 0.24418199E+02</rscale>
<asrwt>0</asrwt>
<pdfrwt beam="1">  1       21 0.15689291E-01 0.24418199E+02</pdfrwt>
<pdfrwt beam="2">  1       21 0.90649976E-03 0.24418199E+02</pdfrwt>
<totfact> 0.11035290E+08</totfact>
</mgrwt>
</event>
<event>
 4    1  0.4619222E+006  0.2383601E+02  0.7546771E-02  0.1678306E+00
         21   -1    0    0  504  501  0.00000000000E+00  0.00000000000E+00  0.44275835361E+02  0.44275835361E+02  0.00000000000E+00 0. -1.
         21   -1    0    0  501  502 -0.00000000000E+00 -0.00000000000E+00 -0.10639545791E+03  0.10639545791E+03  0.00000000000E+00 0. -1.
         21    1    1    2  503  502  0.15832074867E+02 -0.17818554380E+02 -0.10170648055E+03  0.10446225951E+03  0.00000000000E+00 0. -1.
         21    1    1    2  504  503 -0.15832074867E+02  0.17818554380E+02  0.39586858004E+02  0.46209033764E+02  0.00000000000E+00 0. -1.
<mgrwt>
<rscale>  2 0.23836012E+02</rscale>
<asrwt>0</asrwt>
<pdfrwt beam="1">  1       21 0.68116670E-02 0.23836012E+02</pdfrwt>
<pdfrwt beam="2">  1       21 0.16368532E-01 0.23836012E+02</pdfrwt>
<totfact> 0.44559899E+06</totfact>
</mgrwt>
</event>
<event>
 4    1  0.4619222E+006  0.2060723E+02  0.7546771E-02  0.1733515E+00
         21   -1    0    0  503  501  0.00000000000E+00  0.00000000000E+00  0.32116861703E+03  0.32116861703E+03  0.00000000000E+00 0.  1.
         21   -1    0    0  501  502 -0.00000000000E+00 -0.00000000000E+00 -0.56210841471E+01  0.56210841471E+01  0.00000000000E+00 0.  1.
         21    1    1    2  503  504  0.15171947388E+02 -0.13945246052E+02  0.30066474812E+03  0.30137011901E+03  0.00000000000E+00 0.  1.
         21    1    1    2  504  502 -0.15171947388E+02  0.13945246052E+02  0.14882784770E+02  0.25419582166E+02  0.00000000000E+00 0.  1.
<mgrwt>
<rscale>  2 0.20607229E+02</rscale>
<asrwt>0</asrwt>
<pdfrwt beam="1">  1       21 0.49410542E-01 0.20607229E+02</pdfrwt>
<pdfrwt beam="2">  1       21 0.86478243E-03 0.20607229E+02</pdfrwt>
<totfact> 0.14276155E+07</totfact>
</mgrwt>
</event>
<event>
 4    1  0.4619222E+006  0.2125969E+02  0.7546771E-02  0.1721379E+00
         21   -1    0    0  502  501  0.00000000000E+00  0.00000000000E+00  0.41316898548E+02  0.41316898548E+02  0.00000000000E+00 0.  1.
         21   -1    0    0  503  502 -0.00000000000E+00 -0.00000000000E+00 -0.36784080660E+02  0.36784080660E+02  0.00000000000E+00 0.  1.
         21    1    1    2  503  504 -0.89128365939E+01 -0.19301184696E+02 -0.30466430464E+02  0.37150743896E+02  0.00000000000E+00 0.  1.
         21    1    1    2  504  501  0.89128365939E+01  0.19301184696E+02  0.34999248353E+02  0.40950235312E+02  0.00000000000E+00 0.  1.
<mgrwt>
<rscale>  2 0.21259689E+02</rscale>
<asrwt>0</asrwt>
<pdfrwt beam="1">  1       21 0.63564459E-02 0.21259689E+02</pdfrwt>
<pdfrwt beam="2">  1       21 0.56590893E-02 0.21259689E+02</pdfrwt>
<totfact> 0.28123861E+07</totfact>
</mgrwt>
</event>
<event>
 4    1  0.4619222E+006  0.2395275E+02  0.7546771E-02  0.1676516E+00
         21   -1    0    0  503  501  0.00000000000E+00  0.00000000000E+00  0.15948392873E+03  0.15948392873E+03  0.00000000000E+00 0. -1.
         21   -1    0    0  504  502 -0.00000000000E+00 -0.00000000000E+00 -0.40398732948E+02  0.40398732948E+02  0.00000000000E+00 0.  1.
         21    1    1    2  503  502  0.78806252968E+01 -0.22619240873E+02  0.15493038596E+03  0.15677103944E+03  0.00000000000E+00 0. -1.
         21    1    1    2  504  501 -0.78806252968E+01  0.22619240873E+02 -0.35845190181E+02  0.43111622236E+02  0.00000000000E+00 0.  1.
<mgrwt>
<rscale>  2 0.23952752E+02</rscale>
<asrwt>0</asrwt>
<pdfrwt beam="1">  1       21 0.24535989E-01 0.23952752E+02</pdfrwt>
<pdfrwt beam="2">  1       21 0.62151898E-02 0.23952752E+02</pdfrwt>
<totfact> 0.25478207E+06</totfact>
</mgrwt>
</event>
<event>
 4    1  0.4619222E+006  0.2161275E+02  0.7546771E-02  0.1715037E+00
         21   -1    0    0  503  501  0.00000000000E+00  0.00000000000E+00  0.57552344451E+00  0.57552344451E+00  0.00000000000E+00 0. -1.
         21   -1    0    0  504  502 -0.00000000000E+00 -0.00000000000E+00 -0.95110451093E+03  0.95110451093E+03  0.00000000000E+00 0. -1.
         21    1    1    2  503  502 -0.12546120063E+02  0.17598464081E+02 -0.65748491341E+03  0.65784004320E+03  0.00000000000E+00 0. -1.
         21    1    1    2  504  501  0.12546120063E+02 -0.17598464081E+02 -0.29304407407E+03  0.29383999118E+03  0.00000000000E+00 0. -1.
<mgrwt>
<rscale>  2 0.21612752E+02</rscale>
<asrwt>0</asrwt>
<pdfrwt beam="1">  1       21 0.88542549E-04 0.21612752E+02</pdfrwt>
<pdfrwt beam="2">  1       21 0.14632298E+00 0.21612752E+02</pdfrwt>
<totfact> 0.39344145E+07</totfact>
</mgrwt>
</event>
<event>
 4    1  0.4619222E+006  0.2448010E+02  0.7546771E-02  0.1668584E+00
         21   -1    0    0  503  501  0.00000000000E+00  0.00000000000E+00  0.13017320816E+03  0.13017320816E+03  0.00000000000E+00 0.  1.
         21   -1    0    0  504  502 -0.00000000000E+00 -0.00000000000E+00 -0.34583660259E+02  0.34583660259E+02  0.00000000000E+00 0.  1.
         21    1    1    2  503  502  0.15352511974E+02  0.19067662340E+02 -0.28904940964E+02  0.37878370915E+02  0.00000000000E+00 0.  1.
         21    1    1    2  504  501 -0.15352511974E+02 -0.19067662340E+02  0.12449448886E+03  0.12687849750E+03  0.00000000000E+00 0.  1.
<mgrwt>
<rscale>  2 0.24480102E+02</rscale>
<asrwt>0</asrwt>
<pdfrwt beam="1">  1       21 0.20026647E-01 0.24480102E+02</pdfrwt>
<pdfrwt beam="2">  1       21 0.53205632E-02 0.24480102E+02</pdfrwt>
<totfact> 0.46957851E+06</totfact>
</mgrwt>
</event>
<event>
 4    1  0.4619222E+006  0.2399025E+02  0.7546771E-02  0.1675944E+00
         21   -1    0    0  504  501  0.00000000000E+00  0.00000000000E+00  0.29486939087E+03  0.29486939087E+03  0.00000000000E+00 0. -1.
         21   -1    0    0  503  502 -0.00000000000E+00 -0.00000000000E+00 -0.19518235336E+01  0.19518235336E+01  0.00000000000E+00 0. -1.
         21    1    1    2  503  501  0.23385713474E+02 -0.53516984743E+01  0.14628990840E+03  0.14824395289E+03  0.00000000000E+00 0. -1.
         21    1    1    2  504  502 -0.23385713474E+02  0.53516984743E+01  0.14662765894E+03  0.14857726151E+03  0.00000000000E+00 0. -1.
<mgrwt>
<rscale>  2 0.23990254E+02</rscale>
<asrwt>0</asrwt>
<pdfrwt beam="1">  1       21 0.45364486E-01 0.23990254E+02</pdfrwt>
<pdfrwt beam="2">  1       21 0.30028078E-03 0.23990254E+02</pdfrwt>
<totfact> 0.82833759E+07</totfact>
</mgrwt>
</event>
<event>
 4    1  0.4619222E+006  0.2660434E+02  0.7546771E-02  0.1638973E+00
         21   -1    0    0  504  501  0.00000000000E+00  0.00000000000E+00  0.22598745868E+02  0.22598745868E+02  0.00000000000E+00 0.  1.
         21   -1    0    0  503  502 -0.00000000000E+00 -0.00000000000E+00 -0.40832276208E+02  0.40832276208E+02  0.00000000000E+00 0.  1.
         21    1    1    2  503  501 -0.24556538642E+02  0.10235585133E+02 -0.24424611422E+02  0.36115819750E+02  0.00000000000E+00 0.  1.
         21    1    1    2  504  502  0.24556538642E+02 -0.10235585133E+02  0.61910810821E+01  0.27315202325E+02  0.00000000000E+00 0.  1.
<mgrwt>
<rscale>  2 0.26604338E+02</rscale>
<asrwt>0</asrwt>
<pdfrwt beam="1">  1       21 0.34767302E-02 0.26604338E+02</pdfrwt>
<pdfrwt beam="2">  1       21 0.62818886E-02 0.26604338E+02</pdfrwt>
<totfact> 0.65583425E+07</totfact>
</mgrwt>
</event>
<event>
 4    1  0.4619222E+006  0.2408036E+02  0.7546771E-02  0.1674573E+00
         21   -1    0    0  504  501  0.00000000000E+00  0.00000000000E+00  0.35025481993E+01  0.35025481993E+01  0.00000000000E+00 0.  1.
         21   -1    0    0  501  502 -0.00000000000E+00 -0.00000000000E+00 -0.16559055047E+03  0.16559055047E+03  0.00000000000E+00 0.  1.
         21    1    1    2  503  502  0.15441018405E+02  0.18478065467E+02 -0.82284859293E+02  0.85736001899E+02  0.00000000000E+00 0.  1.
         21    1    1    2  504  503 -0.15441018405E+02 -0.18478065467E+02 -0.79803142973E+02  0.83357096766E+02  0.00000000000E+00 0.  1.
<mgrwt>
<rscale>  2 0.24080364E+02</rscale>
<asrwt>0</asrwt>
<pdfrwt beam="1">  1       21 0.53885355E-03 0.24080364E+02</pdfrwt>
<pdfrwt beam="2">  1       21 0.25475470E-01 0.24080364E+02</pdfrwt>
<totfact> 0.10219472E+08</totfact>
</mgrwt>
</event>
<event>
 4    1  0.4619222E+006  0.2469018E+02  0.7546771E-02  0.1665492E+00
         21   -1    0    0  504  501  0.00000000000E+00  0.00000000000E+00  0.14498402175E+03  0.14498402175E+03  0.00000000000E+00 0. -1.
         21   -1    0    0  503  502 -0.00000000000E+00 -0.00000000000E+00 -0.11269808526E+02  0.11269808526E+02  0.00000000000E+00 0. -1.
         21    1    1    2  503  501  0.32805005088E+01  0.24471272117E+02  0.49979727694E+01  0.25190962157E+02  0.00000000000E+00 0. -1.
         21    1    1    2  504  502 -0.32805005088E+01 -0.24471272117E+02  0.12871624045E+03  0.13106286812E+03  0.00000000000E+00 0. -1.
<mgrwt>
<rscale>  2 0.24690177E+02</rscale>
<asrwt>0</asrwt>
<pdfrwt beam="1">  1       21 0.22305233E-01 0.24690177E+02</pdfrwt>
<pdfrwt beam="2">  1       21 0.17338168E-02 0.24690177E+02</pdfrwt>
<totfact> 0.22452555E+07</totfact>
</mgrwt>
</event>
<event>
 4    1  0.4619222E+006  0.3510548E+02  0.7546771E-02  0.1547666E+00
         21   -1    0    0  502  501  0.00000000000E+00  0.00000000000E+00  0.70194203837E+03  0.70194203837E+03  0.00000000000E+00 0. -1.
         21   -1    0    0  504  502 -0.00000000000E+00 -0.00000000000E+00 -0.69900135103E+01  0.69900135103E+01  0.00000000000E+00 0. -1.
         21    1    1    2  503  501 -0.32315726562E+02  0.13714546994E+02  0.65421271837E+03  0.65515393295E+03  0.00000000000E+00 0. -1.
         21    1    1    2  504  503  0.32315726562E+02 -0.13714546994E+02  0.40739306490E+02  0.53778118931E+02  0.00000000000E+00 0. -1.
<mgrwt>
<rscale>  2 0.35105484E+02</rscale>
<asrwt>0</asrwt>
<pdfrwt beam="1">  1       21 0.10799103E+00 0.35105484E+02</pdfrwt>
<pdfrwt beam="2">  1       21 0.10753872E-02 0.35105484E+02</pdfrwt>
<totfact> 0.21658879E+06</totfact>
</mgrwt>
</event>
<event>
 4    1  0.4619222E+006  0.2128848E+02  0.7546771E-02  0.1720856E+00
         21   -1    0    0  504  501  0.00000000000E+00  0.00000000000E+00  0.88690028705E+01  0.88690028705E+01  0.00000000000E+00 0.  1.
         21   -1    0    0  503  502 -0.00000000000E+00 -0.00000000000E+00 -0.51172042647E+02  0.51172042647E+02  0.00000000000E+00 0. -1.
         21    1    1    2  503  501 -0.14859970640E+02 -0.15244031121E+02 -0.22283938685E+02  0.30818389568E+02  0.00000000000E+00 0.  1.
         21    1    1    2  504  502  0.14859970640E+02  0.15244031121E+02 -0.20019101092E+02  0.29222655950E+02  0.00000000000E+00 0. -1.
<mgrwt>
<rscale>  2 0.21288476E+02</rscale>
<asrwt>0</asrwt>
<pdfrwt beam="1">  1       21 0.13644620E-02 0.21288476E+02</pdfrwt>
<pdfrwt beam="2">  1       21 0.78726221E-02 0.21288476E+02</pdfrwt>
<totfact> 0.18058552E+08</totfact>
</mgrwt>
</event>
<event>
 4    1  0.4619222E+006  0.3094832E+02  0.7546771E-02  0.1587837E+00
         21   -1    0    0  504  501  0.00000000000E+00  0.00000000000E+00  0.61551092115E+02  0.61551092115E+02  0.00000000000E+00 0. -1.
         21   -1    0    0  503  502 -0.00000000000E+00 -0.00000000000E+00 -0.15957473174E+02  0.15957473174E+02  0.00000000000E+00 0. -1.
         21    1    1    2  503  501 -0.30534259603E+02  0.50455581747E+01  0.16688434933E+02  0.35161093944E+02  0.00000000000E+00 0. -1.
         21    1    1    2  504  502  0.30534259603E+02 -0.50455581747E+01  0.28905184008E+02  0.42347471345E+02  0.00000000000E+00 0. -1.
<mgrwt>
<rscale>  2 0.30948323E+02</rscale>
<asrwt>0</asrwt>
<pdfrwt beam="1">  1       21 0.94693987E-02 0.30948323E+02</pdfrwt>
<pdfrwt beam="2">  1       21 0.24549959E-02 0.30948323E+02</pdfrwt>
<totfact> 0.59777670E+07</totfact>
</mgrwt>
</event>
<event>
 4    1  0.4619222E+006  0.2046270E+02  0.7546771E-02  0.1736280E+00
         21   -1    0    0  502  501  0.00000000000E+00  0.00000000000E+00  0.17784195130E+03  0.17784195130E+03  0.00000000000E+00 0.  1.
         21   -1    0    0  503  502 -0.00000000000E+00 -0.00000000000E+00 -0.35427063994E+01  0.35427063994E+01  0.00000000000E+00 0.  1.
         21    1    1    2  503  504 -0.26689420196E+01  0.20287900528E+02  0.34625861384E+02  0.40220298804E+02  0.00000000000E+00 0.  1.
         21    1    1    2  504  501  0.26689420196E+01 -0.20287900528E+02  0.13967338351E+03  0.14116435889E+03  0.00000000000E+00 0.  1.
<mgrwt>
<rscale>  2 0.20462702E+02</rscale>
<asrwt>0</asrwt>
<pdfrwt beam="1">  1       21 0.27360293E-01 0.20462702E+02</pdfrwt>
<pdfrwt beam="2">  1       21 0.54503189E-03 0.20462702E+02</pdfrwt>
<totfact> 0.84604837E+07</totfact>
</mgrwt>
</event>
<event>
 4    1  0.4619222E+006  0.2664201E+02  0.7546771E-02  0.1638479E+00
         21   -1    0    0  504  501  0.00000000000E+00  0.00000000000E+00  0.49322148868E+02  0.49322148868E+02  0.00000000000E+00 0.  1.
         21   -1    0    0  503  502 -0.00000000000E+00 -0.00000000000E+00 -0.32928687185E+02  0.32928687185E+02  0.00000000000E+00 0.  1.
         21    1    1    2  503  501  0.26333952450E+02 -0.40397263158E+01  0.39053507733E+02  0.47275500067E+02  0.00000000000E+00 0.  1.
         21    1    1    2  504  502 -0.26333952450E+02  0.40397263158E+01 -0.22660046051E+02  0.34975335986E+02  0.00000000000E+00 0.  1.
<mgrwt>
<rscale>  2 0.26642005E+02</rscale>
<asrwt>0</asrwt>
<pdfrwt beam="1">  1       21 0.75880229E-02 0.26642005E+02</pdfrwt>
<pdfrwt beam="2">  1       21 0.50659519E-02 0.26642005E+02</pdfrwt>
<totfact> 0.26529344E+07</totfact>
</mgrwt>
</event>
<event>
 4    1  0.4619222E+006  0.2197942E+02  0.7546771E-02  0.1708608E+00
         21   -1    0    0  503  501  0.00000000000E+00  0.00000000000E+00  0.19804063676E+02  0.19804063676E+02  0.00000000000E+00 0.  1.
         21   -1    0    0  501  502 -0.00000000000E+00 -0.00000000000E+00 -0.32234495239E+02  0.32234495239E+02  0.00000000000E+00 0.  1.
         21    1    1    2  503  504  0.20070927885E+02 -0.89583801577E+01  0.66173771797E+01  0.22953962663E+02  0.00000000000E+00 0.  1.
         21    1    1    2  504  502 -0.20070927885E+02  0.89583801577E+01 -0.19047808743E+02  0.29084596252E+02  0.00000000000E+00 0.  1.
<mgrwt>
<rscale>  2 0.21979416E+02</rscale>
<asrwt>0</asrwt>
<pdfrwt beam="1">  1       21 0.30467790E-02 0.21979416E+02</pdfrwt>
<pdfrwt beam="2">  1       21 0.49591531E-02 0.21979416E+02</pdfrwt>
<totfact> 0.11185395E+08</totfact>
</mgrwt>
</event>
<event>
 4    1  0.4619222E+006  0.2887049E+02  0.7546771E-02  0.1610920E+00
         21   -1    0    0  504  501  0.00000000000E+00  0.00000000000E+00  0.17617938915E+04  0.17617938915E+04  0.00000000000E+00 0. -1.
         21   -1    0    0  501  502 -0.00000000000E+00 -0.00000000000E+00 -0.47360900996E+00  0.47360900996E+00  0.00000000000E+00 0. -1.
         21    1    1    2  503  502  0.24558021711E+02  0.15179216678E+02  0.85177942292E+03  0.85226855531E+03  0.00000000000E+00 0. -1.
         21    1    1    2  504  503 -0.24558021711E+02 -0.15179216678E+02  0.90954085953E+03  0.90999894517E+03  0.00000000000E+00 0. -1.
<mgrwt>
<rscale>  2 0.28870488E+02</rscale>
<asrwt>0</asrwt>
<pdfrwt beam="1">  1       21 0.27103997E+00 0.28870488E+02</pdfrwt>
<pdfrwt beam="2">  1       21 0.72864335E-04 0.28870488E+02</pdfrwt>
<totfact> 0.10637171E+07</totfact>
</mgrwt>
</event>
<event>
 4    1  0.4619222E+006  0.2031767E+02  0.7546771E-02  0.1739084E+00
         21   -1    0    0  503  501  0.00000000000E+00  0.00000000000E+00  0.54842233231E+01  0.54842233231E+01  0.00000000000E+00 0. -1.
         21   -1    0    0  504  502 -0.00000000000E+00 -0.00000000000E+00 -0.31930624437E+03  0.31930624437E+03  0.00000000000E+00 0. -1.
         21    1    1    2  503  502  0.70670745721E+01 -0.19048998141E+02 -0.14941509903E+02  0.25220162397E+02  0.00000000000E+00 0. -1.
         21    1    1    2  504  501 -0.70670745721E+01  0.19048998141E+02 -0.29888051115E+03  0.29957030530E+03  0.00000000000E+00 0. -1.
<mgrwt>
<rscale>  2 0.20317674E+02</rscale>
<asrwt>0</asrwt>
<pdfrwt beam="1">  1       21 0.84372652E-03 0.20317674E+02</pdfrwt>
<pdfrwt beam="2">  1       21 0.49124046E-01 0.20317674E+02</pdfrwt>
<totfact> 0.14934280E+07</totfact>
</mgrwt>
</event>
<event>
 4    1  0.4619222E+006  0.2276747E+02  0.7546771E-02  0.1695307E+00
         21   -1    0    0  502  501  0.00000000000E+00  0.00000000000E+00  0.10174394061E+02  0.10174394061E+02  0.00000000000E+00 0.  1.
         21   -1    0    0  503  502 -0.00000000000E+00 -0.00000000000E+00 -0.50967914489E+02  0.50967914489E+02  0.00000000000E+00 0.  1.
         21    1    1    2  503  504 -0.20492891426E+01  0.22675059342E+02 -0.19781931344E+02  0.30160946767E+02  0.00000000000E+00 0.  1.
         21    1    1    2  504  501  0.20492891426E+01 -0.22675059342E+02 -0.21011589083E+02  0.30981361783E+02  0.00000000000E+00 0.  1.
<mgrwt>
<rscale>  2 0.22767475E+02</rscale>
<asrwt>0</asrwt>
<pdfrwt beam="1">  1       21 0.15652914E-02 0.22767475E+02</pdfrwt>
<pdfrwt beam="2">  1       21 0.78412174E-02 0.22767475E+02</pdfrwt>
<totfact> 0.15068187E+08</totfact>
</mgrwt>
</event>
<event>
 4    1  0.4619222E+006  0.2906853E+02  0.7546771E-02  0.1608619E+00
         21   -1    0    0  504  501  0.00000000000E+00  0.00000000000E+00  0.18312093982E+01  0.18312093982E+01  0.00000000000E+00 0.  1.
         21   -1    0    0  503  502 -0.00000000000E+00 -0.00000000000E+00 -0.47215276590E+03  0.47215276590E+03  0.00000000000E+00 0.  1.
         21    1    1    2  503  501 -0.25010534472E+02  0.14813923941E+02 -0.19945001903E+03  0.20155716129E+03  0.00000000000E+00 0.  1.
         21    1    1    2  504  502  0.25010534472E+02 -0.14813923941E+02 -0.27087153747E+03  0.27242681401E+03  0.00000000000E+00 0.  1.
<mgrwt>
<rscale>  2 0.29068526E+02</rscale>
<asrwt>0</asrwt>
<pdfrwt beam="1">  1       21 0.28172441E-03 0.29068526E+02</pdfrwt>
<pdfrwt beam="2">  1       21 0.72638915E-01 0.29068526E+02</pdfrwt>
<totfact> 0.37003951E+07</totfact>
</mgrwt>
</event>
<event>
 4    1  0.4619222E+006  0.2540157E+02  0.7546771E-02  0.1655300E+00
         21   -1    0    0  504  501  0.00000000000E+00  0.00000000000E+00  0.14028431962E+03  0.14028431962E+03  0.00000000000E+00 0.  1.
         21   -1    0    0  503  502 -0.00000000000E+00 -0.00000000000E+00 -0.17520406811E+02  0.17520406811E+02  0.00000000000E+00 0. -1.
         21    1    1    2  503  501 -0.21056940579E+02 -0.14207225204E+02 -0.63765998242E+01  0.26189712099E+02  0.00000000000E+00 0. -1.
         21    1    1    2  504  502  0.21056940579E+02  0.14207225204E+02  0.12914051264E+03  0.13161501434E+03  0.00000000000E+00 0.  1.
<mgrwt>
<rscale>  2 0.25401575E+02</rscale>
<asrwt>0</asrwt>
<pdfrwt beam="1">  1       21 0.21582202E-01 0.25401575E+02</pdfrwt>
<pdfrwt beam="2">  1       21 0.26954473E-02 0.25401575E+02</pdfrwt>
<totfact> 0.12109754E+07</totfact>
</mgrwt>
</event>
<event>
 4    1  0.4619222E+006  0.2357846E+02  0.7546771E-02  0.1682301E+00
         21   -1    0    0  503  501  0.00000000000E+00  0.00000000000E+00  0.69753005017E+01  0.69753005017E+01  0.00000000000E+00 0.  1.
         21   -1    0    0  504  502 -0.00000000000E+00 -0.00000000000E+00 -0.57053470108E+03  0.57053470108E+03  0.00000000000E+00 0. -1.
         21    1    1    2  503  502  0.23578451909E+02  0.23614440022E-01 -0.54960729355E+03  0.55011282576E+03  0.00000000000E+00 0. -1.
         21    1    1    2  504  501 -0.23578451909E+02 -0.23614440022E-01 -0.13952107031E+02  0.27397175816E+02  0.00000000000E+00 0.  1.
<mgrwt>
<rscale>  2 0.23578464E+02</rscale>
<asrwt>0</asrwt>
<pdfrwt beam="1">  1       21 0.10731234E-02 0.23578464E+02</pdfrwt>
<pdfrwt beam="2">  1       21 0.87774552E-01 0.23578464E+02</pdfrwt>
<totfact> 0.32944915E+06</totfact>
</mgrwt>
</event>
<event>
 4    1  0.4619222E+006  0.5953009E+02  0.7546771E-02  0.1399814E+00
         21   -1    0    0  504  501  0.00000000000E+00  0.00000000000E+00  0.66399594524E+01  0.66399594524E+01  0.00000000000E+00 0. -1.
         21   -1    0    0  501  502 -0.00000000000E+00 -0.00000000000E+00 -0.57626810100E+03  0.57626810100E+03  0.00000000000E+00 0. -1.
         21    1    1    2  503  502  0.48667931086E+02  0.34282119435E+02 -0.36401580702E+03  0.36885137791E+03  0.00000000000E+00 0. -1.
         21    1    1    2  504  503 -0.48667931086E+02 -0.34282119435E+02 -0.20561233453E+03  0.21405668254E+03  0.00000000000E+00 0. -1.
<mgrwt>
<rscale>  2 0.59530087E+02</rscale>
<asrwt>0</asrwt>
<pdfrwt beam="1">  1       21 0.10215320E-02 0.59530087E+02</pdfrwt>
<pdfrwt beam="2">  1       21 0.88656647E-01 0.59530087E+02</pdfrwt>
<totfact> 0.37817832E+06</totfact>
</mgrwt>
</event>
<event>
 4    1  0.4619222E+006  0.2048291E+02  0.7546771E-02  0.1735892E+00
         21   -1    0    0  504  501  0.00000000000E+00  0.00000000000E+00  0.25568752874E+01  0.25568752874E+01  0.00000000000E+00 0.  1.
         21   -1    0    0  503  502 -0.00000000000E+00 -0.00000000000E+00 -0.42153026584E+03  0.42153026584E+03  0.00000000000E+00 0. -1.
         21    1    1    2  503  501 -0.18622778369E+02 -0.85288817653E+01 -0.37519779270E+03  0.37575648145E+03  0.00000000000E+00 0. -1.
         21    1    1    2  504  502  0.18622778369E+02  0.85288817653E+01 -0.43775597853E+02  0.48330659687E+02  0.00000000000E+00 0.  1.
<mgrwt>
<rscale>  2 0.20482912E+02</rscale>
<asrwt>0</asrwt>
<pdfrwt beam="1">  1       21 0.39336504E-03 0.20482912E+02</pdfrwt>
<pdfrwt beam="2">  1       21 0.64850874E-01 0.20482912E+02</pdfrwt>
<totfact> 0.26658067E+07</totfact>
</mgrwt>
</event>
<event>
 4    1  0.4619222E+006  0.2224596E+02  0.7546771E-02  0.1704033E+00
         21   -1    0    0  504  501  0.00000000000E+00  0.00000000000E+00  0.10845247403E+02  0.10845247403E+02  0.00000000000E+00 0.  1.
         21   -1    0    0  503  502 -0.00000000000E+00 -0.00000000000E+00 -0.48204581187E+02  0.48204581187E+02  0.00000000000E+00 0.  1.
         21    1    1    2  503  501  0.21448588225E+02 -0.59026166708E+01 -0.11858047750E+02  0.25209048313E+02  0.00000000000E+00 0.  1.
         21    1    1    2  504  502 -0.21448588225E+02  0.59026166708E+01 -0.25501286034E+02  0.33840780277E+02  0.00000000000E+00 0.  1.
<mgrwt>
<rscale>  2 0.22245962E+02</rscale>
<asrwt>0</asrwt>
<pdfrwt beam="1">  1       21 0.16684996E-02 0.22245962E+02</pdfrwt>
<pdfrwt beam="2">  1       21 0.74160893E-02 0.22245962E+02</pdfrwt>
<totfact> 0.14864407E+08</totfact>
</mgrwt>
</event>
<event>
 4    1  0.4619222E+006  0.2531286E+02  0.7546771E-02  0.1656548E+00
         21   -1    0    0  504  501  0.00000000000E+00  0.00000000000E+00  0.18205878323E+03  0.18205878323E+03  0.00000000000E+00 0. -1.
         21   -1    0    0  501  502 -0.00000000000E+00 -0.00000000000E+00 -0.35198395810E+01  0.35198395810E+01  0.00000000000E+00 0. -1.
         21    1    1    2  503  502 -0.20109026749E+02 -0.15374264985E+02  0.88254123470E+02  0.91812478945E+02  0.00000000000E+00 0. -1.
         21    1    1    2  504  503  0.20109026749E+02  0.15374264985E+02  0.90284820181E+02  0.93766143867E+02  0.00000000000E+00 0. -1.
<mgrwt>
<rscale>  2 0.25312862E+02</rscale>
<asrwt>0</asrwt>
<pdfrwt beam="1">  1       21 0.28009036E-01 0.25312862E+02</pdfrwt>
<pdfrwt beam="2">  1       21 0.54151392E-03 0.25312862E+02</pdfrwt>
<totfact> 0.86622687E+07</totfact>
</mgrwt>
</event>
<event>
 4    1  0.4619222E+006  0.3634931E+02  0.7546771E-02  0.1536935E+00
         21   -1    0    0  504  501  0.00000000000E+00  0.00000000000E+00  0.72930203018E+03  0.72930203018E+03  0.00000000000E+00 0. -1.
         21   -1    0    0  503  502 -0.00000000000E+00 -0.00000000000E+00 -0.13081010627E+02  0.13081010627E+02  0.00000000000E+00 0. -1.
         21    1    1    2  503  501 -0.36349211464E+02  0.86384217159E-01  0.70263981950E+03  0.70357941171E+03  0.00000000000E+00 0. -1.
         21    1    1    2  504  502  0.36349211464E+02 -0.86384217159E-01  0.13581200056E+02  0.38803629099E+02  0.00000000000E+00 0. -1.
<mgrwt>
<rscale>  2 0.36349314E+02</rscale>
<asrwt>0</asrwt>
<pdfrwt beam="1">  1       21 0.11220028E+00 0.36349314E+02</pdfrwt>
<pdfrwt beam="2">  1       21 0.20124637E-02 0.36349314E+02</pdfrwt>
<totfact> 0.75681021E+05</totfact>
</mgrwt>
</event>
<event>
 4    1  0.4619222E+006  0.2232505E+02  0.7546771E-02  0.1702690E+00
         21   -1    0    0  504  501  0.00000000000E+00  0.00000000000E+00  0.36160368588E+01  0.36160368588E+01  0.00000000000E+00 0. -1.
         21   -1    0    0  503  502 -0.00000000000E+00 -0.00000000000E+00 -0.34263587067E+03  0.34263587067E+03  0.00000000000E+00 0. -1.
         21    1    1    2  503  501 -0.21245077917E+02  0.68596194534E+01 -0.35661196691E+02  0.42072897026E+02  0.00000000000E+00 0. -1.
         21    1    1    2  504  502  0.21245077917E+02 -0.68596194534E+01 -0.30335863712E+03  0.30417901050E+03  0.00000000000E+00 0. -1.
<mgrwt>
<rscale>  2 0.22325047E+02</rscale>
<asrwt>0</asrwt>
<pdfrwt beam="1">  1       21 0.55631309E-03 0.22325047E+02</pdfrwt>
<pdfrwt beam="2">  1       21 0.52713237E-01 0.22325047E+02</pdfrwt>
<totfact> 0.24628377E+07</totfact>
</mgrwt>
</event>
<event>
 4    1  0.4619222E+006  0.5457306E+02  0.7546771E-02  0.1422129E+00
         21   -1    0    0  503  501  0.00000000000E+00  0.00000000000E+00  0.13172696108E+03  0.13172696108E+03  0.00000000000E+00 0. -1.
         21   -1    0    0  504  502 -0.00000000000E+00 -0.00000000000E+00 -0.52697448245E+03  0.52697448245E+03  0.00000000000E+00 0.  1.
         21    1    1    2  503  502 -0.35405713253E+02 -0.41528956547E+02  0.12458436770E+03  0.13601280615E+03  0.00000000000E+00 0. -1.
         21    1    1    2  504  501  0.35405713253E+02  0.41528956547E+02 -0.51983188906E+03  0.52268863738E+03  0.00000000000E+00 0.  1.
<mgrwt>
<rscale>  2 0.54573059E+02</rscale>
<asrwt>0</asrwt>
<pdfrwt beam="1">  1       21 0.20265686E-01 0.54573059E+02</pdfrwt>
<pdfrwt beam="2">  1       21 0.81073000E-01 0.54573059E+02</pdfrwt>
<totfact> 0.33467664E+04</totfact>
</mgrwt>
</event>
<event>
 4    1  0.4619222E+006  0.3221517E+02  0.7546771E-02  0.1574819E+00
         21   -1    0    0  503  501  0.00000000000E+00  0.00000000000E+00  0.42747999720E+01  0.42747999720E+01  0.00000000000E+00 0.  1.
         21   -1    0    0  504  502 -0.00000000000E+00 -0.00000000000E+00 -0.41226864467E+03  0.41226864467E+03  0.00000000000E+00 0.  1.
         21    1    1    2  503  502 -0.24576641239E+02  0.20828014616E+02 -0.70455502766E+02  0.77471255040E+02  0.00000000000E+00 0.  1.
         21    1    1    2  504  501  0.24576641239E+02 -0.20828014616E+02 -0.33753834194E+03  0.33907218961E+03  0.00000000000E+00 0.  1.
<mgrwt>
<rscale>  2 0.32215175E+02</rscale>
<asrwt>0</asrwt>
<pdfrwt beam="1">  1       21 0.65766147E-03 0.32215175E+02</pdfrwt>
<pdfrwt beam="2">  1       21 0.63425951E-01 0.32215175E+02</pdfrwt>
<totfact> 0.14166618E+07</totfact>
</mgrwt>
</event>
<event>
 4    1  0.4619222E+006  0.2637496E+02  0.7546771E-02  0.1642004E+00
         21   -1    0    0  504  501  0.00000000000E+00  0.00000000000E+00  0.66830452246E+02  0.66830452246E+02  0.00000000000E+00 0. -1.
         21   -1    0    0  503  502 -0.00000000000E+00 -0.00000000000E+00 -0.21519894598E+02  0.21519894598E+02  0.00000000000E+00 0. -1.
         21    1    1    2  503  501  0.26354033570E+02  0.10505434907E+01  0.54397151579E+02  0.60454022422E+02  0.00000000000E+00 0. -1.
         21    1    1    2  504  502 -0.26354033570E+02 -0.10505434907E+01 -0.90865939305E+01  0.27896324422E+02  0.00000000000E+00 0. -1.
<mgrwt>
<rscale>  2 0.26374964E+02</rscale>
<asrwt>0</asrwt>
<pdfrwt beam="1">  1       21 0.10281608E-01 0.26374964E+02</pdfrwt>
<pdfrwt beam="2">  1       21 0.33107530E-02 0.26374964E+02</pdfrwt>
<totfact> 0.31478613E+07</totfact>
</mgrwt>
</event>
<event>
 4    1  0.4619222E+006  0.2219391E+02  0.7546771E-02  0.1704920E+00
         21   -1    0    0  504  501  0.00000000000E+00  0.00000000000E+00  0.29571267300E+03  0.29571267300E+03  0.00000000000E+00 0.  1.
         21   -1    0    0  503  502 -0.00000000000E+00 -0.00000000000E+00 -0.35786574998E+01  0.35786574998E+01  0.00000000000E+00 0.  1.
         21    1    1    2  503  501 -0.58400556164E+00  0.22186220696E+02  0.36657161650E+02  0.42852268919E+02  0.00000000000E+00 0.  1.
         21    1    1    2  504  502  0.58400556164E+00 -0.22186220696E+02  0.25547685385E+03  0.25643906158E+03  0.00000000000E+00 0.  1.
<mgrwt>
<rscale>  2 0.22193906E+02</rscale>
<asrwt>0</asrwt>
<pdfrwt beam="1">  1       21 0.45494238E-01 0.22193906E+02</pdfrwt>
<pdfrwt beam="2">  1       21 0.55056292E-03 0.22193906E+02</pdfrwt>
<totfact> 0.33213542E+07</totfact>
</mgrwt>
</event>
<event>
 4    1  0.4619222E+006  0.2646420E+02  0.7546771E-02  0.1640820E+00
         21   -1    0    0  504  501  0.00000000000E+00  0.00000000000E+00  0.51202193867E+03  0.51202193867E+03  0.00000000000E+00 0. -1.
         21   -1    0    0  503  502 -0.00000000000E+00 -0.00000000000E+00 -0.18541891798E+01  0.18541891798E+01  0.00000000000E+00 0.  1.
         21    1    1    2  503  501 -0.19910486109E+02  0.17433489606E+02  0.38667733363E+03  0.38758188084E+03  0.00000000000E+00 0. -1.
         21    1    1    2  504  502  0.19910486109E+02 -0.17433489606E+02  0.12349041586E+03  0.12629424701E+03  0.00000000000E+00 0.  1.
<mgrwt>
<rscale>  2 0.26464203E+02</rscale>
<asrwt>0</asrwt>
<pdfrwt beam="1">  1       21 0.78772493E-01 0.26464203E+02</pdfrwt>
<pdfrwt beam="2">  1       21 0.28526028E-03 0.26464203E+02</pdfrwt>
<totfact> 0.30117363E+07</totfact>
</mgrwt>
</event>
<event>
 4    1  0.4619222E+006  0.2365482E+02  0.7546771E-02  0.1681110E+00
         21   -1    0    0  504  501  0.00000000000E+00  0.00000000000E+00  0.96160151622E+02  0.96160151622E+02  0.00000000000E+00 0. -1.
         21   -1    0    0  501  502 -0.00000000000E+00 -0.00000000000E+00 -0.67450350943E+01  0.67450350943E+01  0.00000000000E+00 0. -1.
         21    1    1    2  503  502  0.37011803138E+01  0.23363472902E+02  0.25642336584E+02  0.34886674064E+02  0.00000000000E+00 0. -1.
         21    1    1    2  504  503 -0.37011803138E+01 -0.23363472902E+02  0.63772779943E+02  0.68018512652E+02  0.00000000000E+00 0. -1.
<mgrwt>
<rscale>  2 0.23654822E+02</rscale>
<asrwt>0</asrwt>
<pdfrwt beam="1">  1       21 0.14793868E-01 0.23654822E+02</pdfrwt>
<pdfrwt beam="2">  1       21 0.10376978E-02 0.23654822E+02</pdfrwt>
<totfact> 0.98695014E+07</totfact>
</mgrwt>
</event>
<event>
 4    1  0.4619222E+006  0.2277673E+02  0.7546771E-02  0.1695155E+00
         21   -1    0    0  502  501  0.00000000000E+00  0.00000000000E+00  0.19645393557E+02  0.19645393557E+02  0.00000000000E+00 0.  1.
         21   -1    0    0  504  502 -0.00000000000E+00 -0.00000000000E+00 -0.22397686798E+03  0.22397686798E+03  0.00000000000E+00 0.  1.
         21    1    1    2  503  501  0.22671021195E+02 -0.21919054645E+01  0.12239402672E+02  0.25856964813E+02  0.00000000000E+00 0.  1.
         21    1    1    2  504  503 -0.22671021195E+02  0.21919054645E+01 -0.21657087710E+03  0.21776529673E+03  0.00000000000E+00 0.  1.
<mgrwt>
<rscale>  2 0.22776735E+02</rscale>
<asrwt>0</asrwt>
<pdfrwt beam="1">  1       21 0.30223685E-02 0.22776735E+02</pdfrwt>
<pdfrwt beam="2">  1       21 0.34457977E-01 0.22776735E+02</pdfrwt>
<totfact> 0.42765184E+06</totfact>
</mgrwt>
</event>
<event>
 4    1  0.4619222E+006  0.2223880E+02  0.7546771E-02  0.1704155E+00
         21   -1    0    0  503  501  0.00000000000E+00  0.00000000000E+00  0.68056469685E+02  0.68056469685E+02  0.00000000000E+00 0. -1.
         21   -1    0    0  504  502 -0.00000000000E+00 -0.00000000000E+00 -0.14832197146E+02  0.14832197146E+02  0.00000000000E+00 0.  1.
         21    1    1    2  503  502  0.14565307467E+02  0.16805236521E+02 -0.29866205732E+01  0.22438450450E+02  0.00000000000E+00 0.  1.
         21    1    1    2  504  501 -0.14565307467E+02 -0.16805236521E+02  0.56210893111E+02  0.60450216381E+02  0.00000000000E+00 0. -1.
<mgrwt>
<rscale>  2 0.22238798E+02</rscale>
<asrwt>0</asrwt>
<pdfrwt beam="1">  1       21 0.10470226E-01 0.22238798E+02</pdfrwt>
<pdfrwt beam="2">  1       21 0.22818765E-02 0.22238798E+02</pdfrwt>
<totfact> 0.52289284E+07</totfact>
</mgrwt>
</event>
<event>
 4    1  0.4619222E+006  0.2007027E+02  0.7546771E-02  0.1743934E+00
         21   -1    0    0  503  501  0.00000000000E+00  0.00000000000E+00  0.44717236260E+02  0.44717236260E+02  0.00000000000E+00 0. -1.
         21   -1    0    0  504  502 -0.00000000000E+00 -0.00000000000E+00 -0.91735411246E+01  0.91735411246E+01  0.00000000000E+00 0. -1.
         21    1    1    2  503  502  0.50473376579E+01  0.19425240885E+02  0.14152847386E+02  0.24558474912E+02  0.00000000000E+00 0. -1.
         21    1    1    2  504  501 -0.50473376579E+01 -0.19425240885E+02  0.21390847749E+02  0.29332302472E+02  0.00000000000E+00 0. -1.
<mgrwt>
<rscale>  2 0.20070267E+02</rscale>
<asrwt>0</asrwt>
<pdfrwt beam="1">  1       21 0.68795747E-02 0.20070267E+02</pdfrwt>
<pdfrwt beam="2">  1       21 0.14113140E-02 0.20070267E+02</pdfrwt>
<totfact> 0.20940351E+08</totfact>
</mgrwt>
</event>
<event>
 4    1  0.4619222E+006  0.3136051E+02  0.7546771E-02  0.1583519E+00
         21   -1    0    0  504  501  0.00000000000E+00  0.00000000000E+00  0.38664300553E+02  0.38664300553E+02  0.00000000000E+00 0. -1.
         21   -1    0    0  501  502 -0.00000000000E+00 -0.00000000000E+00 -0.78708779594E+02  0.78708779594E+02  0.00000000000E+00 0. -1.
         21    1    1    2  503  502  0.31168241917E+02  0.34673091651E+01 -0.68303418620E+02  0.75158755526E+02  0.00000000000E+00 0. -1.
         21    1    1    2  504  503 -0.31168241917E+02 -0.34673091651E+01  0.28258939579E+02  0.42214324620E+02  0.00000000000E+00 0. -1.
<mgrwt>
<rscale>  2 0.31360509E+02</rscale>
<asrwt>0</asrwt>
<pdfrwt beam="1">  1       21 0.59483540E-02 0.31360509E+02</pdfrwt>
<pdfrwt beam="2">  1       21 0.12109043E-01 0.31360509E+02</pdfrwt>
<totfact> 0.96899044E+06</totfact>
</mgrwt>
</event>
<event>
 4    1  0.4619222E+006  0.3333689E+02  0.7546771E-02  0.1563886E+00
         21   -1    0    0  503  501  0.00000000000E+00  0.00000000000E+00  0.42877846638E+01  0.42877846638E+01  0.00000000000E+00 0.  1.
         21   -1    0    0  501  502 -0.00000000000E+00 -0.00000000000E+00 -0.27758429241E+03  0.27758429241E+03  0.00000000000E+00 0.  1.
         21    1    1    2  503  504  0.50714454971E+01 -0.32948877762E+02 -0.10036770294E+03  0.10575927334E+03  0.00000000000E+00 0.  1.
         21    1    1    2  504  502 -0.50714454971E+01  0.32948877762E+02 -0.17292880481E+03  0.17611280373E+03  0.00000000000E+00 0.  1.
<mgrwt>
<rscale>  2 0.33336888E+02</rscale>
<asrwt>0</asrwt>
<pdfrwt beam="1">  1       21 0.65965941E-03 0.33336888E+02</pdfrwt>
<pdfrwt beam="2">  1       21 0.42705261E-01 0.33336888E+02</pdfrwt>
<totfact> 0.31103702E+07</totfact>
</mgrwt>
</event>
<event>
 4    1  0.4619222E+006  0.2453194E+02  0.7546771E-02  0.1667817E+00
         21   -1    0    0  503  501  0.00000000000E+00  0.00000000000E+00  0.14552922262E+03  0.14552922262E+03  0.00000000000E+00 0.  1.
         21   -1    0    0  501  502 -0.00000000000E+00 -0.00000000000E+00 -0.29663187925E+02  0.29663187925E+02  0.00000000000E+00 0.  1.
         21    1    1    2  503  504 -0.19219894328E+02  0.15245048747E+02  0.13919423127E+03  0.14133948446E+03  0.00000000000E+00 0.  1.
         21    1    1    2  504  502  0.19219894328E+02 -0.15245048747E+02 -0.23328196572E+02  0.33852926086E+02  0.00000000000E+00 0.  1.
<mgrwt>
<rscale>  2 0.24531935E+02</rscale>
<asrwt>0</asrwt>
<pdfrwt beam="1">  1       21 0.22389111E-01 0.24531935E+02</pdfrwt>
<pdfrwt beam="2">  1       21 0.45635674E-02 0.24531935E+02</pdfrwt>
<totfact> 0.49312701E+06</totfact>
</mgrwt>
</event>
<event>
 4    1  0.4619222E+006  0.3792117E+02  0.7546771E-02  0.1524091E+00
         21   -1    0    0  502  501  0.00000000000E+00  0.00000000000E+00  0.41059536540E+02  0.41059536540E+02  0.00000000000E+00 0. -1.
         21   -1    0    0  504  502 -0.00000000000E+00 -0.00000000000E+00 -0.40853762481E+02  0.40853762481E+02  0.00000000000E+00 0. -1.
         21    1    1    2  503  501 -0.37384327428E+02  0.63582421300E+01  0.15576182869E+02  0.40995519913E+02  0.00000000000E+00 0. -1.
         21    1    1    2  504  503  0.37384327428E+02 -0.63582421300E+01 -0.15370408810E+02  0.40917779108E+02  0.00000000000E+00 0. -1.
<mgrwt>
<rscale>  2 0.37921171E+02</rscale>
<asrwt>0</asrwt>
<pdfrwt beam="1">  1       21 0.63168518E-02 0.37921171E+02</pdfrwt>
<pdfrwt beam="2">  1       21 0.62851942E-02 0.37921171E+02</pdfrwt>
<totfact> 0.27050043E+07</totfact>
</mgrwt>
</event>
<event>
 4    1  0.4619222E+006  0.3328065E+02  0.7546771E-02  0.1564421E+00
         21   -1    0    0  503  501  0.00000000000E+00  0.00000000000E+00  0.37223253170E+02  0.37223253170E+02  0.00000000000E+00 0.  1.
         21   -1    0    0  504  502 -0.00000000000E+00 -0.00000000000E+00 -0.40409558605E+02  0.40409558605E+02  0.00000000000E+00 0.  1.
         21    1    1    2  503  502 -0.17141379193E+02  0.28526740112E+02  0.18337793670E+02  0.37998374422E+02  0.00000000000E+00 0.  1.
         21    1    1    2  504  501  0.17141379193E+02 -0.28526740112E+02 -0.21524099105E+02  0.39634437353E+02  0.00000000000E+00 0.  1.
<mgrwt>
<rscale>  2 0.33280652E+02</rscale>
<asrwt>0</asrwt>
<pdfrwt beam="1">  1       21 0.57266543E-02 0.33280652E+02</pdfrwt>
<pdfrwt beam="2">  1       21 0.62168552E-02 0.33280652E+02</pdfrwt>
<totfact> 0.31549622E+07</totfact>
</mgrwt>
</event>
<event>
 4    1  0.4619222E+006  0.3513888E+02  0.7546771E-02  0.1547371E+00
         21   -1    0    0  503  501  0.00000000000E+00  0.00000000000E+00  0.81953948245E+01  0.81953948245E+01  0.00000000000E+00 0. -1.
         21   -1    0    0  504  502 -0.00000000000E+00 -0.00000000000E+00 -0.36235255634E+03  0.36235255634E+03  0.00000000000E+00 0.  1.
         21    1    1    2  503  502 -0.21196105395E+02  0.28026163813E+02 -0.31869014699E+03  0.32062150665E+03  0.00000000000E+00 0.  1.
         21    1    1    2  504  501  0.21196105395E+02 -0.28026163813E+02 -0.35467014530E+02  0.49926444513E+02  0.00000000000E+00 0. -1.
<mgrwt>
<rscale>  2 0.35138878E+02</rscale>
<asrwt>0</asrwt>
<pdfrwt beam="1">  1       21 0.12608302E-02 0.35138878E+02</pdfrwt>
<pdfrwt beam="2">  1       21 0.55746535E-01 0.35138878E+02</pdfrwt>
<totfact> 0.69393631E+06</totfact>
</mgrwt>
</event>
<event>
 4    1  0.4619222E+006  0.2462309E+02  0.7546771E-02  0.1666475E+00
         21   -1    0    0  503  501  0.00000000000E+00  0.00000000000E+00  0.21974252997E+01  0.21974252997E+01  0.00000000000E+00 0.  1.
         21   -1    0    0  501  502 -0.00000000000E+00 -0.00000000000E+00 -0.29665582978E+03  0.29665582978E+03  0.00000000000E+00 0. -1.
         21    1    1    2  503  504  0.17994561249E+02  0.16807510428E+02 -0.10771592877E+03  0.11049442498E+03  0.00000000000E+00 0.  1.
         21    1    1    2  504  502 -0.17994561249E+02 -0.16807510428E+02 -0.18674247571E+03  0.18835883010E+03  0.00000000000E+00 0. -1.
<mgrwt>
<rscale>  2 0.24623092E+02</rscale>
<asrwt>0</asrwt>
<pdfrwt beam="1">  1       21 0.33806542E-03 0.24623092E+02</pdfrwt>
<pdfrwt beam="2">  1       21 0.45639360E-01 0.24623092E+02</pdfrwt>
<totfact> 0.69291772E+07</totfact>
</mgrwt>
</event>
<event>
 4    1  0.4619222E+006  0.2234715E+02  0.7546771E-02  0.1702316E+00
         21   -1    0    0  503  501  0.00000000000E+00  0.00000000000E+00  0.44837889577E+01  0.44837889577E+01  0.00000000000E+00 0. -1.
         21   -1    0    0  501  502 -0.00000000000E+00 -0.00000000000E+00 -0.32154694456E+03  0.32154694456E+03  0.00000000000E+00 0. -1.
         21    1    1    2  503  504  0.12451901613E+02 -0.18556541876E+02 -0.26739075676E+02  0.34847858875E+02  0.00000000000E+00 0. -1.
         21    1    1    2  504  502 -0.12451901613E+02  0.18556541876E+02 -0.29032407992E+03  0.29118287464E+03  0.00000000000E+00 0. -1.
<mgrwt>
<rscale>  2 0.22347150E+02</rscale>
<asrwt>0</asrwt>
<pdfrwt beam="1">  1       21 0.68981396E-03 0.22347150E+02</pdfrwt>
<pdfrwt beam="2">  1       21 0.49468741E-01 0.22347150E+02</pdfrwt>
<totfact> 0.20270800E+07</totfact>
</mgrwt>
</event>
<event>
 4    1  0.4619222E+006  0.2357629E+02  0.7546771E-02  0.1682335E+00
         21   -1    0    0  503  501  0.00000000000E+00  0.00000000000E+00  0.36613229272E+03  0.36613229272E+03  0.00000000000E+00 0.  1.
         21   -1    0    0  504  502 -0.00000000000E+00 -0.00000000000E+00 -0.16162100777E+01  0.16162100777E+01  0.00000000000E+00 0.  1.
         21    1    1    2  503  502  0.96220052931E+01 -0.21523442990E+02  0.13696503276E+03  0.13897935740E+03  0.00000000000E+00 0.  1.
         21    1    1    2  504  501 -0.96220052931E+01  0.21523442990E+02  0.22755104988E+03  0.22876914540E+03  0.00000000000E+00 0.  1.
<mgrwt>
<rscale>  2 0.23576293E+02</rscale>
<asrwt>0</asrwt>
<pdfrwt beam="1">  1       21 0.56327979E-01 0.23576293E+02</pdfrwt>
<pdfrwt beam="2">  1       21 0.24864800E-03 0.23576293E+02</pdfrwt>
<totfact> 0.71170893E+07</totfact>
</mgrwt>
</event>
<event>
 4    1  0.4619222E+006  0.2856638E+02  0.7546771E-02  0.1614498E+00
         21   -1    0    0  504  501  0.00000000000E+00  0.00000000000E+00  0.46630695051E+01  0.46630695051E+01  0.00000000000E+00 0. -1.
         21   -1    0    0  503  502 -0.00000000000E+00 -0.00000000000E+00 -0.37047005903E+03  0.37047005903E+03  0.00000000000E+00 0. -1.
         21    1    1    2  503  501 -0.25596332904E+02 -0.12683281853E+02 -0.46659046842E+02  0.54709272970E+02  0.00000000000E+00 0. -1.
         21    1    1    2  504  502  0.25596332904E+02  0.12683281853E+02 -0.31914794268E+03  0.32042385557E+03  0.00000000000E+00 0. -1.
<mgrwt>
<rscale>  2 0.28566377E+02</rscale>
<asrwt>0</asrwt>
<pdfrwt beam="1">  1       21 0.71739528E-03 0.28566377E+02</pdfrwt>
<pdfrwt beam="2">  1       21 0.56995396E-01 0.28566377E+02</pdfrwt>
<totfact> 0.15145898E+07</totfact>
</mgrwt>
</event>
<event>
 4    1  0.4619222E+006  0.3137298E+02  0.7546771E-02  0.1583390E+00
         21   -1    0    0  503  501  0.00000000000E+00  0.00000000000E+00  0.25869849103E+02  0.25869849103E+02  0.00000000000E+00 0. -1.
         21   -1    0    0  504  502 -0.00000000000E+00 -0.00000000000E+00 -0.39863520288E+02  0.39863520288E+02  0.00000000000E+00 0.  1.
         21    1    1    2  503  502 -0.21829110384E+02  0.22533396078E+02 -0.14013272372E+02  0.34360381277E+02  0.00000000000E+00 0.  1.
         21    1    1    2  504  501  0.21829110384E+02 -0.22533396078E+02  0.19601187166E-01  0.31372988113E+02  0.00000000000E+00 0. -1.
<mgrwt>
<rscale>  2 0.31372982E+02</rscale>
<asrwt>0</asrwt>
<pdfrwt beam="1">  1       21 0.39799768E-02 0.31372982E+02</pdfrwt>
<pdfrwt beam="2">  1       21 0.61328493E-02 0.31372982E+02</pdfrwt>
<totfact> 0.57220471E+07</totfact>
</mgrwt>
</event>
<event>
 4    1  0.4619222E+006  0.2136729E+02  0.7546771E-02  0.1719430E+00
         21   -1    0    0  503  501  0.00000000000E+00  0.00000000000E+00  0.53141779319E+03  0.53141779319E+03  0.00000000000E+00 0. -1.
         21   -1    0    0  501  502 -0.00000000000E+00 -0.00000000000E+00 -0.13084386252E+01  0.13084386252E+01  0.00000000000E+00 0. -1.
         21    1    1    2  503  504 -0.20410721653E+02  0.63216669845E+01  0.42114144641E+03  0.42168314990E+03  0.00000000000E+00 0. -1.
         21    1    1    2  504  502  0.20410721653E+02 -0.63216669845E+01  0.10896790816E+03  0.11104308191E+03  0.00000000000E+00 0. -1.
<mgrwt>
<rscale>  2 0.21367289E+02</rscale>
<asrwt>0</asrwt>
<pdfrwt beam="1">  1       21 0.81756411E-01 0.21367289E+02</pdfrwt>
<pdfrwt beam="2">  1       21 0.20129867E-03 0.21367289E+02</pdfrwt>
<totfact> 0.44170815E+07</totfact>
</mgrwt>
</event>
<event>
 4    1  0.4619222E+006  0.2100735E+02  0.7546771E-02  0.1726007E+00
         21   -1    0    0  502  501  0.00000000000E+00  0.00000000000E+00  0.99251942215E+01  0.99251942215E+01  0.00000000000E+00 0.  1.
         21   -1    0    0  504  502 -0.00000000000E+00 -0.00000000000E+00 -0.50063453233E+02  0.50063453233E+02  0.00000000000E+00 0.  1.
         21    1    1    2  503  501 -0.75145694362E+01  0.19617335693E+02 -0.10037490672E+02  0.23282178431E+02  0.00000000000E+00 0.  1.
         21    1    1    2  504  503  0.75145694362E+01 -0.19617335693E+02 -0.30100768339E+02  0.36706469023E+02  0.00000000000E+00 0.  1.
<mgrwt>
<rscale>  2 0.21007347E+02</rscale>
<asrwt>0</asrwt>
<pdfrwt beam="1">  1       21 0.15269529E-02 0.21007347E+02</pdfrwt>
<pdfrwt beam="2">  1       21 0.77020699E-02 0.21007347E+02</pdfrwt>
<totfact> 0.15716877E+08</totfact>
</mgrwt>
</event>
<event>
 4    1  0.4619222E+006  0.2080237E+02  0.7546771E-02  0.1729827E+00
         21   -1    0    0  503  501  0.00000000000E+00  0.00000000000E+00  0.24753220612E+03  0.24753220612E+03  0.00000000000E+00 0. -1.
         21   -1    0    0  504  502 -0.00000000000E+00 -0.00000000000E+00 -0.38797728199E+02  0.38797728199E+02  0.00000000000E+00 0. -1.
         21    1    1    2  503  502 -0.92358039578E+01  0.18639700338E+02 -0.35535071510E+02  0.41176204423E+02  0.00000000000E+00 0. -1.
         21    1    1    2  504  501  0.92358039578E+01 -0.18639700338E+02  0.24426954943E+03  0.24515372990E+03  0.00000000000E+00 0. -1.
<mgrwt>
<rscale>  2 0.20802368E+02</rscale>
<asrwt>0</asrwt>
<pdfrwt beam="1">  1       21 0.38081877E-01 0.20802368E+02</pdfrwt>
<pdfrwt beam="2">  1       21 0.59688814E-02 0.20802368E+02</pdfrwt>
<totfact> 0.12002184E+06</totfact>
</mgrwt>
</event>
<event>
 4    1  0.4619222E+006  0.2859807E+02  0.7546771E-02  0.1614123E+00
         21   -1    0    0  504  501  0.00000000000E+00  0.00000000000E+00  0.29589434946E+02  0.29589434946E+02  0.00000000000E+00 0. -1.
         21   -1    0    0  501  502 -0.00000000000E+00 -0.00000000000E+00 -0.37877494849E+02  0.37877494849E+02  0.00000000000E+00 0. -1.
         21    1    1    2  503  502  0.92882267010E+01  0.27047708675E+02 -0.21681575488E+02  0.35887886751E+02  0.00000000000E+00 0. -1.
         21    1    1    2  504  503 -0.92882267010E+01 -0.27047708675E+02  0.13393515584E+02  0.31579043043E+02  0.00000000000E+00 0. -1.
<mgrwt>
<rscale>  2 0.28598072E+02</rscale>
<asrwt>0</asrwt>
<pdfrwt beam="1">  1       21 0.45522208E-02 0.28598072E+02</pdfrwt>
<pdfrwt beam="2">  1       21 0.58273069E-02 0.28598072E+02</pdfrwt>
<totfact> 0.49140298E+07</totfact>
</mgrwt>
</event>
<event>
 4    1  0.4619222E+006  0.2142870E+02  0.7546771E-02  0.1718324E+00
         21   -1    0    0  502  501  0.00000000000E+00  0.00000000000E+00  0.17368413754E+01  0.17368413754E+01  0.00000000000E+00 0.  1.
         21   -1    0    0  504  502 -0.00000000000E+00 -0.00000000000E+00 -0.31731104946E+03  0.31731104946E+03  0.00000000000E+00 0.  1.
         21    1    1    2  503  501 -0.18940821115E+02 -0.10021695592E+02 -0.92634536468E+02  0.95080736397E+02  0.00000000000E+00 0.  1.
         21    1    1    2  504  503  0.18940821115E+02  0.10021695592E+02 -0.22293967162E+03  0.22396715444E+03  0.00000000000E+00 0.  1.
<mgrwt>
<rscale>  2 0.21428698E+02</rscale>
<asrwt>0</asrwt>
<pdfrwt beam="1">  1       21 0.26720676E-03 0.21428698E+02</pdfrwt>
<pdfrwt beam="2">  1       21 0.48817012E-01 0.21428698E+02</pdfrwt>
<totfact> 0.82803651E+07</totfact>
</mgrwt>
</event>
<event>
 4    1  0.4619222E+006  0.2965052E+02  0.7546771E-02  0.1601984E+00
         21   -1    0    0  503  501  0.00000000000E+00  0.00000000000E+00  0.63144628168E+01  0.63144628168E+01  0.00000000000E+00 0. -1.
         21   -1    0    0  504  502 -0.00000000000E+00 -0.00000000000E+00 -0.55086495479E+03  0.55086495479E+03  0.00000000000E+00 0.  1.
         21    1    1    2  503  502 -0.15253509668E+02  0.25426042371E+02 -0.51309904982E+03  0.51395504484E+03  0.00000000000E+00 0.  1.
         21    1    1    2  504  501  0.15253509668E+02 -0.25426042371E+02 -0.31451442158E+02  0.43224372774E+02  0.00000000000E+00 0. -1.
<mgrwt>
<rscale>  2 0.29650517E+02</rscale>
<asrwt>0</asrwt>
<pdfrwt beam="1">  1       21 0.97145536E-03 0.29650517E+02</pdfrwt>
<pdfrwt beam="2">  1       21 0.84748495E-01 0.29650517E+02</pdfrwt>
<totfact> 0.42429949E+06</totfact>
</mgrwt>
</event>
<event>
 4    1  0.4619222E+006  0.2569390E+02  0.7546771E-02  0.1651231E+00
         21   -1    0    0  503  501  0.00000000000E+00  0.00000000000E+00  0.99722395678E+01  0.99722395678E+01  0.00000000000E+00 0. -1.
         21   -1    0    0  501  502 -0.00000000000E+00 -0.00000000000E+00 -0.87681692401E+02  0.87681692401E+02  0.00000000000E+00 0.  1.
         21    1    1    2  503  504 -0.25545169431E+02 -0.27606041250E+01 -0.14687602434E+02  0.29595646329E+02  0.00000000000E+00 0. -1.
         21    1    1    2  504  502  0.25545169431E+02  0.27606041250E+01 -0.63021850400E+02  0.68058285640E+02  0.00000000000E+00 0.  1.
<mgrwt>
<rscale>  2 0.25693902E+02</rscale>
<asrwt>0</asrwt>
<pdfrwt beam="1">  1       21 0.15341907E-02 0.25693902E+02</pdfrwt>
<pdfrwt beam="2">  1       21 0.13489491E-01 0.25693902E+02</pdfrwt>
<totfact> 0.65214063E+07</totfact>
</mgrwt>
</event>
<event>
 4    1  0.4619222E+006  0.3760549E+02  0.7546771E-02  0.1526610E+00
         21   -1    0    0  503  501  0.00000000000E+00  0.00000000000E+00  0.32636879990E+02  0.32636879990E+02  0.00000000000E+00 0. -1.
         21   -1    0    0  504  502 -0.00000000000E+00 -0.00000000000E+00 -0.29240768905E+03  0.29240768905E+03  0.00000000000E+00 0. -1.
         21    1    1    2  503  502 -0.25491917044E+02  0.27646611270E+02  0.20112601377E+02  0.42646098103E+02  0.00000000000E+00 0. -1.
         21    1    1    2  504  501  0.25491917044E+02 -0.27646611270E+02 -0.27988341044E+03  0.28239847094E+03  0.00000000000E+00 0. -1.
<mgrwt>
<rscale>  2 0.37605491E+02</rscale>
<asrwt>0</asrwt>
<pdfrwt beam="1">  1       21 0.50210584E-02 0.37605491E+02</pdfrwt>
<pdfrwt beam="2">  1       21 0.44985799E-01 0.37605491E+02</pdfrwt>
<totfact> 0.12134367E+06</totfact>
</mgrwt>
</event>
<event>
 4    1  0.4619222E+006  0.2127464E+02  0.7546771E-02  0.1721107E+00
         21   -1    0    0  502  501  0.00000000000E+00  0.00000000000E+00  0.24562448320E+01  0.24562448320E+01  0.00000000000E+00 0.  1.
         21   -1    0    0  504  502 -0.00000000000E+00 -0.00000000000E+00 -0.29273955257E+03  0.29273955257E+03  0.00000000000E+00 0.  1.
         21    1    1    2  503  501 -0.18826301369E+02  0.99086232963E+01 -0.55296457821E+02  0.59247858074E+02  0.00000000000E+00 0.  1.
         21    1    1    2  504  503  0.18826301369E+02 -0.99086232963E+01 -0.23498684991E+03  0.23594793932E+03  0.00000000000E+00 0.  1.
<mgrwt>
<rscale>  2 0.21274643E+02</rscale>
<asrwt>0</asrwt>
<pdfrwt beam="1">  1       21 0.37788410E-03 0.21274643E+02</pdfrwt>
<pdfrwt beam="2">  1       21 0.45036821E-01 0.21274643E+02</pdfrwt>
<totfact> 0.58262644E+07</totfact>
</mgrwt>
</event>
<event>
 4    1  0.4619222E+006  0.5307313E+02  0.7546771E-02  0.1429437E+00
         21   -1    0    0  504  501  0.00000000000E+00  0.00000000000E+00  0.77814144527E+02  0.77814144527E+02  0.00000000000E+00 0.  1.
         21   -1    0    0  503  502 -0.00000000000E+00 -0.00000000000E+00 -0.46394641744E+02  0.46394641744E+02  0.00000000000E+00 0.  1.
         21    1    1    2  503  501 -0.25248841964E+01 -0.53013040602E+02  0.44824010226E+02  0.69469053591E+02  0.00000000000E+00 0.  1.
         21    1    1    2  504  502  0.25248841964E+01  0.53013040602E+02 -0.13404507443E+02  0.54739732680E+02  0.00000000000E+00 0.  1.
<mgrwt>
<rscale>  2 0.53073134E+02</rscale>
<asrwt>0</asrwt>
<pdfrwt beam="1">  1       21 0.11971407E-01 0.53073134E+02</pdfrwt>
<pdfrwt beam="2">  1       21 0.71376372E-02 0.53073134E+02</pdfrwt>
<totfact> 0.78411856E+06</totfact>
</mgrwt>
</event>
<event>
 4    1  0.4619222E+006  0.2077797E+02  0.7546771E-02  0.1730285E+00
         21   -1    0    0  503  501  0.00000000000E+00  0.00000000000E+00  0.35136089789E+02  0.35136089789E+02  0.00000000000E+00 0.  1.
         21   -1    0    0  504  502 -0.00000000000E+00 -0.00000000000E+00 -0.20763427382E+02  0.20763427382E+02  0.00000000000E+00 0.  1.
         21    1    1    2  503  502  0.20464049323E+02 -0.35981776267E+01  0.25044207635E+02  0.32541305029E+02  0.00000000000E+00 0.  1.
         21    1    1    2  504  501 -0.20464049323E+02  0.35981776267E+01 -0.10671545228E+02  0.23358212142E+02  0.00000000000E+00 0.  1.
<mgrwt>
<rscale>  2 0.20777974E+02</rscale>
<asrwt>0</asrwt>
<pdfrwt beam="1">  1       21 0.54055523E-02 0.20777974E+02</pdfrwt>
<pdfrwt beam="2">  1       21 0.31943734E-02 0.20777974E+02</pdfrwt>
<totfact> 0.89134395E+07</totfact>
</mgrwt>
</event>
<event>
 4    1  0.4619222E+006  0.2179313E+02  0.7546771E-02  0.1711855E+00
         21   -1    0    0  504  501  0.00000000000E+00  0.00000000000E+00  0.99851226750E+01  0.99851226750E+01  0.00000000000E+00 0.  1.
         21   -1    0    0  503  502 -0.00000000000E+00 -0.00000000000E+00 -0.10196263916E+03  0.10196263916E+03  0.00000000000E+00 0.  1.
         21    1    1    2  503  501 -0.83528879515E+01  0.20128824660E+02 -0.86872979248E+02  0.89564808059E+02  0.00000000000E+00 0.  1.
         21    1    1    2  504  502  0.83528879515E+01 -0.20128824660E+02 -0.51045372366E+01  0.22382953775E+02  0.00000000000E+00 0.  1.
<mgrwt>
<rscale>  2 0.21793126E+02</rscale>
<asrwt>0</asrwt>
<pdfrwt beam="1">  1       21 0.15361727E-02 0.21793126E+02</pdfrwt>
<pdfrwt beam="2">  1       21 0.15686560E-01 0.21793126E+02</pdfrwt>
<totfact> 0.48295196E+07</totfact>
</mgrwt>
</event>
<event>
 4    1  0.4619222E+006  0.3333113E+02  0.7546771E-02  0.1563940E+00
         21   -1    0    0  503  501  0.00000000000E+00  0.00000000000E+00  0.33814808228E+03  0.33814808228E+03  0.00000000000E+00 0. -1.
         21   -1    0    0  504  502 -0.00000000000E+00 -0.00000000000E+00 -0.45750418492E+02  0.45750418492E+02  0.00000000000E+00 0. -1.
         21    1    1    2  503  502 -0.13262427788E+02 -0.30578949707E+02 -0.38729884608E+02  0.51097633191E+02  0.00000000000E+00 0. -1.
         21    1    1    2  504  501  0.13262427788E+02  0.30578949707E+02  0.33112754840E+03  0.33280086758E+03  0.00000000000E+00 0. -1.
<mgrwt>
<rscale>  2 0.33331129E+02</rscale>
<asrwt>0</asrwt>
<pdfrwt beam="1">  1       21 0.52022780E-01 0.33331129E+02</pdfrwt>
<pdfrwt beam="2">  1       21 0.70385261E-02 0.33331129E+02</pdfrwt>
<totfact> 0.52195417E+05</totfact>
</mgrwt>
</event>
<event>
 4    1  0.4619222E+006  0.2159591E+02  0.7546771E-02  0.1715336E+00
         21   -1    0    0  503  501  0.00000000000E+00  0.00000000000E+00  0.13589553063E+02  0.13589553063E+02  0.00000000000E+00 0.  1.
         21   -1    0    0  504  502 -0.00000000000E+00 -0.00000000000E+00 -0.90337523282E+02  0.90337523282E+02  0.00000000000E+00 0.  1.
         21    1    1    2  503  502  0.14869705798E+02  0.15661261222E+02  0.25454366346E+01  0.21745401842E+02  0.00000000000E+00 0.  1.
         21    1    1    2  504  501 -0.14869705798E+02 -0.15661261222E+02 -0.79293406854E+02  0.82181674503E+02  0.00000000000E+00 0.  1.
<mgrwt>
<rscale>  2 0.21595908E+02</rscale>
<asrwt>0</asrwt>
<pdfrwt beam="1">  1       21 0.20907005E-02 0.21595908E+02</pdfrwt>
<pdfrwt beam="2">  1       21 0.13898081E-01 0.21595908E+02</pdfrwt>
<totfact> 0.36974460E+07</totfact>
</mgrwt>
</event>
<event>
 4    1  0.4619222E+006  0.2074778E+02  0.7546771E-02  0.1730854E+00
         21   -1    0    0  504  501  0.00000000000E+00  0.00000000000E+00  0.10614291830E+02  0.10614291830E+02  0.00000000000E+00 0. -1.
         21   -1    0    0  503  502 -0.00000000000E+00 -0.00000000000E+00 -0.46611816953E+02  0.46611816953E+02  0.00000000000E+00 0. -1.
         21    1    1    2  503  501 -0.17424211230E+02  0.11263538523E+02 -0.28312402688E+02  0.35100749038E+02  0.00000000000E+00 0. -1.
         21    1    1    2  504  502  0.17424211230E+02 -0.11263538523E+02 -0.76851224352E+01  0.22125359746E+02  0.00000000000E+00 0. -1.
<mgrwt>
<rscale>  2 0.20747781E+02</rscale>
<asrwt>0</asrwt>
<pdfrwt beam="1">  1       21 0.16329680E-02 0.20747781E+02</pdfrwt>
<pdfrwt beam="2">  1       21 0.71710488E-02 0.20747781E+02</pdfrwt>
<totfact> 0.15873575E+08</totfact>
</mgrwt>
</event>
<event>
 4    1  0.4619222E+006  0.2828287E+02  0.7546771E-02  0.1617884E+00
         21   -1    0    0  502  501  0.00000000000E+00  0.00000000000E+00  0.21809159115E+02  0.21809159115E+02  0.00000000000E+00 0. -1.
         21   -1    0    0  504  502 -0.00000000000E+00 -0.00000000000E+00 -0.60240526038E+02  0.60240526038E+02  0.00000000000E+00 0. -1.
         21    1    1    2  503  501  0.13105244519E+02 -0.25063384081E+02  0.64416574506E+01  0.29007164739E+02  0.00000000000E+00 0. -1.
         21    1    1    2  504  503 -0.13105244519E+02  0.25063384081E+02 -0.44873024374E+02  0.53042520415E+02  0.00000000000E+00 0. -1.
<mgrwt>
<rscale>  2 0.28282869E+02</rscale>
<asrwt>0</asrwt>
<pdfrwt beam="1">  1       21 0.33552553E-02 0.28282869E+02</pdfrwt>
<pdfrwt beam="2">  1       21 0.92677730E-02 0.28282869E+02</pdfrwt>
<totfact> 0.37202175E+07</totfact>
</mgrwt>
</event>
<event>
 4    1  0.4619222E+006  0.3281222E+02  0.7546771E-02  0.1568934E+00
         21   -1    0    0  503  501  0.00000000000E+00  0.00000000000E+00  0.17744727122E+02  0.17744727122E+02  0.00000000000E+00 0.  1.
         21   -1    0    0  504  502 -0.00000000000E+00 -0.00000000000E+00 -0.64630006894E+02  0.64630006894E+02  0.00000000000E+00 0.  1.
         21    1    1    2  503  502  0.98952129477E+01  0.31284603970E+02 -0.33632806624E+02  0.46987310694E+02  0.00000000000E+00 0.  1.
         21    1    1    2  504  501 -0.98952129477E+01 -0.31284603970E+02 -0.13252473147E+02  0.35387423322E+02  0.00000000000E+00 0.  1.
<mgrwt>
<rscale>  2 0.32812219E+02</rscale>
<asrwt>0</asrwt>
<pdfrwt beam="1">  1       21 0.27299580E-02 0.32812219E+02</pdfrwt>
<pdfrwt beam="2">  1       21 0.99430780E-02 0.32812219E+02</pdfrwt>
<totfact> 0.47240453E+07</totfact>
</mgrwt>
</event>
<event>
 4    1  0.4619222E+006  0.2995972E+02  0.7546771E-02  0.1598534E+00
         21   -1    0    0  503  501  0.00000000000E+00  0.00000000000E+00  0.19129032412E+03  0.19129032412E+03  0.00000000000E+00 0.  1.
         21   -1    0    0  501  502 -0.00000000000E+00 -0.00000000000E+00 -0.78641868064E+01  0.78641868064E+01  0.00000000000E+00 0. -1.
         21    1    1    2  503  504 -0.25103727575E+02 -0.16351990053E+02  0.15495345883E+03  0.15782318943E+03  0.00000000000E+00 0.  1.
         21    1    1    2  504  502  0.25103727575E+02  0.16351990053E+02  0.28472678476E+02  0.41331321494E+02  0.00000000000E+00 0. -1.
<mgrwt>
<rscale>  2 0.29959718E+02</rscale>
<asrwt>0</asrwt>
<pdfrwt beam="1">  1       21 0.29429277E-01 0.29959718E+02</pdfrwt>
<pdfrwt beam="2">  1       21 0.12098750E-02 0.29959718E+02</pdfrwt>
<totfact> 0.24538505E+07</totfact>
</mgrwt>
</event>
<event>
 4    1  0.4619222E+006  0.4429785E+02  0.7546771E-02  0.1478773E+00
         21   -1    0    0  503  501  0.00000000000E+00  0.00000000000E+00  0.27761564239E+03  0.27761564239E+03  0.00000000000E+00 0. -1.
         21   -1    0    0  504  502 -0.00000000000E+00 -0.00000000000E+00 -0.82827269557E+01  0.82827269557E+01  0.00000000000E+00 0. -1.
         21    1    1    2  503  502 -0.45784192206E+01  0.44060613787E+02  0.79931844557E+02  0.91385991181E+02  0.00000000000E+00 0. -1.
         21    1    1    2  504  501  0.45784192206E+01 -0.44060613787E+02  0.18940107088E+03  0.19451237817E+03  0.00000000000E+00 0. -1.
<mgrwt>
<rscale>  2 0.44297851E+02</rscale>
<asrwt>0</asrwt>
<pdfrwt beam="1">  1       21 0.42710092E-01 0.44297851E+02</pdfrwt>
<pdfrwt beam="2">  1       21 0.12742659E-02 0.44297851E+02</pdfrwt>
<totfact> 0.11904256E+07</totfact>
</mgrwt>
</event>
<event>
 4    1  0.4619222E+006  0.3038173E+02  0.7546771E-02  0.1593907E+00
         21   -1    0    0  504  501  0.00000000000E+00  0.00000000000E+00  0.61874451255E+02  0.61874451255E+02  0.00000000000E+00 0.  1.
         21   -1    0    0  501  502 -0.00000000000E+00 -0.00000000000E+00 -0.50784103844E+02  0.50784103844E+02  0.00000000000E+00 0.  1.
         21    1    1    2  503  502 -0.30331898441E+02 -0.17394658833E+01 -0.41793024734E+02  0.51669204765E+02  0.00000000000E+00 0.  1.
         21    1    1    2  504  503  0.30331898441E+02  0.17394658833E+01  0.52883372146E+02  0.60989350333E+02  0.00000000000E+00 0.  1.
<mgrwt>
<rscale>  2 0.30381735E+02</rscale>
<asrwt>0</asrwt>
<pdfrwt beam="1">  1       21 0.95191463E-02 0.30381735E+02</pdfrwt>
<pdfrwt beam="2">  1       21 0.78129391E-02 0.30381735E+02</pdfrwt>
<totfact> 0.92517055E+06</totfact>
</mgrwt>
</event>
<event>
 4    1  0.4619222E+006  0.3299851E+02  0.7546771E-02  0.1567128E+00
         21   -1    0    0  504  501  0.00000000000E+00  0.00000000000E+00  0.17025708466E+01  0.17025708466E+01  0.00000000000E+00 0. -1.
         21   -1    0    0  501  502 -0.00000000000E+00 -0.00000000000E+00 -0.13448679782E+04  0.13448679782E+04  0.00000000000E+00 0. -1.
         21    1    1    2  503  502  0.23101676870E+02 -0.23562987808E+02 -0.11591647040E+04  0.11596343013E+04  0.00000000000E+00 0. -1.
         21    1    1    2  504  503 -0.23101676870E+02  0.23562987808E+02 -0.18400070342E+03  0.18693624776E+03  0.00000000000E+00 0. -1.
<mgrwt>
<rscale>  2 0.32998513E+02</rscale>
<asrwt>0</asrwt>
<pdfrwt beam="1">  1       21 0.26193421E-03 0.32998513E+02</pdfrwt>
<pdfrwt beam="2">  1       21 0.20690258E+00 0.32998513E+02</pdfrwt>
<totfact> 0.36488262E+06</totfact>
</mgrwt>
</event>
<event>
 4    1  0.4619222E+006  0.2446301E+02  0.7546771E-02  0.1668837E+00
         21   -1    0    0  502  501  0.00000000000E+00  0.00000000000E+00  0.81324543709E+02  0.81324543709E+02  0.00000000000E+00 0.  1.
         21   -1    0    0  503  502 -0.00000000000E+00 -0.00000000000E+00 -0.32355943488E+03  0.32355943488E+03  0.00000000000E+00 0. -1.
         21    1    1    2  503  504  0.20102044238E+02  0.13940820637E+02 -0.32124414626E+03  0.32217423883E+03  0.00000000000E+00 0. -1.
         21    1    1    2  504  501 -0.20102044238E+02 -0.13940820637E+02  0.79009255083E+02  0.82709739761E+02  0.00000000000E+00 0.  1.
<mgrwt>
<rscale>  2 0.24463006E+02</rscale>
<asrwt>0</asrwt>
<pdfrwt beam="1">  1       21 0.12511468E-01 0.24463006E+02</pdfrwt>
<pdfrwt beam="2">  1       21 0.49778375E-01 0.24463006E+02</pdfrwt>
<totfact> 0.21659812E+05</totfact>
</mgrwt>
</event>
<event>
 4    1  0.4619222E+006  0.2650890E+02  0.7546771E-02  0.1640229E+00
         21   -1    0    0  504  501  0.00000000000E+00  0.00000000000E+00  0.36198865336E+02  0.36198865336E+02  0.00000000000E+00 0.  1.
         21   -1    0    0  503  502 -0.00000000000E+00 -0.00000000000E+00 -0.37924322128E+02  0.37924322128E+02  0.00000000000E+00 0. -1.
         21    1    1    2  503  501  0.74185231147E+01 -0.25449697874E+02  0.25030497134E+02  0.36458845208E+02  0.00000000000E+00 0.  1.
         21    1    1    2  504  502 -0.74185231147E+01  0.25449697874E+02 -0.26755953926E+02  0.37664342256E+02  0.00000000000E+00 0. -1.
<mgrwt>
<rscale>  2 0.26508897E+02</rscale>
<asrwt>0</asrwt>
<pdfrwt beam="1">  1       21 0.55690562E-02 0.26508897E+02</pdfrwt>
<pdfrwt beam="2">  1       21 0.58345111E-02 0.26508897E+02</pdfrwt>
<totfact> 0.34883635E+07</totfact>
</mgrwt>
</event>
<event>
 4    1  0.4619222E+006  0.2058776E+02  0.7546771E-02  0.1733886E+00
         21   -1    0    0  504  501  0.00000000000E+00  0.00000000000E+00  0.11540895757E+03  0.11540895757E+03  0.00000000000E+00 0.  1.
         21   -1    0    0  503  502 -0.00000000000E+00 -0.00000000000E+00 -0.62412293757E+01  0.62412293757E+01  0.00000000000E+00 0. -1.
         21    1    1    2  503  501 -0.17257466441E+02 -0.11226554677E+02  0.15563172439E+02  0.25808293517E+02  0.00000000000E+00 0. -1.
         21    1    1    2  504  502  0.17257466441E+02  0.11226554677E+02  0.93604555759E+02  0.95841893432E+02  0.00000000000E+00 0.  1.
<mgrwt>
<rscale>  2 0.20587756E+02</rscale>
<asrwt>0</asrwt>
<pdfrwt beam="1">  1       21 0.17755223E-01 0.20587756E+02</pdfrwt>
<pdfrwt beam="2">  1       21 0.96018922E-03 0.20587756E+02</pdfrwt>
<totfact> 0.78090397E+07</totfact>
</mgrwt>
</event>
<event>
 4    1  0.4619222E+006  0.2102557E+02  0.7546771E-02  0.1725670E+00
         21   -1    0    0  504  501  0.00000000000E+00  0.00000000000E+00  0.11917330406E+01  0.11917330406E+01  0.00000000000E+00 0. -1.
         21   -1    0    0  503  502 -0.00000000000E+00 -0.00000000000E+00 -0.48678519675E+03  0.48678519675E+03  0.00000000000E+00 0. -1.
         21    1    1    2  503  501 -0.15373878093E+02 -0.14342887524E+02 -0.12377698304E+03  0.12555005408E+03  0.00000000000E+00 0. -1.
         21    1    1    2  504  502  0.15373878093E+02  0.14342887524E+02 -0.36181648067E+03  0.36242687571E+03  0.00000000000E+00 0. -1.
<mgrwt>
<rscale>  2 0.21025569E+02</rscale>
<asrwt>0</asrwt>
<pdfrwt beam="1">  1       21 0.18334350E-03 0.21025569E+02</pdfrwt>
<pdfrwt beam="2">  1       21 0.74890049E-01 0.21025569E+02</pdfrwt>
<totfact> 0.60418906E+07</totfact>
</mgrwt>
</event>
<event>
 4    1  0.4619222E+006  0.2142654E+02  0.7546771E-02  0.1718363E+00
         21   -1    0    0  503  501  0.00000000000E+00  0.00000000000E+00  0.50457218553E+03  0.50457218553E+03  0.00000000000E+00 0. -1.
         21   -1    0    0  504  502 -0.00000000000E+00 -0.00000000000E+00 -0.13025345383E+01  0.13025345383E+01  0.00000000000E+00 0.  1.
         21    1    1    2  503  502 -0.13705791140E+02 -0.16469603234E+02  0.11275869337E+03  0.11477638900E+03  0.00000000000E+00 0.  1.
         21    1    1    2  504  501  0.13705791140E+02  0.16469603234E+02  0.39051095762E+03  0.39109833107E+03  0.00000000000E+00 0. -1.
<mgrwt>
<rscale>  2 0.21426538E+02</rscale>
<asrwt>0</asrwt>
<pdfrwt beam="1">  1       21 0.77626334E-01 0.21426538E+02</pdfrwt>
<pdfrwt beam="2">  1       21 0.20039033E-03 0.21426538E+02</pdfrwt>
<totfact> 0.49576647E+07</totfact>
</mgrwt>
</event>
<event>
 4    1  0.4619222E+006  0.2113107E+02  0.7546771E-02  0.1723728E+00
         21   -1    0    0  503  501  0.00000000000E+00  0.00000000000E+00  0.64680855131E+02  0.64680855131E+02  0.00000000000E+00 0.  1.
         21   -1    0    0  504  502 -0.00000000000E+00 -0.00000000000E+00 -0.82134482973E+01  0.82134482973E+01  0.00000000000E+00 0.  1.
         21    1    1    2  503  502  0.20400771404E+02  0.55073320850E+01  0.42789410164E+02  0.47722696935E+02  0.00000000000E+00 0.  1.
         21    1    1    2  504  501 -0.20400771404E+02 -0.55073320850E+01  0.13677996670E+02  0.25171606493E+02  0.00000000000E+00 0.  1.
<mgrwt>
<rscale>  2 0.21131071E+02</rscale>
<asrwt>0</asrwt>
<pdfrwt beam="1">  1       21 0.99509005E-02 0.21131071E+02</pdfrwt>
<pdfrwt beam="2">  1       21 0.12636075E-02 0.21131071E+02</pdfrwt>
<totfact> 0.13790056E+08</totfact>
</mgrwt>
</event>
<event>
 4    1  0.4619222E+006  0.2119933E+02  0.7546771E-02  0.1722479E+00
         21   -1    0    0  504  501  0.00000000000E+00  0.00000000000E+00  0.40560881958E+03  0.40560881958E+03  0.00000000000E+00 0. -1.
         21   -1    0    0  501  502 -0.00000000000E+00 -0.00000000000E+00 -0.40770180589E+01  0.40770180589E+01  0.00000000000E+00 0.  1.
         21    1    1    2  503  502 -0.19272589653E+02  0.88305582197E+01  0.25959787406E+02  0.33515996667E+02  0.00000000000E+00 0.  1.
         21    1    1    2  504  503  0.19272589653E+02 -0.88305582197E+01  0.37557201412E+03  0.37616984097E+03  0.00000000000E+00 0. -1.
<mgrwt>
<rscale>  2 0.21199327E+02</rscale>
<asrwt>0</asrwt>
<pdfrwt beam="1">  1       21 0.62401325E-01 0.21199327E+02</pdfrwt>
<pdfrwt beam="2">  1       21 0.62723387E-03 0.21199327E+02</pdfrwt>
<totfact> 0.14612611E+07</totfact>
</mgrwt>
</event>
<event>
 4    1  0.4619222E+006  0.2483639E+02  0.7546771E-02  0.1663363E+00
         21   -1    0    0  503  501  0.00000000000E+00  0.00000000000E+00  0.11823688341E+04  0.11823688341E+04  0.00000000000E+00 0. -1.
         21   -1    0    0  504  502 -0.00000000000E+00 -0.00000000000E+00 -0.52347022248E+00  0.52347022248E+00  0.00000000000E+00 0. -1.
         21    1    1    2  503  502  0.24833753937E+02  0.36204651560E+00  0.55656639138E+03  0.55712026926E+03  0.00000000000E+00 0. -1.
         21    1    1    2  504  501 -0.24833753937E+02 -0.36204651560E+00  0.62527897255E+03  0.62577203511E+03  0.00000000000E+00 0. -1.
<mgrwt>
<rscale>  2 0.24836393E+02</rscale>
<asrwt>0</asrwt>
<pdfrwt beam="1">  1       21 0.18190076E+00 0.24836393E+02</pdfrwt>
<pdfrwt beam="2">  1       21 0.80534827E-04 0.24836393E+02</pdfrwt>
<totfact> 0.27217141E+07</totfact>
</mgrwt>
</event>
<event>
 4    1  0.4619222E+006  0.2458400E+02  0.7546771E-02  0.1667050E+00
         21   -1    0    0  503  501  0.00000000000E+00  0.00000000000E+00  0.32608078303E+02  0.32608078303E+02  0.00000000000E+00 0.  1.
         21   -1    0    0  504  502 -0.00000000000E+00 -0.00000000000E+00 -0.18790497424E+02  0.18790497424E+02  0.00000000000E+00 0. -1.
         21    1    1    2  503  502  0.71748275376E+01  0.23513720456E+02  0.99086551903E+01  0.26505747444E+02  0.00000000000E+00 0.  1.
         21    1    1    2  504  501 -0.71748275376E+01 -0.23513720456E+02  0.39089256886E+01  0.24892828283E+02  0.00000000000E+00 0. -1.
<mgrwt>
<rscale>  2 0.24584003E+02</rscale>
<asrwt>0</asrwt>
<pdfrwt beam="1">  1       21 0.50166274E-02 0.24584003E+02</pdfrwt>
<pdfrwt beam="2">  1       21 0.28908458E-02 0.24584003E+02</pdfrwt>
<totfact> 0.12316118E+08</totfact>
</mgrwt>
</event>
<event>
 4    1  0.4619222E+006  0.3878212E+02  0.7546771E-02  0.1517370E+00
         21   -1    0    0  503  501  0.00000000000E+00  0.00000000000E+00  0.11655347694E+03  0.11655347694E+03  0.00000000000E+00 0. -1.
         21   -1    0    0  504  502 -0.00000000000E+00 -0.00000000000E+00 -0.12905765605E+02  0.12905765605E+02  0.00000000000E+00 0. -1.
         21    1    1    2  503  502  0.24917073161E+02  0.29718548392E+02  0.52489773302E+02  0.65262768519E+02  0.00000000000E+00 0. -1.
         21    1    1    2  504  501 -0.24917073161E+02 -0.29718548392E+02  0.51157938030E+02  0.64196474022E+02  0.00000000000E+00 0. -1.
<mgrwt>
<rscale>  2 0.38782118E+02</rscale>
<asrwt>0</asrwt>
<pdfrwt beam="1">  1       21 0.17931303E-01 0.38782118E+02</pdfrwt>
<pdfrwt beam="2">  1       21 0.19855025E-02 0.38782118E+02</pdfrwt>
<totfact> 0.29162336E+07</totfact>
</mgrwt>
</event>
<event>
 4    1  0.4619222E+006  0.2135871E+02  0.7546771E-02  0.1719585E+00
         21   -1    0    0  504  501  0.00000000000E+00  0.00000000000E+00  0.33241111226E+03  0.33241111226E+03  0.00000000000E+00 0.  1.
         21   -1    0    0  501  502 -0.00000000000E+00 -0.00000000000E+00 -0.10882219535E+02  0.10882219535E+02  0.00000000000E+00 0.  1.
         21    1    1    2  503  502  0.21017519261E+02  0.38023999987E+01  0.30576273796E+00  0.21360895405E+02  0.00000000000E+00 0.  1.
         21    1    1    2  504  503 -0.21017519261E+02 -0.38023999987E+01  0.32122312998E+03  0.32193243639E+03  0.00000000000E+00 0.  1.
<mgrwt>
<rscale>  2 0.21358707E+02</rscale>
<asrwt>0</asrwt>
<pdfrwt beam="1">  1       21 0.51140163E-01 0.21358707E+02</pdfrwt>
<pdfrwt beam="2">  1       21 0.16741879E-02 0.21358707E+02</pdfrwt>
<totfact> 0.49733235E+06</totfact>
</mgrwt>
</event>
<event>
 4    1  0.4619222E+006  0.2026168E+02  0.7546771E-02  0.1740174E+00
         21   -1    0    0  502  501  0.00000000000E+00  0.00000000000E+00  0.51817863285E+03  0.51817863285E+03  0.00000000000E+00 0. -1.
         21   -1    0    0  503  502 -0.00000000000E+00 -0.00000000000E+00 -0.36473183998E+02  0.36473183998E+02  0.00000000000E+00 0. -1.
         21    1    1    2  503  504  0.73146696421E+01  0.18895275336E+02 -0.33444623870E+02  0.39103435754E+02  0.00000000000E+00 0. -1.
         21    1    1    2  504  501 -0.73146696421E+01 -0.18895275336E+02  0.51515007272E+03  0.51554838109E+03  0.00000000000E+00 0. -1.
<mgrwt>
<rscale>  2 0.20261684E+02</rscale>
<asrwt>0</asrwt>
<pdfrwt beam="1">  1       21 0.79719785E-01 0.20261684E+02</pdfrwt>
<pdfrwt beam="2">  1       21 0.56112594E-02 0.20261684E+02</pdfrwt>
<totfact> 0.30921701E+05</totfact>
</mgrwt>
</event>
<event>
 4    1  0.4619222E+006  0.2541782E+02  0.7546771E-02  0.1655072E+00
         21   -1    0    0  504  501  0.00000000000E+00  0.00000000000E+00  0.55794085993E+02  0.55794085993E+02  0.00000000000E+00 0. -1.
         21   -1    0    0  503  502 -0.00000000000E+00 -0.00000000000E+00 -0.26035304778E+02  0.26035304778E+02  0.00000000000E+00 0. -1.
         21    1    1    2  503  501  0.22282114863E+02 -0.12229995469E+02 -0.15607962101E+02  0.29827402048E+02  0.00000000000E+00 0. -1.
         21    1    1    2  504  502 -0.22282114863E+02  0.12229995469E+02  0.45366743317E+02  0.52001988723E+02  0.00000000000E+00 0. -1.
<mgrwt>
<rscale>  2 0.25417817E+02</rscale>
<asrwt>0</asrwt>
<pdfrwt beam="1">  1       21 0.85837056E-02 0.25417817E+02</pdfrwt>
<pdfrwt beam="2">  1       21 0.40054315E-02 0.25417817E+02</pdfrwt>
<totfact> 0.31178268E+07</totfact>
</mgrwt>
</event>
<event>
 4    1  0.4619222E+006  0.2643602E+02  0.7546771E-02  0.1641193E+00
         21   -1    0    0  502  501  0.00000000000E+00  0.00000000000E+00  0.22674190784E+03  0.22674190784E+03  0.00000000000E+00 0. -1.
         21   -1    0    0  503  502 -0.00000000000E+00 -0.00000000000E+00 -0.10552554927E+03  0.10552554927E+03  0.00000000000E+00 0. -1.
         21    1    1    2  503  504  0.26318005272E+02  0.24951950496E+01 -0.10308134651E+03  0.10641723262E+03  0.00000000000E+00 0. -1.
         21    1    1    2  504  501 -0.26318005272E+02 -0.24951950496E+01  0.22429770507E+03  0.22585022449E+03  0.00000000000E+00 0. -1.
<mgrwt>
<rscale>  2 0.26436025E+02</rscale>
<asrwt>0</asrwt>
<pdfrwt beam="1">  1       21 0.34883370E-01 0.26436025E+02</pdfrwt>
<pdfrwt beam="2">  1       21 0.16234700E-01 0.26436025E+02</pdfrwt>
<totfact> 0.27400002E+05</totfact>
</mgrwt>
</event>
<event>
 4    1  0.4619222E+006  0.2752628E+02  0.7546771E-02  0.1627161E+00
         21   -1    0    0  504  501  0.00000000000E+00  0.00000000000E+00  0.57759431422E+03  0.57759431422E+03  0.00000000000E+00 0.  1.
         21   -1    0    0  501  502 -0.00000000000E+00 -0.00000000000E+00 -0.25721675569E+01  0.25721675569E+01  0.00000000000E+00 0.  1.
         21    1    1    2  503  502 -0.27392007599E+02 -0.27154795066E+01  0.84453437564E+02  0.88826116799E+02  0.00000000000E+00 0.  1.
         21    1    1    2  504  503  0.27392007599E+02  0.27154795066E+01  0.49056870910E+03  0.49134036498E+03  0.00000000000E+00 0.  1.
<mgrwt>
<rscale>  2 0.27526277E+02</rscale>
<asrwt>0</asrwt>
<pdfrwt beam="1">  1       21 0.88860560E-01 0.27526277E+02</pdfrwt>
<pdfrwt beam="2">  1       21 0.39571855E-03 0.27526277E+02</pdfrwt>
<totfact> 0.14508975E+07</totfact>
</mgrwt>
</event>
<event>
 4    1  0.4619222E+006  0.2664734E+02  0.7546771E-02  0.1638409E+00
         21   -1    0    0  504  501  0.00000000000E+00  0.00000000000E+00  0.19423514048E+03  0.19423514048E+03  0.00000000000E+00 0. -1.
         21   -1    0    0  503  502 -0.00000000000E+00 -0.00000000000E+00 -0.51273558175E+01  0.51273558175E+01  0.00000000000E+00 0. -1.
         21    1    1    2  503  501  0.24199511877E+02 -0.11156368684E+02  0.41151825784E+02  0.49026051265E+02  0.00000000000E+00 0. -1.
         21    1    1    2  504  502 -0.24199511877E+02  0.11156368684E+02  0.14795595888E+03  0.15033644503E+03  0.00000000000E+00 0. -1.
<mgrwt>
<rscale>  2 0.26647344E+02</rscale>
<asrwt>0</asrwt>
<pdfrwt beam="1">  1       21 0.29882324E-01 0.26647344E+02</pdfrwt>
<pdfrwt beam="2">  1       21 0.78882412E-03 0.26647344E+02</pdfrwt>
<totfact> 0.44467169E+07</totfact>
</mgrwt>
</event>
<event>
 4    1  0.4619222E+006  0.2009596E+02  0.7546771E-02  0.1743426E+00
         21   -1    0    0  503  501  0.00000000000E+00  0.00000000000E+00  0.87345369380E+00  0.87345369380E+00  0.00000000000E+00 0.  1.
         21   -1    0    0  504  502 -0.00000000000E+00 -0.00000000000E+00 -0.47978988941E+03  0.47978988941E+03  0.00000000000E+00 0.  1.
         21    1    1    2  503  502 -0.19984656526E+02  0.21121764272E+01 -0.19364771399E+03  0.19468765991E+03  0.00000000000E+00 0.  1.
         21    1    1    2  504  501  0.19984656526E+02 -0.21121764272E+01 -0.28526872172E+03  0.28597568319E+03  0.00000000000E+00 0.  1.
<mgrwt>
<rscale>  2 0.20095964E+02</rscale>
<asrwt>0</asrwt>
<pdfrwt beam="1">  1       21 0.13437730E-03 0.20095964E+02</pdfrwt>
<pdfrwt beam="2">  1       21 0.73813933E-01 0.20095964E+02</pdfrwt>
<totfact> 0.95988320E+07</totfact>
</mgrwt>
</event>
<event>
 4    1  0.4619222E+006  0.2446081E+02  0.7546771E-02  0.1668869E+00
         21   -1    0    0  504  501  0.00000000000E+00  0.00000000000E+00  0.85395479959E+00  0.85395479959E+00  0.00000000000E+00 0. -1.
         21   -1    0    0  501  502 -0.00000000000E+00 -0.00000000000E+00 -0.70536923824E+03  0.70536923824E+03  0.00000000000E+00 0. -1.
         21    1    1    2  503  502  0.52056297644E+01  0.23900476412E+02 -0.38111205911E+03  0.38189623322E+03  0.00000000000E+00 0. -1.
         21    1    1    2  504  503 -0.52056297644E+01 -0.23900476412E+02 -0.32340322433E+03  0.32432695982E+03  0.00000000000E+00 0. -1.
<mgrwt>
<rscale>  2 0.24460813E+02</rscale>
<asrwt>0</asrwt>
<pdfrwt beam="1">  1       21 0.13137754E-03 0.24460813E+02</pdfrwt>
<pdfrwt beam="2">  1       21 0.10851844E+00 0.24460813E+02</pdfrwt>
<totfact> 0.45532936E+07</totfact>
</mgrwt>
</event>
<event>
 4    1  0.4619222E+006  0.2001937E+02  0.7546771E-02  0.1744943E+00
         21   -1    0    0  503  501  0.00000000000E+00  0.00000000000E+00  0.29247622978E+02  0.29247622978E+02  0.00000000000E+00 0. -1.
         21   -1    0    0  504  502 -0.00000000000E+00 -0.00000000000E+00 -0.16579312017E+03  0.16579312017E+03  0.00000000000E+00 0. -1.
         21    1    1    2  503  502  0.14089701816E+02  0.14221661163E+02 -0.16167618023E+03  0.16291090386E+03  0.00000000000E+00 0. -1.
         21    1    1    2  504  501 -0.14089701816E+02 -0.14221661163E+02  0.25130683030E+02  0.32129839294E+02  0.00000000000E+00 0. -1.
<mgrwt>
<rscale>  2 0.20019374E+02</rscale>
<asrwt>0</asrwt>
<pdfrwt beam="1">  1       21 0.44996343E-02 0.20019374E+02</pdfrwt>
<pdfrwt beam="2">  1       21 0.25506634E-01 0.20019374E+02</pdfrwt>
<totfact> 0.38744150E+06</totfact>
</mgrwt>
</event>
<event>
 4    1  0.4619222E+006  0.2362320E+02  0.7546771E-02  0.1681603E+00
         21   -1    0    0  504  501  0.00000000000E+00  0.00000000000E+00  0.98116003120E+02  0.98116003120E+02  0.00000000000E+00 0.  1.
         21   -1    0    0  503  502 -0.00000000000E+00 -0.00000000000E+00 -0.57192147775E+01  0.57192147775E+01  0.00000000000E+00 0.  1.
         21    1    1    2  503  501 -0.21826721713E+02  0.90360325864E+01  0.42345260562E+02  0.48488934384E+02  0.00000000000E+00 0.  1.
         21    1    1    2  504  502  0.21826721713E+02 -0.90360325864E+01  0.50051527780E+02  0.55346283513E+02  0.00000000000E+00 0.  1.
<mgrwt>
<rscale>  2 0.23623202E+02</rscale>
<asrwt>0</asrwt>
<pdfrwt beam="1">  1       21 0.15094768E-01 0.23623202E+02</pdfrwt>
<pdfrwt beam="2">  1       21 0.87987927E-03 0.23623202E+02</pdfrwt>
<totfact> 0.12212542E+08</totfact>
</mgrwt>
</event>
<event>
 4    1  0.4619222E+006  0.2364424E+02  0.7546771E-02  0.1681275E+00
         21   -1    0    0  503  501  0.00000000000E+00  0.00000000000E+00  0.14237569288E+03  0.14237569288E+03  0.00000000000E+00 0.  1.
         21   -1    0    0  504  502 -0.00000000000E+00 -0.00000000000E+00 -0.10087024808E+03  0.10087024808E+03  0.00000000000E+00 0.  1.
         21    1    1    2  503  502 -0.22779612484E+02  0.63355441991E+01  0.13998498378E+03  0.14196776235E+03  0.00000000000E+00 0.  1.
         21    1    1    2  504  501  0.22779612484E+02 -0.63355441991E+01 -0.98479538975E+02  0.10127817861E+03  0.00000000000E+00 0.  1.
<mgrwt>
<rscale>  2 0.23644235E+02</rscale>
<asrwt>0</asrwt>
<pdfrwt beam="1">  1       21 0.21903953E-01 0.23644235E+02</pdfrwt>
<pdfrwt beam="2">  1       21 0.15518500E-01 0.23644235E+02</pdfrwt>
<totfact> 0.68325022E+05</totfact>
</mgrwt>
</event>
<event>
 4    1  0.4619222E+006  0.2237902E+02  0.7546771E-02  0.1701778E+00
         21   -1    0    0  504  501  0.00000000000E+00  0.00000000000E+00  0.33422148907E+00  0.33422148907E+00  0.00000000000E+00 0.  1.
         21   -1    0    0  503  502 -0.00000000000E+00 -0.00000000000E+00 -0.20584347276E+04  0.20584347276E+04  0.00000000000E+00 0.  1.
         21    1    1    2  503  501  0.78953116150E+01 -0.20940028852E+02 -0.49215503022E+03  0.49266357134E+03  0.00000000000E+00 0.  1.
         21    1    1    2  504  502 -0.78953116150E+01  0.20940028852E+02 -0.15659454759E+04  0.15661053777E+04  0.00000000000E+00 0.  1.
<mgrwt>
<rscale>  2 0.22379025E+02</rscale>
<asrwt>0</asrwt>
<pdfrwt beam="1">  1       21 0.51418058E-04 0.22379025E+02</pdfrwt>
<pdfrwt beam="2">  1       21 0.31668616E+00 0.22379025E+02</pdfrwt>
<totfact> 0.10349262E+07</totfact>
</mgrwt>
</event>
<event>
 4    1  0.4619222E+006  0.2035523E+02  0.7546771E-02  0.1738355E+00
         21   -1    0    0  504  501  0.00000000000E+00  0.00000000000E+00  0.69639810082E+02  0.69639810082E+02  0.00000000000E+00 0. -1.
         21   -1    0    0  503  502 -0.00000000000E+00 -0.00000000000E+00 -0.19639107398E+02  0.19639107398E+02  0.00000000000E+00 0.  1.
         21    1    1    2  503  501 -0.20326722506E+02 -0.10769919033E+01  0.62269585369E+02  0.65512112021E+02  0.00000000000E+00 0. -1.
         21    1    1    2  504  502  0.20326722506E+02  0.10769919033E+01 -0.12268882684E+02  0.23766805459E+02  0.00000000000E+00 0.  1.
<mgrwt>
<rscale>  2 0.20355234E+02</rscale>
<asrwt>0</asrwt>
<pdfrwt beam="1">  1       21 0.10713817E-01 0.20355234E+02</pdfrwt>
<pdfrwt beam="2">  1       21 0.30214012E-02 0.20355234E+02</pdfrwt>
<totfact> 0.31898730E+07</totfact>
</mgrwt>
</event>
<event>
 4    1  0.4619222E+006  0.2038955E+02  0.7546771E-02  0.1737691E+00
         21   -1    0    0  503  501  0.00000000000E+00  0.00000000000E+00  0.57487810789E+02  0.57487810789E+02  0.00000000000E+00 0.  1.
         21   -1    0    0  504  502 -0.00000000000E+00 -0.00000000000E+00 -0.16561863807E+02  0.16561863807E+02  0.00000000000E+00 0.  1.
         21    1    1    2  503  502 -0.20027731692E+02 -0.38240784678E+01 -0.73267092486E+01  0.21665970582E+02  0.00000000000E+00 0.  1.
         21    1    1    2  504  501  0.20027731692E+02  0.38240784678E+01  0.48252656231E+02  0.52383704014E+02  0.00000000000E+00 0.  1.
<mgrwt>
<rscale>  2 0.20389547E+02</rscale>
<asrwt>0</asrwt>
<pdfrwt beam="1">  1       21 0.88442785E-02 0.20389547E+02</pdfrwt>
<pdfrwt beam="2">  1       21 0.25479791E-02 0.20389547E+02</pdfrwt>
<totfact> 0.56905673E+07</totfact>
</mgrwt>
</event>
<event>
 4    1  0.4619222E+006  0.2040455E+02  0.7546771E-02  0.1737401E+00
         21   -1    0    0  504  501  0.00000000000E+00  0.00000000000E+00  0.36052883762E+01  0.36052883762E+01  0.00000000000E+00 0. -1.
         21   -1    0    0  503  502 -0.00000000000E+00 -0.00000000000E+00 -0.11558362963E+03  0.11558362963E+03  0.00000000000E+00 0. -1.
         21    1    1    2  503  501 -0.18335992364E+02 -0.89519245197E+01 -0.54221214585E+02  0.57933459069E+02  0.00000000000E+00 0. -1.
         21    1    1    2  504  502  0.18335992364E+02  0.89519245197E+01 -0.57757126666E+02  0.61255458935E+02  0.00000000000E+00 0. -1.
<mgrwt>
<rscale>  2 0.20404548E+02</rscale>
<asrwt>0</asrwt>
<pdfrwt beam="1">  1       21 0.55465982E-03 0.20404548E+02</pdfrwt>
<pdfrwt beam="2">  1       21 0.17782095E-01 0.20404548E+02</pdfrwt>
<totfact> 0.17531204E+08</totfact>
</mgrwt>
</event>
<event>
 4    1  0.4619222E+006  0.2025968E+02  0.7546771E-02  0.1740213E+00
         21   -1    0    0  503  501  0.00000000000E+00  0.00000000000E+00  0.37413431655E+02  0.37413431655E+02  0.00000000000E+00 0.  1.
         21   -1    0    0  504  502 -0.00000000000E+00 -0.00000000000E+00 -0.11863336411E+02  0.11863336411E+02  0.00000000000E+00 0.  1.
         21    1    1    2  503  502  0.61939069816E+01 -0.19289641485E+02  0.60169389074E+01  0.21134292184E+02  0.00000000000E+00 0.  1.
         21    1    1    2  504  501 -0.61939069816E+01  0.19289641485E+02  0.19533156336E+02  0.28142475882E+02  0.00000000000E+00 0.  1.
<mgrwt>
<rscale>  2 0.20259683E+02</rscale>
<asrwt>0</asrwt>
<pdfrwt beam="1">  1       21 0.57559125E-02 0.20259683E+02</pdfrwt>
<pdfrwt beam="2">  1       21 0.18251287E-02 0.20259683E+02</pdfrwt>
<totfact> 0.18929433E+08</totfact>
</mgrwt>
</event>
<event>
 4    1  0.4619222E+006  0.2009998E+02  0.7546771E-02  0.1743347E+00
         21   -1    0    0  504  501  0.00000000000E+00  0.00000000000E+00  0.85877051595E+03  0.85877051595E+03  0.00000000000E+00 0.  1.
         21   -1    0    0  503  502 -0.00000000000E+00 -0.00000000000E+00 -0.49432685267E+00  0.49432685267E+00  0.00000000000E+00 0.  1.
         21    1    1    2  503  501 -0.69473060707E+01  0.18861175846E+02  0.52356026224E+03  0.52394594875E+03  0.00000000000E+00 0.  1.
         21    1    1    2  504  502  0.69473060707E+01 -0.18861175846E+02  0.33471592685E+03  0.33531889404E+03  0.00000000000E+00 0.  1.
<mgrwt>
<rscale>  2 0.20099976E+02</rscale>
<asrwt>0</asrwt>
<pdfrwt beam="1">  1       21 0.13211735E+00 0.20099976E+02</pdfrwt>
<pdfrwt beam="2">  1       21 0.76050972E-04 0.20099976E+02</pdfrwt>
<totfact> 0.60858272E+07</totfact>
</mgrwt>
</event>
<event>
 4    1  0.4619222E+006  0.2163969E+02  0.7546771E-02  0.1714559E+00
         21   -1    0    0  503  501  0.00000000000E+00  0.00000000000E+00  0.77226101008E+01  0.77226101008E+01  0.00000000000E+00 0.  1.
         21   -1    0    0  501  502 -0.00000000000E+00 -0.00000000000E+00 -0.91608308717E+02  0.91608308717E+02  0.00000000000E+00 0.  1.
         21    1    1    2  503  504 -0.21572770482E+02 -0.17005075503E+01 -0.13064884554E+02  0.25277803714E+02  0.00000000000E+00 0.  1.
         21    1    1    2  504  502  0.21572770482E+02  0.17005075503E+01 -0.70820814062E+02  0.74053115104E+02  0.00000000000E+00 0.  1.
<mgrwt>
<rscale>  2 0.21639689E+02</rscale>
<asrwt>0</asrwt>
<pdfrwt beam="1">  1       21 0.11880938E-02 0.21639689E+02</pdfrwt>
<pdfrwt beam="2">  1       21 0.14093586E-01 0.21639689E+02</pdfrwt>
<totfact> 0.85259185E+07</totfact>
</mgrwt>
</event>
<event>
 4    1  0.4619222E+006  0.2821064E+02  0.7546771E-02  0.1618754E+00
         21   -1    0    0  504  501  0.00000000000E+00  0.00000000000E+00  0.20539280310E+02  0.20539280310E+02  0.00000000000E+00 0.  1.
         21   -1    0    0  503  502 -0.00000000000E+00 -0.00000000000E+00 -0.47965480937E+02  0.47965480937E+02  0.00000000000E+00 0. -1.
         21    1    1    2  503  501  0.17538813665E+02 -0.22095935056E+02  0.13027694779E+01  0.28240707128E+02  0.00000000000E+00 0.  1.
         21    1    1    2  504  502 -0.17538813665E+02  0.22095935056E+02 -0.28728970105E+02  0.40264054119E+02  0.00000000000E+00 0. -1.
<mgrwt>
<rscale>  2 0.28210642E+02</rscale>
<asrwt>0</asrwt>
<pdfrwt beam="1">  1       21 0.31598893E-02 0.28210642E+02</pdfrwt>
<pdfrwt beam="2">  1       21 0.73793047E-02 0.28210642E+02</pdfrwt>
<totfact> 0.59491019E+07</totfact>
</mgrwt>
</event>
<event>
 4    1  0.4619222E+006  0.2177447E+02  0.7546771E-02  0.1712182E+00
         21   -1    0    0  504  501  0.00000000000E+00  0.00000000000E+00  0.15901705784E+03  0.15901705784E+03  0.00000000000E+00 0. -1.
         21   -1    0    0  503  502 -0.00000000000E+00 -0.00000000000E+00 -0.59355557909E+02  0.59355557909E+02  0.00000000000E+00 0. -1.
         21    1    1    2  503  501  0.21668138250E+02  0.21492157302E+01 -0.56577842330E+02  0.60623259448E+02  0.00000000000E+00 0. -1.
         21    1    1    2  504  502 -0.21668138250E+02 -0.21492157302E+01  0.15623934226E+03  0.15774935631E+03  0.00000000000E+00 0. -1.
<mgrwt>
<rscale>  2 0.21774465E+02</rscale>
<asrwt>0</asrwt>
<pdfrwt beam="1">  1       21 0.24464163E-01 0.21774465E+02</pdfrwt>
<pdfrwt beam="2">  1       21 0.91316243E-02 0.21774465E+02</pdfrwt>
<totfact> 0.13540333E+06</totfact>
</mgrwt>
</event>
<event>
 4    1  0.4619222E+006  0.2660887E+02  0.7546771E-02  0.1638913E+00
         21   -1    0    0  504  501  0.00000000000E+00  0.00000000000E+00  0.24354152735E+03  0.24354152735E+03  0.00000000000E+00 0. -1.
         21   -1    0    0  503  502 -0.00000000000E+00 -0.00000000000E+00 -0.30684199818E+01  0.30684199818E+01  0.00000000000E+00 0. -1.
         21    1    1    2  503  501  0.39828914891E+01  0.26309092379E+02  0.14849766755E+03  0.15086281528E+03  0.00000000000E+00 0. -1.
         21    1    1    2  504  502 -0.39828914891E+01 -0.26309092379E+02  0.91975439819E+02  0.95747132053E+02  0.00000000000E+00 0. -1.
<mgrwt>
<rscale>  2 0.26608866E+02</rscale>
<asrwt>0</asrwt>
<pdfrwt beam="1">  1       21 0.37467912E-01 0.26608866E+02</pdfrwt>
<pdfrwt beam="2">  1       21 0.47206480E-03 0.26608866E+02</pdfrwt>
<totfact> 0.62794240E+07</totfact>
</mgrwt>
</event>
<event>
 4    1  0.4619222E+006  0.2041200E+02  0.7546771E-02  0.1737257E+00
         21   -1    0    0  504  501  0.00000000000E+00  0.00000000000E+00  0.13314185994E+03  0.13314185994E+03  0.00000000000E+00 0.  1.
         21   -1    0    0  503  502 -0.00000000000E+00 -0.00000000000E+00 -0.38393401214E+02  0.38393401214E+02  0.00000000000E+00 0.  1.
         21    1    1    2  503  501  0.20151771978E+02  0.32489715702E+01  0.12957220396E+03  0.13117014054E+03  0.00000000000E+00 0.  1.
         21    1    1    2  504  502 -0.20151771978E+02 -0.32489715702E+01 -0.34823745234E+02  0.40365120615E+02  0.00000000000E+00 0.  1.
<mgrwt>
<rscale>  2 0.20412000E+02</rscale>
<asrwt>0</asrwt>
<pdfrwt beam="1">  1       21 0.20483363E-01 0.20412000E+02</pdfrwt>
<pdfrwt beam="2">  1       21 0.59066772E-02 0.20412000E+02</pdfrwt>
<totfact> 0.37117106E+06</totfact>
</mgrwt>
</event>
<event>
 4    1  0.4619222E+006  0.2664161E+02  0.7546771E-02  0.1638484E+00
         21   -1    0    0  504  501  0.00000000000E+00  0.00000000000E+00  0.60055853705E+02  0.60055853705E+02  0.00000000000E+00 0.  1.
         21   -1    0    0  501  502 -0.00000000000E+00 -0.00000000000E+00 -0.17088922549E+03  0.17088922549E+03  0.00000000000E+00 0. -1.
         21    1    1    2  503  502  0.20520077947E+02  0.16991224203E+02 -0.16682468890E+03  0.16893860461E+03  0.00000000000E+00 0. -1.
         21    1    1    2  504  503 -0.20520077947E+02 -0.16991224203E+02  0.55991317115E+02  0.62006474591E+02  0.00000000000E+00 0.  1.
<mgrwt>
<rscale>  2 0.26641608E+02</rscale>
<asrwt>0</asrwt>
<pdfrwt beam="1">  1       21 0.92393624E-02 0.26641608E+02</pdfrwt>
<pdfrwt beam="2">  1       21 0.26290649E-01 0.26641608E+02</pdfrwt>
<totfact> 0.11916856E+06</totfact>
</mgrwt>
</event>
<event>
 4    1  0.4619222E+006  0.2025668E+02  0.7546771E-02  0.1740271E+00
         21   -1    0    0  504  501  0.00000000000E+00  0.00000000000E+00  0.13891588460E+03  0.13891588460E+03  0.00000000000E+00 0.  1.
         21   -1    0    0  503  502 -0.00000000000E+00 -0.00000000000E+00 -0.37942495435E+01  0.37942495435E+01  0.00000000000E+00 0.  1.
         21    1    1    2  503  501  0.13602431505E+02  0.15010224299E+02  0.10114321340E+03  0.10315174546E+03  0.00000000000E+00 0.  1.
         21    1    1    2  504  502 -0.13602431505E+02 -0.15010224299E+02  0.33978421664E+02  0.39558388682E+02  0.00000000000E+00 0.  1.
<mgrwt>
<rscale>  2 0.20256677E+02</rscale>
<asrwt>0</asrwt>
<pdfrwt beam="1">  1       21 0.21371671E-01 0.20256677E+02</pdfrwt>
<pdfrwt beam="2">  1       21 0.58373081E-03 0.20256677E+02</pdfrwt>
<totfact> 0.11800827E+08</totfact>
</mgrwt>
</event>
<event>
 4    1  0.4619222E+006  0.2046252E+02  0.7546771E-02  0.1736284E+00
         21   -1    0    0  504  501  0.00000000000E+00  0.00000000000E+00  0.70870522642E+01  0.70870522642E+01  0.00000000000E+00 0.  1.
         21   -1    0    0  503  502 -0.00000000000E+00 -0.00000000000E+00 -0.63632908738E+02  0.63632908738E+02  0.00000000000E+00 0.  1.
         21    1    1    2  503  501  0.68830114275E+01 -0.19270149956E+02 -0.37729600637E+02  0.42921291801E+02  0.00000000000E+00 0.  1.
         21    1    1    2  504  502 -0.68830114275E+01  0.19270149956E+02 -0.18816255837E+02  0.27798669201E+02  0.00000000000E+00 0.  1.
<mgrwt>
<rscale>  2 0.20462515E+02</rscale>
<asrwt>0</asrwt>
<pdfrwt beam="1">  1       21 0.10903157E-02 0.20462515E+02</pdfrwt>
<pdfrwt beam="2">  1       21 0.97896783E-02 0.20462515E+02</pdfrwt>
<totfact> 0.17508381E+08</totfact>
</mgrwt>
</event>
<event>
 4    1  0.4619222E+006  0.2899982E+02  0.7546771E-02  0.1609415E+00
         21   -1    0    0  502  501  0.00000000000E+00  0.00000000000E+00  0.75941725628E+02  0.75941725628E+02  0.00000000000E+00 0. -1.
         21   -1    0    0  504  502 -0.00000000000E+00 -0.00000000000E+00 -0.24559242158E+02  0.24559242158E+02  0.00000000000E+00 0. -1.
         21    1    1    2  503  501 -0.28528830569E+02 -0.52053452536E+01  0.62926964124E+02  0.69287752213E+02  0.00000000000E+00 0. -1.
         21    1    1    2  504  503  0.28528830569E+02  0.52053452536E+01 -0.11544480654E+02  0.31213215573E+02  0.00000000000E+00 0. -1.
<mgrwt>
<rscale>  2 0.28999824E+02</rscale>
<asrwt>0</asrwt>
<pdfrwt beam="1">  1       21 0.11683342E-01 0.28999824E+02</pdfrwt>
<pdfrwt beam="2">  1       21 0.37783450E-02 0.28999824E+02</pdfrwt>
<totfact> 0.21038099E+07</totfact>
</mgrwt>
</event>
<event>
 4    1  0.4619222E+006  0.2355855E+02  0.7546771E-02  0.1682613E+00
         21   -1    0    0  503  501  0.00000000000E+00  0.00000000000E+00  0.20892200453E+02  0.20892200453E+02  0.00000000000E+00 0. -1.
         21   -1    0    0  504  502 -0.00000000000E+00 -0.00000000000E+00 -0.26783854140E+02  0.26783854140E+02  0.00000000000E+00 0. -1.
         21    1    1    2  503  502  0.23529720336E+02 -0.11652086782E+01 -0.79198304649E+00  0.23571862198E+02  0.00000000000E+00 0. -1.
         21    1    1    2  504  501 -0.23529720336E+02  0.11652086782E+01 -0.50996706400E+01  0.24104192394E+02  0.00000000000E+00 0. -1.
<mgrwt>
<rscale>  2 0.23558554E+02</rscale>
<asrwt>0</asrwt>
<pdfrwt beam="1">  1       21 0.32141847E-02 0.23558554E+02</pdfrwt>
<pdfrwt beam="2">  1       21 0.41205930E-02 0.23558554E+02</pdfrwt>
<totfact> 0.14087615E+08</totfact>
</mgrwt>
</event>
<event>
 4    1  0.4619222E+006  0.2134376E+02  0.7546771E-02  0.1719855E+00
         21   -1    0    0  504  501  0.00000000000E+00  0.00000000000E+00  0.73440819363E+00  0.73440819363E+00  0.00000000000E+00 0.  1.
         21   -1    0    0  503  502 -0.00000000000E+00 -0.00000000000E+00 -0.62267886689E+03  0.62267886689E+03  0.00000000000E+00 0.  1.
         21    1    1    2  503  501 -0.77928744390E+01 -0.19870257571E+02 -0.33022408017E+03  0.33091312932E+03  0.00000000000E+00 0.  1.
         21    1    1    2  504  502  0.77928744390E+01  0.19870257571E+02 -0.29172037852E+03  0.29250014577E+03  0.00000000000E+00 0.  1.
<mgrwt>
<rscale>  2 0.21343759E+02</rscale>
<asrwt>0</asrwt>
<pdfrwt beam="1">  1       21 0.11298558E-03 0.21343759E+02</pdfrwt>
<pdfrwt beam="2">  1       21 0.95797001E-01 0.21343759E+02</pdfrwt>
<totfact> 0.72052587E+07</totfact>
</mgrwt>
</event>
<event>
 4    1  0.4619222E+006  0.2286508E+02  0.7546771E-02  0.1693707E+00
         21   -1    0    0  504  501  0.00000000000E+00  0.00000000000E+00  0.18518737055E+02  0.18518737055E+02  0.00000000000E+00 0.  1.
         21   -1    0    0  503  502 -0.00000000000E+00 -0.00000000000E+00 -0.31430751392E+02  0.31430751392E+02  0.00000000000E+00 0.  1.
         21    1    1    2  503  501 -0.22030330669E+02 -0.61217970569E+01  0.15119561384E+01  0.22915014291E+02  0.00000000000E+00 0.  1.
         21    1    1    2  504  502  0.22030330669E+02  0.61217970569E+01 -0.14423970476E+02  0.27034474156E+02  0.00000000000E+00 0.  1.
<mgrwt>
<rscale>  2 0.22865080E+02</rscale>
<asrwt>0</asrwt>
<pdfrwt beam="1">  1       21 0.28490365E-02 0.22865080E+02</pdfrwt>
<pdfrwt beam="2">  1       21 0.48355002E-02 0.22865080E+02</pdfrwt>
<totfact> 0.13076301E+08</totfact>
</mgrwt>
</event>
<event>
 4    1  0.4619222E+006  0.2217993E+02  0.7546771E-02  0.1705159E+00
         21   -1    0    0  504  501  0.00000000000E+00  0.00000000000E+00  0.75747391332E+03  0.75747391332E+03  0.00000000000E+00 0.  1.
         21   -1    0    0  501  502 -0.00000000000E+00 -0.00000000000E+00 -0.14151679191E+01  0.14151679191E+01  0.00000000000E+00 0. -1.
         21    1    1    2  503  502 -0.21175492267E+02 -0.65990826055E+01  0.98919141046E+02  0.10137527228E+03  0.00000000000E+00 0. -1.
         21    1    1    2  504  503  0.21175492267E+02  0.65990826055E+01  0.65713960436E+03  0.65751380897E+03  0.00000000000E+00 0.  1.
<mgrwt>
<rscale>  2 0.22179932E+02</rscale>
<asrwt>0</asrwt>
<pdfrwt beam="1">  1       21 0.11653412E+00 0.22179932E+02</pdfrwt>
<pdfrwt beam="2">  1       21 0.21771875E-03 0.22179932E+02</pdfrwt>
<totfact> 0.18414405E+07</totfact>
</mgrwt>
</event>
<event>
 4    1  0.4619222E+006  0.2627017E+02  0.7546771E-02  0.1643401E+00
         21   -1    0    0  503  501  0.00000000000E+00  0.00000000000E+00  0.29539675072E+03  0.29539675072E+03  0.00000000000E+00 0. -1.
         21   -1    0    0  504  502 -0.00000000000E+00 -0.00000000000E+00 -0.38310713965E+01  0.38310713965E+01  0.00000000000E+00 0. -1.
         21    1    1    2  503  502 -0.22288566129E+02  0.13904729808E+02  0.52327095858E+02  0.58551231003E+02  0.00000000000E+00 0. -1.
         21    1    1    2  504  501  0.22288566129E+02 -0.13904729808E+02  0.23923858347E+03  0.24067659111E+03  0.00000000000E+00 0. -1.
<mgrwt>
<rscale>  2 0.26270167E+02</rscale>
<asrwt>0</asrwt>
<pdfrwt beam="1">  1       21 0.45445636E-01 0.26270167E+02</pdfrwt>
<pdfrwt beam="2">  1       21 0.58939583E-03 0.26270167E+02</pdfrwt>
<totfact> 0.31195879E+07</totfact>
</mgrwt>
</event>
<event>
 4    1  0.4619222E+006  0.2752158E+02  0.7546771E-02  0.1627219E+00
         21   -1    0    0  503  501  0.00000000000E+00  0.00000000000E+00  0.12755952007E+04  0.12755952007E+04  0.00000000000E+00 0.  1.
         21   -1    0    0  504  502 -0.00000000000E+00 -0.00000000000E+00 -0.43347637144E+01  0.43347637144E+01  0.00000000000E+00 0.  1.
         21    1    1    2  503  502 -0.18943481465E+02 -0.19964518130E+02  0.41111213103E+02  0.49472914983E+02  0.00000000000E+00 0.  1.
         21    1    1    2  504  501  0.18943481465E+02  0.19964518130E+02  0.12301492239E+04  0.12304570495E+04  0.00000000000E+00 0.  1.
<mgrwt>
<rscale>  2 0.27521582E+02</rscale>
<asrwt>0</asrwt>
<pdfrwt beam="1">  1       21 0.19624512E+00 0.27521582E+02</pdfrwt>
<pdfrwt beam="2">  1       21 0.66688774E-03 0.27521582E+02</pdfrwt>
<totfact> 0.10431731E+06</totfact>
</mgrwt>
</event>
<event>
 4    1  0.4619222E+006  0.2622103E+02  0.7546771E-02  0.1644059E+00
         21   -1    0    0  503  501  0.00000000000E+00  0.00000000000E+00  0.14379557887E+02  0.14379557887E+02  0.00000000000E+00 0.  1.
         21   -1    0    0  504  502 -0.00000000000E+00 -0.00000000000E+00 -0.51366808952E+02  0.51366808952E+02  0.00000000000E+00 0. -1.
         21    1    1    2  503  502  0.82759612247E+01  0.24880730631E+02 -0.27139211419E+02  0.37736972419E+02  0.00000000000E+00 0.  1.
         21    1    1    2  504  501 -0.82759612247E+01 -0.24880730631E+02 -0.98480396460E+01  0.28009394420E+02  0.00000000000E+00 0. -1.
<mgrwt>
<rscale>  2 0.26221028E+02</rscale>
<asrwt>0</asrwt>
<pdfrwt beam="1">  1       21 0.22122397E-02 0.26221028E+02</pdfrwt>
<pdfrwt beam="2">  1       21 0.79025859E-02 0.26221028E+02</pdfrwt>
<totfact> 0.91042940E+07</totfact>
</mgrwt>
</event>
<event>
 4    1  0.4619222E+006  0.2119918E+02  0.7546771E-02  0.1722481E+00
         21   -1    0    0  504  501  0.00000000000E+00  0.00000000000E+00  0.15653826496E+01  0.15653826496E+01  0.00000000000E+00 0.  1.
         21   -1    0    0  503  502 -0.00000000000E+00 -0.00000000000E+00 -0.48696587471E+03  0.48696587471E+03  0.00000000000E+00 0.  1.
         21    1    1    2  503  501 -0.83126875822E+01  0.19501399756E+02 -0.86207749332E+02  0.88776018226E+02  0.00000000000E+00 0.  1.
         21    1    1    2  504  502  0.83126875822E+01 -0.19501399756E+02 -0.39919274273E+03  0.39975523914E+03  0.00000000000E+00 0.  1.
<mgrwt>
<rscale>  2 0.21199183E+02</rscale>
<asrwt>0</asrwt>
<pdfrwt beam="1">  1       21 0.24082840E-03 0.21199183E+02</pdfrwt>
<pdfrwt beam="2">  1       21 0.74917732E-01 0.21199183E+02</pdfrwt>
<totfact> 0.40829640E+07</totfact>
</mgrwt>
</event>
<event>
 4    1  0.4619222E+006  0.4325702E+02  0.7546771E-02  0.1485526E+00
         21   -1    0    0  504  501  0.00000000000E+00  0.00000000000E+00  0.46328717638E+01  0.46328717638E+01  0.00000000000E+00 0.  1.
         21   -1    0    0  503  502 -0.00000000000E+00 -0.00000000000E+00 -0.43195645563E+03  0.43195645563E+03  0.00000000000E+00 0.  1.
         21    1    1    2  503  501 -0.68486011912E+01  0.42711430479E+02 -0.15801777188E+03  0.16383157773E+03  0.00000000000E+00 0.  1.
         21    1    1    2  504  502  0.68486011912E+01 -0.42711430479E+02 -0.26930581199E+03  0.27275774966E+03  0.00000000000E+00 0.  1.
<mgrwt>
<rscale>  2 0.43257018E+02</rscale>
<asrwt>0</asrwt>
<pdfrwt beam="1">  1       21 0.71274941E-03 0.43257018E+02</pdfrwt>
<pdfrwt beam="2">  1       21 0.66454848E-01 0.43257018E+02</pdfrwt>
<totfact> 0.11857964E+07</totfact>
</mgrwt>
</event>
<event>
 4    1  0.4619222E+006  0.4960401E+02  0.7546771E-02  0.1447489E+00
         21   -1    0    0  502  501  0.00000000000E+00  0.00000000000E+00  0.55510045620E+02  0.55510045620E+02  0.00000000000E+00 0.  1.
         21   -1    0    0  503  502 -0.00000000000E+00 -0.00000000000E+00 -0.77438185363E+02  0.77438185363E+02  0.00000000000E+00 0.  1.
         21    1    1    2  503  504 -0.34732219652E+02 -0.35415117451E+02 -0.54431765822E+02  0.73643565615E+02  0.00000000000E+00 0.  1.
         21    1    1    2  504  501  0.34732219652E+02  0.35415117451E+02  0.32503626079E+02  0.59304665367E+02  0.00000000000E+00 0.  1.
<mgrwt>
<rscale>  2 0.49604008E+02</rscale>
<asrwt>0</asrwt>
<pdfrwt beam="1">  1       21 0.85400071E-02 0.49604008E+02</pdfrwt>
<pdfrwt beam="2">  1       21 0.11913567E-01 0.49604008E+02</pdfrwt>
<totfact> 0.58106270E+06</totfact>
</mgrwt>
</event>
<event>
 4    1  0.4619222E+006  0.3821839E+02  0.7546771E-02  0.1521747E+00
         21   -1    0    0  503  501  0.00000000000E+00  0.00000000000E+00  0.10329423011E+03  0.10329423011E+03  0.00000000000E+00 0.  1.
         21   -1    0    0  504  502 -0.00000000000E+00 -0.00000000000E+00 -0.14501392193E+02  0.14501392193E+02  0.00000000000E+00 0. -1.
         21    1    1    2  503  502 -0.54776451004E+01  0.37823815015E+02  0.35106663192E+02  0.51895311721E+02  0.00000000000E+00 0.  1.
         21    1    1    2  504  501  0.54776451004E+01 -0.37823815015E+02  0.53686174721E+02  0.65900310578E+02  0.00000000000E+00 0. -1.
<mgrwt>
<rscale>  2 0.38218393E+02</rscale>
<asrwt>0</asrwt>
<pdfrwt beam="1">  1       21 0.15891420E-01 0.38218393E+02</pdfrwt>
<pdfrwt beam="2">  1       21 0.22309835E-02 0.38218393E+02</pdfrwt>
<totfact> 0.29957630E+07</totfact>
</mgrwt>
</event>
<event>
 4    1  0.4619222E+006  0.2324936E+02  0.7546771E-02  0.1687500E+00
         21   -1    0    0  503  501  0.00000000000E+00  0.00000000000E+00  0.35911669073E+01  0.35911669073E+01  0.00000000000E+00 0.  1.
         21   -1    0    0  504  502 -0.00000000000E+00 -0.00000000000E+00 -0.21211268529E+03  0.21211268529E+03  0.00000000000E+00 0.  1.
         21    1    1    2  503  502  0.60035949466E+01  0.22460845349E+02 -0.16237983408E+03  0.16403579866E+03  0.00000000000E+00 0.  1.
         21    1    1    2  504  501 -0.60035949466E+01 -0.22460845349E+02 -0.46141684300E+02  0.51668053535E+02  0.00000000000E+00 0.  1.
<mgrwt>
<rscale>  2 0.23249360E+02</rscale>
<asrwt>0</asrwt>
<pdfrwt beam="1">  1       21 0.55248700E-03 0.23249360E+02</pdfrwt>
<pdfrwt beam="2">  1       21 0.32632733E-01 0.23249360E+02</pdfrwt>
<totfact> 0.62289699E+07</totfact>
</mgrwt>
</event>
<event>
 4    1  0.4619222E+006  0.2651432E+02  0.7546771E-02  0.1640158E+00
         21   -1    0    0  504  501  0.00000000000E+00  0.00000000000E+00  0.80581051112E+01  0.80581051112E+01  0.00000000000E+00 0.  1.
         21   -1    0    0  503  502 -0.00000000000E+00 -0.00000000000E+00 -0.59398195784E+03  0.59398195784E+03  0.00000000000E+00 0. -1.
         21    1    1    2  503  501  0.25382357149E+02 -0.76645289688E+01 -0.14925856702E+02  0.30426801624E+02  0.00000000000E+00 0.  1.
         21    1    1    2  504  502 -0.25382357149E+02  0.76645289688E+01 -0.57099799603E+03  0.57161326133E+03  0.00000000000E+00 0. -1.
<mgrwt>
<rscale>  2 0.26514318E+02</rscale>
<asrwt>0</asrwt>
<pdfrwt beam="1">  1       21 0.12397084E-02 0.26514318E+02</pdfrwt>
<pdfrwt beam="2">  1       21 0.91381848E-01 0.26514318E+02</pdfrwt>
<totfact> 0.24620146E+06</totfact>
</mgrwt>
</event>
<event>
 4    1  0.4619222E+006  0.2040864E+02  0.7546771E-02  0.1737322E+00
         21   -1    0    0  502  501  0.00000000000E+00  0.00000000000E+00  0.54526991594E+02  0.54526991594E+02  0.00000000000E+00 0.  1.
         21   -1    0    0  503  502 -0.00000000000E+00 -0.00000000000E+00 -0.12247221031E+02  0.12247221031E+02  0.00000000000E+00 0. -1.
         21    1    1    2  503  504  0.19996236132E+02  0.40820399782E+01  0.65925929855E+00  0.20419283353E+02  0.00000000000E+00 0. -1.
         21    1    1    2  504  501 -0.19996236132E+02 -0.40820399782E+01  0.41620511265E+02  0.46354929272E+02  0.00000000000E+00 0.  1.
<mgrwt>
<rscale>  2 0.20408638E+02</rscale>
<asrwt>0</asrwt>
<pdfrwt beam="1">  1       21 0.83887678E-02 0.20408638E+02</pdfrwt>
<pdfrwt beam="2">  1       21 0.18841879E-02 0.20408638E+02</pdfrwt>
<totfact> 0.98524110E+07</totfact>
</mgrwt>
</event>
<event>
 4    1  0.4619222E+006  0.4922964E+02  0.7546771E-02  0.1449542E+00
         21   -1    0    0  504  501  0.00000000000E+00  0.00000000000E+00  0.52246220197E+03  0.52246220197E+03  0.00000000000E+00 0.  1.
         21   -1    0    0  501  502 -0.00000000000E+00 -0.00000000000E+00 -0.39438795263E+02  0.39438795263E+02  0.00000000000E+00 0.  1.
         21    1    1    2  503  502 -0.24594323515E+02  0.42645940297E+02 -0.22399644986E+02  0.54086052439E+02  0.00000000000E+00 0.  1.
         21    1    1    2  504  503  0.24594323515E+02 -0.42645940297E+02  0.50542305170E+03  0.50781494480E+03  0.00000000000E+00 0.  1.
<mgrwt>
<rscale>  2 0.49229635E+02</rscale>
<asrwt>0</asrwt>
<pdfrwt beam="1">  1       21 0.80378796E-01 0.49229635E+02</pdfrwt>
<pdfrwt beam="2">  1       21 0.60675073E-02 0.49229635E+02</pdfrwt>
<totfact> 0.27248411E+05</totfact>
</mgrwt>
</event>
<event>
 4    1  0.4619222E+006  0.2190968E+02  0.7546771E-02  0.1709819E+00
         21   -1    0    0  504  501  0.00000000000E+00  0.00000000000E+00  0.64065035679E+01  0.64065035679E+01  0.00000000000E+00 0. -1.
         21   -1    0    0  503  502 -0.00000000000E+00 -0.00000000000E+00 -0.82815033702E+02  0.82815033702E+02  0.00000000000E+00 0. -1.
         21    1    1    2  503  501 -0.96227530937E+01 -0.19683409341E+02 -0.24438200236E+02  0.32821633280E+02  0.00000000000E+00 0. -1.
         21    1    1    2  504  502  0.96227530937E+01  0.19683409341E+02 -0.51970329898E+02  0.56399903990E+02  0.00000000000E+00 0. -1.
<mgrwt>
<rscale>  2 0.21909678E+02</rscale>
<asrwt>0</asrwt>
<pdfrwt beam="1">  1       21 0.98561598E-03 0.21909678E+02</pdfrwt>
<pdfrwt beam="2">  1       21 0.12740774E-01 0.21909678E+02</pdfrwt>
<totfact> 0.13427864E+08</totfact>
</mgrwt>
</event>
<event>
 4    1  0.4619222E+006  0.2078251E+02  0.7546771E-02  0.1730200E+00
         21   -1    0    0  503  501  0.00000000000E+00  0.00000000000E+00  0.41299744074E+02  0.41299744074E+02  0.00000000000E+00 0.  1.
         21   -1    0    0  504  502 -0.00000000000E+00 -0.00000000000E+00 -0.89518954615E+03  0.89518954615E+03  0.00000000000E+00 0.  1.
         21    1    1    2  503  502 -0.20365696926E+02  0.41414134372E+01  0.38556587152E+02  0.43800951238E+02  0.00000000000E+00 0.  1.
         21    1    1    2  504  501  0.20365696926E+02 -0.41414134372E+01 -0.89244638923E+03  0.89268833899E+03  0.00000000000E+00 0.  1.
<mgrwt>
<rscale>  2 0.20782515E+02</rscale>
<asrwt>0</asrwt>
<pdfrwt beam="1">  1       21 0.63538071E-02 0.20782515E+02</pdfrwt>
<pdfrwt beam="2">  1       21 0.13772146E+00 0.20782515E+02</pdfrwt>
<totfact> 0.76366411E+04</totfact>
</mgrwt>
</event>
<event>
 4    1  0.4619222E+006  0.2140919E+02  0.7546771E-02  0.1718675E+00
         21   -1    0    0  503  501  0.00000000000E+00  0.00000000000E+00  0.86560623093E+01  0.86560623093E+01  0.00000000000E+00 0.  1.
         21   -1    0    0  504  502 -0.00000000000E+00 -0.00000000000E+00 -0.20386191534E+03  0.20386191534E+03  0.00000000000E+00 0.  1.
         21    1    1    2  503  502 -0.16977805723E+02 -0.13042531887E+02 -0.18902622715E+03  0.19023477094E+03  0.00000000000E+00 0.  1.
         21    1    1    2  504  501  0.16977805723E+02  0.13042531887E+02 -0.61796258841E+01  0.22283206710E+02  0.00000000000E+00 0.  1.
<mgrwt>
<rscale>  2 0.21409193E+02</rscale>
<asrwt>0</asrwt>
<pdfrwt beam="1">  1       21 0.13317021E-02 0.21409193E+02</pdfrwt>
<pdfrwt beam="2">  1       21 0.31363368E-01 0.21409193E+02</pdfrwt>
<totfact> 0.17648336E+07</totfact>
</mgrwt>
</event>
<event>
 4    1  0.4619222E+006  0.2086805E+02  0.7546771E-02  0.1728597E+00
         21   -1    0    0  504  501  0.00000000000E+00  0.00000000000E+00  0.77506260610E+01  0.77506260610E+01  0.00000000000E+00 0. -1.
         21   -1    0    0  503  502 -0.00000000000E+00 -0.00000000000E+00 -0.56849520678E+02  0.56849520678E+02  0.00000000000E+00 0. -1.
         21    1    1    2  503  501  0.12172877165E+02  0.16949828623E+02 -0.21059558884E+02  0.29647607816E+02  0.00000000000E+00 0. -1.
         21    1    1    2  504  502 -0.12172877165E+02 -0.16949828623E+02 -0.28039335733E+02  0.34952538923E+02  0.00000000000E+00 0. -1.
<mgrwt>
<rscale>  2 0.20868053E+02</rscale>
<asrwt>0</asrwt>
<pdfrwt beam="1">  1       21 0.11924040E-02 0.20868053E+02</pdfrwt>
<pdfrwt beam="2">  1       21 0.87460805E-02 0.20868053E+02</pdfrwt>
<totfact> 0.18525704E+08</totfact>
</mgrwt>
</event>
<event>
 4    1  0.4619222E+006  0.4133623E+02  0.7546771E-02  0.1498602E+00
         21   -1    0    0  504  501  0.00000000000E+00  0.00000000000E+00  0.83563111394E+01  0.83563111394E+01  0.00000000000E+00 0.  1.
         21   -1    0    0  503  502 -0.00000000000E+00 -0.00000000000E+00 -0.26974922833E+03  0.26974922833E+03  0.00000000000E+00 0.  1.
         21    1    1    2  503  501 -0.32911828667E+02  0.25009902273E+02 -0.19909702204E+03  0.20334283333E+03  0.00000000000E+00 0.  1.
         21    1    1    2  504  502  0.32911828667E+02 -0.25009902273E+02 -0.62295895146E+02  0.74762706144E+02  0.00000000000E+00 0.  1.
<mgrwt>
<rscale>  2 0.41336227E+02</rscale>
<asrwt>0</asrwt>
<pdfrwt beam="1">  1       21 0.12855866E-02 0.41336227E+02</pdfrwt>
<pdfrwt beam="2">  1       21 0.41499873E-01 0.41336227E+02</pdfrwt>
<totfact> 0.12308152E+07</totfact>
</mgrwt>
</event>
<event>
 4    1  0.4619222E+006  0.2581484E+02  0.7546771E-02  0.1649566E+00
         21   -1    0    0  502  501  0.00000000000E+00  0.00000000000E+00  0.61368156105E+01  0.61368156105E+01  0.00000000000E+00 0.  1.
         21   -1    0    0  504  502 -0.00000000000E+00 -0.00000000000E+00 -0.77832588995E+03  0.77832588995E+03  0.00000000000E+00 0.  1.
         21    1    1    2  503  501  0.66359291441E+01 -0.24947356863E+02 -0.22252513131E+02  0.34081967530E+02  0.00000000000E+00 0.  1.
         21    1    1    2  504  503 -0.66359291441E+01  0.24947356863E+02 -0.74993656121E+03  0.75038073803E+03  0.00000000000E+00 0.  1.
<mgrwt>
<rscale>  2 0.25814844E+02</rscale>
<asrwt>0</asrwt>
<pdfrwt beam="1">  1       21 0.94412509E-03 0.25814844E+02</pdfrwt>
<pdfrwt beam="2">  1       21 0.11974249E+00 0.25814844E+02</pdfrwt>
<totfact> 0.20348257E+06</totfact>
</mgrwt>
</event>
<event>
 4    1  0.4619222E+006  0.3306700E+02  0.7546771E-02  0.1566468E+00
         21   -1    0    0  504  501  0.00000000000E+00  0.00000000000E+00  0.99620653997E+01  0.99620653997E+01  0.00000000000E+00 0.  1.
         21   -1    0    0  501  502 -0.00000000000E+00 -0.00000000000E+00 -0.11678095999E+04  0.11678095999E+04  0.00000000000E+00 0. -1.
         21    1    1    2  503  502  0.34570236806E+01 -0.32885790732E+02 -0.11394530512E+04  0.11399327533E+04  0.00000000000E+00 0. -1.
         21    1    1    2  504  503 -0.34570236806E+01  0.32885790732E+02 -0.18394483358E+02  0.37838912019E+02  0.00000000000E+00 0.  1.
<mgrwt>
<rscale>  2 0.33066996E+02</rscale>
<asrwt>0</asrwt>
<pdfrwt beam="1">  1       21 0.15326250E-02 0.33066996E+02</pdfrwt>
<pdfrwt beam="2">  1       21 0.17966307E+00 0.33066996E+02</pdfrwt>
<totfact> 0.37148501E+05</totfact>
</mgrwt>
</event>
<event>
 4    1  0.4619222E+006  0.2041856E+02  0.7546771E-02  0.1737130E+00
         21   -1    0    0  502  501  0.00000000000E+00  0.00000000000E+00  0.17884434270E+02  0.17884434270E+02  0.00000000000E+00 0.  1.
         21   -1    0    0  504  502 -0.00000000000E+00 -0.00000000000E+00 -0.50729783785E+02  0.50729783785E+02  0.00000000000E+00 0. -1.
         21    1    1    2  503  501 -0.17914279148E+02  0.97977746625E+01  0.87988086835E+01  0.22233686603E+02  0.00000000000E+00 0.  1.
         21    1    1    2  504  503  0.17914279148E+02 -0.97977746625E+01 -0.41644158199E+02  0.46380531452E+02  0.00000000000E+00 0. -1.
<mgrwt>
<rscale>  2 0.20418565E+02</rscale>
<asrwt>0</asrwt>
<pdfrwt beam="1">  1       21 0.27514515E-02 0.20418565E+02</pdfrwt>
<pdfrwt beam="2">  1       21 0.78045820E-02 0.20418565E+02</pdfrwt>
<totfact> 0.61976063E+07</totfact>
</mgrwt>
</event>
<event>
 4    1  0.4619222E+006  0.2413725E+02  0.7546771E-02  0.1673712E+00
         21   -1    0    0  503  501  0.00000000000E+00  0.00000000000E+00  0.11993276502E+03  0.11993276502E+03  0.00000000000E+00 0. -1.
         21   -1    0    0  504  502 -0.00000000000E+00 -0.00000000000E+00 -0.92995859173E+01  0.92995859173E+01  0.00000000000E+00 0. -1.
         21    1    1    2  503  502  0.93076297352E+01  0.22270494304E+02  0.99973561682E+02  0.10284609824E+03  0.00000000000E+00 0. -1.
         21    1    1    2  504  501 -0.93076297352E+01 -0.22270494304E+02  0.10659617421E+02  0.26386252697E+02  0.00000000000E+00 0. -1.
<mgrwt>
<rscale>  2 0.24137251E+02</rscale>
<asrwt>0</asrwt>
<pdfrwt beam="1">  1       21 0.18451193E-01 0.24137251E+02</pdfrwt>
<pdfrwt beam="2">  1       21 0.14307056E-02 0.24137251E+02</pdfrwt>
<totfact> 0.41754987E+07</totfact>
</mgrwt>
</event>
<event>
 4    1  0.4619222E+006  0.2350922E+02  0.7546771E-02  0.1683386E+00
         21   -1    0    0  504  501  0.00000000000E+00  0.00000000000E+00  0.21856705566E+03  0.21856705566E+03  0.00000000000E+00 0.  1.
         21   -1    0    0  501  502 -0.00000000000E+00 -0.00000000000E+00 -0.48222497646E+01  0.48222497646E+01  0.00000000000E+00 0.  1.
         21    1    1    2  503  502  0.23145122855E+02 -0.41215187296E+01  0.29841569271E+02  0.37989510199E+02  0.00000000000E+00 0.  1.
         21    1    1    2  504  503 -0.23145122855E+02  0.41215187296E+01  0.18390323663E+03  0.18539979523E+03  0.00000000000E+00 0.  1.
<mgrwt>
<rscale>  2 0.23509224E+02</rscale>
<asrwt>0</asrwt>
<pdfrwt beam="1">  1       21 0.33625693E-01 0.23509224E+02</pdfrwt>
<pdfrwt beam="2">  1       21 0.74188475E-03 0.23509224E+02</pdfrwt>
<totfact> 0.38152503E+07</totfact>
</mgrwt>
</event>
<event>
 4    1  0.4619222E+006  0.2101537E+02  0.7546771E-02  0.1725859E+00
         21   -1    0    0  502  501  0.00000000000E+00  0.00000000000E+00  0.34715361554E+01  0.34715361554E+01  0.00000000000E+00 0. -1.
         21   -1    0    0  503  502 -0.00000000000E+00 -0.00000000000E+00 -0.46621952464E+03  0.46621952464E+03  0.00000000000E+00 0. -1.
         21    1    1    2  503  504 -0.97059817592E+01 -0.18639736090E+02 -0.43163074536E+03  0.43214204399E+03  0.00000000000E+00 0. -1.
         21    1    1    2  504  501  0.97059817592E+01  0.18639736090E+02 -0.31117243127E+02  0.37549016808E+02  0.00000000000E+00 0. -1.
<mgrwt>
<rscale>  2 0.21015372E+02</rscale>
<asrwt>0</asrwt>
<pdfrwt beam="1">  1       21 0.53408271E-03 0.21015372E+02</pdfrwt>
<pdfrwt beam="2">  1       21 0.71726051E-01 0.21015372E+02</pdfrwt>
<totfact> 0.13945276E+07</totfact>
</mgrwt>
</event>
<event>
 4    1  0.4619222E+006  0.2481280E+02  0.7546771E-02  0.1663705E+00
         21   -1    0    0  504  501  0.00000000000E+00  0.00000000000E+00  0.33909266747E+02  0.33909266747E+02  0.00000000000E+00 0. -1.
         21   -1    0    0  503  502 -0.00000000000E+00 -0.00000000000E+00 -0.19728523327E+02  0.19728523327E+02  0.00000000000E+00 0. -1.
         21    1    1    2  503  501  0.18318429208E+02  0.16736499766E+02  0.14660727225E+02  0.28820343438E+02  0.00000000000E+00 0. -1.
         21    1    1    2  504  502 -0.18318429208E+02 -0.16736499766E+02 -0.47998380521E+00  0.24817446636E+02  0.00000000000E+00 0. -1.
<mgrwt>
<rscale>  2 0.24812805E+02</rscale>
<asrwt>0</asrwt>
<pdfrwt beam="1">  1       21 0.52168103E-02 0.24812805E+02</pdfrwt>
<pdfrwt beam="2">  1       21 0.30351574E-02 0.24812805E+02</pdfrwt>
<totfact> 0.10749533E+08</totfact>
</mgrwt>
</event>
<event>
 4    1  0.4619222E+006  0.3094523E+02  0.7546771E-02  0.1587869E+00
         21   -1    0    0  503  501  0.00000000000E+00  0.00000000000E+00  0.12667403751E+02  0.12667403751E+02  0.00000000000E+00 0.  1.
         21   -1    0    0  504  502 -0.00000000000E+00 -0.00000000000E+00 -0.77437018386E+02  0.77437018386E+02  0.00000000000E+00 0.  1.
         21    1    1    2  503  502 -0.30344469558E+02 -0.60679714049E+01 -0.25438536367E+02  0.40059034464E+02  0.00000000000E+00 0.  1.
         21    1    1    2  504  501  0.30344469558E+02  0.60679714049E+01 -0.39331078268E+02  0.50045387674E+02  0.00000000000E+00 0.  1.
<mgrwt>
<rscale>  2 0.30945228E+02</rscale>
<asrwt>0</asrwt>
<pdfrwt beam="1">  1       21 0.19488314E-02 0.30945228E+02</pdfrwt>
<pdfrwt beam="2">  1       21 0.11913387E-01 0.30945228E+02</pdfrwt>
<totfact> 0.58204145E+07</totfact>
</mgrwt>
</event>
<event>
 4    1  0.4619222E+006  0.2400471E+02  0.7546771E-02  0.1675723E+00
         21   -1    0    0  503  501  0.00000000000E+00  0.00000000000E+00  0.49721601542E+01  0.49721601542E+01  0.00000000000E+00 0. -1.
         21   -1    0    0  501  502 -0.00000000000E+00 -0.00000000000E+00 -0.15699657528E+03  0.15699657528E+03  0.00000000000E+00 0.  1.
         21    1    1    2  503  504 -0.23185746975E+02 -0.62167008468E+01 -0.34573232941E+02  0.42089602851E+02  0.00000000000E+00 0. -1.
         21    1    1    2  504  502  0.23185746975E+02  0.62167008468E+01 -0.11745118218E+03  0.11987913258E+03  0.00000000000E+00 0.  1.
<mgrwt>
<rscale>  2 0.24004713E+02</rscale>
<asrwt>0</asrwt>
<pdfrwt beam="1">  1       21 0.76494785E-03 0.24004713E+02</pdfrwt>
<pdfrwt beam="2">  1       21 0.24153315E-01 0.24004713E+02</pdfrwt>
<totfact> 0.66711514E+07</totfact>
</mgrwt>
</event>
<event>
 4    1  0.4619222E+006  0.2646567E+02  0.7546771E-02  0.1640801E+00
         21   -1    0    0  503  501  0.00000000000E+00  0.00000000000E+00  0.25438767792E+01  0.25438767792E+01  0.00000000000E+00 0. -1.
         21   -1    0    0  504  502 -0.00000000000E+00 -0.00000000000E+00 -0.31652825348E+03  0.31652825348E+03  0.00000000000E+00 0. -1.
         21    1    1    2  503  502 -0.16356558043E+02  0.20806115797E+02 -0.99443097444E+02  0.10290462125E+03  0.00000000000E+00 0. -1.
         21    1    1    2  504  501  0.16356558043E+02 -0.20806115797E+02 -0.21454127925E+03  0.21616750900E+03  0.00000000000E+00 0. -1.
<mgrwt>
<rscale>  2 0.26465665E+02</rscale>
<asrwt>0</asrwt>
<pdfrwt beam="1">  1       21 0.39136554E-03 0.26465665E+02</pdfrwt>
<pdfrwt beam="2">  1       21 0.48696669E-01 0.26465665E+02</pdfrwt>
<totfact> 0.50099056E+07</totfact>
</mgrwt>
</event>
<event>
 4    1  0.4619222E+006  0.5232336E+02  0.7546771E-02  0.1433198E+00
         21   -1    0    0  504  501  0.00000000000E+00  0.00000000000E+00  0.14468185478E+04  0.14468185478E+04  0.00000000000E+00 0. -1.
         21   -1    0    0  503  502 -0.00000000000E+00 -0.00000000000E+00 -0.19245527577E+01  0.19245527577E+01  0.00000000000E+00 0.  1.
         21    1    1    2  503  501  0.37261965409E+02  0.36732539724E+02  0.81630199883E+03  0.81797719212E+03  0.00000000000E+00 0. -1.
         21    1    1    2  504  502 -0.37261965409E+02 -0.36732539724E+02  0.62859199626E+03  0.63076590848E+03  0.00000000000E+00 0.  1.
<mgrwt>
<rscale>  2 0.52323356E+02</rscale>
<asrwt>0</asrwt>
<pdfrwt beam="1">  1       21 0.22258660E+00 0.52323356E+02</pdfrwt>
<pdfrwt beam="2">  1       21 0.29608620E-03 0.52323356E+02</pdfrwt>
<totfact> 0.25108300E+06</totfact>
</mgrwt>
</event>
<event>
 4    1  0.4619222E+006  0.2783350E+02  0.7546771E-02  0.1623350E+00
         21   -1    0    0  502  501  0.00000000000E+00  0.00000000000E+00  0.64738243315E+02  0.64738243315E+02  0.00000000000E+00 0.  1.
         21   -1    0    0  504  502 -0.00000000000E+00 -0.00000000000E+00 -0.12681392756E+03  0.12681392756E+03  0.00000000000E+00 0.  1.
         21    1    1    2  503  501 -0.28943234762E+01 -0.27682609817E+02  0.60107365526E+02  0.66238956704E+02  0.00000000000E+00 0.  1.
         21    1    1    2  504  503  0.28943234762E+01  0.27682609817E+02 -0.12218304977E+03  0.12531321417E+03  0.00000000000E+00 0.  1.
<mgrwt>
<rscale>  2 0.27833505E+02</rscale>
<asrwt>0</asrwt>
<pdfrwt beam="1">  1       21 0.99597299E-02 0.27833505E+02</pdfrwt>
<pdfrwt beam="2">  1       21 0.19509835E-01 0.27833505E+02</pdfrwt>
<totfact> 0.17957201E+06</totfact>
</mgrwt>
</event>
<event>
 4    1  0.4619222E+006  0.2305138E+02  0.7546771E-02  0.1690679E+00
         21   -1    0    0  503  501  0.00000000000E+00  0.00000000000E+00  0.83187840507E+00  0.83187840507E+00  0.00000000000E+00 0.  1.
         21   -1    0    0  504  502 -0.00000000000E+00 -0.00000000000E+00 -0.66052659670E+03  0.66052659670E+03  0.00000000000E+00 0.  1.
         21    1    1    2  503  502 -0.21715978577E+01 -0.22948867119E+02 -0.26981177683E+03  0.27079468469E+03  0.00000000000E+00 0.  1.
         21    1    1    2  504  501  0.21715978577E+01  0.22948867119E+02 -0.38988294147E+03  0.39056379042E+03  0.00000000000E+00 0.  1.
<mgrwt>
<rscale>  2 0.23051385E+02</rscale>
<asrwt>0</asrwt>
<pdfrwt beam="1">  1       21 0.12798083E-03 0.23051385E+02</pdfrwt>
<pdfrwt beam="2">  1       21 0.10161984E+00 0.23051385E+02</pdfrwt>
<totfact> 0.53990403E+07</totfact>
</mgrwt>
</event>
<event>
 4    1  0.4619222E+006  0.2334874E+02  0.7546771E-02  0.1685919E+00
         21   -1    0    0  503  501  0.00000000000E+00  0.00000000000E+00  0.16656118585E+03  0.16656118585E+03  0.00000000000E+00 0.  1.
         21   -1    0    0  504  502 -0.00000000000E+00 -0.00000000000E+00 -0.71591854600E+03  0.71591854600E+03  0.00000000000E+00 0.  1.
         21    1    1    2  503  502  0.20168664803E+01  0.23261469510E+02  0.16555139483E+03  0.16718979647E+03  0.00000000000E+00 0.  1.
         21    1    1    2  504  501 -0.20168664803E+01 -0.23261469510E+02 -0.71490875497E+03  0.71528993538E+03  0.00000000000E+00 0.  1.
<mgrwt>
<rscale>  2 0.23348741E+02</rscale>
<asrwt>0</asrwt>
<pdfrwt beam="1">  1       21 0.25624798E-01 0.23348741E+02</pdfrwt>
<pdfrwt beam="2">  1       21 0.11014131E+00 0.23348741E+02</pdfrwt>
<totfact> 0.12022374E+04</totfact>
</mgrwt>
</event>
<event>
 4    1  0.4619222E+006  0.3302479E+02  0.7546771E-02  0.1566875E+00
         21   -1    0    0  503  501  0.00000000000E+00  0.00000000000E+00  0.66382698865E+03  0.66382698865E+03  0.00000000000E+00 0.  1.
         21   -1    0    0  504  502 -0.00000000000E+00 -0.00000000000E+00 -0.41312532632E+02  0.41312532632E+02  0.00000000000E+00 0. -1.
         21    1    1    2  503  502  0.29763682022E+02  0.14309430695E+02 -0.34230757979E+02  0.47564496908E+02  0.00000000000E+00 0. -1.
         21    1    1    2  504  501 -0.29763682022E+02 -0.14309430695E+02  0.65674521400E+03  0.65757502438E+03  0.00000000000E+00 0.  1.
<mgrwt>
<rscale>  2 0.33024787E+02</rscale>
<asrwt>0</asrwt>
<pdfrwt beam="1">  1       21 0.10212722E+00 0.33024787E+02</pdfrwt>
<pdfrwt beam="2">  1       21 0.63557748E-02 0.33024787E+02</pdfrwt>
<totfact> 0.14958868E+05</totfact>
</mgrwt>
</event>
<event>
 4    1  0.4619222E+006  0.2442876E+02  0.7546771E-02  0.1669345E+00
         21   -1    0    0  504  501  0.00000000000E+00  0.00000000000E+00  0.15465571838E+01  0.15465571838E+01  0.00000000000E+00 0.  1.
         21   -1    0    0  501  502 -0.00000000000E+00 -0.00000000000E+00 -0.80999403958E+03  0.80999403958E+03  0.00000000000E+00 0.  1.
         21    1    1    2  503  502 -0.12713606427E+02 -0.20859735275E+02 -0.69784511517E+03  0.69827256076E+03  0.00000000000E+00 0.  1.
         21    1    1    2  504  503  0.12713606427E+02  0.20859735275E+02 -0.11060236723E+03  0.11326803601E+03  0.00000000000E+00 0.  1.
<mgrwt>
<rscale>  2 0.24428761E+02</rscale>
<asrwt>0</asrwt>
<pdfrwt beam="1">  1       21 0.23793180E-03 0.24428761E+02</pdfrwt>
<pdfrwt beam="2">  1       21 0.12461451E+00 0.24428761E+02</pdfrwt>
<totfact> 0.14140464E+07</totfact>
</mgrwt>
</event>
<event>
 4    1  0.4619222E+006  0.2473614E+02  0.7546771E-02  0.1664821E+00
         21   -1    0    0  502  501  0.00000000000E+00  0.00000000000E+00  0.37111163438E+02  0.37111163438E+02  0.00000000000E+00 0.  1.
         21   -1    0    0  504  502 -0.00000000000E+00 -0.00000000000E+00 -0.35396534096E+03  0.35396534096E+03  0.00000000000E+00 0.  1.
         21    1    1    2  503  501  0.22370547250E+02 -0.10556289020E+02  0.32502782938E+02  0.40844920380E+02  0.00000000000E+00 0.  1.
         21    1    1    2  504  503 -0.22370547250E+02  0.10556289020E+02 -0.34935696046E+03  0.35023158402E+03  0.00000000000E+00 0.  1.
<mgrwt>
<rscale>  2 0.24736140E+02</rscale>
<asrwt>0</asrwt>
<pdfrwt beam="1">  1       21 0.57094096E-02 0.24736140E+02</pdfrwt>
<pdfrwt beam="2">  1       21 0.54456208E-01 0.24736140E+02</pdfrwt>
<totfact> 0.65931033E+05</totfact>
</mgrwt>
</event>
<event>
 4    1  0.4619222E+006  0.2115236E+02  0.7546771E-02  0.1723338E+00
         21   -1    0    0  503  501  0.00000000000E+00  0.00000000000E+00  0.50055801116E+03  0.50055801116E+03  0.00000000000E+00 0. -1.
         21   -1    0    0  504  502 -0.00000000000E+00 -0.00000000000E+00 -0.17673934064E+02  0.17673934064E+02  0.00000000000E+00 0.  1.
         21    1    1    2  503  502 -0.12766439382E+02 -0.16865360325E+02  0.49392069625E+03  0.49437341812E+03  0.00000000000E+00 0. -1.
         21    1    1    2  504  501  0.12766439382E+02  0.16865360325E+02 -0.11036619155E+02  0.23858527108E+02  0.00000000000E+00 0.  1.
<mgrwt>
<rscale>  2 0.21152360E+02</rscale>
<asrwt>0</asrwt>
<pdfrwt beam="1">  1       21 0.77008914E-01 0.21152360E+02</pdfrwt>
<pdfrwt beam="2">  1       21 0.27190672E-02 0.21152360E+02</pdfrwt>
<totfact> 0.10381481E+06</totfact>
</mgrwt>
</event>
<event>
 4    1  0.4619222E+006  0.2604572E+02  0.7546771E-02  0.1646421E+00
         21   -1    0    0  503  501  0.00000000000E+00  0.00000000000E+00  0.84738611761E+03  0.84738611761E+03  0.00000000000E+00 0. -1.
         21   -1    0    0  501  502 -0.00000000000E+00 -0.00000000000E+00 -0.97649314979E+00  0.97649314979E+00  0.00000000000E+00 0. -1.
         21    1    1    2  503  504 -0.13467695164E+02  0.22293514315E+02  0.60325614946E+03  0.60381815264E+03  0.00000000000E+00 0. -1.
         21    1    1    2  504  502  0.13467695164E+02 -0.22293514315E+02  0.24315347500E+03  0.24454445812E+03  0.00000000000E+00 0. -1.
<mgrwt>
<rscale>  2 0.26045721E+02</rscale>
<asrwt>0</asrwt>
<pdfrwt beam="1">  1       21 0.13036651E+00 0.26045721E+02</pdfrwt>
<pdfrwt beam="2">  1       21 0.15023039E-03 0.26045721E+02</pdfrwt>
<totfact> 0.25047506E+07</totfact>
</mgrwt>
</event>
<event>
 4    1  0.4619222E+006  0.4578081E+02  0.7546771E-02  0.1469525E+00
         21   -1    0    0  503  501  0.00000000000E+00  0.00000000000E+00  0.12688411311E+03  0.12688411311E+03  0.00000000000E+00 0. -1.
         21   -1    0    0  501  502 -0.00000000000E+00 -0.00000000000E+00 -0.40830817503E+03  0.40830817503E+03  0.00000000000E+00 0.  1.
         21    1    1    2  503  504  0.11698855830E+02 -0.44260808916E+02  0.12141544003E+03  0.12975974534E+03  0.00000000000E+00 0. -1.
         21    1    1    2  504  502 -0.11698855830E+02  0.44260808916E+02 -0.40283950195E+03  0.40543254281E+03  0.00000000000E+00 0.  1.
<mgrwt>
<rscale>  2 0.45780809E+02</rscale>
<asrwt>0</asrwt>
<pdfrwt beam="1">  1       21 0.19520633E-01 0.45780809E+02</pdfrwt>
<pdfrwt beam="2">  1       21 0.62816643E-01 0.45780809E+02</pdfrwt>
<totfact> 0.62192310E+04</totfact>
</mgrwt>
</event>
<event>
 4    1  0.4619222E+006  0.2796316E+02  0.7546771E-02  0.1621760E+00
         21   -1    0    0  504  501  0.00000000000E+00  0.00000000000E+00  0.51844895642E+01  0.51844895642E+01  0.00000000000E+00 0. -1.
         21   -1    0    0  501  502 -0.00000000000E+00 -0.00000000000E+00 -0.89857690240E+03  0.89857690240E+03  0.00000000000E+00 0. -1.
         21    1    1    2  503  502 -0.24554361825E+02  0.13379903746E+02 -0.85891292917E+03  0.85936799941E+03  0.00000000000E+00 0. -1.
         21    1    1    2  504  503  0.24554361825E+02 -0.13379903746E+02 -0.34479483667E+02  0.44393392558E+02  0.00000000000E+00 0. -1.
<mgrwt>
<rscale>  2 0.27963163E+02</rscale>
<asrwt>0</asrwt>
<pdfrwt beam="1">  1       21 0.79761387E-03 0.27963163E+02</pdfrwt>
<pdfrwt beam="2">  1       21 0.13824258E+00 0.27963163E+02</pdfrwt>
<totfact> 0.18929652E+06</totfact>
</mgrwt>
</event>
<event>
 4    1  0.4619222E+006  0.2338373E+02  0.7546771E-02  0.1685364E+00
         21   -1    0    0  502  501  0.00000000000E+00  0.00000000000E+00  0.19695284880E+03  0.19695284880E+03  0.00000000000E+00 0. -1.
         21   -1    0    0  504  502 -0.00000000000E+00 -0.00000000000E+00 -0.24034242304E+02  0.24034242304E+02  0.00000000000E+00 0. -1.
         21    1    1    2  503  501  0.15226035445E+01 -0.23334105916E+02  0.19037529223E+03  0.19180602366E+03  0.00000000000E+00 0. -1.
         21    1    1    2  504  503 -0.15226035445E+01  0.23334105916E+02 -0.17456685733E+02  0.29181067445E+02  0.00000000000E+00 0. -1.
<mgrwt>
<rscale>  2 0.23383730E+02</rscale>
<asrwt>0</asrwt>
<pdfrwt beam="1">  1       21 0.30300437E-01 0.23383730E+02</pdfrwt>
<pdfrwt beam="2">  1       21 0.36975759E-02 0.23383730E+02</pdfrwt>
<totfact> 0.39657669E+06</totfact>
</mgrwt>
</event>
<event>
 4    1  0.4619222E+006  0.2235031E+02  0.7546771E-02  0.1702263E+00
         21   -1    0    0  502  501  0.00000000000E+00  0.00000000000E+00  0.18857613213E+03  0.18857613213E+03  0.00000000000E+00 0. -1.
         21   -1    0    0  503  502 -0.00000000000E+00 -0.00000000000E+00 -0.28107822873E+01  0.28107822873E+01  0.00000000000E+00 0.  1.
         21    1    1    2  503  504 -0.51356821609E+01 -0.21752268316E+02  0.69924006541E+02  0.73409148605E+02  0.00000000000E+00 0.  1.
         21    1    1    2  504  501  0.51356821609E+01  0.21752268316E+02  0.11584134330E+03  0.11797776581E+03  0.00000000000E+00 0. -1.
<mgrwt>
<rscale>  2 0.22350311E+02</rscale>
<asrwt>0</asrwt>
<pdfrwt beam="1">  1       21 0.29011703E-01 0.22350311E+02</pdfrwt>
<pdfrwt beam="2">  1       21 0.43242819E-03 0.22350311E+02</pdfrwt>
<totfact> 0.10961386E+08</totfact>
</mgrwt>
</event>
<event>
 4    1  0.4619222E+006  0.2263585E+02  0.7546771E-02  0.1697482E+00
         21   -1    0    0  502  501  0.00000000000E+00  0.00000000000E+00  0.33586544567E+03  0.33586544567E+03  0.00000000000E+00 0. -1.
         21   -1    0    0  503  502 -0.00000000000E+00 -0.00000000000E+00 -0.15722724677E+01  0.15722724677E+01  0.00000000000E+00 0. -1.
         21    1    1    2  503  504 -0.22635231916E+02  0.16791358950E+00  0.13806423229E+03  0.13990752002E+03  0.00000000000E+00 0. -1.
         21    1    1    2  504  501  0.22635231916E+02 -0.16791358950E+00  0.19622894091E+03  0.19753019812E+03  0.00000000000E+00 0. -1.
<mgrwt>
<rscale>  2 0.22635855E+02</rscale>
<asrwt>0</asrwt>
<pdfrwt beam="1">  1       21 0.51671550E-01 0.22635855E+02</pdfrwt>
<pdfrwt beam="2">  1       21 0.24188834E-03 0.22635855E+02</pdfrwt>
<totfact> 0.86883980E+07</totfact>
</mgrwt>
</event>
<event>
 4    1  0.4619222E+006  0.3485658E+02  0.7546771E-02  0.1549878E+00
         21   -1    0    0  504  501  0.00000000000E+00  0.00000000000E+00  0.14236739671E+03  0.14236739671E+03  0.00000000000E+00 0. -1.
         21   -1    0    0  503  502 -0.00000000000E+00 -0.00000000000E+00 -0.60776459969E+02  0.60776459969E+02  0.00000000000E+00 0.  1.
         21    1    1    2  503  501 -0.30642756550E+02 -0.16613335866E+02  0.13496648925E+03  0.13939488756E+03  0.00000000000E+00 0. -1.
         21    1    1    2  504  502  0.30642756550E+02  0.16613335866E+02 -0.53375552511E+02  0.63748969117E+02  0.00000000000E+00 0.  1.
<mgrwt>
<rscale>  2 0.34856584E+02</rscale>
<asrwt>0</asrwt>
<pdfrwt beam="1">  1       21 0.21902676E-01 0.34856584E+02</pdfrwt>
<pdfrwt beam="2">  1       21 0.93502246E-02 0.34856584E+02</pdfrwt>
<totfact> 0.16600667E+06</totfact>
</mgrwt>
</event>
<event>
 4    1  0.4619222E+006  0.2405328E+02  0.7546771E-02  0.1674985E+00
         21   -1    0    0  503  501  0.00000000000E+00  0.00000000000E+00  0.79900265441E+02  0.79900265441E+02  0.00000000000E+00 0.  1.
         21   -1    0    0  504  502 -0.00000000000E+00 -0.00000000000E+00 -0.72795204509E+01  0.72795204509E+01  0.00000000000E+00 0.  1.
         21    1    1    2  503  502  0.21634065372E+02 -0.10513195431E+02  0.39480100218E+02  0.46230275534E+02  0.00000000000E+00 0.  1.
         21    1    1    2  504  501 -0.21634065372E+02  0.10513195431E+02  0.33140644772E+02  0.40949510359E+02  0.00000000000E+00 0.  1.
<mgrwt>
<rscale>  2 0.24053276E+02</rscale>
<asrwt>0</asrwt>
<pdfrwt beam="1">  1       21 0.12292348E-01 0.24053276E+02</pdfrwt>
<pdfrwt beam="2">  1       21 0.11199263E-02 0.24053276E+02</pdfrwt>
<totfact> 0.12092326E+08</totfact>
</mgrwt>
</event>
<event>
 4    1  0.4619222E+006  0.2085418E+02  0.7546771E-02  0.1728856E+00
         21   -1    0    0  504  501  0.00000000000E+00  0.00000000000E+00  0.24066988226E+02  0.24066988226E+02  0.00000000000E+00 0. -1.
         21   -1    0    0  501  502 -0.00000000000E+00 -0.00000000000E+00 -0.10737465439E+03  0.10737465439E+03  0.00000000000E+00 0.  1.
         21    1    1    2  503  502 -0.12513157114E+02  0.16682857150E+02 -0.10158993560E+03  0.10370830169E+03  0.00000000000E+00 0.  1.
         21    1    1    2  504  503  0.12513157114E+02 -0.16682857150E+02  0.18282269432E+02  0.27733340932E+02  0.00000000000E+00 0. -1.
<mgrwt>
<rscale>  2 0.20854180E+02</rscale>
<asrwt>0</asrwt>
<pdfrwt beam="1">  1       21 0.37026136E-02 0.20854180E+02</pdfrwt>
<pdfrwt beam="2">  1       21 0.16519177E-01 0.20854180E+02</pdfrwt>
<totfact> 0.11292223E+07</totfact>
</mgrwt>
</event>
<event>
 4    1  0.4619222E+006  0.3407269E+02  0.7546771E-02  0.1556993E+00
         21   -1    0    0  503  501  0.00000000000E+00  0.00000000000E+00  0.58566844504E+03  0.58566844504E+03  0.00000000000E+00 0. -1.
         21   -1    0    0  504  502 -0.00000000000E+00 -0.00000000000E+00 -0.65321175273E+01  0.65321175273E+01  0.00000000000E+00 0.  1.
         21    1    1    2  503  502 -0.35989536074E+01  0.33882087458E+02  0.42446609337E+02  0.54430349639E+02  0.00000000000E+00 0.  1.
         21    1    1    2  504  501  0.35989536074E+01 -0.33882087458E+02  0.53668971817E+03  0.53777021292E+03  0.00000000000E+00 0. -1.
<mgrwt>
<rscale>  2 0.34072692E+02</rscale>
<asrwt>0</asrwt>
<pdfrwt beam="1">  1       21 0.90102796E-01 0.34072692E+02</pdfrwt>
<pdfrwt beam="2">  1       21 0.10049416E-02 0.34072692E+02</pdfrwt>
<totfact> 0.35823242E+06</totfact>
</mgrwt>
</event>
<event>
 4    1  0.4619222E+006  0.3094707E+02  0.7546771E-02  0.1587850E+00
         21   -1    0    0  502  501  0.00000000000E+00  0.00000000000E+00  0.10148019731E+04  0.10148019731E+04  0.00000000000E+00 0. -1.
         21   -1    0    0  503  502 -0.00000000000E+00 -0.00000000000E+00 -0.33241654007E+01  0.33241654007E+01  0.00000000000E+00 0.  1.
         21    1    1    2  503  504 -0.29194055531E+02 -0.10267822786E+02  0.74957941642E+02  0.81095092812E+02  0.00000000000E+00 0.  1.
         21    1    1    2  504  501  0.29194055531E+02  0.10267822786E+02  0.93651986602E+03  0.93703104565E+03  0.00000000000E+00 0. -1.
<mgrwt>
<rscale>  2 0.30947069E+02</rscale>
<asrwt>0</asrwt>
<pdfrwt beam="1">  1       21 0.15612313E+00 0.30947069E+02</pdfrwt>
<pdfrwt beam="2">  1       21 0.51141087E-03 0.30947069E+02</pdfrwt>
<totfact> 0.27716620E+06</totfact>
</mgrwt>
</event>
<event>
 4    1  0.4619222E+006  0.2716089E+02  0.7546771E-02  0.1631773E+00
         21   -1    0    0  502  501  0.00000000000E+00  0.00000000000E+00  0.10912654863E+02  0.10912654863E+02  0.00000000000E+00 0. -1.
         21   -1    0    0  503  502 -0.00000000000E+00 -0.00000000000E+00 -0.79415287551E+02  0.79415287551E+02  0.00000000000E+00 0. -1.
         21    1    1    2  503  504 -0.27157280523E+02 -0.44266644129E+00 -0.51670639374E+02  0.58374384898E+02  0.00000000000E+00 0. -1.
         21    1    1    2  504  501  0.27157280523E+02  0.44266644129E+00 -0.16831993315E+02  0.31953557516E+02  0.00000000000E+00 0. -1.
<mgrwt>
<rscale>  2 0.27160888E+02</rscale>
<asrwt>0</asrwt>
<pdfrwt beam="1">  1       21 0.16788699E-02 0.27160888E+02</pdfrwt>
<pdfrwt beam="2">  1       21 0.12217737E-01 0.27160888E+02</pdfrwt>
<totfact> 0.68090309E+07</totfact>
</mgrwt>
</event>
<event>
 4    1  0.4619222E+006  0.2238970E+02  0.7546771E-02  0.1701598E+00
         21   -1    0    0  503  501  0.00000000000E+00  0.00000000000E+00  0.45043979973E+03  0.45043979973E+03  0.00000000000E+00 0.  1.
         21   -1    0    0  504  502 -0.00000000000E+00 -0.00000000000E+00 -0.12019311462E+01  0.12019311462E+01  0.00000000000E+00 0. -1.
         21    1    1    2  503  502  0.21003289254E+02 -0.77563303013E+01  0.28607597051E+03  0.28695079669E+03  0.00000000000E+00 0.  1.
         21    1    1    2  504  501 -0.21003289254E+02  0.77563303013E+01  0.16316189807E+03  0.16469093418E+03  0.00000000000E+00 0. -1.
<mgrwt>
<rscale>  2 0.22389703E+02</rscale>
<asrwt>0</asrwt>
<pdfrwt beam="1">  1       21 0.69298296E-01 0.22389703E+02</pdfrwt>
<pdfrwt beam="2">  1       21 0.18491284E-03 0.22389703E+02</pdfrwt>
<totfact> 0.71077640E+07</totfact>
</mgrwt>
</event>
<event>
 4    1  0.4619222E+006  0.2662217E+02  0.7546771E-02  0.1638739E+00
         21   -1    0    0  503  501  0.00000000000E+00  0.00000000000E+00  0.10043152636E+03  0.10043152636E+03  0.00000000000E+00 0.  1.
         21   -1    0    0  504  502 -0.00000000000E+00 -0.00000000000E+00 -0.13011729540E+03  0.13011729540E+03  0.00000000000E+00 0.  1.
         21    1    1    2  503  502  0.51805484212E+00 -0.26617124398E+02  0.97261983690E+02  0.10083964083E+03  0.00000000000E+00 0.  1.
         21    1    1    2  504  501 -0.51805484212E+00  0.26617124398E+02 -0.12694775273E+03  0.12970918092E+03  0.00000000000E+00 0.  1.
<mgrwt>
<rscale>  2 0.26622165E+02</rscale>
<asrwt>0</asrwt>
<pdfrwt beam="1">  1       21 0.15451004E-01 0.26622165E+02</pdfrwt>
<pdfrwt beam="2">  1       21 0.20018046E-01 0.26622165E+02</pdfrwt>
<totfact> 0.81370270E+05</totfact>
</mgrwt>
</event>
<event>
 4    1  0.4619222E+006  0.2375884E+02  0.7546771E-02  0.1679497E+00
         21   -1    0    0  504  501  0.00000000000E+00  0.00000000000E+00  0.57691833481E+02  0.57691833481E+02  0.00000000000E+00 0. -1.
         21   -1    0    0  503  502 -0.00000000000E+00 -0.00000000000E+00 -0.13031643129E+02  0.13031643129E+02  0.00000000000E+00 0.  1.
         21    1    1    2  503  501  0.12271879382E+02  0.20344123782E+02  0.39981879574E+02  0.46508419564E+02  0.00000000000E+00 0. -1.
         21    1    1    2  504  502 -0.12271879382E+02 -0.20344123782E+02  0.46783107779E+01  0.24215057046E+02  0.00000000000E+00 0.  1.
<mgrwt>
<rscale>  2 0.23758838E+02</rscale>
<asrwt>0</asrwt>
<pdfrwt beam="1">  1       21 0.88756665E-02 0.23758838E+02</pdfrwt>
<pdfrwt beam="2">  1       21 0.20048682E-02 0.23758838E+02</pdfrwt>
<totfact> 0.85318158E+07</totfact>
</mgrwt>
</event>
<event>
 4    1  0.4619222E+006  0.2149158E+02  0.7546771E-02  0.1717196E+00
         21   -1    0    0  504  501  0.00000000000E+00  0.00000000000E+00  0.32935577395E+02  0.32935577395E+02  0.00000000000E+00 0.  1.
         21   -1    0    0  503  502 -0.00000000000E+00 -0.00000000000E+00 -0.18342149288E+02  0.18342149288E+02  0.00000000000E+00 0.  1.
         21    1    1    2  503  501  0.21267687933E+02 -0.30941210984E+01  0.19736791833E+02  0.29179257825E+02  0.00000000000E+00 0.  1.
         21    1    1    2  504  502 -0.21267687933E+02  0.30941210984E+01 -0.51433637257E+01  0.22098468857E+02  0.00000000000E+00 0.  1.
<mgrwt>
<rscale>  2 0.21491583E+02</rscale>
<asrwt>0</asrwt>
<pdfrwt beam="1">  1       21 0.50670119E-02 0.21491583E+02</pdfrwt>
<pdfrwt beam="2">  1       21 0.28218691E-02 0.21491583E+02</pdfrwt>
<totfact> 0.12095082E+08</totfact>
</mgrwt>
</event>
<event>
 4    1  0.4619222E+006  0.2886685E+02  0.7546771E-02  0.1610963E+00
         21   -1    0    0  504  501  0.00000000000E+00  0.00000000000E+00  0.72826120701E+01  0.72826120701E+01  0.00000000000E+00 0.  1.
         21   -1    0    0  503  502 -0.00000000000E+00 -0.00000000000E+00 -0.13892159345E+03  0.13892159345E+03  0.00000000000E+00 0.  1.
         21    1    1    2  503  501 -0.26928247266E+02 -0.10400206610E+02 -0.35120799932E+02  0.45461691414E+02  0.00000000000E+00 0.  1.
         21    1    1    2  504  502  0.26928247266E+02  0.10400206610E+02 -0.96518181445E+02  0.10074251410E+03  0.00000000000E+00 0.  1.
<mgrwt>
<rscale>  2 0.28866846E+02</rscale>
<asrwt>0</asrwt>
<pdfrwt beam="1">  1       21 0.11204019E-02 0.28866846E+02</pdfrwt>
<pdfrwt beam="2">  1       21 0.21372551E-01 0.28866846E+02</pdfrwt>
<totfact> 0.48723283E+07</totfact>
</mgrwt>
</event>
<event>
 4    1  0.4619222E+006  0.3427027E+02  0.7546771E-02  0.1555178E+00
         21   -1    0    0  502  501  0.00000000000E+00  0.00000000000E+00  0.12485523477E+03  0.12485523477E+03  0.00000000000E+00 0.  1.
         21   -1    0    0  503  502 -0.00000000000E+00 -0.00000000000E+00 -0.39222701995E+02  0.39222701995E+02  0.00000000000E+00 0.  1.
         21    1    1    2  503  504  0.11257073460E+02  0.32368654002E+02 -0.28711976511E+02  0.44708266125E+02  0.00000000000E+00 0.  1.
         21    1    1    2  504  501 -0.11257073460E+02 -0.32368654002E+02  0.11434450929E+03  0.11936967064E+03  0.00000000000E+00 0.  1.
<mgrwt>
<rscale>  2 0.34270271E+02</rscale>
<asrwt>0</asrwt>
<pdfrwt beam="1">  1       21 0.19208498E-01 0.34270271E+02</pdfrwt>
<pdfrwt beam="2">  1       21 0.60342619E-02 0.34270271E+02</pdfrwt>
<totfact> 0.43139262E+06</totfact>
</mgrwt>
</event>
<event>
 4    1  0.4619222E+006  0.2574377E+02  0.7546771E-02  0.1650543E+00
         21   -1    0    0  503  501  0.00000000000E+00  0.00000000000E+00  0.90414893616E+01  0.90414893616E+01  0.00000000000E+00 0. -1.
         21   -1    0    0  504  502 -0.00000000000E+00 -0.00000000000E+00 -0.95263063443E+02  0.95263063443E+02  0.00000000000E+00 0. -1.
         21    1    1    2  503  502 -0.10821855937E+02  0.23358704664E+02 -0.68152090549E+02  0.72852241528E+02  0.00000000000E+00 0. -1.
         21    1    1    2  504  501  0.10821855937E+02 -0.23358704664E+02 -0.18069483532E+02  0.31452311276E+02  0.00000000000E+00 0. -1.
<mgrwt>
<rscale>  2 0.25743769E+02</rscale>
<asrwt>0</asrwt>
<pdfrwt beam="1">  1       21 0.13909983E-02 0.25743769E+02</pdfrwt>
<pdfrwt beam="2">  1       21 0.14655856E-01 0.25743769E+02</pdfrwt>
<totfact> 0.65786099E+07</totfact>
</mgrwt>
</event>
<event>
 4    1  0.4619222E+006  0.2077002E+02  0.7546771E-02  0.1730435E+00
         21   -1    0    0  504  501  0.00000000000E+00  0.00000000000E+00  0.95172813209E+02  0.95172813209E+02  0.00000000000E+00 0.  1.
         21   -1    0    0  503  502 -0.00000000000E+00 -0.00000000000E+00 -0.10310065326E+02  0.10310065326E+02  0.00000000000E+00 0.  1.
         21    1    1    2  503  501  0.47643654956E+01 -0.20216191736E+02  0.81912060152E+02  0.84504314595E+02  0.00000000000E+00 0.  1.
         21    1    1    2  504  502 -0.47643654956E+01  0.20216191736E+02  0.29506877315E+01  0.20978563939E+02  0.00000000000E+00 0.  1.
<mgrwt>
<rscale>  2 0.20770017E+02</rscale>
<asrwt>0</asrwt>
<pdfrwt beam="1">  1       21 0.14641971E-01 0.20770017E+02</pdfrwt>
<pdfrwt beam="2">  1       21 0.15861640E-02 0.20770017E+02</pdfrwt>
<totfact> 0.51074703E+07</totfact>
</mgrwt>
</event>
<event>
 4    1  0.4619222E+006  0.2474145E+02  0.7546771E-02  0.1664744E+00
         21   -1    0    0  504  501  0.00000000000E+00  0.00000000000E+00  0.22277144277E+03  0.22277144277E+03  0.00000000000E+00 0.  1.
         21   -1    0    0  503  502 -0.00000000000E+00 -0.00000000000E+00 -0.29021527150E+01  0.29021527150E+01  0.00000000000E+00 0.  1.
         21    1    1    2  503  501 -0.33618135001E+01  0.24511991162E+02  0.13595399296E+03  0.13818693029E+03  0.00000000000E+00 0.  1.
         21    1    1    2  504  502  0.33618135001E+01 -0.24511991162E+02  0.83915297097E+02  0.87486665199E+02  0.00000000000E+00 0.  1.
<mgrwt>
<rscale>  2 0.24741453E+02</rscale>
<asrwt>0</asrwt>
<pdfrwt beam="1">  1       21 0.34272516E-01 0.24741453E+02</pdfrwt>
<pdfrwt beam="2">  1       21 0.44648521E-03 0.24741453E+02</pdfrwt>
<totfact> 0.79157364E+07</totfact>
</mgrwt>
</event>
<event>
 4    1  0.4619222E+006  0.4581090E+02  0.7546771E-02  0.1469342E+00
         21   -1    0    0  503  501  0.00000000000E+00  0.00000000000E+00  0.24529692912E+02  0.24529692912E+02  0.00000000000E+00 0.  1.
         21   -1    0    0  504  502 -0.00000000000E+00 -0.00000000000E+00 -0.57765689722E+03  0.57765689722E+03  0.00000000000E+00 0. -1.
         21    1    1    2  503  502  0.45664381242E+02  0.36610397914E+01 -0.55446683804E+03  0.55635610306E+03  0.00000000000E+00 0. -1.
         21    1    1    2  504  501 -0.45664381242E+02 -0.36610397914E+01  0.13396337328E+01  0.45830487071E+02  0.00000000000E+00 0.  1.
<mgrwt>
<rscale>  2 0.45810904E+02</rscale>
<asrwt>0</asrwt>
<pdfrwt beam="1">  1       21 0.37737989E-02 0.45810904E+02</pdfrwt>
<pdfrwt beam="2">  1       21 0.88870292E-01 0.45810904E+02</pdfrwt>
<totfact> 0.47443893E+05</totfact>
</mgrwt>
</event>
<event>
 4    1  0.4619222E+006  0.2041668E+02  0.7546771E-02  0.1737167E+00
         21   -1    0    0  502  501  0.00000000000E+00  0.00000000000E+00  0.31935245021E+03  0.31935245021E+03  0.00000000000E+00 0. -1.
         21   -1    0    0  503  502 -0.00000000000E+00 -0.00000000000E+00 -0.28697120198E+01  0.28697120198E+01  0.00000000000E+00 0. -1.
         21    1    1    2  503  504  0.17631339500E+02 -0.10294504259E+02  0.39285441943E+02  0.44273998003E+02  0.00000000000E+00 0. -1.
         21    1    1    2  504  501 -0.17631339500E+02  0.10294504259E+02  0.27719729625E+03  0.27794816423E+03  0.00000000000E+00 0. -1.
<mgrwt>
<rscale>  2 0.20416683E+02</rscale>
<asrwt>0</asrwt>
<pdfrwt beam="1">  1       21 0.49131118E-01 0.20416683E+02</pdfrwt>
<pdfrwt beam="2">  1       21 0.44149441E-03 0.20416683E+02</pdfrwt>
<totfact> 0.38878328E+07</totfact>
</mgrwt>
</event>
<event>
 4    1  0.4619222E+006  0.2456989E+02  0.7546771E-02  0.1667258E+00
         21   -1    0    0  503  501  0.00000000000E+00  0.00000000000E+00  0.93049948054E+02  0.93049948054E+02  0.00000000000E+00 0.  1.
         21   -1    0    0  504  502 -0.00000000000E+00 -0.00000000000E+00 -0.13956251109E+02  0.13956251109E+02  0.00000000000E+00 0. -1.
         21    1    1    2  503  502 -0.20181071379E+02  0.14014418333E+02  0.40756087009E+00  0.24573271436E+02  0.00000000000E+00 0. -1.
         21    1    1    2  504  501  0.20181071379E+02 -0.14014418333E+02  0.78686136075E+02  0.82432927727E+02  0.00000000000E+00 0.  1.
<mgrwt>
<rscale>  2 0.24569891E+02</rscale>
<asrwt>0</asrwt>
<pdfrwt beam="1">  1       21 0.14315376E-01 0.24569891E+02</pdfrwt>
<pdfrwt beam="2">  1       21 0.21471156E-02 0.24569891E+02</pdfrwt>
<totfact> 0.34831570E+07</totfact>
</mgrwt>
</event>
<event>
 4    1  0.4619222E+006  0.3964696E+02  0.7546771E-02  0.1510826E+00
         21   -1    0    0  502  501  0.00000000000E+00  0.00000000000E+00  0.92625632016E+03  0.92625632016E+03  0.00000000000E+00 0.  1.
         21   -1    0    0  504  502 -0.00000000000E+00 -0.00000000000E+00 -0.18068513593E+01  0.18068513593E+01  0.00000000000E+00 0.  1.
         21    1    1    2  503  501  0.36933470699E+02 -0.14415278955E+02  0.57662753302E+03  0.57798892149E+03  0.00000000000E+00 0.  1.
         21    1    1    2  504  503 -0.36933470699E+02  0.14415278955E+02  0.34782193578E+03  0.35007425003E+03  0.00000000000E+00 0.  1.
<mgrwt>
<rscale>  2 0.39646961E+02</rscale>
<asrwt>0</asrwt>
<pdfrwt beam="1">  1       21 0.14250059E+00 0.39646961E+02</pdfrwt>
<pdfrwt beam="2">  1       21 0.27797787E-03 0.39646961E+02</pdfrwt>
<totfact> 0.87302819E+06</totfact>
</mgrwt>
</event>
<event>
 4    1  0.4619222E+006  0.2316746E+02  0.7546771E-02  0.1688810E+00
         21   -1    0    0  504  501  0.00000000000E+00  0.00000000000E+00  0.24748606433E+02  0.24748606433E+02  0.00000000000E+00 0.  1.
         21   -1    0    0  501  502 -0.00000000000E+00 -0.00000000000E+00 -0.46833138797E+02  0.46833138797E+02  0.00000000000E+00 0. -1.
         21    1    1    2  503  502 -0.13631733886E+01  0.23127323554E+02 -0.37268045914E+02  0.43882098659E+02  0.00000000000E+00 0. -1.
         21    1    1    2  504  503  0.13631733886E+01 -0.23127323554E+02  0.15183513550E+02  0.27699646571E+02  0.00000000000E+00 0.  1.
<mgrwt>
<rscale>  2 0.23167463E+02</rscale>
<asrwt>0</asrwt>
<pdfrwt beam="1">  1       21 0.38074779E-02 0.23167463E+02</pdfrwt>
<pdfrwt beam="2">  1       21 0.72050983E-02 0.23167463E+02</pdfrwt>
<totfact> 0.43971268E+07</totfact>
</mgrwt>
</event>
<event>
 4    1  0.4619222E+006  0.2111921E+02  0.7546771E-02  0.1723945E+00
         21   -1    0    0  502  501  0.00000000000E+00  0.00000000000E+00  0.59891700600E+01  0.59891700600E+01  0.00000000000E+00 0.  1.
         21   -1    0    0  503  502 -0.00000000000E+00 -0.00000000000E+00 -0.38541654052E+03  0.38541654052E+03  0.00000000000E+00 0. -1.
         21    1    1    2  503  504 -0.59855136656E+01 -0.20253267507E+02 -0.36549550316E+03  0.36610515436E+03  0.00000000000E+00 0. -1.
         21    1    1    2  504  501  0.59855136656E+01  0.20253267507E+02 -0.13931867299E+02  0.25300556219E+02  0.00000000000E+00 0.  1.
<mgrwt>
<rscale>  2 0.21119214E+02</rscale>
<asrwt>0</asrwt>
<pdfrwt beam="1">  1       21 0.92141065E-03 0.21119214E+02</pdfrwt>
<pdfrwt beam="2">  1       21 0.59294861E-01 0.21119214E+02</pdfrwt>
<totfact> 0.91290308E+06</totfact>
</mgrwt>
</event>
<event>
 4    1  0.4619222E+006  0.2301021E+02  0.7546771E-02  0.1691345E+00
         21   -1    0    0  502  501  0.00000000000E+00  0.00000000000E+00  0.14811691098E+02  0.14811691098E+02  0.00000000000E+00 0.  1.
         21   -1    0    0  503  502 -0.00000000000E+00 -0.00000000000E+00 -0.37412551594E+03  0.37412551594E+03  0.00000000000E+00 0.  1.
         21    1    1    2  503  504 -0.22998939810E+02 -0.72002496512E+00 -0.36460182476E+03  0.36532719620E+03  0.00000000000E+00 0.  1.
         21    1    1    2  504  501  0.22998939810E+02  0.72002496512E+00  0.52879999188E+01  0.23610010832E+02  0.00000000000E+00 0.  1.
<mgrwt>
<rscale>  2 0.23010208E+02</rscale>
<asrwt>0</asrwt>
<pdfrwt beam="1">  1       21 0.22787216E-02 0.23010208E+02</pdfrwt>
<pdfrwt beam="2">  1       21 0.57557774E-01 0.23010208E+02</pdfrwt>
<totfact> 0.24856366E+06</totfact>
</mgrwt>
</event>
<event>
 4    1  0.4619222E+006  0.2314568E+02  0.7546771E-02  0.1689159E+00
         21   -1    0    0  504  501  0.00000000000E+00  0.00000000000E+00  0.17930522999E+01  0.17930522999E+01  0.00000000000E+00 0.  1.
         21   -1    0    0  503  502 -0.00000000000E+00 -0.00000000000E+00 -0.31066656089E+03  0.31066656089E+03  0.00000000000E+00 0.  1.
         21    1    1    2  503  501 -0.53662149391E+01 -0.22515024410E+02 -0.12387335991E+03  0.12601718884E+03  0.00000000000E+00 0.  1.
         21    1    1    2  504  502  0.53662149391E+01  0.22515024410E+02 -0.18500014867E+03  0.18644242435E+03  0.00000000000E+00 0.  1.
<mgrwt>
<rscale>  2 0.23145682E+02</rscale>
<asrwt>0</asrwt>
<pdfrwt beam="1">  1       21 0.27585440E-03 0.23145682E+02</pdfrwt>
<pdfrwt beam="2">  1       21 0.47794822E-01 0.23145682E+02</pdfrwt>
<totfact> 0.84005557E+07</totfact>
</mgrwt>
</event>
<event>
 4    1  0.4619222E+006  0.5239240E+02  0.7546771E-02  0.1432849E+00
         21   -1    0    0  504  501  0.00000000000E+00  0.00000000000E+00  0.29629793996E+02  0.29629793996E+02  0.00000000000E+00 0.  1.
         21   -1    0    0  503  502 -0.00000000000E+00 -0.00000000000E+00 -0.10942860727E+03  0.10942860727E+03  0.00000000000E+00 0.  1.
         21    1    1    2  503  501 -0.45064236702E+02  0.26724117140E+02 -0.12667186377E+02  0.53901961720E+02  0.00000000000E+00 0.  1.
         21    1    1    2  504  502  0.45064236702E+02 -0.26724117140E+02 -0.67131626900E+02  0.85156439549E+02  0.00000000000E+00 0.  1.
<mgrwt>
<rscale>  2 0.52392403E+02</rscale>
<asrwt>0</asrwt>
<pdfrwt beam="1">  1       21 0.45584298E-02 0.52392403E+02</pdfrwt>
<pdfrwt beam="2">  1       21 0.16835171E-01 0.52392403E+02</pdfrwt>
<totfact> 0.90401673E+06</totfact>
</mgrwt>
</event>
<event>
 4    1  0.4619222E+006  0.2130654E+02  0.7546771E-02  0.1720528E+00
         21   -1    0    0  503  501  0.00000000000E+00  0.00000000000E+00  0.24166053494E+02  0.24166053494E+02  0.00000000000E+00 0. -1.
         21   -1    0    0  504  502 -0.00000000000E+00 -0.00000000000E+00 -0.94868354538E+03  0.94868354538E+03  0.00000000000E+00 0. -1.
         21    1    1    2  503  502  0.21264483660E+02 -0.13380446963E+01 -0.94384348789E+03  0.94408394661E+03  0.00000000000E+00 0. -1.
         21    1    1    2  504  501 -0.21264483660E+02  0.13380446963E+01  0.19325995996E+02  0.28765652264E+02  0.00000000000E+00 0. -1.
<mgrwt>
<rscale>  2 0.21306540E+02</rscale>
<asrwt>0</asrwt>
<pdfrwt beam="1">  1       21 0.37178539E-02 0.21306540E+02</pdfrwt>
<pdfrwt beam="2">  1       21 0.14595134E+00 0.21306540E+02</pdfrwt>
<totfact> 0.15588270E+05</totfact>
</mgrwt>
</event>
<event>
 4    1  0.4619222E+006  0.2680530E+02  0.7546771E-02  0.1636348E+00
         21   -1    0    0  502  501  0.00000000000E+00  0.00000000000E+00  0.24730422865E+02  0.24730422865E+02  0.00000000000E+00 0.  1.
         21   -1    0    0  504  502 -0.00000000000E+00 -0.00000000000E+00 -0.24875639567E+03  0.24875639567E+03  0.00000000000E+00 0.  1.
         21    1    1    2  503  501 -0.20607594752E+02 -0.17142089957E+02  0.16496862236E+02  0.31474921337E+02  0.00000000000E+00 0.  1.
         21    1    1    2  504  503  0.20607594752E+02  0.17142089957E+02 -0.24052283504E+03  0.24201189719E+03  0.00000000000E+00 0.  1.
<mgrwt>
<rscale>  2 0.26805302E+02</rscale>
<asrwt>0</asrwt>
<pdfrwt beam="1">  1       21 0.38046805E-02 0.26805302E+02</pdfrwt>
<pdfrwt beam="2">  1       21 0.38270214E-01 0.26805302E+02</pdfrwt>
<totfact> 0.25039967E+06</totfact>
</mgrwt>
</event>
<event>
 4    1  0.4619222E+006  0.2571611E+02  0.7546771E-02  0.1650924E+00
         21   -1    0    0  503  501  0.00000000000E+00  0.00000000000E+00  0.13437035366E+02  0.13437035366E+02  0.00000000000E+00 0.  1.
         21   -1    0    0  504  502 -0.00000000000E+00 -0.00000000000E+00 -0.92402011633E+02  0.92402011633E+02  0.00000000000E+00 0.  1.
         21    1    1    2  503  502 -0.42013977177E+00 -0.25712676814E+02 -0.33043396884E+01  0.25927532223E+02  0.00000000000E+00 0.  1.
         21    1    1    2  504  501  0.42013977177E+00  0.25712676814E+02 -0.75660636578E+02  0.79911514776E+02  0.00000000000E+00 0.  1.
<mgrwt>
<rscale>  2 0.25716109E+02</rscale>
<asrwt>0</asrwt>
<pdfrwt beam="1">  1       21 0.20672363E-02 0.25716109E+02</pdfrwt>
<pdfrwt beam="2">  1       21 0.14215693E-01 0.25716109E+02</pdfrwt>
<totfact> 0.37753787E+07</totfact>
</mgrwt>
</event>
<event>
 4    1  0.4619222E+006  0.2499968E+02  0.7546771E-02  0.1661007E+00
         21   -1    0    0  503  501  0.00000000000E+00  0.00000000000E+00  0.34481032547E+01  0.34481032547E+01  0.00000000000E+00 0.  1.
         21   -1    0    0  501  502 -0.00000000000E+00 -0.00000000000E+00 -0.31560471064E+03  0.31560471064E+03  0.00000000000E+00 0.  1.
         21    1    1    2  503  504  0.22875792427E+02 -0.10083754537E+02 -0.51995223363E+02  0.57693043232E+02  0.00000000000E+00 0.  1.
         21    1    1    2  504  502 -0.22875792427E+02  0.10083754537E+02 -0.26016138403E+03  0.26135977067E+03  0.00000000000E+00 0.  1.
<mgrwt>
<rscale>  2 0.24999680E+02</rscale>
<asrwt>0</asrwt>
<pdfrwt beam="1">  1       21 0.53047743E-03 0.24999680E+02</pdfrwt>
<pdfrwt beam="2">  1       21 0.48554571E-01 0.24999680E+02</pdfrwt>
<totfact> 0.31767749E+07</totfact>
</mgrwt>
</event>
<event>
 4    1  0.4619222E+006  0.3886624E+02  0.7546771E-02  0.1516724E+00
         21   -1    0    0  503  501  0.00000000000E+00  0.00000000000E+00  0.72618716517E+02  0.72618716517E+02  0.00000000000E+00 0.  1.
         21   -1    0    0  501  502 -0.00000000000E+00 -0.00000000000E+00 -0.39832905278E+02  0.39832905278E+02  0.00000000000E+00 0. -1.
         21    1    1    2  503  504  0.38317455902E+02  0.65082135536E+01  0.55257059399E+02  0.67556841873E+02  0.00000000000E+00 0.  1.
         21    1    1    2  504  502 -0.38317455902E+02 -0.65082135536E+01 -0.22471248160E+02  0.44894779923E+02  0.00000000000E+00 0. -1.
<mgrwt>
<rscale>  2 0.38866236E+02</rscale>
<asrwt>0</asrwt>
<pdfrwt beam="1">  1       21 0.11172110E-01 0.38866236E+02</pdfrwt>
<pdfrwt beam="2">  1       21 0.61281393E-02 0.38866236E+02</pdfrwt>
<totfact> 0.10927632E+07</totfact>
</mgrwt>
</event>
<event>
 4    1  0.4619222E+006  0.2211926E+02  0.7546771E-02  0.1706198E+00
         21   -1    0    0  502  501  0.00000000000E+00  0.00000000000E+00  0.17646066970E+02  0.17646066970E+02  0.00000000000E+00 0.  1.
         21   -1    0    0  504  502 -0.00000000000E+00 -0.00000000000E+00 -0.30933330913E+03  0.30933330913E+03  0.00000000000E+00 0. -1.
         21    1    1    2  503  501 -0.16902971084E+02  0.14267131053E+02  0.10147074291E+02  0.24335664705E+02  0.00000000000E+00 0.  1.
         21    1    1    2  504  503  0.16902971084E+02 -0.14267131053E+02 -0.30183431645E+03  0.30264371140E+03  0.00000000000E+00 0. -1.
<mgrwt>
<rscale>  2 0.22119255E+02</rscale>
<asrwt>0</asrwt>
<pdfrwt beam="1">  1       21 0.27147796E-02 0.22119255E+02</pdfrwt>
<pdfrwt beam="2">  1       21 0.47589738E-01 0.22119255E+02</pdfrwt>
<totfact> 0.27364138E+06</totfact>
</mgrwt>
</event>
<event>
 4    1  0.4619222E+006  0.2205545E+02  0.7546771E-02  0.1707295E+00
         21   -1    0    0  504  501  0.00000000000E+00  0.00000000000E+00  0.28758639329E+01  0.28758639329E+01  0.00000000000E+00 0. -1.
         21   -1    0    0  501  502 -0.00000000000E+00 -0.00000000000E+00 -0.17075889753E+03  0.17075889753E+03  0.00000000000E+00 0. -1.
         21    1    1    2  503  502 -0.66748615598E+01  0.21021153935E+02 -0.75505572546E+02  0.78660880844E+02  0.00000000000E+00 0. -1.
         21    1    1    2  504  503  0.66748615598E+01 -0.21021153935E+02 -0.92377461050E+02  0.94973880618E+02  0.00000000000E+00 0. -1.
<mgrwt>
<rscale>  2 0.22055446E+02</rscale>
<asrwt>0</asrwt>
<pdfrwt beam="1">  1       21 0.44244047E-03 0.22055446E+02</pdfrwt>
<pdfrwt beam="2">  1       21 0.26270608E-01 0.22055446E+02</pdfrwt>
<totfact> 0.12624532E+08</totfact>
</mgrwt>
</event>
<event>
 4    1  0.4619222E+006  0.2670781E+02  0.7546771E-02  0.1637618E+00
         21   -1    0    0  502  501  0.00000000000E+00  0.00000000000E+00  0.67882277962E+02  0.67882277962E+02  0.00000000000E+00 0.  1.
         21   -1    0    0  504  502 -0.00000000000E+00 -0.00000000000E+00 -0.22642589433E+02  0.22642589433E+02  0.00000000000E+00 0.  1.
         21    1    1    2  503  501  0.23858562624E+02 -0.12003176245E+02  0.55754871129E+02  0.61821621663E+02  0.00000000000E+00 0.  1.
         21    1    1    2  504  503 -0.23858562624E+02  0.12003176245E+02 -0.10515182600E+02  0.28703245732E+02  0.00000000000E+00 0.  1.
<mgrwt>
<rscale>  2 0.26707813E+02</rscale>
<asrwt>0</asrwt>
<pdfrwt beam="1">  1       21 0.10443427E-01 0.26707813E+02</pdfrwt>
<pdfrwt beam="2">  1       21 0.34834753E-02 0.26707813E+02</pdfrwt>
<totfact> 0.28387746E+07</totfact>
</mgrwt>
</event>
<event>
 4    1  0.4619222E+006  0.2381575E+02  0.7546771E-02  0.1678618E+00
         21   -1    0    0  503  501  0.00000000000E+00  0.00000000000E+00  0.84152976877E+03  0.84152976877E+03  0.00000000000E+00 0.  1.
         21   -1    0    0  504  502 -0.00000000000E+00 -0.00000000000E+00 -0.75439922519E+03  0.75439922519E+03  0.00000000000E+00 0.  1.
         21    1    1    2  503  502 -0.23767585891E+02 -0.15138486409E+01 -0.75404268511E+03  0.75441869067E+03  0.00000000000E+00 0.  1.
         21    1    1    2  504  501  0.23767585891E+02  0.15138486409E+01  0.84117322869E+03  0.84151030329E+03  0.00000000000E+00 0.  1.
<mgrwt>
<rscale>  2 0.23815749E+02</rscale>
<asrwt>0</asrwt>
<pdfrwt beam="1">  1       21 0.12946612E+00 0.23815749E+02</pdfrwt>
<pdfrwt beam="2">  1       21 0.11606142E+00 0.23815749E+02</pdfrwt>
<totfact> 0.41224687E+02</totfact>
</mgrwt>
</event>
<event>
 4    1  0.4619222E+006  0.3400893E+02  0.7546771E-02  0.1557582E+00
         21   -1    0    0  503  501  0.00000000000E+00  0.00000000000E+00  0.57093808948E+01  0.57093808948E+01  0.00000000000E+00 0.  1.
         21   -1    0    0  504  502 -0.00000000000E+00 -0.00000000000E+00 -0.45871788419E+03  0.45871788419E+03  0.00000000000E+00 0.  1.
         21    1    1    2  503  502  0.28040750372E+02  0.19243802355E+02 -0.40002507607E+03  0.40146814207E+03  0.00000000000E+00 0.  1.
         21    1    1    2  504  501 -0.28040750372E+02 -0.19243802355E+02 -0.52983427224E+02  0.62959123016E+02  0.00000000000E+00 0.  1.
<mgrwt>
<rscale>  2 0.34008934E+02</rscale>
<asrwt>0</asrwt>
<pdfrwt beam="1">  1       21 0.87836642E-03 0.34008934E+02</pdfrwt>
<pdfrwt beam="2">  1       21 0.70571972E-01 0.34008934E+02</pdfrwt>
<totfact> 0.73980454E+06</totfact>
</mgrwt>
</event>
<event>
 4    1  0.4619222E+006  0.2133488E+02  0.7546771E-02  0.1720015E+00
         21   -1    0    0  503  501  0.00000000000E+00  0.00000000000E+00  0.27480897544E+03  0.27480897544E+03  0.00000000000E+00 0.  1.
         21   -1    0    0  504  502 -0.00000000000E+00 -0.00000000000E+00 -0.51163052544E+03  0.51163052544E+03  0.00000000000E+00 0.  1.
         21    1    1    2  503  502 -0.19084679571E+02  0.95368890264E+01 -0.51099350931E+03  0.51143869995E+03  0.00000000000E+00 0.  1.
         21    1    1    2  504  501  0.19084679571E+02 -0.95368890264E+01  0.27417195931E+03  0.27500080094E+03  0.00000000000E+00 0.  1.
<mgrwt>
<rscale>  2 0.21334883E+02</rscale>
<asrwt>0</asrwt>
<pdfrwt beam="1">  1       21 0.42278304E-01 0.21334883E+02</pdfrwt>
<pdfrwt beam="2">  1       21 0.78712388E-01 0.21334883E+02</pdfrwt>
<totfact> 0.99719004E+03</totfact>
</mgrwt>
</event>
<event>
 4    1  0.4619222E+006  0.4031140E+02  0.7546771E-02  0.1505932E+00
         21   -1    0    0  504  501  0.00000000000E+00  0.00000000000E+00  0.17511437780E+01  0.17511437780E+01  0.00000000000E+00 0. -1.
         21   -1    0    0  503  502 -0.00000000000E+00 -0.00000000000E+00 -0.21169347436E+04  0.21169347436E+04  0.00000000000E+00 0. -1.
         21    1    1    2  503  501  0.33310482445E+02  0.22702880018E+02 -0.18514945742E+04  0.18519333593E+04  0.00000000000E+00 0. -1.
         21    1    1    2  504  502 -0.33310482445E+02 -0.22702880018E+02 -0.26368902565E+03  0.26675252810E+03  0.00000000000E+00 0. -1.
<mgrwt>
<rscale>  2 0.40311400E+02</rscale>
<asrwt>0</asrwt>
<pdfrwt beam="1">  1       21 0.26940788E-03 0.40311400E+02</pdfrwt>
<pdfrwt beam="2">  1       21 0.32568088E+00 0.40311400E+02</pdfrwt>
<totfact> 0.83661940E+05</totfact>
</mgrwt>
</event>
<event>
 4    1  0.4619222E+006  0.2675785E+02  0.7546771E-02  0.1636966E+00
         21   -1    0    0  503  501  0.00000000000E+00  0.00000000000E+00  0.14244994215E+02  0.14244994215E+02  0.00000000000E+00 0.  1.
         21   -1    0    0  504  502 -0.00000000000E+00 -0.00000000000E+00 -0.50264055143E+02  0.50264055143E+02  0.00000000000E+00 0.  1.
         21    1    1    2  503  502 -0.22058072418E+02 -0.15146747843E+02 -0.18213544709E+02  0.32368437403E+02  0.00000000000E+00 0.  1.
         21    1    1    2  504  501  0.22058072418E+02  0.15146747843E+02 -0.17805516219E+02  0.32140611955E+02  0.00000000000E+00 0.  1.
<mgrwt>
<rscale>  2 0.26757850E+02</rscale>
<asrwt>0</asrwt>
<pdfrwt beam="1">  1       21 0.21915376E-02 0.26757850E+02</pdfrwt>
<pdfrwt beam="2">  1       21 0.77329316E-02 0.26757850E+02</pdfrwt>
<totfact> 0.96226279E+07</totfact>
</mgrwt>
</event>
<event>
 4    1  0.4619222E+006  0.2602429E+02  0.7546771E-02  0.1646711E+00
         21   -1    0    0  503  501  0.00000000000E+00  0.00000000000E+00  0.21764695893E+03  0.21764695893E+03  0.00000000000E+00 0.  1.
         21   -1    0    0  501  502 -0.00000000000E+00 -0.00000000000E+00 -0.38686231668E+01  0.38686231668E+01  0.00000000000E+00 0.  1.
         21    1    1    2  503  504  0.84155632094E+01 -0.24626041129E+02  0.15587908758E+03  0.15803655764E+03  0.00000000000E+00 0.  1.
         21    1    1    2  504  502 -0.84155632094E+01  0.24626041129E+02  0.57899248182E+02  0.63479024455E+02  0.00000000000E+00 0.  1.
<mgrwt>
<rscale>  2 0.26024289E+02</rscale>
<asrwt>0</asrwt>
<pdfrwt beam="1">  1       21 0.33484138E-01 0.26024289E+02</pdfrwt>
<pdfrwt beam="2">  1       21 0.59517296E-03 0.26024289E+02</pdfrwt>
<totfact> 0.54636997E+07</totfact>
</mgrwt>
</event>
<event>
 4    1  0.4619222E+006  0.2039973E+02  0.7546771E-02  0.1737494E+00
         21   -1    0    0  503  501  0.00000000000E+00  0.00000000000E+00  0.12418338894E+03  0.12418338894E+03  0.00000000000E+00 0.  1.
         21   -1    0    0  501  502 -0.00000000000E+00 -0.00000000000E+00 -0.25676072016E+02  0.25676072016E+02  0.00000000000E+00 0. -1.
         21    1    1    2  503  504 -0.11988878902E+02 -0.16505026681E+02  0.11912281218E+03  0.12085691335E+03  0.00000000000E+00 0.  1.
         21    1    1    2  504  502  0.11988878902E+02  0.16505026681E+02 -0.20615495254E+02  0.29002547606E+02  0.00000000000E+00 0. -1.
<mgrwt>
<rscale>  2 0.20399733E+02</rscale>
<asrwt>0</asrwt>
<pdfrwt beam="1">  1       21 0.19105137E-01 0.20399733E+02</pdfrwt>
<pdfrwt beam="2">  1       21 0.39501650E-02 0.20399733E+02</pdfrwt>
<totfact> 0.79137326E+06</totfact>
</mgrwt>
</event>
<event>
 4    1  0.4619222E+006  0.4712610E+02  0.7546771E-02  0.1461489E+00
         21   -1    0    0  503  501  0.00000000000E+00  0.00000000000E+00  0.37669455913E+01  0.37669455913E+01  0.00000000000E+00 0. -1.
         21   -1    0    0  504  502 -0.00000000000E+00 -0.00000000000E+00 -0.62648533300E+03  0.62648533300E+03  0.00000000000E+00 0. -1.
         21    1    1    2  503  502  0.47085902398E+02  0.19459611206E+01 -0.38785658883E+03  0.39070910211E+03  0.00000000000E+00 0. -1.
         21    1    1    2  504  501 -0.47085902398E+02 -0.19459611206E+01 -0.23486179858E+03  0.23954317648E+03  0.00000000000E+00 0. -1.
<mgrwt>
<rscale>  2 0.47126096E+02</rscale>
<asrwt>0</asrwt>
<pdfrwt beam="1">  1       21 0.57953066E-03 0.47126096E+02</pdfrwt>
<pdfrwt beam="2">  1       21 0.96382263E-01 0.47126096E+02</pdfrwt>
<totfact> 0.73388726E+06</totfact>
</mgrwt>
</event>
<event>
 4    1  0.4619222E+006  0.4227387E+02  0.7546771E-02  0.1492115E+00
         21   -1    0    0  503  501  0.00000000000E+00  0.00000000000E+00  0.17988477499E+04  0.17988477499E+04  0.00000000000E+00 0. -1.
         21   -1    0    0  501  502 -0.00000000000E+00 -0.00000000000E+00 -0.12014328190E+01  0.12014328190E+01  0.00000000000E+00 0. -1.
         21    1    1    2  503  504  0.40517087294E+02  0.12060076420E+02  0.12732870439E+04  0.12739886091E+04  0.00000000000E+00 0. -1.
         21    1    1    2  504  502 -0.40517087294E+02 -0.12060076420E+02  0.52435927315E+03  0.52606057365E+03  0.00000000000E+00 0. -1.
<mgrwt>
<rscale>  2 0.42273867E+02</rscale>
<asrwt>0</asrwt>
<pdfrwt beam="1">  1       21 0.27674365E+00 0.42273867E+02</pdfrwt>
<pdfrwt beam="2">  1       21 0.18483726E-03 0.42273867E+02</pdfrwt>
<totfact> 0.25947555E+06</totfact>
</mgrwt>
</event>
<event>
 4    1  0.4619222E+006  0.2087912E+02  0.7546771E-02  0.1728390E+00
         21   -1    0    0  503  501  0.00000000000E+00  0.00000000000E+00  0.12025871717E+02  0.12025871717E+02  0.00000000000E+00 0.  1.
         21   -1    0    0  501  502 -0.00000000000E+00 -0.00000000000E+00 -0.71446301983E+03  0.71446301983E+03  0.00000000000E+00 0.  1.
         21    1    1    2  503  504 -0.20860897973E+02  0.87200141506E+00  0.26908904116E+01  0.21051801393E+02  0.00000000000E+00 0.  1.
         21    1    1    2  504  502  0.20860897973E+02 -0.87200141506E+00 -0.70512803853E+03  0.70543709016E+03  0.00000000000E+00 0.  1.
<mgrwt>
<rscale>  2 0.20879115E+02</rscale>
<asrwt>0</asrwt>
<pdfrwt beam="1">  1       21 0.18501342E-02 0.20879115E+02</pdfrwt>
<pdfrwt beam="2">  1       21 0.10991738E+00 0.20879115E+02</pdfrwt>
<totfact> 0.87326959E+05</totfact>
</mgrwt>
</event>
<event>
 4    1  0.4619222E+006  0.2039210E+02  0.7546771E-02  0.1737641E+00
         21   -1    0    0  502  501  0.00000000000E+00  0.00000000000E+00  0.65382151972E+03  0.65382151972E+03  0.00000000000E+00 0.  1.
         21   -1    0    0  503  502 -0.00000000000E+00 -0.00000000000E+00 -0.27331514469E+01  0.27331514469E+01  0.00000000000E+00 0.  1.
         21    1    1    2  503  504 -0.19268537154E+02  0.66754336954E+01  0.37987962661E+02  0.43115232183E+02  0.00000000000E+00 0.  1.
         21    1    1    2  504  501  0.19268537154E+02 -0.66754336954E+01  0.61310040561E+03  0.61343943898E+03  0.00000000000E+00 0.  1.
<mgrwt>
<rscale>  2 0.20392105E+02</rscale>
<asrwt>0</asrwt>
<pdfrwt beam="1">  1       21 0.10058780E+00 0.20392105E+02</pdfrwt>
<pdfrwt beam="2">  1       21 0.42048536E-03 0.20392105E+02</pdfrwt>
<totfact> 0.96485582E+06</totfact>
</mgrwt>
</event>
<event>
 4    1  0.4619222E+006  0.2764368E+02  0.7546771E-02  0.1625697E+00
         21   -1    0    0  504  501  0.00000000000E+00  0.00000000000E+00  0.77606921497E+02  0.77606921497E+02  0.00000000000E+00 0.  1.
         21   -1    0    0  503  502 -0.00000000000E+00 -0.00000000000E+00 -0.10918256549E+02  0.10918256549E+02  0.00000000000E+00 0. -1.
         21    1    1    2  503  501 -0.63606887010E+01  0.26901948678E+02  0.19477899275E+02  0.33816590064E+02  0.00000000000E+00 0. -1.
         21    1    1    2  504  502  0.63606887010E+01 -0.26901948678E+02  0.47210765674E+02  0.54708587982E+02  0.00000000000E+00 0.  1.
<mgrwt>
<rscale>  2 0.27643683E+02</rscale>
<asrwt>0</asrwt>
<pdfrwt beam="1">  1       21 0.11939526E-01 0.27643683E+02</pdfrwt>
<pdfrwt beam="2">  1       21 0.16797318E-02 0.27643683E+02</pdfrwt>
<totfact> 0.71038008E+07</totfact>
</mgrwt>
</event>
<event>
 4    1  0.4619222E+006  0.2446936E+02  0.7546771E-02  0.1668743E+00
         21   -1    0    0  504  501  0.00000000000E+00  0.00000000000E+00  0.19578999667E+02  0.19578999667E+02  0.00000000000E+00 0. -1.
         21   -1    0    0  501  502 -0.00000000000E+00 -0.00000000000E+00 -0.11644402733E+03  0.11644402733E+03  0.00000000000E+00 0. -1.
         21    1    1    2  503  502  0.16098052143E+02 -0.18428305037E+02 -0.10683433243E+03  0.10960074952E+03  0.00000000000E+00 0. -1.
         21    1    1    2  504  503 -0.16098052143E+02  0.18428305037E+02  0.99693047710E+01  0.26422277475E+02  0.00000000000E+00 0. -1.
<mgrwt>
<rscale>  2 0.24469363E+02</rscale>
<asrwt>0</asrwt>
<pdfrwt beam="1">  1       21 0.30121537E-02 0.24469363E+02</pdfrwt>
<pdfrwt beam="2">  1       21 0.17914466E-01 0.24469363E+02</pdfrwt>
<totfact> 0.14007577E+07</totfact>
</mgrwt>
</event>
<event>
 4    1  0.4619222E+006  0.2330941E+02  0.7546771E-02  0.1686543E+00
         21   -1    0    0  504  501  0.00000000000E+00  0.00000000000E+00  0.21603330393E+02  0.21603330393E+02  0.00000000000E+00 0. -1.
         21   -1    0    0  501  502 -0.00000000000E+00 -0.00000000000E+00 -0.37422311957E+02  0.37422311957E+02  0.00000000000E+00 0. -1.
         21    1    1    2  503  502 -0.23000059302E+02 -0.37849343513E+01 -0.24810193608E+02  0.34042240861E+02  0.00000000000E+00 0. -1.
         21    1    1    2  504  503  0.23000059302E+02  0.37849343513E+01  0.89912120447E+01  0.24983401489E+02  0.00000000000E+00 0. -1.
<mgrwt>
<rscale>  2 0.23309407E+02</rscale>
<asrwt>0</asrwt>
<pdfrwt beam="1">  1       21 0.33235893E-02 0.23309407E+02</pdfrwt>
<pdfrwt beam="2">  1       21 0.57572788E-02 0.23309407E+02</pdfrwt>
<totfact> 0.78274373E+07</totfact>
</mgrwt>
</event>
<event>
 4    1  0.4619222E+006  0.2506763E+02  0.7546771E-02  0.1660032E+00
         21   -1    0    0  504  501  0.00000000000E+00  0.00000000000E+00  0.16326195721E+02  0.16326195721E+02  0.00000000000E+00 0. -1.
         21   -1    0    0  503  502 -0.00000000000E+00 -0.00000000000E+00 -0.42323651032E+02  0.42323651032E+02  0.00000000000E+00 0. -1.
         21    1    1    2  503  501  0.21118795476E+02  0.13504915482E+02 -0.41723426905E+01  0.25412491181E+02  0.00000000000E+00 0. -1.
         21    1    1    2  504  502 -0.21118795476E+02 -0.13504915482E+02 -0.21825112620E+02  0.33237355571E+02  0.00000000000E+00 0. -1.
<mgrwt>
<rscale>  2 0.25067634E+02</rscale>
<asrwt>0</asrwt>
<pdfrwt beam="1">  1       21 0.25117224E-02 0.25067634E+02</pdfrwt>
<pdfrwt beam="2">  1       21 0.65113311E-02 0.25067634E+02</pdfrwt>
<totfact> 0.10131413E+08</totfact>
</mgrwt>
</event>
<event>
 4    1  0.4619222E+006  0.2090325E+02  0.7546771E-02  0.1727940E+00
         21   -1    0    0  503  501  0.00000000000E+00  0.00000000000E+00  0.10059234126E+02  0.10059234126E+02  0.00000000000E+00 0.  1.
         21   -1    0    0  501  502 -0.00000000000E+00 -0.00000000000E+00 -0.95474017112E+02  0.95474017112E+02  0.00000000000E+00 0. -1.
         21    1    1    2  503  504  0.20903235801E+02  0.25924637857E-01 -0.37516314244E+01  0.21237247406E+02  0.00000000000E+00 0.  1.
         21    1    1    2  504  502 -0.20903235801E+02 -0.25924637857E-01 -0.81663151561E+02  0.84296003832E+02  0.00000000000E+00 0. -1.
<mgrwt>
<rscale>  2 0.20903252E+02</rscale>
<asrwt>0</asrwt>
<pdfrwt beam="1">  1       21 0.15475745E-02 0.20903252E+02</pdfrwt>
<pdfrwt beam="2">  1       21 0.14688311E-01 0.20903252E+02</pdfrwt>
<totfact> 0.52824400E+07</totfact>
</mgrwt>
</event>
<event>
 4    1  0.4619222E+006  0.2294997E+02  0.7546771E-02  0.1692322E+00
         21   -1    0    0  504  501  0.00000000000E+00  0.00000000000E+00  0.79322255703E+01  0.79322255703E+01  0.00000000000E+00 0.  1.
         21   -1    0    0  501  502 -0.00000000000E+00 -0.00000000000E+00 -0.82725113710E+03  0.82725113710E+03  0.00000000000E+00 0.  1.
         21    1    1    2  503  502 -0.78419926226E+01 -0.21568594359E+02 -0.81014140984E+03  0.81046641204E+03  0.00000000000E+00 0.  1.
         21    1    1    2  504  503  0.78419926226E+01  0.21568594359E+02 -0.91775016842E+01  0.24716950623E+02  0.00000000000E+00 0.  1.
<mgrwt>
<rscale>  2 0.22949970E+02</rscale>
<asrwt>0</asrwt>
<pdfrwt beam="1">  1       21 0.12203428E-02 0.22949970E+02</pdfrwt>
<pdfrwt beam="2">  1       21 0.12726936E+00 0.22949970E+02</pdfrwt>
<totfact> 0.11896226E+06</totfact>
</mgrwt>
</event>
<event>
 4    1  0.4619222E+006  0.2818005E+02  0.7546771E-02  0.1619123E+00
         21   -1    0    0  502  501  0.00000000000E+00  0.00000000000E+00  0.79766685091E+03  0.79766685091E+03  0.00000000000E+00 0.  1.
         21   -1    0    0  503  502 -0.00000000000E+00 -0.00000000000E+00 -0.50576763671E+01  0.50576763671E+01  0.00000000000E+00 0.  1.
         21    1    1    2  503  504 -0.26719258532E+02 -0.89552489063E+01  0.36606716983E+02  0.46197045228E+02  0.00000000000E+00 0.  1.
         21    1    1    2  504  501  0.26719258532E+02  0.89552489063E+01  0.75600245756E+03  0.75652748205E+03  0.00000000000E+00 0.  1.
<mgrwt>
<rscale>  2 0.28180051E+02</rscale>
<asrwt>0</asrwt>
<pdfrwt beam="1">  1       21 0.12271788E+00 0.28180051E+02</pdfrwt>
<pdfrwt beam="2">  1       21 0.77810469E-03 0.28180051E+02</pdfrwt>
<totfact> 0.25936582E+06</totfact>
</mgrwt>
</event>
<event>
 4    1  0.4619222E+006  0.2585517E+02  0.7546771E-02  0.1649014E+00
         21   -1    0    0  503  501  0.00000000000E+00  0.00000000000E+00  0.14633649763E+02  0.14633649763E+02  0.00000000000E+00 0. -1.
         21   -1    0    0  504  502 -0.00000000000E+00 -0.00000000000E+00 -0.40143480959E+03  0.40143480959E+03  0.00000000000E+00 0. -1.
         21    1    1    2  503  502 -0.21644184760E+02 -0.14142815806E+02 -0.38924068713E+03  0.39009845230E+03  0.00000000000E+00 0. -1.
         21    1    1    2  504  501  0.21644184760E+02  0.14142815806E+02  0.24395272998E+01  0.25970007052E+02  0.00000000000E+00 0. -1.
<mgrwt>
<rscale>  2 0.25855173E+02</rscale>
<asrwt>0</asrwt>
<pdfrwt beam="1">  1       21 0.22513307E-02 0.25855173E+02</pdfrwt>
<pdfrwt beam="2">  1       21 0.61759201E-01 0.25855173E+02</pdfrwt>
<totfact> 0.22297120E+06</totfact>
</mgrwt>
</event>
<event>
 4    1  0.4619222E+006  0.2026585E+02  0.7546771E-02  0.1740092E+00
         21   -1    0    0  503  501  0.00000000000E+00  0.00000000000E+00  0.10092054163E+02  0.10092054163E+02  0.00000000000E+00 0. -1.
         21   -1    0    0  504  502 -0.00000000000E+00 -0.00000000000E+00 -0.19406310818E+03  0.19406310818E+03  0.00000000000E+00 0.  1.
         21    1    1    2  503  502  0.48416378300E+01 -0.19679006835E+02 -0.18273104825E+03  0.18385140946E+03  0.00000000000E+00 0.  1.
         21    1    1    2  504  501 -0.48416378300E+01  0.19679006835E+02 -0.12400057700E+01  0.20303752884E+02  0.00000000000E+00 0. -1.
<mgrwt>
<rscale>  2 0.20265852E+02</rscale>
<asrwt>0</asrwt>
<pdfrwt beam="1">  1       21 0.15526238E-02 0.20265852E+02</pdfrwt>
<pdfrwt beam="2">  1       21 0.29855861E-01 0.20265852E+02</pdfrwt>
<totfact> 0.15124553E+07</totfact>
</mgrwt>
</event>
<event>
 4    1  0.4619222E+006  0.4209978E+02  0.7546771E-02  0.1493304E+00
         21   -1    0    0  503  501  0.00000000000E+00  0.00000000000E+00  0.34604142294E+02  0.34604142294E+02  0.00000000000E+00 0.  1.
         21   -1    0    0  501  502 -0.00000000000E+00 -0.00000000000E+00 -0.73513146737E+02  0.73513146737E+02  0.00000000000E+00 0.  1.
         21    1    1    2  503  504 -0.13060579014E+02 -0.40022652624E+02  0.10315409230E+02  0.43345116390E+02  0.00000000000E+00 0.  1.
         21    1    1    2  504  502  0.13060579014E+02  0.40022652624E+02 -0.49224413673E+02  0.64772172642E+02  0.00000000000E+00 0.  1.
<mgrwt>
<rscale>  2 0.42099780E+02</rscale>
<asrwt>0</asrwt>
<pdfrwt beam="1">  1       21 0.53237142E-02 0.42099780E+02</pdfrwt>
<pdfrwt beam="2">  1       21 0.11309715E-01 0.42099780E+02</pdfrwt>
<totfact> 0.13628910E+07</totfact>
</mgrwt>
</event>
<event>
 4    1  0.4619222E+006  0.2195535E+02  0.7546771E-02  0.1709025E+00
         21   -1    0    0  503  501  0.00000000000E+00  0.00000000000E+00  0.24687746833E+03  0.24687746833E+03  0.00000000000E+00 0. -1.
         21   -1    0    0  501  502 -0.00000000000E+00 -0.00000000000E+00 -0.28671790142E+01  0.28671790142E+01  0.00000000000E+00 0. -1.
         21    1    1    2  503  504  0.11829958244E+01  0.21923459932E+02  0.19253356974E+03  0.19378135372E+03  0.00000000000E+00 0. -1.
         21    1    1    2  504  502 -0.11829958244E+01 -0.21923459932E+02  0.51476719582E+02  0.55963293626E+02  0.00000000000E+00 0. -1.
<mgrwt>
<rscale>  2 0.21955354E+02</rscale>
<asrwt>0</asrwt>
<pdfrwt beam="1">  1       21 0.37981132E-01 0.21955354E+02</pdfrwt>
<pdfrwt beam="2">  1       21 0.44110466E-03 0.21955354E+02</pdfrwt>
<totfact> 0.64585810E+07</totfact>
</mgrwt>
</event>
<event>
 4    1  0.4619222E+006  0.2121027E+02  0.7546771E-02  0.1722279E+00
         21   -1    0    0  502  501  0.00000000000E+00  0.00000000000E+00  0.10209333633E+04  0.10209333633E+04  0.00000000000E+00 0. -1.
         21   -1    0    0  503  502 -0.00000000000E+00 -0.00000000000E+00 -0.23659342650E+01  0.23659342650E+01  0.00000000000E+00 0. -1.
         21    1    1    2  503  504  0.20302923288E+02 -0.61373422070E+01  0.47733856261E+02  0.52234056869E+02  0.00000000000E+00 0. -1.
         21    1    1    2  504  501 -0.20302923288E+02  0.61373422070E+01  0.97083357281E+03  0.97106524074E+03  0.00000000000E+00 0. -1.
<mgrwt>
<rscale>  2 0.21210273E+02</rscale>
<asrwt>0</asrwt>
<pdfrwt beam="1">  1       21 0.15706632E+00 0.21210273E+02</pdfrwt>
<pdfrwt beam="2">  1       21 0.36399070E-03 0.21210273E+02</pdfrwt>
<totfact> 0.43471539E+06</totfact>
</mgrwt>
</event>
<event>
 4    1  0.4619222E+006  0.3078839E+02  0.7546771E-02  0.1589534E+00
         21   -1    0    0  504  501  0.00000000000E+00  0.00000000000E+00  0.16168709644E+03  0.16168709644E+03  0.00000000000E+00 0.  1.
         21   -1    0    0  503  502 -0.00000000000E+00 -0.00000000000E+00 -0.66808525229E+02  0.66808525229E+02  0.00000000000E+00 0. -1.
         21    1    1    2  503  501 -0.61643537685E+00 -0.30782218467E+02 -0.61680594690E+02  0.68937803328E+02  0.00000000000E+00 0. -1.
         21    1    1    2  504  502  0.61643537685E+00  0.30782218467E+02  0.15655916590E+03  0.15955781835E+03  0.00000000000E+00 0.  1.
<mgrwt>
<rscale>  2 0.30788390E+02</rscale>
<asrwt>0</asrwt>
<pdfrwt beam="1">  1       21 0.24874938E-01 0.30788390E+02</pdfrwt>
<pdfrwt beam="2">  1       21 0.10278235E-01 0.30788390E+02</pdfrwt>
<totfact> 0.11160201E+06</totfact>
</mgrwt>
</event>
<event>
 4    1  0.4619222E+006  0.2381545E+02  0.7546771E-02  0.1678623E+00
         21   -1    0    0  502  501  0.00000000000E+00  0.00000000000E+00  0.20545727708E+03  0.20545727708E+03  0.00000000000E+00 0. -1.
         21   -1    0    0  503  502 -0.00000000000E+00 -0.00000000000E+00 -0.22019468672E+02  0.22019468672E+02  0.00000000000E+00 0.  1.
         21    1    1    2  503  504  0.38226608182E+01 -0.23506659343E+02 -0.14651180601E+02  0.27961274331E+02  0.00000000000E+00 0.  1.
         21    1    1    2  504  501 -0.38226608182E+01  0.23506659343E+02  0.19808898901E+03  0.19951547142E+03  0.00000000000E+00 0. -1.
<mgrwt>
<rscale>  2 0.23815452E+02</rscale>
<asrwt>0</asrwt>
<pdfrwt beam="1">  1       21 0.31608810E-01 0.23815452E+02</pdfrwt>
<pdfrwt beam="2">  1       21 0.33876107E-02 0.23815452E+02</pdfrwt>
<totfact> 0.42233673E+06</totfact>
</mgrwt>
</event>
<event>
 4    1  0.4619222E+006  0.2131265E+02  0.7546771E-02  0.1720418E+00
         21   -1    0    0  502  501  0.00000000000E+00  0.00000000000E+00  0.67636738348E+03  0.67636738348E+03  0.00000000000E+00 0. -1.
         21   -1    0    0  503  502 -0.00000000000E+00 -0.00000000000E+00 -0.67256727206E+00  0.67256727206E+00  0.00000000000E+00 0. -1.
         21    1    1    2  503  504  0.12813016857E+02 -0.17031022472E+02  0.32482251686E+03  0.32552096182E+03  0.00000000000E+00 0. -1.
         21    1    1    2  504  501 -0.12813016857E+02  0.17031022472E+02  0.35087229935E+03  0.35151898893E+03  0.00000000000E+00 0. -1.
<mgrwt>
<rscale>  2 0.21312652E+02</rscale>
<asrwt>0</asrwt>
<pdfrwt beam="1">  1       21 0.10405598E+00 0.21312652E+02</pdfrwt>
<pdfrwt beam="2">  1       21 0.10347243E-03 0.21312652E+02</pdfrwt>
<totfact> 0.68161253E+07</totfact>
</mgrwt>
</event>
<event>
 4    1  0.4619222E+006  0.2861096E+02  0.7546771E-02  0.1613970E+00
         21   -1    0    0  502  501  0.00000000000E+00  0.00000000000E+00  0.21561308158E+02  0.21561308158E+02  0.00000000000E+00 0. -1.
         21   -1    0    0  504  502 -0.00000000000E+00 -0.00000000000E+00 -0.55082203100E+02  0.55082203100E+02  0.00000000000E+00 0. -1.
         21    1    1    2  503  501 -0.63552534654E+01 -0.27896194854E+02  0.46019093068E+01  0.28978690502E+02  0.00000000000E+00 0. -1.
         21    1    1    2  504  503  0.63552534654E+01  0.27896194854E+02 -0.38122804249E+02  0.47664820756E+02  0.00000000000E+00 0. -1.
<mgrwt>
<rscale>  2 0.28610958E+02</rscale>
<asrwt>0</asrwt>
<pdfrwt beam="1">  1       21 0.33171243E-02 0.28610958E+02</pdfrwt>
<pdfrwt beam="2">  1       21 0.84741851E-02 0.28610958E+02</pdfrwt>
<totfact> 0.44044465E+07</totfact>
</mgrwt>
</event>
<event>
 4    1  0.4619222E+006  0.4210655E+02  0.7546771E-02  0.1493258E+00
         21   -1    0    0  503  501  0.00000000000E+00  0.00000000000E+00  0.70412240964E+03  0.70412240964E+03  0.00000000000E+00 0.  1.
         21   -1    0    0  501  502 -0.00000000000E+00 -0.00000000000E+00 -0.34101845127E+02  0.34101845127E+02  0.00000000000E+00 0.  1.
         21    1    1    2  503  504 -0.30229747267E+02  0.29310818975E+02  0.69023408313E+03  0.69151720965E+03  0.00000000000E+00 0.  1.
         21    1    1    2  504  502  0.30229747267E+02 -0.29310818975E+02 -0.20213518615E+02  0.46707045118E+02  0.00000000000E+00 0.  1.
<mgrwt>
<rscale>  2 0.42106552E+02</rscale>
<asrwt>0</asrwt>
<pdfrwt beam="1">  1       21 0.10832651E+00 0.42106552E+02</pdfrwt>
<pdfrwt beam="2">  1       21 0.52464382E-02 0.42106552E+02</pdfrwt>
<totfact> 0.17847173E+05</totfact>
</mgrwt>
</event>
<event>
 4    1  0.4619222E+006  0.2163540E+02  0.7546771E-02  0.1714635E+00
         21   -1    0    0  502  501  0.00000000000E+00  0.00000000000E+00  0.30578080027E+02  0.30578080027E+02  0.00000000000E+00 0.  1.
         21   -1    0    0  504  502 -0.00000000000E+00 -0.00000000000E+00 -0.39067432239E+02  0.39067432239E+02  0.00000000000E+00 0. -1.
         21    1    1    2  503  501 -0.19770599027E+02 -0.87871420399E+01  0.22911797718E+02  0.31512551876E+02  0.00000000000E+00 0.  1.
         21    1    1    2  504  503  0.19770599027E+02  0.87871420399E+01 -0.31401149930E+02  0.38132960389E+02  0.00000000000E+00 0. -1.
<mgrwt>
<rscale>  2 0.21635398E+02</rscale>
<asrwt>0</asrwt>
<pdfrwt beam="1">  1       21 0.47043200E-02 0.21635398E+02</pdfrwt>
<pdfrwt beam="2">  1       21 0.60103742E-02 0.21635398E+02</pdfrwt>
<totfact> 0.41453120E+07</totfact>
</mgrwt>
</event>
<event>
 4    1  0.4619222E+006  0.3480949E+02  0.7546771E-02  0.1550299E+00
         21   -1    0    0  502  501  0.00000000000E+00  0.00000000000E+00  0.97180835966E+03  0.97180835966E+03  0.00000000000E+00 0.  1.
         21   -1    0    0  503  502 -0.00000000000E+00 -0.00000000000E+00 -0.59140962685E+03  0.59140962685E+03  0.00000000000E+00 0. -1.
         21    1    1    2  503  504 -0.66269038159E+01 -0.34172865776E+02 -0.59058527059E+03  0.59161022848E+03  0.00000000000E+00 0. -1.
         21    1    1    2  504  501  0.66269038159E+01  0.34172865776E+02  0.97098400340E+03  0.97160775803E+03  0.00000000000E+00 0.  1.
<mgrwt>
<rscale>  2 0.34809490E+02</rscale>
<asrwt>0</asrwt>
<pdfrwt beam="1">  1       21 0.14950898E+00 0.34809490E+02</pdfrwt>
<pdfrwt beam="2">  1       21 0.90986097E-01 0.34809490E+02</pdfrwt>
<totfact> 0.45883035E+02</totfact>
</mgrwt>
</event>
<event>
 4    1  0.4619222E+006  0.2279110E+02  0.7546771E-02  0.1694919E+00
         21   -1    0    0  503  501  0.00000000000E+00  0.00000000000E+00  0.94078486022E+02  0.94078486022E+02  0.00000000000E+00 0. -1.
         21   -1    0    0  504  502 -0.00000000000E+00 -0.00000000000E+00 -0.57826150296E+01  0.57826150296E+01  0.00000000000E+00 0. -1.
         21    1    1    2  503  502  0.17373598684E+02  0.14751005138E+02  0.54762429933E+02  0.59315746779E+02  0.00000000000E+00 0. -1.
         21    1    1    2  504  501 -0.17373598684E+02 -0.14751005138E+02  0.33533441060E+02  0.40545354273E+02  0.00000000000E+00 0. -1.
<mgrwt>
<rscale>  2 0.22791097E+02</rscale>
<asrwt>0</asrwt>
<pdfrwt beam="1">  1       21 0.14473612E-01 0.22791097E+02</pdfrwt>
<pdfrwt beam="2">  1       21 0.88963315E-03 0.22791097E+02</pdfrwt>
<totfact> 0.12770323E+08</totfact>
</mgrwt>
</event>
<event>
 4    1  0.4619222E+006  0.2396650E+02  0.7546771E-02  0.1676306E+00
         21   -1    0    0  502  501  0.00000000000E+00  0.00000000000E+00  0.69368281047E+03  0.69368281047E+03  0.00000000000E+00 0. -1.
         21   -1    0    0  504  502 -0.00000000000E+00 -0.00000000000E+00 -0.45271401760E+01  0.45271401760E+01  0.00000000000E+00 0. -1.
         21    1    1    2  503  501 -0.15792378121E+02 -0.18027581788E+02  0.66014548048E+03  0.66058038747E+03  0.00000000000E+00 0. -1.
         21    1    1    2  504  503  0.15792378121E+02  0.18027581788E+02  0.29010189818E+02  0.37629563180E+02  0.00000000000E+00 0. -1.
<mgrwt>
<rscale>  2 0.23966496E+02</rscale>
<asrwt>0</asrwt>
<pdfrwt beam="1">  1       21 0.10672035E+00 0.23966496E+02</pdfrwt>
<pdfrwt beam="2">  1       21 0.69648365E-03 0.23966496E+02</pdfrwt>
<totfact> 0.41217765E+06</totfact>
</mgrwt>
</event>
<event>
 4    1  0.4619222E+006  0.2027582E+02  0.7546771E-02  0.1739898E+00
         21   -1    0    0  502  501  0.00000000000E+00  0.00000000000E+00  0.96214783192E+01  0.96214783192E+01  0.00000000000E+00 0. -1.
         21   -1    0    0  504  502 -0.00000000000E+00 -0.00000000000E+00 -0.19248450939E+03  0.19248450939E+03  0.00000000000E+00 0. -1.
         21    1    1    2  503  501 -0.19423321131E+02 -0.58175267754E+01 -0.22974387309E+01  0.20405569001E+02  0.00000000000E+00 0. -1.
         21    1    1    2  504  503  0.19423321131E+02  0.58175267754E+01 -0.18056559234E+03  0.18170041871E+03  0.00000000000E+00 0. -1.
<mgrwt>
<rscale>  2 0.20275824E+02</rscale>
<asrwt>0</asrwt>
<pdfrwt beam="1">  1       21 0.14802276E-02 0.20275824E+02</pdfrwt>
<pdfrwt beam="2">  1       21 0.29612999E-01 0.20275824E+02</pdfrwt>
<totfact> 0.16501488E+07</totfact>
</mgrwt>
</event>
<event>
 4    1  0.4619222E+006  0.6823195E+02  0.7546771E-02  0.1366211E+00
         21   -1    0    0  503  501  0.00000000000E+00  0.00000000000E+00  0.68321283947E+02  0.68321283947E+02  0.00000000000E+00 0.  1.
         21   -1    0    0  504  502 -0.00000000000E+00 -0.00000000000E+00 -0.76237584218E+03  0.76237584218E+03  0.00000000000E+00 0.  1.
         21    1    1    2  503  502  0.14147827270E+02  0.66749071686E+02 -0.74337905431E+03  0.74650386333E+03  0.00000000000E+00 0.  1.
         21    1    1    2  504  501 -0.14147827270E+02 -0.66749071686E+02  0.49324496073E+02  0.84193262796E+02  0.00000000000E+00 0.  1.
<mgrwt>
<rscale>  2 0.68231954E+02</rscale>
<asrwt>0</asrwt>
<pdfrwt beam="1">  1       21 0.10510968E-01 0.68231954E+02</pdfrwt>
<pdfrwt beam="2">  1       21 0.11728858E+00 0.68231954E+02</pdfrwt>
<totfact> 0.45290204E+04</totfact>
</mgrwt>
</event>
<event>
 4    1  0.4619222E+006  0.4034010E+02  0.7546771E-02  0.1505723E+00
         21   -1    0    0  503  501  0.00000000000E+00  0.00000000000E+00  0.35180777589E+01  0.35180777589E+01  0.00000000000E+00 0.  1.
         21   -1    0    0  504  502 -0.00000000000E+00 -0.00000000000E+00 -0.90436108598E+03  0.90436108598E+03  0.00000000000E+00 0.  1.
         21    1    1    2  503  502  0.20768834163E+02 -0.34582934822E+02 -0.13314328639E+03  0.13912030249E+03  0.00000000000E+00 0.  1.
         21    1    1    2  504  501 -0.20768834163E+02  0.34582934822E+02 -0.76769972183E+03  0.76875886125E+03  0.00000000000E+00 0.  1.
<mgrwt>
<rscale>  2 0.40340102E+02</rscale>
<asrwt>0</asrwt>
<pdfrwt beam="1">  1       21 0.54124223E-03 0.40340102E+02</pdfrwt>
<pdfrwt beam="2">  1       21 0.13913260E+00 0.40340102E+02</pdfrwt>
<totfact> 0.34290925E+06</totfact>
</mgrwt>
</event>
<event>
 4    1  0.4619222E+006  0.6360537E+02  0.7546771E-02  0.1383296E+00
         21   -1    0    0  504  501  0.00000000000E+00  0.00000000000E+00  0.30539786184E+03  0.30539786184E+03  0.00000000000E+00 0. -1.
         21   -1    0    0  503  502 -0.00000000000E+00 -0.00000000000E+00 -0.34294047090E+02  0.34294047090E+02  0.00000000000E+00 0.  1.
         21    1    1    2  503  501  0.33116938612E+02  0.54303884457E+02  0.26860964630E+03  0.27603765246E+03  0.00000000000E+00 0. -1.
         21    1    1    2  504  502 -0.33116938612E+02 -0.54303884457E+02  0.24941684472E+01  0.63654256467E+02  0.00000000000E+00 0.  1.
<mgrwt>
<rscale>  2 0.63605373E+02</rscale>
<asrwt>0</asrwt>
<pdfrwt beam="1">  1       21 0.46984285E-01 0.63605373E+02</pdfrwt>
<pdfrwt beam="2">  1       21 0.52760074E-02 0.63605373E+02</pdfrwt>
<totfact> 0.10521894E+06</totfact>
</mgrwt>
</event>
<event>
 4    1  0.4619222E+006  0.2648560E+02  0.7546771E-02  0.1640537E+00
         21   -1    0    0  503  501  0.00000000000E+00  0.00000000000E+00  0.18880747991E+03  0.18880747991E+03  0.00000000000E+00 0.  1.
         21   -1    0    0  504  502 -0.00000000000E+00 -0.00000000000E+00 -0.94128484335E+01  0.94128484335E+01  0.00000000000E+00 0. -1.
         21    1    1    2  503  502 -0.25759465754E+02 -0.61593021356E+01  0.12589300237E+02  0.29325373982E+02  0.00000000000E+00 0. -1.
         21    1    1    2  504  501  0.25759465754E+02  0.61593021356E+01  0.16680533124E+03  0.16889495436E+03  0.00000000000E+00 0.  1.
<mgrwt>
<rscale>  2 0.26485601E+02</rscale>
<asrwt>0</asrwt>
<pdfrwt beam="1">  1       21 0.29047302E-01 0.26485601E+02</pdfrwt>
<pdfrwt beam="2">  1       21 0.14481307E-02 0.26485601E+02</pdfrwt>
<totfact> 0.18661213E+07</totfact>
</mgrwt>
</event>
<event>
 4    1  0.4619222E+006  0.2072468E+02  0.7546771E-02  0.1731289E+00
         21   -1    0    0  503  501  0.00000000000E+00  0.00000000000E+00  0.67427404794E+03  0.67427404794E+03  0.00000000000E+00 0. -1.
         21   -1    0    0  504  502 -0.00000000000E+00 -0.00000000000E+00 -0.29723947040E+01  0.29723947040E+01  0.00000000000E+00 0.  1.
         21    1    1    2  503  502  0.14637918631E+02 -0.14671186315E+02  0.35497147999E+02  0.41104256298E+02  0.00000000000E+00 0.  1.
         21    1    1    2  504  501 -0.14637918631E+02  0.14671186315E+02  0.63580450524E+03  0.63614218635E+03  0.00000000000E+00 0. -1.
<mgrwt>
<rscale>  2 0.20724680E+02</rscale>
<asrwt>0</asrwt>
<pdfrwt beam="1">  1       21 0.10373435E+00 0.20724680E+02</pdfrwt>
<pdfrwt beam="2">  1       21 0.45729203E-03 0.20724680E+02</pdfrwt>
<totfact> 0.79984339E+06</totfact>
</mgrwt>
</event>
<event>
 4    1  0.4619222E+006  0.4003989E+02  0.7546771E-02  0.1507918E+00
         21   -1    0    0  503  501  0.00000000000E+00  0.00000000000E+00  0.54645739662E+02  0.54645739662E+02  0.00000000000E+00 0.  1.
         21   -1    0    0  504  502 -0.00000000000E+00 -0.00000000000E+00 -0.48105168649E+02  0.48105168649E+02  0.00000000000E+00 0.  1.
         21    1    1    2  503  502 -0.23027619640E+02 -0.32755476331E+02  0.35359572983E+02  0.53418085865E+02  0.00000000000E+00 0.  1.
         21    1    1    2  504  501  0.23027619640E+02  0.32755476331E+02 -0.28819001970E+02  0.49332822446E+02  0.00000000000E+00 0.  1.
<mgrwt>
<rscale>  2 0.40039886E+02</rscale>
<asrwt>0</asrwt>
<pdfrwt beam="1">  1       21 0.84070369E-02 0.40039886E+02</pdfrwt>
<pdfrwt beam="2">  1       21 0.74007952E-02 0.40039886E+02</pdfrwt>
<totfact> 0.12983013E+07</totfact>
</mgrwt>
</event>
<event>
 4    1  0.4619222E+006  0.2748326E+02  0.7546771E-02  0.1627699E+00
         21   -1    0    0  504  501  0.00000000000E+00  0.00000000000E+00  0.54869083768E+01  0.54869083768E+01  0.00000000000E+00 0.  1.
         21   -1    0    0  503  502 -0.00000000000E+00 -0.00000000000E+00 -0.25249640023E+03  0.25249640023E+03  0.00000000000E+00 0.  1.
         21    1    1    2  503  501 -0.53607412033E+01 -0.26955369305E+02 -0.36513965810E+02  0.45701194511E+02  0.00000000000E+00 0.  1.
         21    1    1    2  504  502  0.53607412033E+01  0.26955369305E+02 -0.21049552605E+03  0.21228211410E+03  0.00000000000E+00 0.  1.
<mgrwt>
<rscale>  2 0.27483258E+02</rscale>
<asrwt>0</asrwt>
<pdfrwt beam="1">  1       21 0.84413966E-03 0.27483258E+02</pdfrwt>
<pdfrwt beam="2">  1       21 0.38845604E-01 0.27483258E+02</pdfrwt>
<totfact> 0.24819270E+07</totfact>
</mgrwt>
</event>
<event>
 4    1  0.4619222E+006  0.3015493E+02  0.7546771E-02  0.1596382E+00
         21   -1    0    0  503  501  0.00000000000E+00  0.00000000000E+00  0.10992705884E+03  0.10992705884E+03  0.00000000000E+00 0.  1.
         21   -1    0    0  501  502 -0.00000000000E+00 -0.00000000000E+00 -0.93670358949E+01  0.93670358949E+01  0.00000000000E+00 0. -1.
         21    1    1    2  503  504 -0.85452960646E+01  0.28918811404E+02  0.70673730449E+02  0.76838114978E+02  0.00000000000E+00 0.  1.
         21    1    1    2  504  502  0.85452960646E+01 -0.28918811404E+02  0.29886292493E+02  0.42455979754E+02  0.00000000000E+00 0. -1.
<mgrwt>
<rscale>  2 0.30154929E+02</rscale>
<asrwt>0</asrwt>
<pdfrwt beam="1">  1       21 0.16911854E-01 0.30154929E+02</pdfrwt>
<pdfrwt beam="2">  1       21 0.14410825E-02 0.30154929E+02</pdfrwt>
<totfact> 0.50526373E+07</totfact>
</mgrwt>
</event>
<event>
 4    1  0.4619222E+006  0.2497599E+02  0.7546771E-02  0.1661347E+00
         21   -1    0    0  504  501  0.00000000000E+00  0.00000000000E+00  0.47007254812E+02  0.47007254812E+02  0.00000000000E+00 0. -1.
         21   -1    0    0  503  502 -0.00000000000E+00 -0.00000000000E+00 -0.20966927340E+03  0.20966927340E+03  0.00000000000E+00 0.  1.
         21    1    1    2  503  501 -0.97406742259E+01 -0.22998251811E+02  0.42879508892E+02  0.49623105542E+02  0.00000000000E+00 0. -1.
         21    1    1    2  504  502  0.97406742259E+01  0.22998251811E+02 -0.20554152748E+03  0.20705342267E+03  0.00000000000E+00 0.  1.
<mgrwt>
<rscale>  2 0.24975995E+02</rscale>
<asrwt>0</asrwt>
<pdfrwt beam="1">  1       21 0.72318854E-02 0.24975995E+02</pdfrwt>
<pdfrwt beam="2">  1       21 0.32256811E-01 0.24975995E+02</pdfrwt>
<totfact> 0.12202559E+06</totfact>
</mgrwt>
</event>
<event>
 4    1  0.4619222E+006  0.2646864E+02  0.7546771E-02  0.1640761E+00
         21   -1    0    0  502  501  0.00000000000E+00  0.00000000000E+00  0.13263102002E+04  0.13263102002E+04  0.00000000000E+00 0. -1.
         21   -1    0    0  504  502 -0.00000000000E+00 -0.00000000000E+00 -0.69808361783E+00  0.69808361783E+00  0.00000000000E+00 0. -1.
         21    1    1    2  503  501  0.26453885341E+02  0.88364775644E+00  0.99009775140E+03  0.99045148605E+03  0.00000000000E+00 0. -1.
         21    1    1    2  504  503 -0.26453885341E+02 -0.88364775644E+00  0.33551436520E+03  0.33655679779E+03  0.00000000000E+00 0. -1.
<mgrwt>
<rscale>  2 0.26468640E+02</rscale>
<asrwt>0</asrwt>
<pdfrwt beam="1">  1       21 0.20404571E+00 0.26468640E+02</pdfrwt>
<pdfrwt beam="2">  1       21 0.10739854E-03 0.26468640E+02</pdfrwt>
<totfact> 0.13554959E+07</totfact>
</mgrwt>
</event>
<event>
 4    1  0.4619222E+006  0.2606208E+02  0.7546771E-02  0.1646199E+00
         21   -1    0    0  502  501  0.00000000000E+00  0.00000000000E+00  0.10707683626E+02  0.10707683626E+02  0.00000000000E+00 0. -1.
         21   -1    0    0  503  502 -0.00000000000E+00 -0.00000000000E+00 -0.74976469853E+02  0.74976469853E+02  0.00000000000E+00 0. -1.
         21    1    1    2  503  504 -0.23155120389E+02  0.11961293575E+02 -0.48943929730E+02  0.55450341763E+02  0.00000000000E+00 0. -1.
         21    1    1    2  504  501  0.23155120389E+02 -0.11961293575E+02 -0.15324856497E+02  0.30233811716E+02  0.00000000000E+00 0. -1.
<mgrwt>
<rscale>  2 0.26062082E+02</rscale>
<asrwt>0</asrwt>
<pdfrwt beam="1">  1       21 0.16473359E-02 0.26062082E+02</pdfrwt>
<pdfrwt beam="2">  1       21 0.11534842E-01 0.26062082E+02</pdfrwt>
<totfact> 0.76439833E+07</totfact>
</mgrwt>
</event>
<event>
 4    1  0.4619222E+006  0.2185403E+02  0.7546771E-02  0.1710789E+00
         21   -1    0    0  502  501  0.00000000000E+00  0.00000000000E+00  0.83065106967E+01  0.83065106967E+01  0.00000000000E+00 0. -1.
         21   -1    0    0  504  502 -0.00000000000E+00 -0.00000000000E+00 -0.69623895858E+03  0.69623895858E+03  0.00000000000E+00 0.  1.
         21    1    1    2  503  501  0.21327710181E+02 -0.47673278344E+01 -0.65525907615E+01  0.22815237933E+02  0.00000000000E+00 0. -1.
         21    1    1    2  504  503 -0.21327710181E+02  0.47673278344E+01 -0.68137985712E+03  0.68173023134E+03  0.00000000000E+00 0.  1.
<mgrwt>
<rscale>  2 0.21854030E+02</rscale>
<asrwt>0</asrwt>
<pdfrwt beam="1">  1       21 0.12779245E-02 0.21854030E+02</pdfrwt>
<pdfrwt beam="2">  1       21 0.10711371E+00 0.21854030E+02</pdfrwt>
<totfact> 0.16279174E+06</totfact>
</mgrwt>
</event>
<event>
 4    1  0.4619222E+006  0.2174616E+02  0.7546771E-02  0.1712679E+00
         21   -1    0    0  503  501  0.00000000000E+00  0.00000000000E+00  0.22075838439E+03  0.22075838439E+03  0.00000000000E+00 0. -1.
         21   -1    0    0  504  502 -0.00000000000E+00 -0.00000000000E+00 -0.90942781379E+01  0.90942781379E+01  0.00000000000E+00 0.  1.
         21    1    1    2  503  502  0.11079043756E+02 -0.18712299895E+02  0.20631552253E+03  0.20745840599E+03  0.00000000000E+00 0. -1.
         21    1    1    2  504  501 -0.11079043756E+02  0.18712299895E+02  0.53485837139E+01  0.22394256533E+02  0.00000000000E+00 0.  1.
<mgrwt>
<rscale>  2 0.21746158E+02</rscale>
<asrwt>0</asrwt>
<pdfrwt beam="1">  1       21 0.33962824E-01 0.21746158E+02</pdfrwt>
<pdfrwt beam="2">  1       21 0.13991199E-02 0.21746158E+02</pdfrwt>
<totfact> 0.14201673E+07</totfact>
</mgrwt>
</event>
<event>
 4    1  0.4619222E+006  0.2458680E+02  0.7546771E-02  0.1667009E+00
         21   -1    0    0  504  501  0.00000000000E+00  0.00000000000E+00  0.31576939210E+02  0.31576939210E+02  0.00000000000E+00 0.  1.
         21   -1    0    0  503  502 -0.00000000000E+00 -0.00000000000E+00 -0.52038000799E+02  0.52038000799E+02  0.00000000000E+00 0. -1.
         21    1    1    2  503  501 -0.10848320708E+02 -0.22064103744E+02  0.23008745204E+02  0.33673626061E+02  0.00000000000E+00 0.  1.
         21    1    1    2  504  502  0.10848320708E+02  0.22064103744E+02 -0.43469806793E+02  0.49941313948E+02  0.00000000000E+00 0. -1.
<mgrwt>
<rscale>  2 0.24586800E+02</rscale>
<asrwt>0</asrwt>
<pdfrwt beam="1">  1       21 0.48579907E-02 0.24586800E+02</pdfrwt>
<pdfrwt beam="2">  1       21 0.80058462E-02 0.24586800E+02</pdfrwt>
<totfact> 0.25544298E+07</totfact>
</mgrwt>
</event>
<event>
 4    1  0.4619222E+006  0.2259796E+02  0.7546771E-02  0.1698111E+00
         21   -1    0    0  504  501  0.00000000000E+00  0.00000000000E+00  0.33455967919E+02  0.33455967919E+02  0.00000000000E+00 0. -1.
         21   -1    0    0  503  502 -0.00000000000E+00 -0.00000000000E+00 -0.38151858400E+03  0.38151858400E+03  0.00000000000E+00 0.  1.
         21    1    1    2  503  501  0.21576618519E+02  0.67169529783E+01 -0.37732561884E+03  0.37800170708E+03  0.00000000000E+00 0.  1.
         21    1    1    2  504  502 -0.21576618519E+02 -0.67169529783E+01  0.29263002765E+02  0.36972844831E+02  0.00000000000E+00 0. -1.
<mgrwt>
<rscale>  2 0.22597963E+02</rscale>
<asrwt>0</asrwt>
<pdfrwt beam="1">  1       21 0.51470723E-02 0.22597963E+02</pdfrwt>
<pdfrwt beam="2">  1       21 0.58695163E-01 0.22597963E+02</pdfrwt>
<totfact> 0.66629639E+05</totfact>
</mgrwt>
</event>
<event>
 4    1  0.4619222E+006  0.4250977E+02  0.7546771E-02  0.1490515E+00
         21   -1    0    0  504  501  0.00000000000E+00  0.00000000000E+00  0.60856379519E+02  0.60856379519E+02  0.00000000000E+00 0. -1.
         21   -1    0    0  503  502 -0.00000000000E+00 -0.00000000000E+00 -0.34375826506E+02  0.34375826506E+02  0.00000000000E+00 0. -1.
         21    1    1    2  503  501 -0.14714660801E+02 -0.39881821376E+02  0.30812475104E+02  0.52502281291E+02  0.00000000000E+00 0. -1.
         21    1    1    2  504  502  0.14714660801E+02  0.39881821376E+02 -0.43319220920E+01  0.42729924734E+02  0.00000000000E+00 0. -1.
<mgrwt>
<rscale>  2 0.42509774E+02</rscale>
<asrwt>0</asrwt>
<pdfrwt beam="1">  1       21 0.93625199E-02 0.42509774E+02</pdfrwt>
<pdfrwt beam="2">  1       21 0.52885887E-02 0.42509774E+02</pdfrwt>
<totfact> 0.19009486E+07</totfact>
</mgrwt>
</event>
<event>
 4    1  0.4619222E+006  0.2168395E+02  0.7546771E-02  0.1713776E+00
         21   -1    0    0  502  501  0.00000000000E+00  0.00000000000E+00  0.57091680272E+02  0.57091680272E+02  0.00000000000E+00 0.  1.
         21   -1    0    0  503  502 -0.00000000000E+00 -0.00000000000E+00 -0.28746428155E+02  0.28746428155E+02  0.00000000000E+00 0.  1.
         21    1    1    2  503  504 -0.66043310452E+01 -0.20653727002E+02 -0.22080716586E+02  0.30947563274E+02  0.00000000000E+00 0.  1.
         21    1    1    2  504  501  0.66043310452E+01  0.20653727002E+02  0.50425968703E+02  0.54890545154E+02  0.00000000000E+00 0.  1.
<mgrwt>
<rscale>  2 0.21683949E+02</rscale>
<asrwt>0</asrwt>
<pdfrwt beam="1">  1       21 0.87833354E-02 0.21683949E+02</pdfrwt>
<pdfrwt beam="2">  1       21 0.44225274E-02 0.21683949E+02</pdfrwt>
<totfact> 0.24743965E+07</totfact>
</mgrwt>
</event>
<event>
 4    1  0.4619222E+006  0.2897145E+02  0.7546771E-02  0.1609744E+00
         21   -1    0    0  504  501  0.00000000000E+00  0.00000000000E+00  0.76249029785E+01  0.76249029785E+01  0.00000000000E+00 0.  1.
         21   -1    0    0  501  502 -0.00000000000E+00 -0.00000000000E+00 -0.12170786753E+03  0.12170786753E+03  0.00000000000E+00 0.  1.
         21    1    1    2  503  502 -0.16165291525E+02 -0.24042221806E+02 -0.77029958218E+02  0.82297992336E+02  0.00000000000E+00 0.  1.
         21    1    1    2  504  503  0.16165291525E+02  0.24042221806E+02 -0.37053006337E+02  0.47034778176E+02  0.00000000000E+00 0.  1.
<mgrwt>
<rscale>  2 0.28971453E+02</rscale>
<asrwt>0</asrwt>
<pdfrwt beam="1">  1       21 0.11730620E-02 0.28971453E+02</pdfrwt>
<pdfrwt beam="2">  1       21 0.18724287E-01 0.28971453E+02</pdfrwt>
<totfact> 0.57410778E+07</totfact>
</mgrwt>
</event>
<event>
 4    1  0.4619222E+006  0.4698332E+02  0.7546771E-02  0.1462327E+00
         21   -1    0    0  503  501  0.00000000000E+00  0.00000000000E+00  0.18217258656E+02  0.18217258656E+02  0.00000000000E+00 0.  1.
         21   -1    0    0  504  502 -0.00000000000E+00 -0.00000000000E+00 -0.12118738792E+03  0.12118738792E+03  0.00000000000E+00 0.  1.
         21    1    1    2  503  502  0.46954729577E+02  0.16386973698E+01 -0.50714187102E+02  0.69132920755E+02  0.00000000000E+00 0.  1.
         21    1    1    2  504  501 -0.46954729577E+02 -0.16386973698E+01 -0.52255942160E+02  0.70271725820E+02  0.00000000000E+00 0.  1.
<mgrwt>
<rscale>  2 0.46983316E+02</rscale>
<asrwt>0</asrwt>
<pdfrwt beam="1">  1       21 0.28026552E-02 0.46983316E+02</pdfrwt>
<pdfrwt beam="2">  1       21 0.18644213E-01 0.46983316E+02</pdfrwt>
<totfact> 0.16281639E+07</totfact>
</mgrwt>
</event>
<event>
 4    1  0.4619222E+006  0.2048272E+02  0.7546771E-02  0.1735896E+00
         21   -1    0    0  503  501  0.00000000000E+00  0.00000000000E+00  0.10172166929E+02  0.10172166929E+02  0.00000000000E+00 0.  1.
         21   -1    0    0  501  502 -0.00000000000E+00 -0.00000000000E+00 -0.49565681039E+03  0.49565681039E+03  0.00000000000E+00 0.  1.
         21    1    1    2  503  504 -0.17406178449E+02  0.10796601910E+02 -0.57897189249E+00  0.20490897234E+02  0.00000000000E+00 0.  1.
         21    1    1    2  504  502  0.17406178449E+02 -0.10796601910E+02 -0.48490567157E+03  0.48533808009E+03  0.00000000000E+00 0.  1.
<mgrwt>
<rscale>  2 0.20482716E+02</rscale>
<asrwt>0</asrwt>
<pdfrwt beam="1">  1       21 0.15649487E-02 0.20482716E+02</pdfrwt>
<pdfrwt beam="2">  1       21 0.76254895E-01 0.20482716E+02</pdfrwt>
<totfact> 0.24588466E+06</totfact>
</mgrwt>
</event>
<event>
 4    1  0.4619222E+006  0.2875160E+02  0.7546771E-02  0.1612313E+00
         21   -1    0    0  504  501  0.00000000000E+00  0.00000000000E+00  0.46865623731E+03  0.46865623731E+03  0.00000000000E+00 0.  1.
         21   -1    0    0  503  502 -0.00000000000E+00 -0.00000000000E+00 -0.17663519428E+01  0.17663519428E+01  0.00000000000E+00 0.  1.
         21    1    1    2  503  501 -0.49265465734E+01 -0.28326379824E+02  0.22465073733E+03  0.22648313058E+03  0.00000000000E+00 0.  1.
         21    1    1    2  504  502  0.49265465734E+01  0.28326379824E+02  0.24223914803E+03  0.24393945867E+03  0.00000000000E+00 0.  1.
<mgrwt>
<rscale>  2 0.28751603E+02</rscale>
<asrwt>0</asrwt>
<pdfrwt beam="1">  1       21 0.72100861E-01 0.28751603E+02</pdfrwt>
<pdfrwt beam="2">  1       21 0.27174683E-03 0.28751603E+02</pdfrwt>
<totfact> 0.39536515E+07</totfact>
</mgrwt>
</event>
<event>
 4    1  0.4619222E+006  0.2245920E+02  0.7546771E-02  0.1700429E+00
         21   -1    0    0  502  501  0.00000000000E+00  0.00000000000E+00  0.13831015935E+03  0.13831015935E+03  0.00000000000E+00 0.  1.
         21   -1    0    0  504  502 -0.00000000000E+00 -0.00000000000E+00 -0.36952116757E+01  0.36952116757E+01  0.00000000000E+00 0.  1.
         21    1    1    2  503  501 -0.13112685295E+02  0.18233852296E+02  0.75418437376E+02  0.78691528016E+02  0.00000000000E+00 0.  1.
         21    1    1    2  504  503  0.13112685295E+02 -0.18233852296E+02  0.59196510294E+02  0.63313843005E+02  0.00000000000E+00 0.  1.
<mgrwt>
<rscale>  2 0.22459205E+02</rscale>
<asrwt>0</asrwt>
<pdfrwt beam="1">  1       21 0.21278482E-01 0.22459205E+02</pdfrwt>
<pdfrwt beam="2">  1       21 0.56849421E-03 0.22459205E+02</pdfrwt>
<totfact> 0.12738037E+08</totfact>
</mgrwt>
</event>
<event>
 4    1  0.4619222E+006  0.2389662E+02  0.7546771E-02  0.1677375E+00
         21   -1    0    0  503  501  0.00000000000E+00  0.00000000000E+00  0.10242201466E+02  0.10242201466E+02  0.00000000000E+00 0. -1.
         21   -1    0    0  504  502 -0.00000000000E+00 -0.00000000000E+00 -0.14807012133E+03  0.14807012133E+03  0.00000000000E+00 0. -1.
         21    1    1    2  503  502 -0.15013180955E+02  0.18591742635E+02 -0.64127129158E+01  0.24742097395E+02  0.00000000000E+00 0. -1.
         21    1    1    2  504  501  0.15013180955E+02 -0.18591742635E+02 -0.13141520694E+03  0.13357022540E+03  0.00000000000E+00 0. -1.
<mgrwt>
<rscale>  2 0.23896621E+02</rscale>
<asrwt>0</asrwt>
<pdfrwt beam="1">  1       21 0.15757235E-02 0.23896621E+02</pdfrwt>
<pdfrwt beam="2">  1       21 0.22780016E-01 0.23896621E+02</pdfrwt>
<totfact> 0.24857745E+07</totfact>
</mgrwt>
</event>
<event>
 4    1  0.4619222E+006  0.5967492E+02  0.7546771E-02  0.1399201E+00
         21   -1    0    0  502  501  0.00000000000E+00  0.00000000000E+00  0.22178193985E+04  0.22178193985E+04  0.00000000000E+00 0. -1.
         21   -1    0    0  503  502 -0.00000000000E+00 -0.00000000000E+00 -0.26412731890E+01  0.26412731890E+01  0.00000000000E+00 0. -1.
         21    1    1    2  503  504  0.15370100434E+02 -0.57661565236E+02  0.41240121684E+03  0.41669636397E+03  0.00000000000E+00 0. -1.
         21    1    1    2  504  501 -0.15370100434E+02  0.57661565236E+02  0.18027769085E+04  0.18037643078E+04  0.00000000000E+00 0. -1.
<mgrwt>
<rscale>  2 0.59674920E+02</rscale>
<asrwt>0</asrwt>
<pdfrwt beam="1">  1       21 0.34120149E+00 0.59674920E+02</pdfrwt>
<pdfrwt beam="2">  1       21 0.40635150E-03 0.59674920E+02</pdfrwt>
<totfact> 0.35782095E+05</totfact>
</mgrwt>
</event>
<event>
 4    1  0.4619222E+006  0.2079570E+02  0.7546771E-02  0.1729952E+00
         21   -1    0    0  504  501  0.00000000000E+00  0.00000000000E+00  0.39691638821E+02  0.39691638821E+02  0.00000000000E+00 0.  1.
         21   -1    0    0  503  502 -0.00000000000E+00 -0.00000000000E+00 -0.11538997803E+02  0.11538997803E+02  0.00000000000E+00 0.  1.
         21    1    1    2  503  501 -0.19125692526E+02 -0.81651044979E+01  0.20125305191E+02  0.28939401430E+02  0.00000000000E+00 0.  1.
         21    1    1    2  504  502  0.19125692526E+02  0.81651044979E+01  0.80273358265E+01  0.22291235195E+02  0.00000000000E+00 0.  1.
<mgrwt>
<rscale>  2 0.20795698E+02</rscale>
<asrwt>0</asrwt>
<pdfrwt beam="1">  1       21 0.61064059E-02 0.20795698E+02</pdfrwt>
<pdfrwt beam="2">  1       21 0.17752304E-02 0.20795698E+02</pdfrwt>
<totfact> 0.18116055E+08</totfact>
</mgrwt>
</event>
<event>
 4    1  0.4619222E+006  0.2628393E+02  0.7546771E-02  0.1643217E+00
         21   -1    0    0  504  501  0.00000000000E+00  0.00000000000E+00  0.65268301886E+01  0.65268301886E+01  0.00000000000E+00 0.  1.
         21   -1    0    0  503  502 -0.00000000000E+00 -0.00000000000E+00 -0.14948304951E+03  0.14948304951E+03  0.00000000000E+00 0.  1.
         21    1    1    2  503  501 -0.26283736077E+02 -0.10004901918E+00 -0.11362342469E+03  0.11662387162E+03  0.00000000000E+00 0.  1.
         21    1    1    2  504  502  0.26283736077E+02  0.10004901918E+00 -0.29332794632E+02  0.39386008085E+02  0.00000000000E+00 0.  1.
<mgrwt>
<rscale>  2 0.26283926E+02</rscale>
<asrwt>0</asrwt>
<pdfrwt beam="1">  1       21 0.10041279E-02 0.26283926E+02</pdfrwt>
<pdfrwt beam="2">  1       21 0.22997389E-01 0.26283926E+02</pdfrwt>
<totfact> 0.49442388E+07</totfact>
</mgrwt>
</event>
<event>
 4    1  0.4619222E+006  0.2773999E+02  0.7546771E-02  0.1624503E+00
         21   -1    0    0  503  501  0.00000000000E+00  0.00000000000E+00  0.11260523642E+03  0.11260523642E+03  0.00000000000E+00 0.  1.
         21   -1    0    0  504  502 -0.00000000000E+00 -0.00000000000E+00 -0.31711248064E+03  0.31711248064E+03  0.00000000000E+00 0.  1.
         21    1    1    2  503  502  0.34494122462E+01  0.27524690443E+02 -0.31478480318E+03  0.31600471412E+03  0.00000000000E+00 0.  1.
         21    1    1    2  504  501 -0.34494122462E+01 -0.27524690443E+02  0.11027755896E+03  0.11371300294E+03  0.00000000000E+00 0.  1.
<mgrwt>
<rscale>  2 0.27739990E+02</rscale>
<asrwt>0</asrwt>
<pdfrwt beam="1">  1       21 0.17323882E-01 0.27739990E+02</pdfrwt>
<pdfrwt beam="2">  1       21 0.48786536E-01 0.27739990E+02</pdfrwt>
<totfact> 0.12930804E+05</totfact>
</mgrwt>
</event>
<event>
 4    1  0.4619222E+006  0.2220776E+02  0.7546771E-02  0.1704684E+00
         21   -1    0    0  503  501  0.00000000000E+00  0.00000000000E+00  0.70261097940E+02  0.70261097940E+02  0.00000000000E+00 0.  1.
         21   -1    0    0  501  502 -0.00000000000E+00 -0.00000000000E+00 -0.22014472508E+02  0.22014472508E+02  0.00000000000E+00 0.  1.
         21    1    1    2  503  504 -0.21558647963E+02  0.53300227260E+01  0.62201668384E+02  0.66047195202E+02  0.00000000000E+00 0.  1.
         21    1    1    2  504  502  0.21558647963E+02 -0.53300227260E+01 -0.13955042951E+02  0.26228375246E+02  0.00000000000E+00 0.  1.
<mgrwt>
<rscale>  2 0.22207756E+02</rscale>
<asrwt>0</asrwt>
<pdfrwt beam="1">  1       21 0.10809400E-01 0.22207756E+02</pdfrwt>
<pdfrwt beam="2">  1       21 0.33868419E-02 0.22207756E+02</pdfrwt>
<totfact> 0.26874422E+07</totfact>
</mgrwt>
</event>
<event>
 4    1  0.4619222E+006  0.2172763E+02  0.7546771E-02  0.1713006E+00
         21   -1    0    0  504  501  0.00000000000E+00  0.00000000000E+00  0.12411833666E+01  0.12411833666E+01  0.00000000000E+00 0.  1.
         21   -1    0    0  503  502 -0.00000000000E+00 -0.00000000000E+00 -0.70994524626E+03  0.70994524626E+03  0.00000000000E+00 0.  1.
         21    1    1    2  503  501 -0.13568866413E+02 -0.16969846632E+02 -0.11206595219E+03  0.11415282507E+03  0.00000000000E+00 0.  1.
         21    1    1    2  504  502  0.13568866413E+02  0.16969846632E+02 -0.59663811069E+03  0.59703360455E+03  0.00000000000E+00 0.  1.
<mgrwt>
<rscale>  2 0.21727628E+02</rscale>
<asrwt>0</asrwt>
<pdfrwt beam="1">  1       21 0.19095110E-03 0.21727628E+02</pdfrwt>
<pdfrwt beam="2">  1       21 0.10922245E+00 0.21727628E+02</pdfrwt>
<totfact> 0.25605594E+07</totfact>
</mgrwt>
</event>
<event>
 4    1  0.4619222E+006  0.2059122E+02  0.7546771E-02  0.1733820E+00
         21   -1    0    0  502  501  0.00000000000E+00  0.00000000000E+00  0.53388225956E+00  0.53388225956E+00  0.00000000000E+00 0. -1.
         21   -1    0    0  504  502 -0.00000000000E+00 -0.00000000000E+00 -0.93220857016E+03  0.93220857016E+03  0.00000000000E+00 0. -1.
         21    1    1    2  503  501  0.36698117431E+01 -0.20261562818E+02 -0.28638043276E+03  0.28711974978E+03  0.00000000000E+00 0. -1.
         21    1    1    2  504  503 -0.36698117431E+01  0.20261562818E+02 -0.64529425514E+03  0.64562270264E+03  0.00000000000E+00 0. -1.
<mgrwt>
<rscale>  2 0.20591223E+02</rscale>
<asrwt>0</asrwt>
<pdfrwt beam="1">  1       21 0.82135224E-04 0.20591223E+02</pdfrwt>
<pdfrwt beam="2">  1       21 0.14341759E+00 0.20591223E+02</pdfrwt>
<totfact> 0.45402422E+07</totfact>
</mgrwt>
</event>
<event>
 4    1  0.4619222E+006  0.3338758E+02  0.7546771E-02  0.1563404E+00
         21   -1    0    0  503  501  0.00000000000E+00  0.00000000000E+00  0.96939764405E+01  0.96939764405E+01  0.00000000000E+00 0.  1.
         21   -1    0    0  504  502 -0.00000000000E+00 -0.00000000000E+00 -0.15490879598E+03  0.15490879598E+03  0.00000000000E+00 0.  1.
         21    1    1    2  503  502  0.22924092298E+02  0.24273782861E+02 -0.11438529931E+03  0.11915841238E+03  0.00000000000E+00 0.  1.
         21    1    1    2  504  501 -0.22924092298E+02 -0.24273782861E+02 -0.30829520226E+02  0.45444360040E+02  0.00000000000E+00 0.  1.
<mgrwt>
<rscale>  2 0.33387581E+02</rscale>
<asrwt>0</asrwt>
<pdfrwt beam="1">  1       21 0.14913811E-02 0.33387581E+02</pdfrwt>
<pdfrwt beam="2">  1       21 0.23832121E-01 0.33387581E+02</pdfrwt>
<totfact> 0.26658799E+07</totfact>
</mgrwt>
</event>
<event>
 4    1  0.4619222E+006  0.2125316E+02  0.7546771E-02  0.1721498E+00
         21   -1    0    0  503  501  0.00000000000E+00  0.00000000000E+00  0.15930819519E+04  0.15930819519E+04  0.00000000000E+00 0. -1.
         21   -1    0    0  504  502 -0.00000000000E+00 -0.00000000000E+00 -0.92123785124E+00  0.92123785124E+00  0.00000000000E+00 0. -1.
         21    1    1    2  503  502  0.10585639781E+02  0.18429355428E+02  0.14591848427E+04  0.14593396116E+04  0.00000000000E+00 0. -1.
         21    1    1    2  504  501 -0.10585639781E+02 -0.18429355428E+02  0.13297587134E+03  0.13466357811E+03  0.00000000000E+00 0. -1.
<mgrwt>
<rscale>  2 0.21253162E+02</rscale>
<asrwt>0</asrwt>
<pdfrwt beam="1">  1       21 0.24508733E+00 0.21253162E+02</pdfrwt>
<pdfrwt beam="2">  1       21 0.14173018E-03 0.21253162E+02</pdfrwt>
<totfact> 0.54430469E+06</totfact>
</mgrwt>
</event>
<event>
 4    1  0.4619222E+006  0.3389237E+02  0.7546771E-02  0.1558662E+00
         21   -1    0    0  504  501  0.00000000000E+00  0.00000000000E+00  0.45471619995E+01  0.45471619995E+01  0.00000000000E+00 0.  1.
         21   -1    0    0  501  502 -0.00000000000E+00 -0.00000000000E+00 -0.42136779707E+03  0.42136779707E+03  0.00000000000E+00 0. -1.
         21    1    1    2  503  502 -0.28907864777E+02 -0.17692592223E+02 -0.34317762933E+03  0.34484718026E+03  0.00000000000E+00 0. -1.
         21    1    1    2  504  503  0.28907864777E+02  0.17692592223E+02 -0.73643005745E+02  0.81067778807E+02  0.00000000000E+00 0.  1.
<mgrwt>
<rscale>  2 0.33892366E+02</rscale>
<asrwt>0</asrwt>
<pdfrwt beam="1">  1       21 0.69956343E-03 0.33892366E+02</pdfrwt>
<pdfrwt beam="2">  1       21 0.64825811E-01 0.33892366E+02</pdfrwt>
<totfact> 0.12437004E+07</totfact>
</mgrwt>
</event>
<event>
 4    1  0.4619222E+006  0.2541218E+02  0.7546771E-02  0.1655151E+00
         21   -1    0    0  504  501  0.00000000000E+00  0.00000000000E+00  0.11383120966E+01  0.11383120966E+01  0.00000000000E+00 0.  1.
         21   -1    0    0  503  502 -0.00000000000E+00 -0.00000000000E+00 -0.62908637934E+03  0.62908637934E+03  0.00000000000E+00 0.  1.
         21    1    1    2  503  501 -0.22032914323E+02 -0.12662130783E+02 -0.41271835606E+03  0.41349996409E+03  0.00000000000E+00 0.  1.
         21    1    1    2  504  502  0.22032914323E+02  0.12662130783E+02 -0.21522971118E+03  0.21672472735E+03  0.00000000000E+00 0.  1.
<mgrwt>
<rscale>  2 0.25412180E+02</rscale>
<asrwt>0</asrwt>
<pdfrwt beam="1">  1       21 0.17512476E-03 0.25412180E+02</pdfrwt>
<pdfrwt beam="2">  1       21 0.96782617E-01 0.25412180E+02</pdfrwt>
<totfact> 0.39062407E+07</totfact>
</mgrwt>
</event>
<event>
 4    1  0.4619222E+006  0.2182891E+02  0.7546771E-02  0.1711228E+00
         21   -1    0    0  504  501  0.00000000000E+00  0.00000000000E+00  0.10569840242E+02  0.10569840242E+02  0.00000000000E+00 0.  1.
         21   -1    0    0  503  502 -0.00000000000E+00 -0.00000000000E+00 -0.19708765477E+03  0.19708765477E+03  0.00000000000E+00 0.  1.
         21    1    1    2  503  501 -0.12219220324E+02 -0.18088452414E+02 -0.20748591522E+01  0.21927300257E+02  0.00000000000E+00 0.  1.
         21    1    1    2  504  502  0.12219220324E+02  0.18088452414E+02 -0.18444295537E+03  0.18573019475E+03  0.00000000000E+00 0.  1.
<mgrwt>
<rscale>  2 0.21828913E+02</rscale>
<asrwt>0</asrwt>
<pdfrwt beam="1">  1       21 0.16261293E-02 0.21828913E+02</pdfrwt>
<pdfrwt beam="2">  1       21 0.30321176E-01 0.21828913E+02</pdfrwt>
<totfact> 0.13921104E+07</totfact>
</mgrwt>
</event>
<event>
 4    1  0.4619222E+006  0.2495794E+02  0.7546771E-02  0.1661607E+00
         21   -1    0    0  504  501  0.00000000000E+00  0.00000000000E+00  0.11355943133E+02  0.11355943133E+02  0.00000000000E+00 0. -1.
         21   -1    0    0  503  502 -0.00000000000E+00 -0.00000000000E+00 -0.18233073590E+03  0.18233073590E+03  0.00000000000E+00 0. -1.
         21    1    1    2  503  501  0.24642049264E+02  0.39583353616E+01 -0.45110335107E+01  0.25362342836E+02  0.00000000000E+00 0. -1.
         21    1    1    2  504  502 -0.24642049264E+02 -0.39583353616E+01 -0.16646375925E+03  0.16832433620E+03  0.00000000000E+00 0. -1.
<mgrwt>
<rscale>  2 0.24957945E+02</rscale>
<asrwt>0</asrwt>
<pdfrwt beam="1">  1       21 0.17470681E-02 0.24957945E+02</pdfrwt>
<pdfrwt beam="2">  1       21 0.28050883E-01 0.24957945E+02</pdfrwt>
<totfact> 0.14757615E+07</totfact>
</mgrwt>
</event>
<event>
 4    1  0.4619222E+006  0.2070900E+02  0.7546771E-02  0.1731585E+00
         21   -1    0    0  502  501  0.00000000000E+00  0.00000000000E+00  0.18950449391E+03  0.18950449391E+03  0.00000000000E+00 0. -1.
         21   -1    0    0  504  502 -0.00000000000E+00 -0.00000000000E+00 -0.69039283700E+01  0.69039283700E+01  0.00000000000E+00 0.  1.
         21    1    1    2  503  501  0.50316298629E+01  0.20088439179E+02  0.17181605165E+03  0.17305958018E+03  0.00000000000E+00 0. -1.
         21    1    1    2  504  503 -0.50316298629E+01 -0.20088439179E+02  0.10784513899E+02  0.23348842108E+02  0.00000000000E+00 0.  1.
<mgrwt>
<rscale>  2 0.20709000E+02</rscale>
<asrwt>0</asrwt>
<pdfrwt beam="1">  1       21 0.29154534E-01 0.20709000E+02</pdfrwt>
<pdfrwt beam="2">  1       21 0.10621430E-02 0.20709000E+02</pdfrwt>
<totfact> 0.28106140E+07</totfact>
</mgrwt>
</event>
<event>
 4    1  0.4619222E+006  0.8768311E+02  0.7546771E-02  0.1308561E+00
         21   -1    0    0  504  501  0.00000000000E+00  0.00000000000E+00  0.32277674008E+02  0.32277674008E+02  0.00000000000E+00 0.  1.
         21   -1    0    0  501  502 -0.00000000000E+00 -0.00000000000E+00 -0.17450462241E+04  0.17450462241E+04  0.00000000000E+00 0. -1.
         21    1    1    2  503  502  0.76670547032E+02  0.42543558926E+02 -0.16821722283E+04  0.16844559160E+04  0.00000000000E+00 0. -1.
         21    1    1    2  504  503 -0.76670547032E+02 -0.42543558926E+02 -0.30596321707E+02  0.92867982052E+02  0.00000000000E+00 0.  1.
<mgrwt>
<rscale>  2 0.87683107E+02</rscale>
<asrwt>0</asrwt>
<pdfrwt beam="1">  1       21 0.49657952E-02 0.87683107E+02</pdfrwt>
<pdfrwt beam="2">  1       21 0.26846869E+00 0.87683107E+02</pdfrwt>
<totfact> 0.16171801E+04</totfact>
</mgrwt>
</event>
<event>
 4    1  0.4619222E+006  0.3143105E+02  0.7546771E-02  0.1582788E+00
         21   -1    0    0  502  501  0.00000000000E+00  0.00000000000E+00  0.33104051673E+01  0.33104051673E+01  0.00000000000E+00 0.  1.
         21   -1    0    0  504  502 -0.00000000000E+00 -0.00000000000E+00 -0.30030724673E+03  0.30030724673E+03  0.00000000000E+00 0. -1.
         21    1    1    2  503  501 -0.15429792316E+02 -0.27383065125E+02 -0.13648283713E+03  0.14005525902E+03  0.00000000000E+00 0.  1.
         21    1    1    2  504  503  0.15429792316E+02  0.27383065125E+02 -0.16051400443E+03  0.16356239288E+03  0.00000000000E+00 0. -1.
<mgrwt>
<rscale>  2 0.31431047E+02</rscale>
<asrwt>0</asrwt>
<pdfrwt beam="1">  1       21 0.50929313E-03 0.31431047E+02</pdfrwt>
<pdfrwt beam="2">  1       21 0.46201112E-01 0.31431047E+02</pdfrwt>
<totfact> 0.38907095E+07</totfact>
</mgrwt>
</event>
<event>
 4    1  0.4619222E+006  0.2598787E+02  0.7546771E-02  0.1647205E+00
         21   -1    0    0  502  501  0.00000000000E+00  0.00000000000E+00  0.49590468158E+03  0.49590468158E+03  0.00000000000E+00 0. -1.
         21   -1    0    0  504  502 -0.00000000000E+00 -0.00000000000E+00 -0.16058707948E+02  0.16058707948E+02  0.00000000000E+00 0. -1.
         21    1    1    2  503  501 -0.16293332566E+02 -0.20245900365E+02  0.48480969956E+03  0.48550573009E+03  0.00000000000E+00 0. -1.
         21    1    1    2  504  503  0.16293332566E+02  0.20245900365E+02 -0.49637259256E+01  0.26457659434E+02  0.00000000000E+00 0. -1.
<mgrwt>
<rscale>  2 0.25987866E+02</rscale>
<asrwt>0</asrwt>
<pdfrwt beam="1">  1       21 0.76293016E-01 0.25987866E+02</pdfrwt>
<pdfrwt beam="2">  1       21 0.24705708E-02 0.25987866E+02</pdfrwt>
<totfact> 0.12512245E+06</totfact>
</mgrwt>
</event>
<event>
 4    1  0.4619222E+006  0.3118108E+02  0.7546771E-02  0.1585389E+00
         21   -1    0    0  502  501  0.00000000000E+00  0.00000000000E+00  0.94259289153E+01  0.94259289153E+01  0.00000000000E+00 0.  1.
         21   -1    0    0  504  502 -0.00000000000E+00 -0.00000000000E+00 -0.35799469782E+03  0.35799469782E+03  0.00000000000E+00 0.  1.
         21    1    1    2  503  501  0.15286702903E+01  0.31143585203E+02 -0.19283103614E+02  0.36661939626E+02  0.00000000000E+00 0.  1.
         21    1    1    2  504  503 -0.15286702903E+01 -0.31143585203E+02 -0.32928566529E+03  0.33075868710E+03  0.00000000000E+00 0.  1.
<mgrwt>
<rscale>  2 0.31181080E+02</rscale>
<asrwt>0</asrwt>
<pdfrwt beam="1">  1       21 0.14501428E-02 0.31181080E+02</pdfrwt>
<pdfrwt beam="2">  1       21 0.55076112E-01 0.31181080E+02</pdfrwt>
<totfact> 0.56507470E+06</totfact>
</mgrwt>
</event>
<event>
 4    1  0.4619222E+006  0.2136474E+02  0.7546771E-02  0.1719476E+00
         21   -1    0    0  504  501  0.00000000000E+00  0.00000000000E+00  0.31447961401E+03  0.31447961401E+03  0.00000000000E+00 0. -1.
         21   -1    0    0  503  502 -0.00000000000E+00 -0.00000000000E+00 -0.30576896858E+01  0.30576896858E+01  0.00000000000E+00 0. -1.
         21    1    1    2  503  501  0.15677875913E+02 -0.14514000637E+02  0.40638082039E+02  0.45911934390E+02  0.00000000000E+00 0. -1.
         21    1    1    2  504  502 -0.15677875913E+02  0.14514000637E+02  0.27078384228E+03  0.27162536930E+03  0.00000000000E+00 0. -1.
<mgrwt>
<rscale>  2 0.21364737E+02</rscale>
<asrwt>0</asrwt>
<pdfrwt beam="1">  1       21 0.48381453E-01 0.21364737E+02</pdfrwt>
<pdfrwt beam="2">  1       21 0.47041405E-03 0.21364737E+02</pdfrwt>
<totfact> 0.36881237E+07</totfact>
</mgrwt>
</event>
<event>
 4    1  0.4619222E+006  0.2203638E+02  0.7546771E-02  0.1707624E+00
         21   -1    0    0  503  501  0.00000000000E+00  0.00000000000E+00  0.22792885630E+02  0.22792885630E+02  0.00000000000E+00 0. -1.
         21   -1    0    0  504  502 -0.00000000000E+00 -0.00000000000E+00 -0.83269553553E+02  0.83269553553E+02  0.00000000000E+00 0. -1.
         21    1    1    2  503  502  0.17347189888E+02  0.13589600502E+02  0.15508410005E+02  0.26946484366E+02  0.00000000000E+00 0. -1.
         21    1    1    2  504  501 -0.17347189888E+02 -0.13589600502E+02 -0.75985077929E+02  0.79115954817E+02  0.00000000000E+00 0. -1.
<mgrwt>
<rscale>  2 0.22036384E+02</rscale>
<asrwt>0</asrwt>
<pdfrwt beam="1">  1       21 0.35065978E-02 0.22036384E+02</pdfrwt>
<pdfrwt beam="2">  1       21 0.12810700E-01 0.22036384E+02</pdfrwt>
<totfact> 0.19134490E+07</totfact>
</mgrwt>
</event>
<event>
 4    1  0.4619222E+006  0.2474625E+02  0.7546771E-02  0.1664674E+00
         21   -1    0    0  502  501  0.00000000000E+00  0.00000000000E+00  0.42127020373E+03  0.42127020373E+03  0.00000000000E+00 0. -1.
         21   -1    0    0  503  502 -0.00000000000E+00 -0.00000000000E+00 -0.19070084851E+01  0.19070084851E+01  0.00000000000E+00 0. -1.
         21    1    1    2  503  504 -0.15613398060E+02 -0.19198919948E+02  0.10651480827E+03  0.10935163971E+03  0.00000000000E+00 0. -1.
         21    1    1    2  504  501  0.15613398060E+02  0.19198919948E+02  0.31284838698E+03  0.31382557251E+03  0.00000000000E+00 0. -1.
<mgrwt>
<rscale>  2 0.24746247E+02</rscale>
<asrwt>0</asrwt>
<pdfrwt beam="1">  1       21 0.64810727E-01 0.24746247E+02</pdfrwt>
<pdfrwt beam="2">  1       21 0.29338626E-03 0.24746247E+02</pdfrwt>
<totfact> 0.42686774E+07</totfact>
</mgrwt>
</event>
<event>
 4    1  0.4619222E+006  0.2396329E+02  0.7546771E-02  0.1676355E+00
         21   -1    0    0  504  501  0.00000000000E+00  0.00000000000E+00  0.26292939899E+01  0.26292939899E+01  0.00000000000E+00 0.  1.
         21   -1    0    0  503  502 -0.00000000000E+00 -0.00000000000E+00 -0.22390482272E+03  0.22390482272E+03  0.00000000000E+00 0.  1.
         21    1    1    2  503  501 -0.10367536495E+02 -0.21604476172E+02 -0.12839693244E+03  0.13061397882E+03  0.00000000000E+00 0.  1.
         21    1    1    2  504  502  0.10367536495E+02  0.21604476172E+02 -0.92878596287E+02  0.95920137885E+02  0.00000000000E+00 0.  1.
<mgrwt>
<rscale>  2 0.23963289E+02</rscale>
<asrwt>0</asrwt>
<pdfrwt beam="1">  1       21 0.40450689E-03 0.23963289E+02</pdfrwt>
<pdfrwt beam="2">  1       21 0.34446886E-01 0.23963289E+02</pdfrwt>
<totfact> 0.89954676E+07</totfact>
</mgrwt>
</event>
<event>
 4    1  0.4619222E+006  0.2844944E+02  0.7546771E-02  0.1615889E+00
         21   -1    0    0  504  501  0.00000000000E+00  0.00000000000E+00  0.17343936471E+03  0.17343936471E+03  0.00000000000E+00 0. -1.
         21   -1    0    0  503  502 -0.00000000000E+00 -0.00000000000E+00 -0.60608936078E+01  0.60608936078E+01  0.00000000000E+00 0. -1.
         21    1    1    2  503  501 -0.25491866587E+02  0.12630728466E+02  0.40641998189E+02  0.49609904056E+02  0.00000000000E+00 0. -1.
         21    1    1    2  504  502  0.25491866587E+02 -0.12630728466E+02  0.12673647291E+03  0.12989035426E+03  0.00000000000E+00 0. -1.
<mgrwt>
<rscale>  2 0.28449439E+02</rscale>
<asrwt>0</asrwt>
<pdfrwt beam="1">  1       21 0.26682975E-01 0.28449439E+02</pdfrwt>
<pdfrwt beam="2">  1       21 0.93244530E-03 0.28449439E+02</pdfrwt>
<totfact> 0.43099190E+07</totfact>
</mgrwt>
</event>
<event>
 4    1  0.4619222E+006  0.2194683E+02  0.7546771E-02  0.1709173E+00
         21   -1    0    0  504  501  0.00000000000E+00  0.00000000000E+00  0.36172461967E+01  0.36172461967E+01  0.00000000000E+00 0.  1.
         21   -1    0    0  501  502 -0.00000000000E+00 -0.00000000000E+00 -0.31873137521E+03  0.31873137521E+03  0.00000000000E+00 0.  1.
         21    1    1    2  503  502  0.19352281660E+02 -0.10351442895E+02 -0.28053916996E+03  0.28139632026E+03  0.00000000000E+00 0.  1.
         21    1    1    2  504  503 -0.19352281660E+02  0.10351442895E+02 -0.34574959051E+02  0.40952301142E+02  0.00000000000E+00 0.  1.
<mgrwt>
<rscale>  2 0.21946826E+02</rscale>
<asrwt>0</asrwt>
<pdfrwt beam="1">  1       21 0.55649935E-03 0.21946826E+02</pdfrwt>
<pdfrwt beam="2">  1       21 0.49035602E-01 0.21946826E+02</pdfrwt>
<totfact> 0.28229491E+07</totfact>
</mgrwt>
</event>
<event>
 4    1  0.4619222E+006  0.2208332E+02  0.7546771E-02  0.1706815E+00
         21   -1    0    0  504  501  0.00000000000E+00  0.00000000000E+00  0.99760241333E+02  0.99760241333E+02  0.00000000000E+00 0.  1.
         21   -1    0    0  503  502 -0.00000000000E+00 -0.00000000000E+00 -0.15821616545E+02  0.15821616545E+02  0.00000000000E+00 0.  1.
         21    1    1    2  503  501  0.18047825876E+02  0.12725925203E+02  0.90009775169E+02  0.92679193010E+02  0.00000000000E+00 0.  1.
         21    1    1    2  504  502 -0.18047825876E+02 -0.12725925203E+02 -0.60711503807E+01  0.22902664868E+02  0.00000000000E+00 0.  1.
<mgrwt>
<rscale>  2 0.22083324E+02</rscale>
<asrwt>0</asrwt>
<pdfrwt beam="1">  1       21 0.15347729E-01 0.22083324E+02</pdfrwt>
<pdfrwt beam="2">  1       21 0.24340949E-02 0.22083324E+02</pdfrwt>
<totfact> 0.24866002E+07</totfact>
</mgrwt>
</event>
<event>
 4    1  0.4619222E+006  0.2312259E+02  0.7546771E-02  0.1689531E+00
         21   -1    0    0  502  501  0.00000000000E+00  0.00000000000E+00  0.12716348286E+03  0.12716348286E+03  0.00000000000E+00 0.  1.
         21   -1    0    0  503  502 -0.00000000000E+00 -0.00000000000E+00 -0.78378265718E+01  0.78378265718E+01  0.00000000000E+00 0.  1.
         21    1    1    2  503  504  0.16800967110E+02  0.15886531731E+02  0.13704472423E+02  0.26878745333E+02  0.00000000000E+00 0.  1.
         21    1    1    2  504  501 -0.16800967110E+02 -0.15886531731E+02  0.10562118387E+03  0.10812256410E+03  0.00000000000E+00 0.  1.
<mgrwt>
<rscale>  2 0.23122595E+02</rscale>
<asrwt>0</asrwt>
<pdfrwt beam="1">  1       21 0.19563611E-01 0.23122595E+02</pdfrwt>
<pdfrwt beam="2">  1       21 0.12058196E-02 0.23122595E+02</pdfrwt>
<totfact> 0.48352882E+07</totfact>
</mgrwt>
</event>
<event>
 4    1  0.4619222E+006  0.5529951E+02  0.7546771E-02  0.1418688E+00
         21   -1    0    0  503  501  0.00000000000E+00  0.00000000000E+00  0.59300125499E+03  0.59300125499E+03  0.00000000000E+00 0. -1.
         21   -1    0    0  501  502 -0.00000000000E+00 -0.00000000000E+00 -0.14357191331E+03  0.14357191331E+03  0.00000000000E+00 0. -1.
         21    1    1    2  503  504 -0.40184797727E+02 -0.37989700283E+02  0.58632663274E+03  0.58892865065E+03  0.00000000000E+00 0. -1.
         21    1    1    2  504  502  0.40184797727E+02  0.37989700283E+02 -0.13689729105E+03  0.14764451765E+03  0.00000000000E+00 0. -1.
<mgrwt>
<rscale>  2 0.55299505E+02</rscale>
<asrwt>0</asrwt>
<pdfrwt beam="1">  1       21 0.91230961E-01 0.55299505E+02</pdfrwt>
<pdfrwt beam="2">  1       21 0.22087987E-01 0.55299505E+02</pdfrwt>
<totfact> 0.22054788E+04</totfact>
</mgrwt>
</event>
<event>
 4    1  0.4619222E+006  0.4158891E+02  0.7546771E-02  0.1496834E+00
         21   -1    0    0  503  501  0.00000000000E+00  0.00000000000E+00  0.39040494521E+02  0.39040494521E+02  0.00000000000E+00 0. -1.
         21   -1    0    0  504  502 -0.00000000000E+00 -0.00000000000E+00 -0.73740138298E+02  0.73740138298E+02  0.00000000000E+00 0. -1.
         21    1    1    2  503  502 -0.39338215145E+02  0.13496014621E+02  0.18278497307E+02  0.45428416715E+02  0.00000000000E+00 0. -1.
         21    1    1    2  504  501  0.39338215145E+02 -0.13496014621E+02 -0.52978141084E+02  0.67352216104E+02  0.00000000000E+00 0. -1.
<mgrwt>
<rscale>  2 0.41588912E+02</rscale>
<asrwt>0</asrwt>
<pdfrwt beam="1">  1       21 0.60062300E-02 0.41588912E+02</pdfrwt>
<pdfrwt beam="2">  1       21 0.11344637E-01 0.41588912E+02</pdfrwt>
<totfact> 0.11108761E+07</totfact>
</mgrwt>
</event>
<event>
 4    1  0.4619222E+006  0.2090484E+02  0.7546771E-02  0.1727911E+00
         21   -1    0    0  504  501  0.00000000000E+00  0.00000000000E+00  0.13430005937E+01  0.13430005937E+01  0.00000000000E+00 0.  1.
         21   -1    0    0  503  502 -0.00000000000E+00 -0.00000000000E+00 -0.41381220328E+03  0.41381220328E+03  0.00000000000E+00 0. -1.
         21    1    1    2  503  501 -0.20702279563E+02  0.29031288905E+01 -0.11028687489E+03  0.11225064503E+03  0.00000000000E+00 0.  1.
         21    1    1    2  504  502  0.20702279563E+02 -0.29031288905E+01 -0.30218232779E+03  0.30290455884E+03  0.00000000000E+00 0. -1.
<mgrwt>
<rscale>  2 0.20904845E+02</rscale>
<asrwt>0</asrwt>
<pdfrwt beam="1">  1       21 0.20661504E-03 0.20904845E+02</pdfrwt>
<pdfrwt beam="2">  1       21 0.63663550E-01 0.20904845E+02</pdfrwt>
<totfact> 0.70728993E+07</totfact>
</mgrwt>
</event>
<event>
 4    1  0.4619222E+006  0.2680555E+02  0.7546771E-02  0.1636345E+00
         21   -1    0    0  503  501  0.00000000000E+00  0.00000000000E+00  0.30720690675E+01  0.30720690675E+01  0.00000000000E+00 0.  1.
         21   -1    0    0  504  502 -0.00000000000E+00 -0.00000000000E+00 -0.23495756723E+03  0.23495756723E+03  0.00000000000E+00 0.  1.
         21    1    1    2  503  502 -0.26436423641E+02  0.44331691464E+01 -0.10793412650E+03  0.11121291808E+03  0.00000000000E+00 0.  1.
         21    1    1    2  504  501  0.26436423641E+02 -0.44331691464E+01 -0.12395137167E+03  0.12681671822E+03  0.00000000000E+00 0.  1.
<mgrwt>
<rscale>  2 0.26805549E+02</rscale>
<asrwt>0</asrwt>
<pdfrwt beam="1">  1       21 0.47262589E-03 0.26805549E+02</pdfrwt>
<pdfrwt beam="2">  1       21 0.36147327E-01 0.26805549E+02</pdfrwt>
<totfact> 0.67160737E+07</totfact>
</mgrwt>
</event>
<event>
 4    1  0.4619222E+006  0.4070649E+02  0.7546771E-02  0.1503076E+00
         21   -1    0    0  503  501  0.00000000000E+00  0.00000000000E+00  0.39264594308E+02  0.39264594308E+02  0.00000000000E+00 0.  1.
         21   -1    0    0  504  502 -0.00000000000E+00 -0.00000000000E+00 -0.13137550134E+03  0.13137550134E+03  0.00000000000E+00 0.  1.
         21    1    1    2  503  502  0.10723754435E+02 -0.39268558048E+02  0.24237761914E+02  0.47376024136E+02  0.00000000000E+00 0.  1.
         21    1    1    2  504  501 -0.10723754435E+02  0.39268558048E+02 -0.11634866894E+03  0.12326407151E+03  0.00000000000E+00 0.  1.
<mgrwt>
<rscale>  2 0.40706493E+02</rscale>
<asrwt>0</asrwt>
<pdfrwt beam="1">  1       21 0.60407070E-02 0.40706493E+02</pdfrwt>
<pdfrwt beam="2">  1       21 0.20211615E-01 0.40706493E+02</pdfrwt>
<totfact> 0.40093863E+06</totfact>
</mgrwt>
</event>
<event>
 4    1  0.4619222E+006  0.2510974E+02  0.7546771E-02  0.1659431E+00
         21   -1    0    0  502  501  0.00000000000E+00  0.00000000000E+00  0.35208511455E+01  0.35208511455E+01  0.00000000000E+00 0.  1.
         21   -1    0    0  503  502 -0.00000000000E+00 -0.00000000000E+00 -0.18018712916E+03  0.18018712916E+03  0.00000000000E+00 0.  1.
         21    1    1    2  503  504 -0.12246584481E+02  0.21920776182E+02 -0.95546806979E+02  0.98791151343E+02  0.00000000000E+00 0.  1.
         21    1    1    2  504  501  0.12246584481E+02 -0.21920776182E+02 -0.81119471032E+02  0.84916828958E+02  0.00000000000E+00 0.  1.
<mgrwt>
<rscale>  2 0.25109744E+02</rscale>
<asrwt>0</asrwt>
<pdfrwt beam="1">  1       21 0.54166926E-03 0.25109744E+02</pdfrwt>
<pdfrwt beam="2">  1       21 0.27721104E-01 0.25109744E+02</pdfrwt>
<totfact> 0.88046425E+07</totfact>
</mgrwt>
</event>
<event>
 4    1  0.4619222E+006  0.2557257E+02  0.7546771E-02  0.1652911E+00
         21   -1    0    0  504  501  0.00000000000E+00  0.00000000000E+00  0.23470831453E+02  0.23470831453E+02  0.00000000000E+00 0. -1.
         21   -1    0    0  501  502 -0.00000000000E+00 -0.00000000000E+00 -0.15581623004E+03  0.15581623004E+03  0.00000000000E+00 0.  1.
         21    1    1    2  503  502 -0.11777577460E+02  0.22699014046E+02 -0.14740692485E+03  0.14960868312E+03  0.00000000000E+00 0.  1.
         21    1    1    2  504  503  0.11777577460E+02 -0.22699014046E+02  0.15061526267E+02  0.29678378375E+02  0.00000000000E+00 0. -1.
<mgrwt>
<rscale>  2 0.25572575E+02</rscale>
<asrwt>0</asrwt>
<pdfrwt beam="1">  1       21 0.36108972E-02 0.25572575E+02</pdfrwt>
<pdfrwt beam="2">  1       21 0.23971728E-01 0.25572575E+02</pdfrwt>
<totfact> 0.63663387E+06</totfact>
</mgrwt>
</event>
<event>
 4    1  0.4619222E+006  0.2532617E+02  0.7546771E-02  0.1656361E+00
         21   -1    0    0  504  501  0.00000000000E+00  0.00000000000E+00  0.80375317628E+00  0.80375317628E+00  0.00000000000E+00 0.  1.
         21   -1    0    0  503  502 -0.00000000000E+00 -0.00000000000E+00 -0.16720133190E+04  0.16720133190E+04  0.00000000000E+00 0.  1.
         21    1    1    2  503  501 -0.24992486736E+02 -0.40976255786E+01 -0.23088877401E+03  0.23227363366E+03  0.00000000000E+00 0.  1.
         21    1    1    2  504  502  0.24992486736E+02  0.40976255786E+01 -0.14403207918E+04  0.14405434385E+04  0.00000000000E+00 0.  1.
<mgrwt>
<rscale>  2 0.25326171E+02</rscale>
<asrwt>0</asrwt>
<pdfrwt beam="1">  1       21 0.12365419E-03 0.25326171E+02</pdfrwt>
<pdfrwt beam="2">  1       21 0.25723311E+00 0.25326171E+02</pdfrwt>
<totfact> 0.58175809E+06</totfact>
</mgrwt>
</event>
<event>
 4    1  0.4619222E+006  0.2055877E+02  0.7546771E-02  0.1734439E+00
         21   -1    0    0  504  501  0.00000000000E+00  0.00000000000E+00  0.22423749978E+03  0.22423749978E+03  0.00000000000E+00 0.  1.
         21   -1    0    0  503  502 -0.00000000000E+00 -0.00000000000E+00 -0.61930976605E+01  0.61930976605E+01  0.00000000000E+00 0.  1.
         21    1    1    2  503  501  0.14920676629E+02  0.14143430390E+02  0.20511801215E+03  0.20614573030E+03  0.00000000000E+00 0.  1.
         21    1    1    2  504  502 -0.14920676629E+02 -0.14143430390E+02  0.12926389974E+02  0.24284867140E+02  0.00000000000E+00 0.  1.
<mgrwt>
<rscale>  2 0.20558775E+02</rscale>
<asrwt>0</asrwt>
<pdfrwt beam="1">  1       21 0.34498071E-01 0.20558775E+02</pdfrwt>
<pdfrwt beam="2">  1       21 0.95278443E-03 0.20558775E+02</pdfrwt>
<totfact> 0.24295108E+07</totfact>
</mgrwt>
</event>
<event>
 4    1  0.4619222E+006  0.4331432E+02  0.7546771E-02  0.1485148E+00
         21   -1    0    0  503  501  0.00000000000E+00  0.00000000000E+00  0.10698278641E+03  0.10698278641E+03  0.00000000000E+00 0. -1.
         21   -1    0    0  504  502 -0.00000000000E+00 -0.00000000000E+00 -0.27817220131E+02  0.27817220131E+02  0.00000000000E+00 0. -1.
         21    1    1    2  503  502 -0.26268324367E+02 -0.34439887149E+02  0.80556888525E+02  0.91463342278E+02  0.00000000000E+00 0. -1.
         21    1    1    2  504  501  0.26268324367E+02  0.34439887149E+02 -0.13913222466E+01  0.43336664263E+02  0.00000000000E+00 0. -1.
<mgrwt>
<rscale>  2 0.43314324E+02</rscale>
<asrwt>0</asrwt>
<pdfrwt beam="1">  1       21 0.16458890E-01 0.43314324E+02</pdfrwt>
<pdfrwt beam="2">  1       21 0.42795724E-02 0.43314324E+02</pdfrwt>
<totfact> 0.10187678E+07</totfact>
</mgrwt>
</event>
<event>
 4    1  0.4619222E+006  0.2043188E+02  0.7546771E-02  0.1736874E+00
         21   -1    0    0  502  501  0.00000000000E+00  0.00000000000E+00  0.15530333419E+03  0.15530333419E+03  0.00000000000E+00 0.  1.
         21   -1    0    0  503  502 -0.00000000000E+00 -0.00000000000E+00 -0.41609690697E+01  0.41609690697E+01  0.00000000000E+00 0.  1.
         21    1    1    2  503  504 -0.30065080618E+01  0.20209464511E+02  0.28133093786E+02  0.34769706822E+02  0.00000000000E+00 0.  1.
         21    1    1    2  504  501  0.30065080618E+01 -0.20209464511E+02  0.12300927134E+03  0.12469459644E+03  0.00000000000E+00 0.  1.
<mgrwt>
<rscale>  2 0.20431876E+02</rscale>
<asrwt>0</asrwt>
<pdfrwt beam="1">  1       21 0.23892816E-01 0.20431876E+02</pdfrwt>
<pdfrwt beam="2">  1       21 0.64014921E-03 0.20431876E+02</pdfrwt>
<totfact> 0.84881736E+07</totfact>
</mgrwt>
</event>
<event>
 4    1  0.4619222E+006  0.6700836E+02  0.7546771E-02  0.1370572E+00
         21   -1    0    0  504  501  0.00000000000E+00  0.00000000000E+00  0.20787460864E+04  0.20787460864E+04  0.00000000000E+00 0. -1.
         21   -1    0    0  503  502 -0.00000000000E+00 -0.00000000000E+00 -0.87845448339E+01  0.87845448339E+01  0.00000000000E+00 0. -1.
         21    1    1    2  503  501  0.31203269473E+02 -0.59299888008E+02  0.19413826363E+04  0.19425387155E+04  0.00000000000E+00 0. -1.
         21    1    1    2  504  502 -0.31203269473E+02  0.59299888008E+02  0.12857890523E+03  0.14499191569E+03  0.00000000000E+00 0. -1.
<mgrwt>
<rscale>  2 0.67008363E+02</rscale>
<asrwt>0</asrwt>
<pdfrwt beam="1">  1       21 0.31980670E+00 0.67008363E+02</pdfrwt>
<pdfrwt beam="2">  1       21 0.13514701E-02 0.67008363E+02</pdfrwt>
<totfact> 0.72459770E+04</totfact>
</mgrwt>
</event>
<event>
 4    1  0.4619222E+006  0.2381056E+02  0.7546771E-02  0.1678698E+00
         21   -1    0    0  504  501  0.00000000000E+00  0.00000000000E+00  0.16811898800E+00  0.16811898800E+00  0.00000000000E+00 0.  1.
         21   -1    0    0  503  502 -0.00000000000E+00 -0.00000000000E+00 -0.33723541660E+04  0.33723541660E+04  0.00000000000E+00 0. -1.
         21    1    1    2  503  501 -0.31021069282E+00  0.23808542811E+02 -0.16777652028E+04  0.16779341521E+04  0.00000000000E+00 0. -1.
         21    1    1    2  504  502  0.31021069282E+00 -0.23808542811E+02 -0.16944208442E+04  0.16945881329E+04  0.00000000000E+00 0.  1.
<mgrwt>
<rscale>  2 0.23810564E+02</rscale>
<asrwt>0</asrwt>
<pdfrwt beam="1">  1       21 0.25864438E-04 0.23810564E+02</pdfrwt>
<pdfrwt beam="2">  1       21 0.51882415E+00 0.23810564E+02</pdfrwt>
<totfact> 0.19122434E+06</totfact>
</mgrwt>
</event>
<event>
 4    1  0.4619222E+006  0.2302107E+02  0.7546771E-02  0.1691169E+00
         21   -1    0    0  502  501  0.00000000000E+00  0.00000000000E+00  0.17325374273E+03  0.17325374273E+03  0.00000000000E+00 0. -1.
         21   -1    0    0  503  502 -0.00000000000E+00 -0.00000000000E+00 -0.21140422517E+03  0.21140422517E+03  0.00000000000E+00 0. -1.
         21    1    1    2  503  504 -0.10135962355E+02 -0.20669593091E+02 -0.21000769865E+03  0.21126571729E+03  0.00000000000E+00 0. -1.
         21    1    1    2  504  501  0.10135962355E+02  0.20669593091E+02  0.17185721620E+03  0.17339225061E+03  0.00000000000E+00 0. -1.
<mgrwt>
<rscale>  2 0.23021073E+02</rscale>
<asrwt>0</asrwt>
<pdfrwt beam="1">  1       21 0.26654422E-01 0.23021073E+02</pdfrwt>
<pdfrwt beam="2">  1       21 0.32523727E-01 0.23021073E+02</pdfrwt>
<totfact> 0.13015093E+05</totfact>
</mgrwt>
</event>
<event>
 4    1  0.4619222E+006  0.2390254E+02  0.7546771E-02  0.1677285E+00
         21   -1    0    0  503  501  0.00000000000E+00  0.00000000000E+00  0.12365399436E+02  0.12365399436E+02  0.00000000000E+00 0.  1.
         21   -1    0    0  504  502 -0.00000000000E+00 -0.00000000000E+00 -0.98592336822E+02  0.98592336822E+02  0.00000000000E+00 0.  1.
         21    1    1    2  503  502  0.22308606223E+01 -0.23798202723E+02 -0.26723440255E+01  0.24051457638E+02  0.00000000000E+00 0.  1.
         21    1    1    2  504  501 -0.22308606223E+01  0.23798202723E+02 -0.83554593360E+02  0.86906278620E+02  0.00000000000E+00 0.  1.
<mgrwt>
<rscale>  2 0.23902535E+02</rscale>
<asrwt>0</asrwt>
<pdfrwt beam="1">  1       21 0.19023692E-02 0.23902535E+02</pdfrwt>
<pdfrwt beam="2">  1       21 0.15168051E-01 0.23902535E+02</pdfrwt>
<totfact> 0.37769613E+07</totfact>
</mgrwt>
</event>
<event>
 4    1  0.4619222E+006  0.2117455E+02  0.7546771E-02  0.1722932E+00
         21   -1    0    0  503  501  0.00000000000E+00  0.00000000000E+00  0.32227268013E+02  0.32227268013E+02  0.00000000000E+00 0. -1.
         21   -1    0    0  504  502 -0.00000000000E+00 -0.00000000000E+00 -0.14368053655E+02  0.14368053655E+02  0.00000000000E+00 0. -1.
         21    1    1    2  503  502 -0.20225569726E+02 -0.62679990168E+01  0.13078085189E+02  0.24887703683E+02  0.00000000000E+00 0. -1.
         21    1    1    2  504  501  0.20225569726E+02  0.62679990168E+01  0.47811291686E+01  0.21707617984E+02  0.00000000000E+00 0. -1.
<mgrwt>
<rscale>  2 0.21174548E+02</rscale>
<asrwt>0</asrwt>
<pdfrwt beam="1">  1       21 0.49580412E-02 0.21174548E+02</pdfrwt>
<pdfrwt beam="2">  1       21 0.22104698E-02 0.21174548E+02</pdfrwt>
<totfact> 0.18161044E+08</totfact>
</mgrwt>
</event>
<event>
 4    1  0.4619222E+006  0.4089404E+02  0.7546771E-02  0.1501733E+00
         21   -1    0    0  504  501  0.00000000000E+00  0.00000000000E+00  0.36237578106E+03  0.36237578106E+03  0.00000000000E+00 0.  1.
         21   -1    0    0  503  502 -0.00000000000E+00 -0.00000000000E+00 -0.46335573989E+01  0.46335573989E+01  0.00000000000E+00 0.  1.
         21    1    1    2  503  501  0.30444906776E+02 -0.27302562919E+02  0.16722184923E+03  0.17214955460E+03  0.00000000000E+00 0.  1.
         21    1    1    2  504  502 -0.30444906776E+02  0.27302562919E+02  0.19052037443E+03  0.19485978386E+03  0.00000000000E+00 0.  1.
<mgrwt>
<rscale>  2 0.40894037E+02</rscale>
<asrwt>0</asrwt>
<pdfrwt beam="1">  1       21 0.55750098E-01 0.40894037E+02</pdfrwt>
<pdfrwt beam="2">  1       21 0.71285527E-03 0.40894037E+02</pdfrwt>
<totfact> 0.16879326E+07</totfact>
</mgrwt>
</event>
<event>
 4    1  0.4619222E+006  0.4363036E+02  0.7546771E-02  0.1483078E+00
         21   -1    0    0  503  501  0.00000000000E+00  0.00000000000E+00  0.34415836388E+01  0.34415836388E+01  0.00000000000E+00 0. -1.
         21   -1    0    0  501  502 -0.00000000000E+00 -0.00000000000E+00 -0.92953848355E+03  0.92953848355E+03  0.00000000000E+00 0. -1.
         21    1    1    2  503  504  0.40747916642E+02 -0.15595364698E+02 -0.16619352492E+03  0.17182518976E+03  0.00000000000E+00 0. -1.
         21    1    1    2  504  502 -0.40747916642E+02  0.15595364698E+02 -0.75990337499E+03  0.76115487742E+03  0.00000000000E+00 0. -1.
<mgrwt>
<rscale>  2 0.43630358E+02</rscale>
<asrwt>0</asrwt>
<pdfrwt beam="1">  1       21 0.52947433E-03 0.43630358E+02</pdfrwt>
<pdfrwt beam="2">  1       21 0.14300594E+00 0.43630358E+02</pdfrwt>
<totfact> 0.33331922E+06</totfact>
</mgrwt>
</event>
<event>
 4    1  0.4619222E+006  0.2174159E+02  0.7546771E-02  0.1712760E+00
         21   -1    0    0  504  501  0.00000000000E+00  0.00000000000E+00  0.14264187403E+04  0.14264187403E+04  0.00000000000E+00 0. -1.
         21   -1    0    0  503  502 -0.00000000000E+00 -0.00000000000E+00 -0.13443614814E+01  0.13443614814E+01  0.00000000000E+00 0. -1.
         21    1    1    2  503  501 -0.18256283563E+02 -0.11806988829E+02  0.92857383820E+02  0.95368708728E+02  0.00000000000E+00 0. -1.
         21    1    1    2  504  502  0.18256283563E+02  0.11806988829E+02  0.13322169950E+04  0.13323943931E+04  0.00000000000E+00 0. -1.
<mgrwt>
<rscale>  2 0.21741593E+02</rscale>
<asrwt>0</asrwt>
<pdfrwt beam="1">  1       21 0.21944783E+00 0.21741593E+02</pdfrwt>
<pdfrwt beam="2">  1       21 0.20682598E-03 0.21741593E+02</pdfrwt>
<totfact> 0.42806162E+06</totfact>
</mgrwt>
</event>
<event>
 4    1  0.4619222E+006  0.2043693E+02  0.7546771E-02  0.1736776E+00
         21   -1    0    0  503  501  0.00000000000E+00  0.00000000000E+00  0.19417911891E+03  0.19417911891E+03  0.00000000000E+00 0. -1.
         21   -1    0    0  501  502 -0.00000000000E+00 -0.00000000000E+00 -0.49627793152E+01  0.49627793152E+01  0.00000000000E+00 0. -1.
         21    1    1    2  503  504 -0.36274850835E+01  0.20112424504E+02  0.16955705245E+03  0.17078425660E+03  0.00000000000E+00 0. -1.
         21    1    1    2  504  502  0.36274850835E+01 -0.20112424504E+02  0.19659287149E+02  0.28357641628E+02  0.00000000000E+00 0. -1.
<mgrwt>
<rscale>  2 0.20436934E+02</rscale>
<asrwt>0</asrwt>
<pdfrwt beam="1">  1       21 0.29873705E-01 0.20436934E+02</pdfrwt>
<pdfrwt beam="2">  1       21 0.76350466E-03 0.20436934E+02</pdfrwt>
<totfact> 0.43868318E+07</totfact>
</mgrwt>
</event>
<event>
 4    1  0.4619222E+006  0.2172199E+02  0.7546771E-02  0.1713105E+00
         21   -1    0    0  503  501  0.00000000000E+00  0.00000000000E+00  0.26003281195E+02  0.26003281195E+02  0.00000000000E+00 0. -1.
         21   -1    0    0  504  502 -0.00000000000E+00 -0.00000000000E+00 -0.16020893131E+03  0.16020893131E+03  0.00000000000E+00 0.  1.
         21    1    1    2  503  502  0.41434472864E+01 -0.21323153104E+02 -0.15477783171E+03  0.15629466466E+03  0.00000000000E+00 0.  1.
         21    1    1    2  504  501 -0.41434472864E+01  0.21323153104E+02  0.20572181590E+02  0.29917547845E+02  0.00000000000E+00 0. -1.
<mgrwt>
<rscale>  2 0.21721994E+02</rscale>
<asrwt>0</asrwt>
<pdfrwt beam="1">  1       21 0.40005048E-02 0.21721994E+02</pdfrwt>
<pdfrwt beam="2">  1       21 0.24647528E-01 0.21721994E+02</pdfrwt>
<totfact> 0.50208828E+06</totfact>
</mgrwt>
</event>
<event>
 4    1  0.4619222E+006  0.2522702E+02  0.7546771E-02  0.1657762E+00
         21   -1    0    0  502  501  0.00000000000E+00  0.00000000000E+00  0.89987853254E+01  0.89987853254E+01  0.00000000000E+00 0. -1.
         21   -1    0    0  503  502 -0.00000000000E+00 -0.00000000000E+00 -0.37428362032E+03  0.37428362032E+03  0.00000000000E+00 0.  1.
         21    1    1    2  503  504 -0.24009770672E+02 -0.77416589096E+01 -0.35523124623E+03  0.35612587756E+03  0.00000000000E+00 0.  1.
         21    1    1    2  504  501  0.24009770672E+02  0.77416589096E+01 -0.10053588760E+02  0.27156528079E+02  0.00000000000E+00 0. -1.
<mgrwt>
<rscale>  2 0.25227017E+02</rscale>
<asrwt>0</asrwt>
<pdfrwt beam="1">  1       21 0.13844290E-02 0.25227017E+02</pdfrwt>
<pdfrwt beam="2">  1       21 0.57582075E-01 0.25227017E+02</pdfrwt>
<totfact> 0.53935151E+06</totfact>
</mgrwt>
</event>
<event>
 4    1  0.4619222E+006  0.2132038E+02  0.7546771E-02  0.1720278E+00
         21   -1    0    0  503  501  0.00000000000E+00  0.00000000000E+00  0.30236111250E+02  0.30236111250E+02  0.00000000000E+00 0. -1.
         21   -1    0    0  504  502 -0.00000000000E+00 -0.00000000000E+00 -0.18059789041E+02  0.18059789041E+02  0.00000000000E+00 0. -1.
         21    1    1    2  503  502  0.21110560108E+02  0.29837721996E+01 -0.37966753223E+01  0.21655793408E+02  0.00000000000E+00 0. -1.
         21    1    1    2  504  501 -0.21110560108E+02 -0.29837721996E+01  0.15972997531E+02  0.26640106883E+02  0.00000000000E+00 0. -1.
<mgrwt>
<rscale>  2 0.21320381E+02</rscale>
<asrwt>0</asrwt>
<pdfrwt beam="1">  1       21 0.46517094E-02 0.21320381E+02</pdfrwt>
<pdfrwt beam="2">  1       21 0.27784291E-02 0.21320381E+02</pdfrwt>
<totfact> 0.14153445E+08</totfact>
</mgrwt>
</event>
<event>
 4    1  0.4619222E+006  0.2539368E+02  0.7546771E-02  0.1655411E+00
         21   -1    0    0  504  501  0.00000000000E+00  0.00000000000E+00  0.47568104855E+02  0.47568104855E+02  0.00000000000E+00 0.  1.
         21   -1    0    0  501  502 -0.00000000000E+00 -0.00000000000E+00 -0.24388748691E+03  0.24388748691E+03  0.00000000000E+00 0.  1.
         21    1    1    2  503  502 -0.23517824755E+02 -0.95786723956E+01 -0.23977955644E+03  0.24112045689E+03  0.00000000000E+00 0.  1.
         21    1    1    2  504  503  0.23517824755E+02  0.95786723956E+01  0.43460174379E+02  0.50335134877E+02  0.00000000000E+00 0.  1.
<mgrwt>
<rscale>  2 0.25393681E+02</rscale>
<asrwt>0</asrwt>
<pdfrwt beam="1">  1       21 0.73181699E-02 0.25393681E+02</pdfrwt>
<pdfrwt beam="2">  1       21 0.37521152E-01 0.25393681E+02</pdfrwt>
<totfact> 0.90503621E+05</totfact>
</mgrwt>
</event>
<event>
 4    1  0.4619222E+006  0.2433242E+02  0.7546771E-02  0.1670780E+00
         21   -1    0    0  503  501  0.00000000000E+00  0.00000000000E+00  0.27335256589E+02  0.27335256589E+02  0.00000000000E+00 0.  1.
         21   -1    0    0  501  502 -0.00000000000E+00 -0.00000000000E+00 -0.27375619811E+02  0.27375619811E+02  0.00000000000E+00 0.  1.
         21    1    1    2  503  504  0.49891732305E+00  0.24327306650E+02  0.12479934769E+02  0.27346216177E+02  0.00000000000E+00 0.  1.
         21    1    1    2  504  502 -0.49891732305E+00 -0.24327306650E+02 -0.12520297991E+02  0.27364660223E+02  0.00000000000E+00 0.  1.
<mgrwt>
<rscale>  2 0.24332422E+02</rscale>
<asrwt>0</asrwt>
<pdfrwt beam="1">  1       21 0.42054241E-02 0.24332422E+02</pdfrwt>
<pdfrwt beam="2">  1       21 0.42116338E-02 0.24332422E+02</pdfrwt>
<totfact> 0.90018937E+07</totfact>
</mgrwt>
</event>
<event>
 4    1  0.4619222E+006  0.2339616E+02  0.7546771E-02  0.1685168E+00
         21   -1    0    0  504  501  0.00000000000E+00  0.00000000000E+00  0.78483346668E+02  0.78483346668E+02  0.00000000000E+00 0. -1.
         21   -1    0    0  501  502 -0.00000000000E+00 -0.00000000000E+00 -0.26881366834E+02  0.26881366834E+02  0.00000000000E+00 0.  1.
         21    1    1    2  503  502  0.20272347239E+02  0.11679569196E+02 -0.19534802742E+02  0.30479319503E+02  0.00000000000E+00 0.  1.
         21    1    1    2  504  503 -0.20272347239E+02 -0.11679569196E+02  0.71136782576E+02  0.74885393999E+02  0.00000000000E+00 0. -1.
<mgrwt>
<rscale>  2 0.23396162E+02</rscale>
<asrwt>0</asrwt>
<pdfrwt beam="1">  1       21 0.12074361E-01 0.23396162E+02</pdfrwt>
<pdfrwt beam="2">  1       21 0.41355949E-02 0.23396162E+02</pdfrwt>
<totfact> 0.16520234E+07</totfact>
</mgrwt>
</event>
<event>
 4    1  0.4619222E+006  0.2244759E+02  0.7546771E-02  0.1700624E+00
         21   -1    0    0  502  501  0.00000000000E+00  0.00000000000E+00  0.22874185724E+03  0.22874185724E+03  0.00000000000E+00 0. -1.
         21   -1    0    0  503  502 -0.00000000000E+00 -0.00000000000E+00 -0.10756390154E+03  0.10756390154E+03  0.00000000000E+00 0. -1.
         21    1    1    2  503  504 -0.45743111169E+01  0.21976582807E+02 -0.10583311861E+03  0.10818753860E+03  0.00000000000E+00 0. -1.
         21    1    1    2  504  501  0.45743111169E+01 -0.21976582807E+02  0.22701107431E+03  0.22811822017E+03  0.00000000000E+00 0. -1.
<mgrwt>
<rscale>  2 0.22447595E+02</rscale>
<asrwt>0</asrwt>
<pdfrwt beam="1">  1       21 0.35191055E-01 0.22447595E+02</pdfrwt>
<pdfrwt beam="2">  1       21 0.16548293E-01 0.22447595E+02</pdfrwt>
<totfact> 0.25935946E+05</totfact>
</mgrwt>
</event>
<event>
 4    1  0.4619222E+006  0.2972008E+02  0.7546771E-02  0.1601204E+00
         21   -1    0    0  504  501  0.00000000000E+00  0.00000000000E+00  0.13866926138E+03  0.13866926138E+03  0.00000000000E+00 0.  1.
         21   -1    0    0  503  502 -0.00000000000E+00 -0.00000000000E+00 -0.15460031866E+03  0.15460031866E+03  0.00000000000E+00 0.  1.
         21    1    1    2  503  501 -0.22405248371E+02  0.19526602753E+02  0.13561672680E+03  0.13883508187E+03  0.00000000000E+00 0.  1.
         21    1    1    2  504  502  0.22405248371E+02 -0.19526602753E+02 -0.15154778408E+03  0.15443449818E+03  0.00000000000E+00 0.  1.
<mgrwt>
<rscale>  2 0.29720084E+02</rscale>
<asrwt>0</asrwt>
<pdfrwt beam="1">  1       21 0.21333732E-01 0.29720084E+02</pdfrwt>
<pdfrwt beam="2">  1       21 0.23784664E-01 0.29720084E+02</pdfrwt>
<totfact> 0.34345252E+05</totfact>
</mgrwt>
</event>
<event>
 4    1  0.4619222E+006  0.2358681E+02  0.7546771E-02  0.1682171E+00
         21   -1    0    0  504  501  0.00000000000E+00  0.00000000000E+00  0.57950873121E+03  0.57950873121E+03  0.00000000000E+00 0. -1.
         21   -1    0    0  501  502 -0.00000000000E+00 -0.00000000000E+00 -0.18116960548E+02  0.18116960548E+02  0.00000000000E+00 0.  1.
         21    1    1    2  503  502 -0.21818555192E+02  0.89603822824E+01 -0.10092171301E+02  0.25655208495E+02  0.00000000000E+00 0.  1.
         21    1    1    2  504  503  0.21818555192E+02 -0.89603822824E+01  0.57148394196E+03  0.57197048326E+03  0.00000000000E+00 0. -1.
<mgrwt>
<rscale>  2 0.23586814E+02</rscale>
<asrwt>0</asrwt>
<pdfrwt beam="1">  1       21 0.89155175E-01 0.23586814E+02</pdfrwt>
<pdfrwt beam="2">  1       21 0.27872251E-02 0.23586814E+02</pdfrwt>
<totfact> 0.74048514E+05</totfact>
</mgrwt>
</event>
<event>
 4    1  0.4619222E+006  0.2334953E+02  0.7546771E-02  0.1685906E+00
         21   -1    0    0  504  501  0.00000000000E+00  0.00000000000E+00  0.59952576765E+01  0.59952576765E+01  0.00000000000E+00 0. -1.
         21   -1    0    0  503  502 -0.00000000000E+00 -0.00000000000E+00 -0.10642626384E+03  0.10642626384E+03  0.00000000000E+00 0. -1.
         21    1    1    2  503  501 -0.40934922661E+01 -0.22987908407E+02 -0.71658593425E+02  0.75366800539E+02  0.00000000000E+00 0. -1.
         21    1    1    2  504  502  0.40934922661E+01  0.22987908407E+02 -0.28772412735E+02  0.37054720974E+02  0.00000000000E+00 0. -1.
<mgrwt>
<rscale>  2 0.23349531E+02</rscale>
<asrwt>0</asrwt>
<pdfrwt beam="1">  1       21 0.92234734E-03 0.23349531E+02</pdfrwt>
<pdfrwt beam="2">  1       21 0.16373271E-01 0.23349531E+02</pdfrwt>
<totfact> 0.98697472E+07</totfact>
</mgrwt>
</event>
<event>
 4    1  0.4619222E+006  0.2201362E+02  0.7546771E-02  0.1708017E+00
         21   -1    0    0  504  501  0.00000000000E+00  0.00000000000E+00  0.34545965811E+01  0.34545965811E+01  0.00000000000E+00 0.  1.
         21   -1    0    0  503  502 -0.00000000000E+00 -0.00000000000E+00 -0.51035065077E+03  0.51035065077E+03  0.00000000000E+00 0.  1.
         21    1    1    2  503  501  0.14728718474E+02 -0.16360453194E+02 -0.34682728908E+02  0.41079085446E+02  0.00000000000E+00 0.  1.
         21    1    1    2  504  502 -0.14728718474E+02  0.16360453194E+02 -0.47221332528E+03  0.47272616191E+03  0.00000000000E+00 0.  1.
<mgrwt>
<rscale>  2 0.22013623E+02</rscale>
<asrwt>0</asrwt>
<pdfrwt beam="1">  1       21 0.53147671E-03 0.22013623E+02</pdfrwt>
<pdfrwt beam="2">  1       21 0.78515438E-01 0.22013623E+02</pdfrwt>
<totfact> 0.11751117E+07</totfact>
</mgrwt>
</event>
<event>
 4    1  0.4619222E+006  0.2559352E+02  0.7546771E-02  0.1652620E+00
         21   -1    0    0  504  501  0.00000000000E+00  0.00000000000E+00  0.80665997872E+01  0.80665997872E+01  0.00000000000E+00 0. -1.
         21   -1    0    0  503  502 -0.00000000000E+00 -0.00000000000E+00 -0.83431881092E+02  0.83431881092E+02  0.00000000000E+00 0.  1.
         21    1    1    2  503  501  0.20278547893E+02  0.15614377754E+02 -0.45161016236E+02  0.51909013522E+02  0.00000000000E+00 0.  1.
         21    1    1    2  504  502 -0.20278547893E+02 -0.15614377754E+02 -0.30204265068E+02  0.39589467357E+02  0.00000000000E+00 0. -1.
<mgrwt>
<rscale>  2 0.25593521E+02</rscale>
<asrwt>0</asrwt>
<pdfrwt beam="1">  1       21 0.12410153E-02 0.25593521E+02</pdfrwt>
<pdfrwt beam="2">  1       21 0.12835675E-01 0.25593521E+02</pdfrwt>
<totfact> 0.97867097E+07</totfact>
</mgrwt>
</event>
<event>
 4    1  0.4619222E+006  0.2366048E+02  0.7546771E-02  0.1681022E+00
         21   -1    0    0  504  501  0.00000000000E+00  0.00000000000E+00  0.15847863806E+01  0.15847863806E+01  0.00000000000E+00 0. -1.
         21   -1    0    0  503  502 -0.00000000000E+00 -0.00000000000E+00 -0.51556985992E+03  0.51556985992E+03  0.00000000000E+00 0.  1.
         21    1    1    2  503  501  0.21034921380E+02  0.10832832093E+02 -0.11190205024E+03  0.11437607712E+03  0.00000000000E+00 0. -1.
         21    1    1    2  504  502 -0.21034921380E+02 -0.10832832093E+02 -0.40208302330E+03  0.40277856919E+03  0.00000000000E+00 0.  1.
<mgrwt>
<rscale>  2 0.23660477E+02</rscale>
<asrwt>0</asrwt>
<pdfrwt beam="1">  1       21 0.24381297E-03 0.23660477E+02</pdfrwt>
<pdfrwt beam="2">  1       21 0.79318543E-01 0.23660477E+02</pdfrwt>
<totfact> 0.36485968E+07</totfact>
</mgrwt>
</event>
<event>
 4    1  0.4619222E+006  0.2388147E+02  0.7546771E-02  0.1677608E+00
         21   -1    0    0  503  501  0.00000000000E+00  0.00000000000E+00  0.16388220763E+01  0.16388220763E+01  0.00000000000E+00 0.  1.
         21   -1    0    0  504  502 -0.00000000000E+00 -0.00000000000E+00 -0.73557813035E+03  0.73557813035E+03  0.00000000000E+00 0.  1.
         21    1    1    2  503  502 -0.23776906532E+02  0.22323758643E+01 -0.99406985924E+02  0.10223538349E+03  0.00000000000E+00 0.  1.
         21    1    1    2  504  501  0.23776906532E+02 -0.22323758643E+01 -0.63453232235E+03  0.63498156894E+03  0.00000000000E+00 0.  1.
<mgrwt>
<rscale>  2 0.23881474E+02</rscale>
<asrwt>0</asrwt>
<pdfrwt beam="1">  1       21 0.25212653E-03 0.23881474E+02</pdfrwt>
<pdfrwt beam="2">  1       21 0.11316584E+00 0.23881474E+02</pdfrwt>
<totfact> 0.16109224E+07</totfact>
</mgrwt>
</event>
<event>
 4    1  0.4619222E+006  0.2577835E+02  0.7546771E-02  0.1650067E+00
         21   -1    0    0  502  501  0.00000000000E+00  0.00000000000E+00  0.40020376379E+01  0.40020376379E+01  0.00000000000E+00 0.  1.
         21   -1    0    0  504  502 -0.00000000000E+00 -0.00000000000E+00 -0.24991705044E+03  0.24991705044E+03  0.00000000000E+00 0. -1.
         21    1    1    2  503  501  0.73649332963E+01 -0.24703871915E+02 -0.49409198916E+02  0.55729637246E+02  0.00000000000E+00 0.  1.
         21    1    1    2  504  503 -0.73649332963E+01  0.24703871915E+02 -0.19650581389E+03  0.19818945083E+03  0.00000000000E+00 0. -1.
<mgrwt>
<rscale>  2 0.25778354E+02</rscale>
<asrwt>0</asrwt>
<pdfrwt beam="1">  1       21 0.61569836E-03 0.25778354E+02</pdfrwt>
<pdfrwt beam="2">  1       21 0.38448761E-01 0.25778354E+02</pdfrwt>
<totfact> 0.40044680E+07</totfact>
</mgrwt>
</event>
<event>
 4    1  0.4619222E+006  0.2415078E+02  0.7546771E-02  0.1673508E+00
         21   -1    0    0  504  501  0.00000000000E+00  0.00000000000E+00  0.84650263269E+03  0.84650263269E+03  0.00000000000E+00 0.  1.
         21   -1    0    0  501  502 -0.00000000000E+00 -0.00000000000E+00 -0.58322784254E+01  0.58322784254E+01  0.00000000000E+00 0. -1.
         21    1    1    2  503  502 -0.23903060367E+02  0.34501822804E+01  0.20132314903E+02  0.31441535523E+02  0.00000000000E+00 0. -1.
         21    1    1    2  504  503  0.23903060367E+02 -0.34501822804E+01  0.82053803936E+03  0.82089337559E+03  0.00000000000E+00 0.  1.
<mgrwt>
<rscale>  2 0.24150777E+02</rscale>
<asrwt>0</asrwt>
<pdfrwt beam="1">  1       21 0.13023108E+00 0.24150777E+02</pdfrwt>
<pdfrwt beam="2">  1       21 0.89727428E-03 0.24150777E+02</pdfrwt>
<totfact> 0.18005897E+06</totfact>
</mgrwt>
</event>
<event>
 4    1  0.4619222E+006  0.2049364E+02  0.7546771E-02  0.1735686E+00
         21   -1    0    0  503  501  0.00000000000E+00  0.00000000000E+00  0.30162935836E+03  0.30162935836E+03  0.00000000000E+00 0.  1.
         21   -1    0    0  501  502 -0.00000000000E+00 -0.00000000000E+00 -0.15466821695E+01  0.15466821695E+01  0.00000000000E+00 0.  1.
         21    1    1    2  503  504  0.75244904305E+01  0.19062297164E+02  0.19791760652E+03  0.19897579778E+03  0.00000000000E+00 0.  1.
         21    1    1    2  504  502 -0.75244904305E+01 -0.19062297164E+02  0.10216506967E+03  0.10420024275E+03  0.00000000000E+00 0.  1.
<mgrwt>
<rscale>  2 0.20493636E+02</rscale>
<asrwt>0</asrwt>
<pdfrwt beam="1">  1       21 0.46404470E-01 0.20493636E+02</pdfrwt>
<pdfrwt beam="2">  1       21 0.23795134E-03 0.20493636E+02</pdfrwt>
<totfact> 0.10666886E+08</totfact>
</mgrwt>
</event>
<event>
 4    1  0.4619222E+006  0.2185899E+02  0.7546771E-02  0.1710702E+00
         21   -1    0    0  504  501  0.00000000000E+00  0.00000000000E+00  0.13274850148E+02  0.13274850148E+02  0.00000000000E+00 0. -1.
         21   -1    0    0  503  502 -0.00000000000E+00 -0.00000000000E+00 -0.20614988788E+03  0.20614988788E+03  0.00000000000E+00 0. -1.
         21    1    1    2  503  501  0.21798702118E+02 -0.16223570261E+01 -0.19611280340E+03  0.19732725892E+03  0.00000000000E+00 0. -1.
         21    1    1    2  504  502 -0.21798702118E+02  0.16223570261E+01  0.32377656680E+01  0.22097479106E+02  0.00000000000E+00 0. -1.
<mgrwt>
<rscale>  2 0.21858990E+02</rscale>
<asrwt>0</asrwt>
<pdfrwt beam="1">  1       21 0.20422847E-02 0.21858990E+02</pdfrwt>
<pdfrwt beam="2">  1       21 0.31715366E-01 0.21858990E+02</pdfrwt>
<totfact> 0.90603484E+06</totfact>
</mgrwt>
</event>
<event>
 4    1  0.4619222E+006  0.2127570E+02  0.7546771E-02  0.1721088E+00
         21   -1    0    0  503  501  0.00000000000E+00  0.00000000000E+00  0.20257695155E+01  0.20257695155E+01  0.00000000000E+00 0. -1.
         21   -1    0    0  504  502 -0.00000000000E+00 -0.00000000000E+00 -0.28248633556E+03  0.28248633556E+03  0.00000000000E+00 0. -1.
         21    1    1    2  503  502  0.21251546638E+02 -0.10133999006E+01 -0.20526378574E+03  0.20636345836E+03  0.00000000000E+00 0. -1.
         21    1    1    2  504  501 -0.21251546638E+02  0.10133999006E+01 -0.75196780312E+02  0.78148646714E+02  0.00000000000E+00 0. -1.
<mgrwt>
<rscale>  2 0.21275695E+02</rscale>
<asrwt>0</asrwt>
<pdfrwt beam="1">  1       21 0.31165688E-03 0.21275695E+02</pdfrwt>
<pdfrwt beam="2">  1       21 0.43459432E-01 0.21275695E+02</pdfrwt>
<totfact> 0.82577939E+07</totfact>
</mgrwt>
</event>
<event>
 4    1  0.4619222E+006  0.2189132E+02  0.7546771E-02  0.1710138E+00
         21   -1    0    0  503  501  0.00000000000E+00  0.00000000000E+00  0.13428946968E+03  0.13428946968E+03  0.00000000000E+00 0.  1.
         21   -1    0    0  504  502 -0.00000000000E+00 -0.00000000000E+00 -0.25263942026E+02  0.25263942026E+02  0.00000000000E+00 0.  1.
         21    1    1    2  503  502  0.21449819698E+02  0.43743803262E+01 -0.19415150097E+02  0.29260519845E+02  0.00000000000E+00 0.  1.
         21    1    1    2  504  501 -0.21449819698E+02 -0.43743803262E+01  0.12844067775E+03  0.13029289186E+03  0.00000000000E+00 0.  1.
<mgrwt>
<rscale>  2 0.21891322E+02</rscale>
<asrwt>0</asrwt>
<pdfrwt beam="1">  1       21 0.20659918E-01 0.21891322E+02</pdfrwt>
<pdfrwt beam="2">  1       21 0.38867604E-02 0.21891322E+02</pdfrwt>
<totfact> 0.71780677E+06</totfact>
</mgrwt>
</event>
<event>
 4    1  0.4619222E+006  0.2069884E+02  0.7546771E-02  0.1731778E+00
         21   -1    0    0  504  501  0.00000000000E+00  0.00000000000E+00  0.40082867747E+02  0.40082867747E+02  0.00000000000E+00 0.  1.
         21   -1    0    0  501  502 -0.00000000000E+00 -0.00000000000E+00 -0.22996327373E+02  0.22996327373E+02  0.00000000000E+00 0. -1.
         21    1    1    2  503  502  0.90873958681E+01 -0.18597342446E+02 -0.14530070750E+02  0.25289619723E+02  0.00000000000E+00 0. -1.
         21    1    1    2  504  503 -0.90873958681E+01  0.18597342446E+02  0.31616611125E+02  0.37789575397E+02  0.00000000000E+00 0.  1.
<mgrwt>
<rscale>  2 0.20698838E+02</rscale>
<asrwt>0</asrwt>
<pdfrwt beam="1">  1       21 0.61665950E-02 0.20698838E+02</pdfrwt>
<pdfrwt beam="2">  1       21 0.35378965E-02 0.20698838E+02</pdfrwt>
<totfact> 0.61538701E+07</totfact>
</mgrwt>
</event>
<event>
 4    1  0.4619222E+006  0.2339779E+02  0.7546771E-02  0.1685142E+00
         21   -1    0    0  503  501  0.00000000000E+00  0.00000000000E+00  0.28017824140E+01  0.28017824140E+01  0.00000000000E+00 0.  1.
         21   -1    0    0  504  502 -0.00000000000E+00 -0.00000000000E+00 -0.35422864203E+03  0.35422864203E+03  0.00000000000E+00 0. -1.
         21    1    1    2  503  502  0.23324254814E+02  0.18535694544E+01 -0.56176109866E+02  0.60854021248E+02  0.00000000000E+00 0.  1.
         21    1    1    2  504  501 -0.23324254814E+02 -0.18535694544E+01 -0.29525074975E+03  0.29617640320E+03  0.00000000000E+00 0. -1.
<mgrwt>
<rscale>  2 0.23397790E+02</rscale>
<asrwt>0</asrwt>
<pdfrwt beam="1">  1       21 0.43104351E-03 0.23397790E+02</pdfrwt>
<pdfrwt beam="2">  1       21 0.54496707E-01 0.23397790E+02</pdfrwt>
<totfact> 0.33945538E+07</totfact>
</mgrwt>
</event>
<event>
 4    1  0.4619222E+006  0.2190931E+02  0.7546771E-02  0.1709825E+00
         21   -1    0    0  502  501  0.00000000000E+00  0.00000000000E+00  0.34378254648E+02  0.34378254648E+02  0.00000000000E+00 0.  1.
         21   -1    0    0  503  502 -0.00000000000E+00 -0.00000000000E+00 -0.13997752119E+03  0.13997752119E+03  0.00000000000E+00 0. -1.
         21    1    1    2  503  504 -0.13640268810E+02  0.17145292566E+02 -0.13551529915E+03  0.13727495873E+03  0.00000000000E+00 0. -1.
         21    1    1    2  504  501  0.13640268810E+02 -0.17145292566E+02  0.29916032609E+02  0.37080817108E+02  0.00000000000E+00 0.  1.
<mgrwt>
<rscale>  2 0.21909313E+02</rscale>
<asrwt>0</asrwt>
<pdfrwt beam="1">  1       21 0.52889622E-02 0.21909313E+02</pdfrwt>
<pdfrwt beam="2">  1       21 0.21535003E-01 0.21909313E+02</pdfrwt>
<totfact> 0.41014390E+06</totfact>
</mgrwt>
</event>
<event>
 4    1  0.4619222E+006  0.2196947E+02  0.7546771E-02  0.1708781E+00
         21   -1    0    0  504  501  0.00000000000E+00  0.00000000000E+00  0.24810732687E+02  0.24810732687E+02  0.00000000000E+00 0.  1.
         21   -1    0    0  503  502 -0.00000000000E+00 -0.00000000000E+00 -0.20548002653E+02  0.20548002653E+02  0.00000000000E+00 0.  1.
         21    1    1    2  503  501 -0.12332798183E+02  0.18181299688E+02 -0.31026950529E+01  0.22187480388E+02  0.00000000000E+00 0.  1.
         21    1    1    2  504  502  0.12332798183E+02 -0.18181299688E+02  0.73654250870E+01  0.23171254953E+02  0.00000000000E+00 0.  1.
<mgrwt>
<rscale>  2 0.21969469E+02</rscale>
<asrwt>0</asrwt>
<pdfrwt beam="1">  1       21 0.38170358E-02 0.21969469E+02</pdfrwt>
<pdfrwt beam="2">  1       21 0.31612312E-02 0.21969469E+02</pdfrwt>
<totfact> 0.15964601E+08</totfact>
</mgrwt>
</event>
<event>
 4    1  0.4619222E+006  0.4046064E+02  0.7546771E-02  0.1504849E+00
         21   -1    0    0  503  501  0.00000000000E+00  0.00000000000E+00  0.26566279022E+02  0.26566279022E+02  0.00000000000E+00 0.  1.
         21   -1    0    0  504  502 -0.00000000000E+00 -0.00000000000E+00 -0.15575936677E+03  0.15575936677E+03  0.00000000000E+00 0.  1.
         21    1    1    2  503  502  0.34985093845E+02  0.20325022149E+02 -0.13546811205E+03  0.14138130251E+03  0.00000000000E+00 0.  1.
         21    1    1    2  504  501 -0.34985093845E+02 -0.20325022149E+02  0.62750243044E+01  0.40944343281E+02  0.00000000000E+00 0.  1.
<mgrwt>
<rscale>  2 0.40460639E+02</rscale>
<asrwt>0</asrwt>
<pdfrwt beam="1">  1       21 0.40871198E-02 0.40460639E+02</pdfrwt>
<pdfrwt beam="2">  1       21 0.23962980E-01 0.40460639E+02</pdfrwt>
<totfact> 0.55634639E+06</totfact>
</mgrwt>
</event>
<event>
 4    1  0.4619222E+006  0.2352105E+02  0.7546771E-02  0.1683201E+00
         21   -1    0    0  504  501  0.00000000000E+00  0.00000000000E+00  0.27571257844E+03  0.27571257844E+03  0.00000000000E+00 0.  1.
         21   -1    0    0  501  502 -0.00000000000E+00 -0.00000000000E+00 -0.21769012018E+02  0.21769012018E+02  0.00000000000E+00 0.  1.
         21    1    1    2  503  502 -0.98515474463E+01  0.21358535471E+02 -0.14748139543E+02  0.27762342202E+02  0.00000000000E+00 0.  1.
         21    1    1    2  504  503  0.98515474463E+01 -0.21358535471E+02  0.26869170597E+03  0.26971924826E+03  0.00000000000E+00 0.  1.
<mgrwt>
<rscale>  2 0.23521055E+02</rscale>
<asrwt>0</asrwt>
<pdfrwt beam="1">  1       21 0.42417317E-01 0.23521055E+02</pdfrwt>
<pdfrwt beam="2">  1       21 0.33490790E-02 0.23521055E+02</pdfrwt>
<totfact> 0.24795012E+06</totfact>
</mgrwt>
</event>
<event>
 4    1  0.4619222E+006  0.2603620E+02  0.7546771E-02  0.1646550E+00
         21   -1    0    0  503  501  0.00000000000E+00  0.00000000000E+00  0.30066663853E+02  0.30066663853E+02  0.00000000000E+00 0. -1.
         21   -1    0    0  501  502 -0.00000000000E+00 -0.00000000000E+00 -0.55552220073E+02  0.55552220073E+02  0.00000000000E+00 0. -1.
         21    1    1    2  503  504 -0.19518714602E+01  0.25962929521E+02  0.20255147654E+02  0.32987187180E+02  0.00000000000E+00 0. -1.
         21    1    1    2  504  502  0.19518714602E+01 -0.25962929521E+02 -0.45740703875E+02  0.52631696747E+02  0.00000000000E+00 0. -1.
<mgrwt>
<rscale>  2 0.26036196E+02</rscale>
<asrwt>0</asrwt>
<pdfrwt beam="1">  1       21 0.46256407E-02 0.26036196E+02</pdfrwt>
<pdfrwt beam="2">  1       21 0.85464952E-02 0.26036196E+02</pdfrwt>
<totfact> 0.25114800E+07</totfact>
</mgrwt>
</event>
<event>
 4    1  0.4619222E+006  0.2079383E+02  0.7546771E-02  0.1729987E+00
         21   -1    0    0  503  501  0.00000000000E+00  0.00000000000E+00  0.77426524894E+01  0.77426524894E+01  0.00000000000E+00 0. -1.
         21   -1    0    0  504  502 -0.00000000000E+00 -0.00000000000E+00 -0.41329754342E+03  0.41329754342E+03  0.00000000000E+00 0. -1.
         21    1    1    2  503  502 -0.19531520218E+02  0.71346419595E+01 -0.39855898620E+03  0.39910105096E+03  0.00000000000E+00 0. -1.
         21    1    1    2  504  501  0.19531520218E+02 -0.71346419595E+01 -0.69959047273E+01  0.21939144944E+02  0.00000000000E+00 0. -1.
<mgrwt>
<rscale>  2 0.20793831E+02</rscale>
<asrwt>0</asrwt>
<pdfrwt beam="1">  1       21 0.11911772E-02 0.20793831E+02</pdfrwt>
<pdfrwt beam="2">  1       21 0.63584242E-01 0.20793831E+02</pdfrwt>
<totfact> 0.53888848E+06</totfact>
</mgrwt>
</event>
<event>
 4    1  0.4619222E+006  0.2452371E+02  0.7546771E-02  0.1667939E+00
         21   -1    0    0  503  501  0.00000000000E+00  0.00000000000E+00  0.57624972512E+01  0.57624972512E+01  0.00000000000E+00 0.  1.
         21   -1    0    0  504  502 -0.00000000000E+00 -0.00000000000E+00 -0.15677046540E+03  0.15677046540E+03  0.00000000000E+00 0. -1.
         21    1    1    2  503  502 -0.15101997546E+01  0.24477163750E+02 -0.12248917450E+03  0.12492001489E+03  0.00000000000E+00 0. -1.
         21    1    1    2  504  501  0.15101997546E+01 -0.24477163750E+02 -0.28518793641E+02  0.37612947761E+02  0.00000000000E+00 0.  1.
<mgrwt>
<rscale>  2 0.24523708E+02</rscale>
<asrwt>0</asrwt>
<pdfrwt beam="1">  1       21 0.88653810E-03 0.24523708E+02</pdfrwt>
<pdfrwt beam="2">  1       21 0.24118531E-01 0.24523708E+02</pdfrwt>
<totfact> 0.53919886E+07</totfact>
</mgrwt>
</event>
<event>
 4    1  0.4619222E+006  0.2730762E+02  0.7546771E-02  0.1629910E+00
         21   -1    0    0  502  501  0.00000000000E+00  0.00000000000E+00  0.27820265332E+03  0.27820265332E+03  0.00000000000E+00 0. -1.
         21   -1    0    0  504  502 -0.00000000000E+00 -0.00000000000E+00 -0.34812500729E+01  0.34812500729E+01  0.00000000000E+00 0. -1.
         21    1    1    2  503  501 -0.25865465190E+02  0.87569262181E+01  0.20491121820E+03  0.20672279359E+03  0.00000000000E+00 0. -1.
         21    1    1    2  504  503  0.25865465190E+02 -0.87569262181E+01  0.69810185050E+02  0.74961109804E+02  0.00000000000E+00 0. -1.
<mgrwt>
<rscale>  2 0.27307619E+02</rscale>
<asrwt>0</asrwt>
<pdfrwt beam="1">  1       21 0.42800391E-01 0.27307619E+02</pdfrwt>
<pdfrwt beam="2">  1       21 0.53557715E-03 0.27307619E+02</pdfrwt>
<totfact> 0.40685766E+07</totfact>
</mgrwt>
</event>
<event>
 4    1  0.4619222E+006  0.2039222E+02  0.7546771E-02  0.1737639E+00
         21   -1    0    0  502  501  0.00000000000E+00  0.00000000000E+00  0.11342366284E+02  0.11342366284E+02  0.00000000000E+00 0. -1.
         21   -1    0    0  503  502 -0.00000000000E+00 -0.00000000000E+00 -0.22834193354E+03  0.22834193354E+03  0.00000000000E+00 0. -1.
         21    1    1    2  503  504  0.12665792241E+02 -0.15981877804E+02 -0.21830025199E+03  0.21925063906E+03  0.00000000000E+00 0. -1.
         21    1    1    2  504  501 -0.12665792241E+02  0.15981877804E+02  0.13006847357E+01  0.20433660759E+02  0.00000000000E+00 0. -1.
<mgrwt>
<rscale>  2 0.20392222E+02</rscale>
<asrwt>0</asrwt>
<pdfrwt beam="1">  1       21 0.17449795E-02 0.20392222E+02</pdfrwt>
<pdfrwt beam="2">  1       21 0.35129526E-01 0.20392222E+02</pdfrwt>
<totfact> 0.94255608E+06</totfact>
</mgrwt>
</event>
<event>
 4    1  0.4619222E+006  0.3790507E+02  0.7546771E-02  0.1524219E+00
         21   -1    0    0  503  501  0.00000000000E+00  0.00000000000E+00  0.13955188606E+03  0.13955188606E+03  0.00000000000E+00 0.  1.
         21   -1    0    0  504  502 -0.00000000000E+00 -0.00000000000E+00 -0.24595011043E+02  0.24595011043E+02  0.00000000000E+00 0. -1.
         21    1    1    2  503  502 -0.17628542155E+02  0.33556349715E+02 -0.51015779996E+01  0.38246832585E+02  0.00000000000E+00 0. -1.
         21    1    1    2  504  501  0.17628542155E+02 -0.33556349715E+02  0.12005845301E+03  0.12590006451E+03  0.00000000000E+00 0.  1.
<mgrwt>
<rscale>  2 0.37905067E+02</rscale>
<asrwt>0</asrwt>
<pdfrwt beam="1">  1       21 0.21469520E-01 0.37905067E+02</pdfrwt>
<pdfrwt beam="2">  1       21 0.37838479E-02 0.37905067E+02</pdfrwt>
<totfact> 0.76156195E+06</totfact>
</mgrwt>
</event>
<event>
 4    1  0.4619222E+006  0.2302313E+02  0.7546771E-02  0.1691135E+00
         21   -1    0    0  504  501  0.00000000000E+00  0.00000000000E+00  0.31758734559E+03  0.31758734559E+03  0.00000000000E+00 0. -1.
         21   -1    0    0  501  502 -0.00000000000E+00 -0.00000000000E+00 -0.11792201512E+02  0.11792201512E+02  0.00000000000E+00 0. -1.
         21    1    1    2  503  502  0.22953088027E+02 -0.17945226666E+01  0.30711797290E+00  0.23025179326E+02  0.00000000000E+00 0. -1.
         21    1    1    2  504  503 -0.22953088027E+02  0.17945226666E+01  0.30548802610E+03  0.30635436777E+03  0.00000000000E+00 0. -1.
<mgrwt>
<rscale>  2 0.23023131E+02</rscale>
<asrwt>0</asrwt>
<pdfrwt beam="1">  1       21 0.48859585E-01 0.23023131E+02</pdfrwt>
<pdfrwt beam="2">  1       21 0.18141851E-02 0.23023131E+02</pdfrwt>
<totfact> 0.48641650E+06</totfact>
</mgrwt>
</event>
<event>
 4    1  0.4619222E+006  0.2939473E+02  0.7546771E-02  0.1604877E+00
         21   -1    0    0  503  501  0.00000000000E+00  0.00000000000E+00  0.20812560854E+03  0.20812560854E+03  0.00000000000E+00 0. -1.
         21   -1    0    0  504  502 -0.00000000000E+00 -0.00000000000E+00 -0.59441334964E+01  0.59441334964E+01  0.00000000000E+00 0. -1.
         21    1    1    2  503  502  0.29120409582E+02  0.40064791213E+01  0.15986904369E+03  0.16254895035E+03  0.00000000000E+00 0. -1.
         21    1    1    2  504  501 -0.29120409582E+02 -0.40064791213E+01  0.42312431359E+02  0.51520791693E+02  0.00000000000E+00 0. -1.
<mgrwt>
<rscale>  2 0.29394730E+02</rscale>
<asrwt>0</asrwt>
<pdfrwt beam="1">  1       21 0.32019319E-01 0.29394730E+02</pdfrwt>
<pdfrwt beam="2">  1       21 0.91448224E-03 0.29394730E+02</pdfrwt>
<totfact> 0.32004359E+07</totfact>
</mgrwt>
</event>
<event>
 4    1  0.4619222E+006  0.3356101E+02  0.7546771E-02  0.1561763E+00
         21   -1    0    0  502  501  0.00000000000E+00  0.00000000000E+00  0.94901152022E+00  0.94901152022E+00  0.00000000000E+00 0.  1.
         21   -1    0    0  503  502 -0.00000000000E+00 -0.00000000000E+00 -0.12551201778E+04  0.12551201778E+04  0.00000000000E+00 0.  1.
         21    1    1    2  503  504 -0.23013434103E+02  0.24427914613E+02 -0.77355046523E+03  0.77427815636E+03  0.00000000000E+00 0.  1.
         21    1    1    2  504  501  0.23013434103E+02 -0.24427914613E+02 -0.48062070104E+03  0.48179103295E+03  0.00000000000E+00 0.  1.
<mgrwt>
<rscale>  2 0.33561007E+02</rscale>
<asrwt>0</asrwt>
<pdfrwt beam="1">  1       21 0.14600164E-03 0.33561007E+02</pdfrwt>
<pdfrwt beam="2">  1       21 0.19309558E+00 0.33561007E+02</pdfrwt>
<totfact> 0.10299586E+07</totfact>
</mgrwt>
</event>
<event>
 4    1  0.4619222E+006  0.2421534E+02  0.7546771E-02  0.1672535E+00
         21   -1    0    0  504  501  0.00000000000E+00  0.00000000000E+00  0.21620482758E+02  0.21620482758E+02  0.00000000000E+00 0. -1.
         21   -1    0    0  501  502 -0.00000000000E+00 -0.00000000000E+00 -0.27573497783E+02  0.27573497783E+02  0.00000000000E+00 0. -1.
         21    1    1    2  503  502  0.24113904440E+02 -0.22141163067E+01 -0.61252889441E+01  0.24978027604E+02  0.00000000000E+00 0. -1.
         21    1    1    2  504  503 -0.24113904440E+02  0.22141163067E+01  0.17227391987E+00  0.24215952937E+02  0.00000000000E+00 0. -1.
<mgrwt>
<rscale>  2 0.24215340E+02</rscale>
<asrwt>0</asrwt>
<pdfrwt beam="1">  1       21 0.33262281E-02 0.24215340E+02</pdfrwt>
<pdfrwt beam="2">  1       21 0.42420766E-02 0.24215340E+02</pdfrwt>
<totfact> 0.12857632E+08</totfact>
</mgrwt>
</event>
<event>
 4    1  0.4619222E+006  0.2812806E+02  0.7546771E-02  0.1619753E+00
         21   -1    0    0  503  501  0.00000000000E+00  0.00000000000E+00  0.28489317566E+02  0.28489317566E+02  0.00000000000E+00 0.  1.
         21   -1    0    0  501  502 -0.00000000000E+00 -0.00000000000E+00 -0.74217041045E+02  0.74217041045E+02  0.00000000000E+00 0.  1.
         21    1    1    2  503  504  0.27863017789E+02  0.38522923741E+01  0.17760640354E+02  0.33266022645E+02  0.00000000000E+00 0.  1.
         21    1    1    2  504  502 -0.27863017789E+02 -0.38522923741E+01 -0.63488363833E+02  0.69440335966E+02  0.00000000000E+00 0.  1.
<mgrwt>
<rscale>  2 0.28128063E+02</rscale>
<asrwt>0</asrwt>
<pdfrwt beam="1">  1       21 0.43829719E-02 0.28128063E+02</pdfrwt>
<pdfrwt beam="2">  1       21 0.11418006E-01 0.28128063E+02</pdfrwt>
<totfact> 0.17167304E+07</totfact>
</mgrwt>
</event>
<event>
 4    1  0.4619222E+006  0.2329007E+02  0.7546771E-02  0.1686851E+00
         21   -1    0    0  504  501  0.00000000000E+00  0.00000000000E+00  0.72349604237E+03  0.72349604237E+03  0.00000000000E+00 0. -1.
         21   -1    0    0  503  502 -0.00000000000E+00 -0.00000000000E+00 -0.17699197475E+03  0.17699197475E+03  0.00000000000E+00 0. -1.
         21    1    1    2  503  501  0.18224629392E+02 -0.14501388064E+02 -0.17603735491E+03  0.17757133129E+03  0.00000000000E+00 0. -1.
         21    1    1    2  504  502 -0.18224629392E+02  0.14501388064E+02  0.72254142253E+03  0.72291668582E+03  0.00000000000E+00 0. -1.
<mgrwt>
<rscale>  2 0.23290070E+02</rscale>
<asrwt>0</asrwt>
<pdfrwt beam="1">  1       21 0.11130708E+00 0.23290070E+02</pdfrwt>
<pdfrwt beam="2">  1       21 0.27229535E-01 0.23290070E+02</pdfrwt>
<totfact> 0.10533553E+04</totfact>
</mgrwt>
</event>
<event>
 4    1  0.4619222E+006  0.3300591E+02  0.7546771E-02  0.1567057E+00
         21   -1    0    0  504  501  0.00000000000E+00  0.00000000000E+00  0.53076945546E+02  0.53076945546E+02  0.00000000000E+00 0. -1.
         21   -1    0    0  503  502 -0.00000000000E+00 -0.00000000000E+00 -0.24881034422E+02  0.24881034422E+02  0.00000000000E+00 0. -1.
         21    1    1    2  503  501 -0.25932984089E+02  0.20417400380E+02 -0.22121039638E+01  0.33079953234E+02  0.00000000000E+00 0. -1.
         21    1    1    2  504  502  0.25932984089E+02 -0.20417400380E+02  0.30408015088E+02  0.44878026735E+02  0.00000000000E+00 0. -1.
<mgrwt>
<rscale>  2 0.33005907E+02</rscale>
<asrwt>0</asrwt>
<pdfrwt beam="1">  1       21 0.81656839E-02 0.33005907E+02</pdfrwt>
<pdfrwt beam="2">  1       21 0.38278515E-02 0.33005907E+02</pdfrwt>
<totfact> 0.38465201E+07</totfact>
</mgrwt>
</event>
<event>
 4    1  0.4619222E+006  0.2209440E+02  0.7546771E-02  0.1706625E+00
         21   -1    0    0  503  501  0.00000000000E+00  0.00000000000E+00  0.64458090085E+01  0.64458090085E+01  0.00000000000E+00 0.  1.
         21   -1    0    0  504  502 -0.00000000000E+00 -0.00000000000E+00 -0.11240983726E+03  0.11240983726E+03  0.00000000000E+00 0.  1.
         21    1    1    2  503  502  0.18715140892E+02  0.11743333572E+02 -0.86927484468E+02  0.89691415074E+02  0.00000000000E+00 0.  1.
         21    1    1    2  504  501 -0.18715140892E+02 -0.11743333572E+02 -0.19036543783E+02  0.29164231195E+02  0.00000000000E+00 0.  1.
<mgrwt>
<rscale>  2 0.22094397E+02</rscale>
<asrwt>0</asrwt>
<pdfrwt beam="1">  1       21 0.99166289E-03 0.22094397E+02</pdfrwt>
<pdfrwt beam="2">  1       21 0.17293822E-01 0.22094397E+02</pdfrwt>
<totfact> 0.79380099E+07</totfact>
</mgrwt>
</event>
<event>
 4    1  0.4619222E+006  0.2822678E+02  0.7546771E-02  0.1618559E+00
         21   -1    0    0  504  501  0.00000000000E+00  0.00000000000E+00  0.25195323648E+02  0.25195323648E+02  0.00000000000E+00 0. -1.
         21   -1    0    0  503  502 -0.00000000000E+00 -0.00000000000E+00 -0.63319496930E+02  0.63319496930E+02  0.00000000000E+00 0. -1.
         21    1    1    2  503  501  0.21211824786E+02  0.18622823760E+02  0.12250798032E+02  0.30770653682E+02  0.00000000000E+00 0. -1.
         21    1    1    2  504  502 -0.21211824786E+02 -0.18622823760E+02 -0.50374971314E+02  0.57744166896E+02  0.00000000000E+00 0. -1.
<mgrwt>
<rscale>  2 0.28226779E+02</rscale>
<asrwt>0</asrwt>
<pdfrwt beam="1">  1       21 0.38762037E-02 0.28226779E+02</pdfrwt>
<pdfrwt beam="2">  1       21 0.97414610E-02 0.28226779E+02</pdfrwt>
<totfact> 0.27244856E+07</totfact>
</mgrwt>
</event>
<event>
 4    1  0.4619222E+006  0.2108859E+02  0.7546771E-02  0.1724508E+00
         21   -1    0    0  502  501  0.00000000000E+00  0.00000000000E+00  0.28849833333E+03  0.28849833333E+03  0.00000000000E+00 0.  1.
         21   -1    0    0  504  502 -0.00000000000E+00 -0.00000000000E+00 -0.62261071126E+01  0.62261071126E+01  0.00000000000E+00 0. -1.
         21    1    1    2  503  501  0.16053653818E+02  0.13675119382E+02  0.26896031259E+03  0.26978580103E+03  0.00000000000E+00 0.  1.
         21    1    1    2  504  503 -0.16053653818E+02 -0.13675119382E+02  0.13311913624E+02  0.24938639405E+02  0.00000000000E+00 0. -1.
<mgrwt>
<rscale>  2 0.21088591E+02</rscale>
<asrwt>0</asrwt>
<pdfrwt beam="1">  1       21 0.44384349E-01 0.21088591E+02</pdfrwt>
<pdfrwt beam="2">  1       21 0.95786285E-03 0.21088591E+02</pdfrwt>
<totfact> 0.15124713E+07</totfact>
</mgrwt>
</event>
<event>
 4    1  0.4619222E+006  0.2502216E+02  0.7546771E-02  0.1660684E+00
         21   -1    0    0  503  501  0.00000000000E+00  0.00000000000E+00  0.88057916594E+03  0.88057916594E+03  0.00000000000E+00 0. -1.
         21   -1    0    0  501  502 -0.00000000000E+00 -0.00000000000E+00 -0.19079180294E+01  0.19079180294E+01  0.00000000000E+00 0. -1.
         21    1    1    2  503  504 -0.36028012691E+01  0.24761432261E+02  0.78881956546E+03  0.78921633001E+03  0.00000000000E+00 0. -1.
         21    1    1    2  504  502  0.36028012691E+01 -0.24761432261E+02  0.89851682446E+02  0.93270753953E+02  0.00000000000E+00 0. -1.
<mgrwt>
<rscale>  2 0.25022164E+02</rscale>
<asrwt>0</asrwt>
<pdfrwt beam="1">  1       21 0.13547339E+00 0.25022164E+02</pdfrwt>
<pdfrwt beam="2">  1       21 0.29352655E-03 0.25022164E+02</pdfrwt>
<totfact> 0.86187475E+06</totfact>
</mgrwt>
</event>
<event>
 4    1  0.4619222E+006  0.2409714E+02  0.7546771E-02  0.1674319E+00
         21   -1    0    0  503  501  0.00000000000E+00  0.00000000000E+00  0.63960041086E+02  0.63960041086E+02  0.00000000000E+00 0. -1.
         21   -1    0    0  501  502 -0.00000000000E+00 -0.00000000000E+00 -0.11262025619E+03  0.11262025619E+03  0.00000000000E+00 0.  1.
         21    1    1    2  503  504  0.17120801108E+02 -0.16957305396E+02  0.60326605394E+02  0.64961306601E+02  0.00000000000E+00 0. -1.
         21    1    1    2  504  502 -0.17120801108E+02  0.16957305396E+02 -0.10898682050E+03  0.11161899067E+03  0.00000000000E+00 0.  1.
<mgrwt>
<rscale>  2 0.24097138E+02</rscale>
<asrwt>0</asrwt>
<pdfrwt beam="1">  1       21 0.98400064E-02 0.24097138E+02</pdfrwt>
<pdfrwt beam="2">  1       21 0.17326193E-01 0.24097138E+02</pdfrwt>
<totfact> 0.22163324E+06</totfact>
</mgrwt>
</event>
<event>
 4    1  0.4619222E+006  0.2055977E+02  0.7546771E-02  0.1734420E+00
         21   -1    0    0  503  501  0.00000000000E+00  0.00000000000E+00  0.15977442061E+01  0.15977442061E+01  0.00000000000E+00 0. -1.
         21   -1    0    0  504  502 -0.00000000000E+00 -0.00000000000E+00 -0.50825297323E+03  0.50825297323E+03  0.00000000000E+00 0. -1.
         21    1    1    2  503  502  0.31176641809E+01  0.20322013195E+02 -0.76808444200E+02  0.79512521974E+02  0.00000000000E+00 0. -1.
         21    1    1    2  504  501 -0.31176641809E+01 -0.20322013195E+02 -0.42984678482E+03  0.43033819546E+03  0.00000000000E+00 0. -1.
<mgrwt>
<rscale>  2 0.20559768E+02</rscale>
<asrwt>0</asrwt>
<pdfrwt beam="1">  1       21 0.24580673E-03 0.20559768E+02</pdfrwt>
<pdfrwt beam="2">  1       21 0.78192789E-01 0.20559768E+02</pdfrwt>
<totfact> 0.36024196E+07</totfact>
</mgrwt>
</event>
<event>
 4    1  0.4619222E+006  0.2606236E+02  0.7546771E-02  0.1646196E+00
         21   -1    0    0  502  501  0.00000000000E+00  0.00000000000E+00  0.23710707084E+02  0.23710707084E+02  0.00000000000E+00 0.  1.
         21   -1    0    0  504  502 -0.00000000000E+00 -0.00000000000E+00 -0.10365056053E+03  0.10365056053E+03  0.00000000000E+00 0.  1.
         21    1    1    2  503  501  0.20170321195E+02  0.16504689033E+02  0.14200437842E+02  0.29679943600E+02  0.00000000000E+00 0.  1.
         21    1    1    2  504  503 -0.20170321195E+02 -0.16504689033E+02 -0.94140291285E+02  0.97681324010E+02  0.00000000000E+00 0.  1.
<mgrwt>
<rscale>  2 0.26062360E+02</rscale>
<asrwt>0</asrwt>
<pdfrwt beam="1">  1       21 0.36478011E-02 0.26062360E+02</pdfrwt>
<pdfrwt beam="2">  1       21 0.15946240E-01 0.26062360E+02</pdfrwt>
<totfact> 0.12829218E+07</totfact>
</mgrwt>
</event>
<event>
 4    1  0.4619222E+006  0.2612776E+02  0.7546771E-02  0.1645313E+00
         21   -1    0    0  503  501  0.00000000000E+00  0.00000000000E+00  0.27891945152E+03  0.27891945152E+03  0.00000000000E+00 0. -1.
         21   -1    0    0  501  502 -0.00000000000E+00 -0.00000000000E+00 -0.13556032193E+02  0.13556032193E+02  0.00000000000E+00 0.  1.
         21    1    1    2  503  504  0.25224926371E+02  0.68090315504E+01  0.26506135178E+03  0.26634597806E+03  0.00000000000E+00 0. -1.
         21    1    1    2  504  502 -0.25224926371E+02 -0.68090315504E+01  0.30206755032E+00  0.26129505657E+02  0.00000000000E+00 0.  1.
<mgrwt>
<rscale>  2 0.26127760E+02</rscale>
<asrwt>0</asrwt>
<pdfrwt beam="1">  1       21 0.42910681E-01 0.26127760E+02</pdfrwt>
<pdfrwt beam="2">  1       21 0.20855436E-02 0.26127760E+02</pdfrwt>
<totfact> 0.51362763E+06</totfact>
</mgrwt>
</event>
<event>
 4    1  0.4619222E+006  0.3265770E+02  0.7546771E-02  0.1570442E+00
         21   -1    0    0  503  501  0.00000000000E+00  0.00000000000E+00  0.20620794204E+02  0.20620794204E+02  0.00000000000E+00 0. -1.
         21   -1    0    0  504  502 -0.00000000000E+00 -0.00000000000E+00 -0.51742866121E+02  0.51742866121E+02  0.00000000000E+00 0. -1.
         21    1    1    2  503  502  0.15028780764E+02 -0.28994155681E+02 -0.14814953429E+02  0.35860955927E+02  0.00000000000E+00 0. -1.
         21    1    1    2  504  501 -0.15028780764E+02  0.28994155681E+02 -0.16307118488E+02  0.36502704397E+02  0.00000000000E+00 0. -1.
<mgrwt>
<rscale>  2 0.32657699E+02</rscale>
<asrwt>0</asrwt>
<pdfrwt beam="1">  1       21 0.31724299E-02 0.32657699E+02</pdfrwt>
<pdfrwt beam="2">  1       21 0.79604409E-02 0.32657699E+02</pdfrwt>
<totfact> 0.53933879E+07</totfact>
</mgrwt>
</event>
<event>
 4    1  0.4619222E+006  0.2168354E+02  0.7546771E-02  0.1713783E+00
         21   -1    0    0  502  501  0.00000000000E+00  0.00000000000E+00  0.29949468290E+02  0.29949468290E+02  0.00000000000E+00 0. -1.
         21   -1    0    0  503  502 -0.00000000000E+00 -0.00000000000E+00 -0.55116293760E+02  0.55116293760E+02  0.00000000000E+00 0. -1.
         21    1    1    2  503  504  0.13589767090E+02 -0.16896565739E+02 -0.48552414402E+02  0.53174360811E+02  0.00000000000E+00 0. -1.
         21    1    1    2  504  501 -0.13589767090E+02  0.16896565739E+02  0.23385588932E+02  0.31891401240E+02  0.00000000000E+00 0. -1.
<mgrwt>
<rscale>  2 0.21683535E+02</rscale>
<asrwt>0</asrwt>
<pdfrwt beam="1">  1       21 0.46076105E-02 0.21683535E+02</pdfrwt>
<pdfrwt beam="2">  1       21 0.84794298E-02 0.21683535E+02</pdfrwt>
<totfact> 0.24565346E+07</totfact>
</mgrwt>
</event>
<event>
 4    1  0.4619222E+006  0.4011183E+02  0.7546771E-02  0.1507390E+00
         21   -1    0    0  502  501  0.00000000000E+00  0.00000000000E+00  0.37636299980E+03  0.37636299980E+03  0.00000000000E+00 0.  1.
         21   -1    0    0  503  502 -0.00000000000E+00 -0.00000000000E+00 -0.53655453511E+01  0.53655453511E+01  0.00000000000E+00 0.  1.
         21    1    1    2  503  504  0.56664862594E+01 -0.39709570491E+02  0.99451724683E+02  0.10723620936E+03  0.00000000000E+00 0.  1.
         21    1    1    2  504  501 -0.56664862594E+01  0.39709570491E+02  0.27154572977E+03  0.27449233580E+03  0.00000000000E+00 0.  1.
<mgrwt>
<rscale>  2 0.40111832E+02</rscale>
<asrwt>0</asrwt>
<pdfrwt beam="1">  1       21 0.57901979E-01 0.40111832E+02</pdfrwt>
<pdfrwt beam="2">  1       21 0.82546881E-03 0.40111832E+02</pdfrwt>
<totfact> 0.12478642E+07</totfact>
</mgrwt>
</event>
<event>
 4    1  0.4619222E+006  0.2066650E+02  0.7546771E-02  0.1732390E+00
         21   -1    0    0  503  501  0.00000000000E+00  0.00000000000E+00  0.54805395762E+01  0.54805395762E+01  0.00000000000E+00 0. -1.
         21   -1    0    0  504  502 -0.00000000000E+00 -0.00000000000E+00 -0.78144342955E+02  0.78144342955E+02  0.00000000000E+00 0. -1.
         21    1    1    2  503  502  0.62642778126E+00 -0.20657007554E+02 -0.38516208264E+02  0.43710441222E+02  0.00000000000E+00 0. -1.
         21    1    1    2  504  501 -0.62642778126E+00  0.20657007554E+02 -0.34147595115E+02  0.39914441309E+02  0.00000000000E+00 0. -1.
<mgrwt>
<rscale>  2 0.20666504E+02</rscale>
<asrwt>0</asrwt>
<pdfrwt beam="1">  1       21 0.84315996E-03 0.20666504E+02</pdfrwt>
<pdfrwt beam="2">  1       21 0.12022206E-01 0.20666504E+02</pdfrwt>
<totfact> 0.18354243E+08</totfact>
</mgrwt>
</event>
<event>
 4    1  0.4619222E+006  0.2478731E+02  0.7546771E-02  0.1664076E+00
         21   -1    0    0  503  501  0.00000000000E+00  0.00000000000E+00  0.26826749423E+02  0.26826749423E+02  0.00000000000E+00 0. -1.
         21   -1    0    0  501  502 -0.00000000000E+00 -0.00000000000E+00 -0.10191394625E+03  0.10191394625E+03  0.00000000000E+00 0. -1.
         21    1    1    2  503  504  0.24083291657E+02  0.58656393018E+01  0.19134193462E+02  0.31313384054E+02  0.00000000000E+00 0. -1.
         21    1    1    2  504  502 -0.24083291657E+02 -0.58656393018E+01 -0.94221390288E+02  0.97427311618E+02  0.00000000000E+00 0. -1.
<mgrwt>
<rscale>  2 0.24787308E+02</rscale>
<asrwt>0</asrwt>
<pdfrwt beam="1">  1       21 0.41271923E-02 0.24787308E+02</pdfrwt>
<pdfrwt beam="2">  1       21 0.15679069E-01 0.24787308E+02</pdfrwt>
<totfact> 0.10768378E+07</totfact>
</mgrwt>
</event>
<event>
 4    1  0.4619222E+006  0.2432371E+02  0.7546771E-02  0.1670910E+00
         21   -1    0    0  504  501  0.00000000000E+00  0.00000000000E+00  0.11906827443E+03  0.11906827443E+03  0.00000000000E+00 0.  1.
         21   -1    0    0  503  502 -0.00000000000E+00 -0.00000000000E+00 -0.11898337946E+02  0.11898337946E+02  0.00000000000E+00 0.  1.
         21    1    1    2  503  501 -0.17871554610E+02 -0.16500016441E+02  0.36119906189E+01  0.24590434786E+02  0.00000000000E+00 0.  1.
         21    1    1    2  504  502  0.17871554610E+02  0.16500016441E+02  0.10355794587E+03  0.10637617759E+03  0.00000000000E+00 0.  1.
<mgrwt>
<rscale>  2 0.24323713E+02</rscale>
<asrwt>0</asrwt>
<pdfrwt beam="1">  1       21 0.18318195E-01 0.24323713E+02</pdfrwt>
<pdfrwt beam="2">  1       21 0.18305136E-02 0.24323713E+02</pdfrwt>
<totfact> 0.29078370E+07</totfact>
</mgrwt>
</event>
<event>
 4    1  0.4619222E+006  0.2198100E+02  0.7546771E-02  0.1708581E+00
         21   -1    0    0  504  501  0.00000000000E+00  0.00000000000E+00  0.33599691146E+02  0.33599691146E+02  0.00000000000E+00 0.  1.
         21   -1    0    0  503  502 -0.00000000000E+00 -0.00000000000E+00 -0.32994039772E+02  0.32994039772E+02  0.00000000000E+00 0. -1.
         21    1    1    2  503  501  0.21122552358E+01 -0.21879279496E+02  0.25312359634E+02  0.33524320182E+02  0.00000000000E+00 0.  1.
         21    1    1    2  504  502 -0.21122552358E+01  0.21879279496E+02 -0.24706708260E+02  0.33069410737E+02  0.00000000000E+00 0. -1.
<mgrwt>
<rscale>  2 0.21981003E+02</rscale>
<asrwt>0</asrwt>
<pdfrwt beam="1">  1       21 0.51691833E-02 0.21981003E+02</pdfrwt>
<pdfrwt beam="2">  1       21 0.50760061E-02 0.21981003E+02</pdfrwt>
<totfact> 0.46934511E+07</totfact>
</mgrwt>
</event>
<event>
 4    1  0.4619222E+006  0.2324952E+02  0.7546771E-02  0.1687497E+00
         21   -1    0    0  503  501  0.00000000000E+00  0.00000000000E+00  0.21576307552E+02  0.21576307552E+02  0.00000000000E+00 0.  1.
         21   -1    0    0  504  502 -0.00000000000E+00 -0.00000000000E+00 -0.30705471564E+03  0.30705471564E+03  0.00000000000E+00 0.  1.
         21    1    1    2  503  502 -0.55081445794E+01 -0.22587614827E+02 -0.30020888721E+03  0.30110781452E+03  0.00000000000E+00 0.  1.
         21    1    1    2  504  501  0.55081445794E+01  0.22587614827E+02  0.14730479130E+02  0.27523208673E+02  0.00000000000E+00 0.  1.
<mgrwt>
<rscale>  2 0.23249516E+02</rscale>
<asrwt>0</asrwt>
<pdfrwt beam="1">  1       21 0.33194320E-02 0.23249516E+02</pdfrwt>
<pdfrwt beam="2">  1       21 0.47239185E-01 0.23249516E+02</pdfrwt>
<totfact> 0.20428309E+06</totfact>
</mgrwt>
</event>
<event>
 4    1  0.4619222E+006  0.2464468E+02  0.7546771E-02  0.1666159E+00
         21   -1    0    0  504  501  0.00000000000E+00  0.00000000000E+00  0.34580126614E+02  0.34580126614E+02  0.00000000000E+00 0.  1.
         21   -1    0    0  503  502 -0.00000000000E+00 -0.00000000000E+00 -0.18957054395E+03  0.18957054395E+03  0.00000000000E+00 0. -1.
         21    1    1    2  503  501 -0.68551538529E+01 -0.23672071218E+02  0.29262020996E+02  0.38257364819E+02  0.00000000000E+00 0.  1.
         21    1    1    2  504  502  0.68551538529E+01  0.23672071218E+02 -0.18425243834E+03  0.18589330575E+03  0.00000000000E+00 0. -1.
<mgrwt>
<rscale>  2 0.24644677E+02</rscale>
<asrwt>0</asrwt>
<pdfrwt beam="1">  1       21 0.53200195E-02 0.24644677E+02</pdfrwt>
<pdfrwt beam="2">  1       21 0.29164699E-01 0.24644677E+02</pdfrwt>
<totfact> 0.24051601E+06</totfact>
</mgrwt>
</event>
<event>
 4    1  0.4619222E+006  0.2112057E+02  0.7546771E-02  0.1723921E+00
         21   -1    0    0  504  501  0.00000000000E+00  0.00000000000E+00  0.61998833716E+02  0.61998833716E+02  0.00000000000E+00 0.  1.
         21   -1    0    0  501  502 -0.00000000000E+00 -0.00000000000E+00 -0.31206381846E+02  0.31206381846E+02  0.00000000000E+00 0. -1.
         21    1    1    2  503  502 -0.17642548970E+02  0.11611155426E+02 -0.25482518303E+02  0.33097389679E+02  0.00000000000E+00 0. -1.
         21    1    1    2  504  503  0.17642548970E+02 -0.11611155426E+02  0.56274970172E+02  0.60107825883E+02  0.00000000000E+00 0.  1.
<mgrwt>
<rscale>  2 0.21120570E+02</rscale>
<asrwt>0</asrwt>
<pdfrwt beam="1">  1       21 0.95382821E-02 0.21120570E+02</pdfrwt>
<pdfrwt beam="2">  1       21 0.48009818E-02 0.21120570E+02</pdfrwt>
<totfact> 0.18867796E+07</totfact>
</mgrwt>
</event>
<event>
 4    1  0.4619222E+006  0.2125143E+02  0.7546771E-02  0.1721529E+00
         21   -1    0    0  502  501  0.00000000000E+00  0.00000000000E+00  0.11610854530E+03  0.11610854530E+03  0.00000000000E+00 0.  1.
         21   -1    0    0  503  502 -0.00000000000E+00 -0.00000000000E+00 -0.90911976545E+01  0.90911976545E+01  0.00000000000E+00 0. -1.
         21    1    1    2  503  504 -0.20271841005E+02 -0.63777664674E+01  0.61577429778E+01  0.22125578895E+02  0.00000000000E+00 0. -1.
         21    1    1    2  504  501  0.20271841005E+02  0.63777664674E+01  0.10085960466E+03  0.10307416406E+03  0.00000000000E+00 0.  1.
<mgrwt>
<rscale>  2 0.21251434E+02</rscale>
<asrwt>0</asrwt>
<pdfrwt beam="1">  1       21 0.17862852E-01 0.21251434E+02</pdfrwt>
<pdfrwt beam="2">  1       21 0.13986459E-02 0.21251434E+02</pdfrwt>
<totfact> 0.44279074E+07</totfact>
</mgrwt>
</event>
<event>
 4    1  0.4619222E+006  0.2079011E+02  0.7546771E-02  0.1730057E+00
         21   -1    0    0  504  501  0.00000000000E+00  0.00000000000E+00  0.30734082220E+02  0.30734082220E+02  0.00000000000E+00 0. -1.
         21   -1    0    0  503  502 -0.00000000000E+00 -0.00000000000E+00 -0.15202915908E+02  0.15202915908E+02  0.00000000000E+00 0.  1.
         21    1    1    2  503  501  0.18576402914E+02  0.93352001177E+01  0.14053556235E+02  0.25094444590E+02  0.00000000000E+00 0. -1.
         21    1    1    2  504  502 -0.18576402914E+02 -0.93352001177E+01  0.14776100776E+01  0.20842553538E+02  0.00000000000E+00 0.  1.
<mgrwt>
<rscale>  2 0.20790111E+02</rscale>
<asrwt>0</asrwt>
<pdfrwt beam="1">  1       21 0.47283203E-02 0.20790111E+02</pdfrwt>
<pdfrwt beam="2">  1       21 0.23389101E-02 0.20790111E+02</pdfrwt>
<totfact> 0.17847371E+08</totfact>
</mgrwt>
</event>
<event>
 4    1  0.4619222E+006  0.2198973E+02  0.7546771E-02  0.1708430E+00
         21   -1    0    0  504  501  0.00000000000E+00  0.00000000000E+00  0.51038294329E+03  0.51038294329E+03  0.00000000000E+00 0. -1.
         21   -1    0    0  503  502 -0.00000000000E+00 -0.00000000000E+00 -0.25107769217E+01  0.25107769217E+01  0.00000000000E+00 0. -1.
         21    1    1    2  503  501 -0.56099557281E+01  0.21262094845E+02  0.45629486023E+03  0.45682441676E+03  0.00000000000E+00 0. -1.
         21    1    1    2  504  502  0.56099557281E+01 -0.21262094845E+02  0.51577306136E+02  0.56069303444E+02  0.00000000000E+00 0. -1.
<mgrwt>
<rscale>  2 0.21989731E+02</rscale>
<asrwt>0</asrwt>
<pdfrwt beam="1">  1       21 0.78520371E-01 0.21989731E+02</pdfrwt>
<pdfrwt beam="2">  1       21 0.38627378E-03 0.21989731E+02</pdfrwt>
<totfact> 0.18773267E+07</totfact>
</mgrwt>
</event>
<event>
 4    1  0.4619222E+006  0.2246430E+02  0.7546771E-02  0.1700344E+00
         21   -1    0    0  503  501  0.00000000000E+00  0.00000000000E+00  0.68937978494E+03  0.68937978494E+03  0.00000000000E+00 0. -1.
         21   -1    0    0  504  502 -0.00000000000E+00 -0.00000000000E+00 -0.32800780798E+02  0.32800780798E+02  0.00000000000E+00 0.  1.
         21    1    1    2  503  502 -0.19629188475E+02 -0.10924275996E+02 -0.28748751898E+02  0.36484730805E+02  0.00000000000E+00 0.  1.
         21    1    1    2  504  501  0.19629188475E+02  0.10924275996E+02  0.68532775604E+03  0.68569583493E+03  0.00000000000E+00 0. -1.
<mgrwt>
<rscale>  2 0.22464302E+02</rscale>
<asrwt>0</asrwt>
<pdfrwt beam="1">  1       21 0.10605842E+00 0.22464302E+02</pdfrwt>
<pdfrwt beam="2">  1       21 0.50462745E-02 0.22464302E+02</pdfrwt>
<totfact> 0.19915824E+05</totfact>
</mgrwt>
</event>
<event>
 4    1  0.4619222E+006  0.3203211E+02  0.7546771E-02  0.1576655E+00
         21   -1    0    0  503  501  0.00000000000E+00  0.00000000000E+00  0.53274222757E+02  0.53274222757E+02  0.00000000000E+00 0.  1.
         21   -1    0    0  501  502 -0.00000000000E+00 -0.00000000000E+00 -0.32117761712E+03  0.32117761712E+03  0.00000000000E+00 0.  1.
         21    1    1    2  503  504 -0.31094352653E+02 -0.76939658416E+01  0.47573802645E+02  0.57352616116E+02  0.00000000000E+00 0.  1.
         21    1    1    2  504  502  0.31094352653E+02  0.76939658416E+01 -0.31547719700E+03  0.31709922376E+03  0.00000000000E+00 0.  1.
<mgrwt>
<rscale>  2 0.32032107E+02</rscale>
<asrwt>0</asrwt>
<pdfrwt beam="1">  1       21 0.81960344E-02 0.32032107E+02</pdfrwt>
<pdfrwt beam="2">  1       21 0.49411941E-01 0.32032107E+02</pdfrwt>
<totfact> 0.44885270E+05</totfact>
</mgrwt>
</event>
<event>
 4    1  0.4619222E+006  0.2144992E+02  0.7546771E-02  0.1717943E+00
         21   -1    0    0  503  501  0.00000000000E+00  0.00000000000E+00  0.14235107604E+02  0.14235107604E+02  0.00000000000E+00 0.  1.
         21   -1    0    0  504  502 -0.00000000000E+00 -0.00000000000E+00 -0.43843723071E+03  0.43843723071E+03  0.00000000000E+00 0. -1.
         21    1    1    2  503  502  0.19465663317E+02  0.90103919117E+01  0.57326969195E+01  0.22202770655E+02  0.00000000000E+00 0.  1.
         21    1    1    2  504  501 -0.19465663317E+02 -0.90103919117E+01 -0.42993482002E+03  0.43046956766E+03  0.00000000000E+00 0. -1.
<mgrwt>
<rscale>  2 0.21449923E+02</rscale>
<asrwt>0</asrwt>
<pdfrwt beam="1">  1       21 0.21900165E-02 0.21449923E+02</pdfrwt>
<pdfrwt beam="2">  1       21 0.67451883E-01 0.21449923E+02</pdfrwt>
<totfact> 0.19047823E+06</totfact>
</mgrwt>
</event>
<event>
 4    1  0.4619222E+006  0.2536732E+02  0.7546771E-02  0.1655781E+00
         21   -1    0    0  503  501  0.00000000000E+00  0.00000000000E+00  0.28368427624E+02  0.28368427624E+02  0.00000000000E+00 0. -1.
         21   -1    0    0  504  502 -0.00000000000E+00 -0.00000000000E+00 -0.44416595830E+02  0.44416595830E+02  0.00000000000E+00 0. -1.
         21    1    1    2  503  502  0.19744423144E+02  0.15926658458E+02  0.17432390981E+02  0.30779684051E+02  0.00000000000E+00 0. -1.
         21    1    1    2  504  501 -0.19744423144E+02 -0.15926658458E+02 -0.33480559186E+02  0.42005339403E+02  0.00000000000E+00 0. -1.
<mgrwt>
<rscale>  2 0.25367315E+02</rscale>
<asrwt>0</asrwt>
<pdfrwt beam="1">  1       21 0.43643735E-02 0.25367315E+02</pdfrwt>
<pdfrwt beam="2">  1       21 0.68333224E-02 0.25367315E+02</pdfrwt>
<totfact> 0.39485578E+07</totfact>
</mgrwt>
</event>
<event>
 4    1  0.4619222E+006  0.2107533E+02  0.7546771E-02  0.1724752E+00
         21   -1    0    0  503  501  0.00000000000E+00  0.00000000000E+00  0.24591039055E+02  0.24591039055E+02  0.00000000000E+00 0. -1.
         21   -1    0    0  504  502 -0.00000000000E+00 -0.00000000000E+00 -0.47402281079E+02  0.47402281079E+02  0.00000000000E+00 0.  1.
         21    1    1    2  503  502  0.77539186383E+01 -0.19597099016E+02  0.16914353378E+02  0.27023413817E+02  0.00000000000E+00 0. -1.
         21    1    1    2  504  501 -0.77539186383E+01  0.19597099016E+02 -0.39725595402E+02  0.44969906317E+02  0.00000000000E+00 0.  1.
<mgrwt>
<rscale>  2 0.21075330E+02</rscale>
<asrwt>0</asrwt>
<pdfrwt beam="1">  1       21 0.37832368E-02 0.21075330E+02</pdfrwt>
<pdfrwt beam="2">  1       21 0.72926585E-02 0.21075330E+02</pdfrwt>
<totfact> 0.42507539E+07</totfact>
</mgrwt>
</event>
<event>
 4    1  0.4619222E+006  0.2144939E+02  0.7546771E-02  0.1717952E+00
         21   -1    0    0  504  501  0.00000000000E+00  0.00000000000E+00  0.22831087456E+02  0.22831087456E+02  0.00000000000E+00 0.  1.
         21   -1    0    0  503  502 -0.00000000000E+00 -0.00000000000E+00 -0.29028470681E+02  0.29028470681E+02  0.00000000000E+00 0. -1.
         21    1    1    2  503  501  0.15839068641E+02  0.14463761793E+02  0.11240464276E+02  0.24216204033E+02  0.00000000000E+00 0.  1.
         21    1    1    2  504  502 -0.15839068641E+02 -0.14463761793E+02 -0.17437847501E+02  0.27643354104E+02  0.00000000000E+00 0. -1.
<mgrwt>
<rscale>  2 0.21449394E+02</rscale>
<asrwt>0</asrwt>
<pdfrwt beam="1">  1       21 0.35124750E-02 0.21449394E+02</pdfrwt>
<pdfrwt beam="2">  1       21 0.44659186E-02 0.21449394E+02</pdfrwt>
<totfact> 0.10501920E+08</totfact>
</mgrwt>
</event>
<event>
 4    1  0.4619222E+006  0.5717896E+02  0.7546771E-02  0.1410067E+00
         21   -1    0    0  503  501  0.00000000000E+00  0.00000000000E+00  0.13399332483E+02  0.13399332483E+02  0.00000000000E+00 0.  1.
         21   -1    0    0  504  502 -0.00000000000E+00 -0.00000000000E+00 -0.24399978169E+03  0.24399978169E+03  0.00000000000E+00 0. -1.
         21    1    1    2  503  502 -0.55192929868E+02  0.14938991877E+02 -0.11522176532E+03  0.12862926646E+03  0.00000000000E+00 0. -1.
         21    1    1    2  504  501  0.55192929868E+02 -0.14938991877E+02 -0.11537868389E+03  0.12876984772E+03  0.00000000000E+00 0.  1.
<mgrwt>
<rscale>  2 0.57178956E+02</rscale>
<asrwt>0</asrwt>
<pdfrwt beam="1">  1       21 0.20614359E-02 0.57178956E+02</pdfrwt>
<pdfrwt beam="2">  1       21 0.37538425E-01 0.57178956E+02</pdfrwt>
<totfact> 0.74152580E+06</totfact>
</mgrwt>
</event>
<event>
 4    1  0.4619222E+006  0.2813081E+02  0.7546771E-02  0.1619719E+00
         21   -1    0    0  502  501  0.00000000000E+00  0.00000000000E+00  0.67405714952E+02  0.67405714952E+02  0.00000000000E+00 0.  1.
         21   -1    0    0  504  502 -0.00000000000E+00 -0.00000000000E+00 -0.17439566366E+03  0.17439566366E+03  0.00000000000E+00 0. -1.
         21    1    1    2  503  501 -0.28097605469E+02  0.13663824721E+01  0.63265417547E+02  0.69237673932E+02  0.00000000000E+00 0.  1.
         21    1    1    2  504  503  0.28097605469E+02 -0.13663824721E+01 -0.17025536625E+03  0.17256370468E+03  0.00000000000E+00 0. -1.
<mgrwt>
<rscale>  2 0.28130809E+02</rscale>
<asrwt>0</asrwt>
<pdfrwt beam="1">  1       21 0.10370110E-01 0.28130809E+02</pdfrwt>
<pdfrwt beam="2">  1       21 0.26830102E-01 0.28130809E+02</pdfrwt>
<totfact> 0.95235843E+05</totfact>
</mgrwt>
</event>
<event>
 4    1  0.4619222E+006  0.3097495E+02  0.7546771E-02  0.1587555E+00
         21   -1    0    0  503  501  0.00000000000E+00  0.00000000000E+00  0.60206685328E+02  0.60206685328E+02  0.00000000000E+00 0.  1.
         21   -1    0    0  504  502 -0.00000000000E+00 -0.00000000000E+00 -0.33163248833E+03  0.33163248833E+03  0.00000000000E+00 0. -1.
         21    1    1    2  503  502 -0.29965085345E+01  0.30829672885E+02 -0.32686728645E+03  0.32833164749E+03  0.00000000000E+00 0. -1.
         21    1    1    2  504  501  0.29965085345E+01 -0.30829672885E+02  0.55441483445E+02  0.63507526170E+02  0.00000000000E+00 0.  1.
<mgrwt>
<rscale>  2 0.30974954E+02</rscale>
<asrwt>0</asrwt>
<pdfrwt beam="1">  1       21 0.92625669E-02 0.30974954E+02</pdfrwt>
<pdfrwt beam="2">  1       21 0.51020383E-01 0.30974954E+02</pdfrwt>
<totfact> 0.34357479E+05</totfact>
</mgrwt>
</event>
<event>
 4    1  0.4619222E+006  0.2114936E+02  0.7546771E-02  0.1723393E+00
         21   -1    0    0  503  501  0.00000000000E+00  0.00000000000E+00  0.85511775370E+01  0.85511775370E+01  0.00000000000E+00 0. -1.
         21   -1    0    0  504  502 -0.00000000000E+00 -0.00000000000E+00 -0.80989637451E+03  0.80989637451E+03  0.00000000000E+00 0. -1.
         21    1    1    2  503  502  0.82812631162E+01 -0.19460631909E+02 -0.48844692266E+01  0.21706071794E+02  0.00000000000E+00 0. -1.
         21    1    1    2  504  501 -0.82812631162E+01  0.19460631909E+02 -0.79646072775E+03  0.79674148026E+03  0.00000000000E+00 0. -1.
<mgrwt>
<rscale>  2 0.21149362E+02</rscale>
<asrwt>0</asrwt>
<pdfrwt beam="1">  1       21 0.13155660E-02 0.21149362E+02</pdfrwt>
<pdfrwt beam="2">  1       21 0.12459942E+00 0.21149362E+02</pdfrwt>
<totfact> 0.11070058E+06</totfact>
</mgrwt>
</event>
<event>
 4    1  0.4619222E+006  0.9570613E+02  0.7546771E-02  0.1289594E+00
         21   -1    0    0  502  501  0.00000000000E+00  0.00000000000E+00  0.14141077875E+03  0.14141077875E+03  0.00000000000E+00 0.  1.
         21   -1    0    0  503  502 -0.00000000000E+00 -0.00000000000E+00 -0.12446947324E+04  0.12446947324E+04  0.00000000000E+00 0.  1.
         21    1    1    2  503  504  0.21536920561E+02  0.93251407820E+02 -0.12264207093E+04  0.12301493487E+04  0.00000000000E+00 0.  1.
         21    1    1    2  504  501 -0.21536920561E+02 -0.93251407820E+02  0.12313675564E+03  0.15595616242E+03  0.00000000000E+00 0.  1.
<mgrwt>
<rscale>  2 0.95706134E+02</rscale>
<asrwt>0</asrwt>
<pdfrwt beam="1">  1       21 0.21755505E-01 0.95706134E+02</pdfrwt>
<pdfrwt beam="2">  1       21 0.19149149E+00 0.95706134E+02</pdfrwt>
<totfact> 0.34001226E+03</totfact>
</mgrwt>
</event>
<event>
 4    1  0.4619222E+006  0.2405194E+02  0.7546771E-02  0.1675005E+00
         21   -1    0    0  503  501  0.00000000000E+00  0.00000000000E+00  0.55792212729E+02  0.55792212729E+02  0.00000000000E+00 0.  1.
         21   -1    0    0  504  502 -0.00000000000E+00 -0.00000000000E+00 -0.10514722462E+02  0.10514722462E+02  0.00000000000E+00 0.  1.
         21    1    1    2  503  502 -0.23662059976E+02  0.43131129890E+01  0.18732570571E+02  0.30486148103E+02  0.00000000000E+00 0.  1.
         21    1    1    2  504  501  0.23662059976E+02 -0.43131129890E+01  0.26544919697E+02  0.35820787089E+02  0.00000000000E+00 0.  1.
<mgrwt>
<rscale>  2 0.24051944E+02</rscale>
<asrwt>0</asrwt>
<pdfrwt beam="1">  1       21 0.85834172E-02 0.24051944E+02</pdfrwt>
<pdfrwt beam="2">  1       21 0.16176496E-02 0.24051944E+02</pdfrwt>
<totfact> 0.12564558E+08</totfact>
</mgrwt>
</event>
<event>
 4    1  0.4619222E+006  0.2060609E+02  0.7546771E-02  0.1733537E+00
         21   -1    0    0  502  501  0.00000000000E+00  0.00000000000E+00  0.61924835173E+01  0.61924835173E+01  0.00000000000E+00 0.  1.
         21   -1    0    0  504  502 -0.00000000000E+00 -0.00000000000E+00 -0.72396074568E+02  0.72396074568E+02  0.00000000000E+00 0.  1.
         21    1    1    2  503  501 -0.17820885465E+02  0.10345382349E+02 -0.24066984131E+02  0.31683286128E+02  0.00000000000E+00 0.  1.
         21    1    1    2  504  503  0.17820885465E+02 -0.10345382349E+02 -0.42136606920E+02  0.46905271958E+02  0.00000000000E+00 0.  1.
<mgrwt>
<rscale>  2 0.20606089E+02</rscale>
<asrwt>0</asrwt>
<pdfrwt beam="1">  1       21 0.95268986E-03 0.20606089E+02</pdfrwt>
<pdfrwt beam="2">  1       21 0.11137857E-01 0.20606089E+02</pdfrwt>
<totfact> 0.17353767E+08</totfact>
</mgrwt>
</event>
<event>
 4    1  0.4619222E+006  0.2063214E+02  0.7546771E-02  0.1733042E+00
         21   -1    0    0  503  501  0.00000000000E+00  0.00000000000E+00  0.14357790900E+02  0.14357790900E+02  0.00000000000E+00 0.  1.
         21   -1    0    0  501  502 -0.00000000000E+00 -0.00000000000E+00 -0.39918054229E+02  0.39918054229E+02  0.00000000000E+00 0. -1.
         21    1    1    2  503  504  0.18734282887E+02 -0.86436079497E+01  0.98467586117E+00  0.20655626358E+02  0.00000000000E+00 0.  1.
         21    1    1    2  504  502 -0.18734282887E+02  0.86436079497E+01 -0.26544939190E+02  0.33620218772E+02  0.00000000000E+00 0. -1.
<mgrwt>
<rscale>  2 0.20632143E+02</rscale>
<asrwt>0</asrwt>
<pdfrwt beam="1">  1       21 0.22088909E-02 0.20632143E+02</pdfrwt>
<pdfrwt beam="2">  1       21 0.61412391E-02 0.20632143E+02</pdfrwt>
<totfact> 0.12824121E+08</totfact>
</mgrwt>
</event>
<event>
 4    1  0.4619222E+006  0.2130126E+02  0.7546771E-02  0.1720624E+00
         21   -1    0    0  502  501  0.00000000000E+00  0.00000000000E+00  0.55331673843E+01  0.55331673843E+01  0.00000000000E+00 0.  1.
         21   -1    0    0  503  502 -0.00000000000E+00 -0.00000000000E+00 -0.35954672720E+03  0.35954672720E+03  0.00000000000E+00 0. -1.
         21    1    1    2  503  504  0.20527975772E+02 -0.56873483462E+01 -0.33738482420E+03  0.33805659781E+03  0.00000000000E+00 0. -1.
         21    1    1    2  504  501 -0.20527975772E+02  0.56873483462E+01 -0.16628735614E+02  0.27023296776E+02  0.00000000000E+00 0.  1.
<mgrwt>
<rscale>  2 0.21301261E+02</rscale>
<asrwt>0</asrwt>
<pdfrwt beam="1">  1       21 0.85125649E-03 0.21301261E+02</pdfrwt>
<pdfrwt beam="2">  1       21 0.55314883E-01 0.21301261E+02</pdfrwt>
<totfact> 0.11806085E+07</totfact>
</mgrwt>
</event>
<event>
 4    1  0.4619222E+006  0.2393486E+02  0.7546771E-02  0.1676790E+00
         21   -1    0    0  504  501  0.00000000000E+00  0.00000000000E+00  0.64816307920E+02  0.64816307920E+02  0.00000000000E+00 0. -1.
         21   -1    0    0  501  502 -0.00000000000E+00 -0.00000000000E+00 -0.20189743194E+02  0.20189743194E+02  0.00000000000E+00 0.  1.
         21    1    1    2  503  502 -0.53409372986E+01  0.23331352865E+02 -0.95563127860E+01  0.25772092499E+02  0.00000000000E+00 0.  1.
         21    1    1    2  504  503  0.53409372986E+01 -0.23331352865E+02  0.54182877512E+02  0.59233958615E+02  0.00000000000E+00 0. -1.
<mgrwt>
<rscale>  2 0.23934862E+02</rscale>
<asrwt>0</asrwt>
<pdfrwt beam="1">  1       21 0.99717396E-02 0.23934862E+02</pdfrwt>
<pdfrwt beam="2">  1       21 0.31061144E-02 0.23934862E+02</pdfrwt>
<totfact> 0.35806679E+07</totfact>
</mgrwt>
</event>
<event>
 4    1  0.4619222E+006  0.2372252E+02  0.7546771E-02  0.1680059E+00
         21   -1    0    0  504  501  0.00000000000E+00  0.00000000000E+00  0.12143603127E+03  0.12143603127E+03  0.00000000000E+00 0.  1.
         21   -1    0    0  503  502 -0.00000000000E+00 -0.00000000000E+00 -0.49831995952E+02  0.49831995952E+02  0.00000000000E+00 0. -1.
         21    1    1    2  503  501  0.23638245013E+02 -0.19978897593E+01 -0.45753023872E+02  0.51537339708E+02  0.00000000000E+00 0. -1.
         21    1    1    2  504  502 -0.23638245013E+02  0.19978897593E+01  0.11735705919E+03  0.11973068751E+03  0.00000000000E+00 0.  1.
<mgrwt>
<rscale>  2 0.23722525E+02</rscale>
<asrwt>0</asrwt>
<pdfrwt beam="1">  1       21 0.18682466E-01 0.23722525E+02</pdfrwt>
<pdfrwt beam="2">  1       21 0.76664610E-02 0.23722525E+02</pdfrwt>
<totfact> 0.29246975E+06</totfact>
</mgrwt>
</event>
<event>
 4    1  0.4619222E+006  0.2970223E+02  0.7546771E-02  0.1601404E+00
         21   -1    0    0  504  501  0.00000000000E+00  0.00000000000E+00  0.76270296173E+01  0.76270296173E+01  0.00000000000E+00 0. -1.
         21   -1    0    0  503  502 -0.00000000000E+00 -0.00000000000E+00 -0.13788273885E+03  0.13788273885E+03  0.00000000000E+00 0. -1.
         21    1    1    2  503  501 -0.22600512892E+02 -0.19272763434E+02 -0.94329211520E+02  0.98895008667E+02  0.00000000000E+00 0. -1.
         21    1    1    2  504  502  0.22600512892E+02  0.19272763434E+02 -0.35926497716E+02  0.46614759803E+02  0.00000000000E+00 0. -1.
<mgrwt>
<rscale>  2 0.29702232E+02</rscale>
<asrwt>0</asrwt>
<pdfrwt beam="1">  1       21 0.11733892E-02 0.29702232E+02</pdfrwt>
<pdfrwt beam="2">  1       21 0.21212728E-01 0.29702232E+02</pdfrwt>
<totfact> 0.46313784E+07</totfact>
</mgrwt>
</event>
<event>
 4    1  0.4619222E+006  0.2187436E+02  0.7546771E-02  0.1710434E+00
         21   -1    0    0  504  501  0.00000000000E+00  0.00000000000E+00  0.35405622778E+01  0.35405622778E+01  0.00000000000E+00 0. -1.
         21   -1    0    0  503  502 -0.00000000000E+00 -0.00000000000E+00 -0.15310820144E+03  0.15310820144E+03  0.00000000000E+00 0.  1.
         21    1    1    2  503  501 -0.17045822534E+02  0.13708670986E+02 -0.47955408327E+02  0.52708717627E+02  0.00000000000E+00 0. -1.
         21    1    1    2  504  502  0.17045822534E+02 -0.13708670986E+02 -0.10161223084E+03  0.10394004609E+03  0.00000000000E+00 0.  1.
<mgrwt>
<rscale>  2 0.21874362E+02</rscale>
<asrwt>0</asrwt>
<pdfrwt beam="1">  1       21 0.54470201E-03 0.21874362E+02</pdfrwt>
<pdfrwt beam="2">  1       21 0.23555103E-01 0.21874362E+02</pdfrwt>
<totfact> 0.11260372E+08</totfact>
</mgrwt>
</event>
<event>
 4    1  0.4619222E+006  0.2326219E+02  0.7546771E-02  0.1687295E+00
         21   -1    0    0  502  501  0.00000000000E+00  0.00000000000E+00  0.78834235173E+01  0.78834235173E+01  0.00000000000E+00 0. -1.
         21   -1    0    0  504  502 -0.00000000000E+00 -0.00000000000E+00 -0.86573209581E+02  0.86573209581E+02  0.00000000000E+00 0. -1.
         21    1    1    2  503  501  0.13652629204E+02 -0.18834418548E+02 -0.17850648626E+02  0.29321924606E+02  0.00000000000E+00 0. -1.
         21    1    1    2  504  503 -0.13652629204E+02  0.18834418548E+02 -0.60839137438E+02  0.65134708493E+02  0.00000000000E+00 0. -1.
<mgrwt>
<rscale>  2 0.23262193E+02</rscale>
<asrwt>0</asrwt>
<pdfrwt beam="1">  1       21 0.12128343E-02 0.23262193E+02</pdfrwt>
<pdfrwt beam="2">  1       21 0.13318956E-01 0.23262193E+02</pdfrwt>
<totfact> 0.92783182E+07</totfact>
</mgrwt>
</event>
<event>
 4    1  0.4619222E+006  0.2582929E+02  0.7546771E-02  0.1649368E+00
         21   -1    0    0  503  501  0.00000000000E+00  0.00000000000E+00  0.10340160596E+03  0.10340160596E+03  0.00000000000E+00 0.  1.
         21   -1    0    0  504  502 -0.00000000000E+00 -0.00000000000E+00 -0.27806728102E+02  0.27806728102E+02  0.00000000000E+00 0. -1.
         21    1    1    2  503  502 -0.70375157933E+01  0.24852075887E+02  0.95288853938E+02  0.98727493584E+02  0.00000000000E+00 0.  1.
         21    1    1    2  504  501  0.70375157933E+01 -0.24852075887E+02 -0.19693976079E+02  0.32480840479E+02  0.00000000000E+00 0. -1.
<mgrwt>
<rscale>  2 0.25829292E+02</rscale>
<asrwt>0</asrwt>
<pdfrwt beam="1">  1       21 0.15907939E-01 0.25829292E+02</pdfrwt>
<pdfrwt beam="2">  1       21 0.42779582E-02 0.25829292E+02</pdfrwt>
<totfact> 0.99953835E+06</totfact>
</mgrwt>
</event>
<event>
 4    1  0.4619222E+006  0.2916262E+02  0.7546771E-02  0.1607534E+00
         21   -1    0    0  504  501  0.00000000000E+00  0.00000000000E+00  0.50138878540E+02  0.50138878540E+02  0.00000000000E+00 0. -1.
         21   -1    0    0  503  502 -0.00000000000E+00 -0.00000000000E+00 -0.20731956176E+02  0.20731956176E+02  0.00000000000E+00 0. -1.
         21    1    1    2  503  501  0.20530688826E+02  0.20711087179E+02  0.29814088989E+02  0.41705373971E+02  0.00000000000E+00 0. -1.
         21    1    1    2  504  502 -0.20530688826E+02 -0.20711087179E+02 -0.40716662545E+00  0.29165460745E+02  0.00000000000E+00 0. -1.
<mgrwt>
<rscale>  2 0.29162618E+02</rscale>
<asrwt>0</asrwt>
<pdfrwt beam="1">  1       21 0.77136736E-02 0.29162618E+02</pdfrwt>
<pdfrwt beam="2">  1       21 0.31895317E-02 0.29162618E+02</pdfrwt>
<totfact> 0.54946089E+07</totfact>
</mgrwt>
</event>
<event>
 4    1  0.4619222E+006  0.3227084E+02  0.7546771E-02  0.1574264E+00
         21   -1    0    0  503  501  0.00000000000E+00  0.00000000000E+00  0.10059664097E+01  0.10059664097E+01  0.00000000000E+00 0. -1.
         21   -1    0    0  504  502 -0.00000000000E+00 -0.00000000000E+00 -0.20697230537E+04  0.20697230537E+04  0.00000000000E+00 0. -1.
         21    1    1    2  503  502 -0.13785331776E+02 -0.29178278744E+02 -0.30237587936E+03  0.30409304455E+03  0.00000000000E+00 0. -1.
         21    1    1    2  504  501  0.13785331776E+02  0.29178278744E+02 -0.17663412079E+04  0.17666359755E+04  0.00000000000E+00 0. -1.
<mgrwt>
<rscale>  2 0.32270843E+02</rscale>
<asrwt>0</asrwt>
<pdfrwt beam="1">  1       21 0.15476440E-03 0.32270843E+02</pdfrwt>
<pdfrwt beam="2">  1       21 0.31841824E+00 0.32270843E+02</pdfrwt>
<totfact> 0.20876089E+06</totfact>
</mgrwt>
</event>
<event>
 4    1  0.4619222E+006  0.2356567E+02  0.7546771E-02  0.1682502E+00
         21   -1    0    0  502  501  0.00000000000E+00  0.00000000000E+00  0.18622561864E+03  0.18622561864E+03  0.00000000000E+00 0. -1.
         21   -1    0    0  504  502 -0.00000000000E+00 -0.00000000000E+00 -0.10511747840E+02  0.10511747840E+02  0.00000000000E+00 0. -1.
         21    1    1    2  503  501  0.52691504889E+01  0.22969040718E+02  0.17111132325E+03  0.17272644767E+03  0.00000000000E+00 0. -1.
         21    1    1    2  504  503 -0.52691504889E+01 -0.22969040718E+02  0.46025475500E+01  0.24010918815E+02  0.00000000000E+00 0. -1.
<mgrwt>
<rscale>  2 0.23565669E+02</rscale>
<asrwt>0</asrwt>
<pdfrwt beam="1">  1       21 0.28650093E-01 0.23565669E+02</pdfrwt>
<pdfrwt beam="2">  1       21 0.16171921E-02 0.23565669E+02</pdfrwt>
<totfact> 0.15803682E+07</totfact>
</mgrwt>
</event>
<event>
 4    1  0.4619222E+006  0.2376796E+02  0.7546771E-02  0.1679356E+00
         21   -1    0    0  503  501  0.00000000000E+00  0.00000000000E+00  0.60739787269E+02  0.60739787269E+02  0.00000000000E+00 0.  1.
         21   -1    0    0  501  502 -0.00000000000E+00 -0.00000000000E+00 -0.91264734983E+02  0.91264734983E+02  0.00000000000E+00 0.  1.
         21    1    1    2  503  504 -0.23533347160E+02  0.33312710911E+01  0.56763140888E+02  0.61538361686E+02  0.00000000000E+00 0.  1.
         21    1    1    2  504  502  0.23533347160E+02 -0.33312710911E+01 -0.87288088602E+02  0.90466160565E+02  0.00000000000E+00 0.  1.
<mgrwt>
<rscale>  2 0.23767957E+02</rscale>
<asrwt>0</asrwt>
<pdfrwt beam="1">  1       21 0.93445827E-02 0.23767957E+02</pdfrwt>
<pdfrwt beam="2">  1       21 0.14040728E-01 0.23767957E+02</pdfrwt>
<totfact> 0.34522048E+06</totfact>
</mgrwt>
</event>
<event>
 4    1  0.4619222E+006  0.4153576E+02  0.7546771E-02  0.1497205E+00
         21   -1    0    0  502  501  0.00000000000E+00  0.00000000000E+00  0.71098490495E+01  0.71098490495E+01  0.00000000000E+00 0. -1.
         21   -1    0    0  503  502 -0.00000000000E+00 -0.00000000000E+00 -0.42823767380E+03  0.42823767380E+03  0.00000000000E+00 0.  1.
         21    1    1    2  503  504  0.40520910553E+02  0.91255420528E+01 -0.35386047364E+03  0.35628984621E+03  0.00000000000E+00 0.  1.
         21    1    1    2  504  501 -0.40520910553E+02 -0.91255420528E+01 -0.67267351112E+02  0.79057676638E+02  0.00000000000E+00 0. -1.
<mgrwt>
<rscale>  2 0.41535764E+02</rscale>
<asrwt>0</asrwt>
<pdfrwt beam="1">  1       21 0.10938231E-02 0.41535764E+02</pdfrwt>
<pdfrwt beam="2">  1       21 0.65882707E-01 0.41535764E+02</pdfrwt>
<totfact> 0.62503309E+06</totfact>
</mgrwt>
</event>
<event>
 4    1  0.4619222E+006  0.2075190E+02  0.7546771E-02  0.1730776E+00
         21   -1    0    0  504  501  0.00000000000E+00  0.00000000000E+00  0.64937559626E+01  0.64937559626E+01  0.00000000000E+00 0. -1.
         21   -1    0    0  501  502 -0.00000000000E+00 -0.00000000000E+00 -0.86645980510E+03  0.86645980510E+03  0.00000000000E+00 0.  1.
         21    1    1    2  503  502  0.61517949993E+00  0.20742774918E+02 -0.84942405038E+03  0.84967750265E+03  0.00000000000E+00 0.  1.
         21    1    1    2  504  503 -0.61517949993E+00 -0.20742774918E+02 -0.10541998758E+02  0.23276058406E+02  0.00000000000E+00 0. -1.
<mgrwt>
<rscale>  2 0.20751895E+02</rscale>
<asrwt>0</asrwt>
<pdfrwt beam="1">  1       21 0.99903960E-03 0.20751895E+02</pdfrwt>
<pdfrwt beam="2">  1       21 0.13330148E+00 0.20751895E+02</pdfrwt>
<totfact> 0.14322948E+06</totfact>
</mgrwt>
</event>
<event>
 4    1  0.4619222E+006  0.2795915E+02  0.7546771E-02  0.1621809E+00
         21   -1    0    0  503  501  0.00000000000E+00  0.00000000000E+00  0.48666667831E+00  0.48666667831E+00  0.00000000000E+00 0. -1.
         21   -1    0    0  504  502 -0.00000000000E+00 -0.00000000000E+00 -0.16065674753E+04  0.16065674753E+04  0.00000000000E+00 0. -1.
         21    1    1    2  503  502  0.27520112209E+02 -0.49353193576E+01 -0.79195152310E+03  0.79244490590E+03  0.00000000000E+00 0. -1.
         21    1    1    2  504  501 -0.27520112209E+02  0.49353193576E+01 -0.81412928548E+03  0.81460923604E+03  0.00000000000E+00 0. -1.
<mgrwt>
<rscale>  2 0.27959148E+02</rscale>
<asrwt>0</asrwt>
<pdfrwt beam="1">  1       21 0.74870759E-04 0.27959148E+02</pdfrwt>
<pdfrwt beam="2">  1       21 0.24716765E+00 0.27959148E+02</pdfrwt>
<totfact> 0.13472621E+07</totfact>
</mgrwt>
</event>
<event>
 4    1  0.4619222E+006  0.2662906E+02  0.7546771E-02  0.1638649E+00
         21   -1    0    0  503  501  0.00000000000E+00  0.00000000000E+00  0.79490832686E+01  0.79490832686E+01  0.00000000000E+00 0. -1.
         21   -1    0    0  504  502 -0.00000000000E+00 -0.00000000000E+00 -0.89799790633E+02  0.89799790633E+02  0.00000000000E+00 0. -1.
         21    1    1    2  503  502  0.20251689442E+02 -0.17290916240E+02 -0.44899323263E+02  0.52202068342E+02  0.00000000000E+00 0. -1.
         21    1    1    2  504  501 -0.20251689442E+02  0.17290916240E+02 -0.36951384101E+02  0.45546805559E+02  0.00000000000E+00 0. -1.
<mgrwt>
<rscale>  2 0.26629058E+02</rscale>
<asrwt>0</asrwt>
<pdfrwt beam="1">  1       21 0.12229360E-02 0.26629058E+02</pdfrwt>
<pdfrwt beam="2">  1       21 0.13815352E-01 0.26629058E+02</pdfrwt>
<totfact> 0.89235634E+07</totfact>
</mgrwt>
</event>
<event>
 4    1  0.4619222E+006  0.2193154E+02  0.7546771E-02  0.1709439E+00
         21   -1    0    0  504  501  0.00000000000E+00  0.00000000000E+00  0.79778988420E+01  0.79778988420E+01  0.00000000000E+00 0. -1.
         21   -1    0    0  503  502 -0.00000000000E+00 -0.00000000000E+00 -0.82779498903E+02  0.82779498903E+02  0.00000000000E+00 0. -1.
         21    1    1    2  503  501 -0.21847266356E+02 -0.19207469109E+01 -0.13748426489E+02  0.25884581256E+02  0.00000000000E+00 0. -1.
         21    1    1    2  504  502  0.21847266356E+02  0.19207469109E+01 -0.61053173573E+02  0.64872816489E+02  0.00000000000E+00 0. -1.
<mgrwt>
<rscale>  2 0.21931537E+02</rscale>
<asrwt>0</asrwt>
<pdfrwt beam="1">  1       21 0.12273690E-02 0.21931537E+02</pdfrwt>
<pdfrwt beam="2">  1       21 0.12735308E-01 0.21931537E+02</pdfrwt>
<totfact> 0.96653179E+07</totfact>
</mgrwt>
</event>
<event>
 4    1  0.4619222E+006  0.3034095E+02  0.7546771E-02  0.1594350E+00
         21   -1    0    0  503  501  0.00000000000E+00  0.00000000000E+00  0.86608799627E+02  0.86608799627E+02  0.00000000000E+00 0. -1.
         21   -1    0    0  501  502 -0.00000000000E+00 -0.00000000000E+00 -0.15668324432E+02  0.15668324432E+02  0.00000000000E+00 0. -1.
         21    1    1    2  503  504  0.94332133262E+01  0.28837261366E+02  0.64471660160E+02  0.71254249842E+02  0.00000000000E+00 0. -1.
         21    1    1    2  504  502 -0.94332133262E+01 -0.28837261366E+02  0.64688150351E+01  0.31022874218E+02  0.00000000000E+00 0. -1.
<mgrwt>
<rscale>  2 0.30340949E+02</rscale>
<asrwt>0</asrwt>
<pdfrwt beam="1">  1       21 0.13324430E-01 0.30340949E+02</pdfrwt>
<pdfrwt beam="2">  1       21 0.24105115E-02 0.30340949E+02</pdfrwt>
<totfact> 0.34434096E+07</totfact>
</mgrwt>
</event>
<event>
 4    1  0.4619222E+006  0.4688483E+02  0.7546771E-02  0.1462907E+00
         21   -1    0    0  503  501  0.00000000000E+00  0.00000000000E+00  0.13136615824E+03  0.13136615824E+03  0.00000000000E+00 0.  1.
         21   -1    0    0  504  502 -0.00000000000E+00 -0.00000000000E+00 -0.20798893707E+02  0.20798893707E+02  0.00000000000E+00 0.  1.
         21    1    1    2  503  502 -0.20557573211E+02  0.42137555822E+02  0.21645833435E+02  0.51640386638E+02  0.00000000000E+00 0.  1.
         21    1    1    2  504  501  0.20557573211E+02 -0.42137555822E+02  0.88921431094E+02  0.10052466531E+03  0.00000000000E+00 0.  1.
<mgrwt>
<rscale>  2 0.46884832E+02</rscale>
<asrwt>0</asrwt>
<pdfrwt beam="1">  1       21 0.20210178E-01 0.46884832E+02</pdfrwt>
<pdfrwt beam="2">  1       21 0.31998299E-02 0.46884832E+02</pdfrwt>
<totfact> 0.11404622E+07</totfact>
</mgrwt>
</event>
<event>
 4    1  0.4619222E+006  0.2254376E+02  0.7546771E-02  0.1699014E+00
         21   -1    0    0  504  501  0.00000000000E+00  0.00000000000E+00  0.37485139199E+03  0.37485139199E+03  0.00000000000E+00 0. -1.
         21   -1    0    0  503  502 -0.00000000000E+00 -0.00000000000E+00 -0.59760759380E+01  0.59760759380E+01  0.00000000000E+00 0.  1.
         21    1    1    2  503  501 -0.12294928679E+02 -0.18895918161E+02  0.17011046034E+02  0.28241754222E+02  0.00000000000E+00 0.  1.
         21    1    1    2  504  502  0.12294928679E+02  0.18895918161E+02  0.35186427002E+03  0.35258571371E+03  0.00000000000E+00 0. -1.
<mgrwt>
<rscale>  2 0.22543757E+02</rscale>
<asrwt>0</asrwt>
<pdfrwt beam="1">  1       21 0.57669426E-01 0.22543757E+02</pdfrwt>
<pdfrwt beam="2">  1       21 0.91939659E-03 0.22543757E+02</pdfrwt>
<totfact> 0.97929166E+06</totfact>
</mgrwt>
</event>
<event>
 4    1  0.4619222E+006  0.2251808E+02  0.7546771E-02  0.1699443E+00
         21   -1    0    0  503  501  0.00000000000E+00  0.00000000000E+00  0.66725324832E+01  0.66725324832E+01  0.00000000000E+00 0.  1.
         21   -1    0    0  504  502 -0.00000000000E+00 -0.00000000000E+00 -0.11153165775E+03  0.11153165775E+03  0.00000000000E+00 0.  1.
         21    1    1    2  503  502  0.60527178075E+01  0.21689365529E+02 -0.85791859956E+02  0.88697842165E+02  0.00000000000E+00 0.  1.
         21    1    1    2  504  501 -0.60527178075E+01 -0.21689365529E+02 -0.19067265311E+02  0.29506348069E+02  0.00000000000E+00 0.  1.
<mgrwt>
<rscale>  2 0.22518081E+02</rscale>
<asrwt>0</asrwt>
<pdfrwt beam="1">  1       21 0.10265436E-02 0.22518081E+02</pdfrwt>
<pdfrwt beam="2">  1       21 0.17158715E-01 0.22518081E+02</pdfrwt>
<totfact> 0.76785663E+07</totfact>
</mgrwt>
</event>
<event>
 4    1  0.4619222E+006  0.3071060E+02  0.7546771E-02  0.1590364E+00
         21   -1    0    0  503  501  0.00000000000E+00  0.00000000000E+00  0.10675840336E+01  0.10675840336E+01  0.00000000000E+00 0.  1.
         21   -1    0    0  504  502 -0.00000000000E+00 -0.00000000000E+00 -0.19672164932E+04  0.19672164932E+04  0.00000000000E+00 0.  1.
         21    1    1    2  503  502 -0.20456649012E+02 -0.22905595865E+02 -0.17135448590E+04  0.17138200386E+04  0.00000000000E+00 0.  1.
         21    1    1    2  504  501  0.20456649012E+02  0.22905595865E+02 -0.25260405015E+03  0.25446403864E+03  0.00000000000E+00 0.  1.
<mgrwt>
<rscale>  2 0.30710598E+02</rscale>
<asrwt>0</asrwt>
<pdfrwt beam="1">  1       21 0.16424319E-03 0.30710598E+02</pdfrwt>
<pdfrwt beam="2">  1       21 0.30264962E+00 0.30710598E+02</pdfrwt>
<totfact> 0.23021526E+06</totfact>
</mgrwt>
</event>
<event>
 4    1  0.4619222E+006  0.2021772E+02  0.7546771E-02  0.1741033E+00
         21   -1    0    0  503  501  0.00000000000E+00  0.00000000000E+00  0.14237319445E+03  0.14237319445E+03  0.00000000000E+00 0. -1.
         21   -1    0    0  504  502 -0.00000000000E+00 -0.00000000000E+00 -0.41466242588E+01  0.41466242588E+01  0.00000000000E+00 0. -1.
         21    1    1    2  503  502  0.17934456040E+01 -0.20138013287E+02  0.28480430973E+02  0.34926937665E+02  0.00000000000E+00 0. -1.
         21    1    1    2  504  501 -0.17934456040E+01  0.20138013287E+02  0.10974613921E+03  0.11159288104E+03  0.00000000000E+00 0. -1.
<mgrwt>
<rscale>  2 0.20217716E+02</rscale>
<asrwt>0</asrwt>
<pdfrwt beam="1">  1       21 0.21903565E-01 0.20217716E+02</pdfrwt>
<pdfrwt beam="2">  1       21 0.63794230E-03 0.20217716E+02</pdfrwt>
<totfact> 0.99105015E+07</totfact>
</mgrwt>
</event>
<event>
 4    1  0.4619222E+006  0.2690313E+02  0.7546771E-02  0.1635081E+00
         21   -1    0    0  503  501  0.00000000000E+00  0.00000000000E+00  0.17549653927E+01  0.17549653927E+01  0.00000000000E+00 0.  1.
         21   -1    0    0  504  502 -0.00000000000E+00 -0.00000000000E+00 -0.62438218445E+03  0.62438218445E+03  0.00000000000E+00 0.  1.
         21    1    1    2  503  502 -0.15958890194E+02  0.21658541080E+02 -0.49372245678E+03  0.49445489472E+03  0.00000000000E+00 0.  1.
         21    1    1    2  504  501  0.15958890194E+02 -0.21658541080E+02 -0.12890476228E+03  0.13168225513E+03  0.00000000000E+00 0.  1.
<mgrwt>
<rscale>  2 0.26903133E+02</rscale>
<asrwt>0</asrwt>
<pdfrwt beam="1">  1       21 0.26999418E-03 0.26903133E+02</pdfrwt>
<pdfrwt beam="2">  1       21 0.96058975E-01 0.26903133E+02</pdfrwt>
<totfact> 0.21396976E+07</totfact>
</mgrwt>
</event>
<event>
 4    1  0.4619222E+006  0.2002879E+02  0.7546771E-02  0.1744756E+00
         21   -1    0    0  504  501  0.00000000000E+00  0.00000000000E+00  0.43183252142E+03  0.43183252142E+03  0.00000000000E+00 0.  1.
         21   -1    0    0  503  502 -0.00000000000E+00 -0.00000000000E+00 -0.16002514634E+01  0.16002514634E+01  0.00000000000E+00 0. -1.
         21    1    1    2  503  501 -0.12551766017E+02  0.15607867331E+02  0.74752281221E+02  0.77388990822E+02  0.00000000000E+00 0. -1.
         21    1    1    2  504  502  0.12551766017E+02 -0.15607867331E+02  0.35547998874E+03  0.35604378206E+03  0.00000000000E+00 0.  1.
<mgrwt>
<rscale>  2 0.20028788E+02</rscale>
<asrwt>0</asrwt>
<pdfrwt beam="1">  1       21 0.66435680E-01 0.20028788E+02</pdfrwt>
<pdfrwt beam="2">  1       21 0.24619288E-03 0.20028788E+02</pdfrwt>
<totfact> 0.49877232E+07</totfact>
</mgrwt>
</event>
<event>
 4    1  0.4619222E+006  0.2785781E+02  0.7546771E-02  0.1623051E+00
         21   -1    0    0  502  501  0.00000000000E+00  0.00000000000E+00  0.40461765406E+02  0.40461765406E+02  0.00000000000E+00 0.  1.
         21   -1    0    0  504  502 -0.00000000000E+00 -0.00000000000E+00 -0.46798529953E+02  0.46798529953E+02  0.00000000000E+00 0.  1.
         21    1    1    2  503  501 -0.10451703112E+02 -0.25822845220E+02  0.30349047387E+02  0.41196141937E+02  0.00000000000E+00 0.  1.
         21    1    1    2  504  503  0.10451703112E+02  0.25822845220E+02 -0.36685811934E+02  0.46064153422E+02  0.00000000000E+00 0.  1.
<mgrwt>
<rscale>  2 0.27857807E+02</rscale>
<asrwt>0</asrwt>
<pdfrwt beam="1">  1       21 0.62248870E-02 0.27857807E+02</pdfrwt>
<pdfrwt beam="2">  1       21 0.71997738E-02 0.27857807E+02</pdfrwt>
<totfact> 0.20934639E+07</totfact>
</mgrwt>
</event>
<event>
 4    1  0.4619222E+006  0.3951703E+02  0.7546771E-02  0.1511796E+00
         21   -1    0    0  502  501  0.00000000000E+00  0.00000000000E+00  0.39382141434E+02  0.39382141434E+02  0.00000000000E+00 0. -1.
         21   -1    0    0  503  502 -0.00000000000E+00 -0.00000000000E+00 -0.77394469383E+02  0.77394469383E+02  0.00000000000E+00 0. -1.
         21    1    1    2  503  504 -0.25730703869E+02 -0.29992102565E+02 -0.59780220498E+02  0.71660798912E+02  0.00000000000E+00 0. -1.
         21    1    1    2  504  501  0.25730703869E+02  0.29992102565E+02  0.21767892549E+02  0.45115811906E+02  0.00000000000E+00 0. -1.
<mgrwt>
<rscale>  2 0.39517026E+02</rscale>
<asrwt>0</asrwt>
<pdfrwt beam="1">  1       21 0.60587911E-02 0.39517026E+02</pdfrwt>
<pdfrwt beam="2">  1       21 0.11906841E-01 0.39517026E+02</pdfrwt>
<totfact> 0.10011352E+07</totfact>
</mgrwt>
</event>
<event>
 4    1  0.4619222E+006  0.2246822E+02  0.7546771E-02  0.1700278E+00
         21   -1    0    0  504  501  0.00000000000E+00  0.00000000000E+00  0.86630307570E+02  0.86630307570E+02  0.00000000000E+00 0. -1.
         21   -1    0    0  503  502 -0.00000000000E+00 -0.00000000000E+00 -0.70596587321E+01  0.70596587321E+01  0.00000000000E+00 0.  1.
         21    1    1    2  503  501 -0.22406679791E+02  0.16617665135E+01  0.20213114923E+02  0.30222355667E+02  0.00000000000E+00 0.  1.
         21    1    1    2  504  502  0.22406679791E+02 -0.16617665135E+01  0.59357533915E+02  0.63467610634E+02  0.00000000000E+00 0. -1.
<mgrwt>
<rscale>  2 0.22468217E+02</rscale>
<asrwt>0</asrwt>
<pdfrwt beam="1">  1       21 0.13327739E-01 0.22468217E+02</pdfrwt>
<pdfrwt beam="2">  1       21 0.10861014E-02 0.22468217E+02</pdfrwt>
<totfact> 0.10838867E+08</totfact>
</mgrwt>
</event>
<event>
 4    1  0.4619222E+006  0.2446628E+02  0.7546771E-02  0.1668788E+00
         21   -1    0    0  503  501  0.00000000000E+00  0.00000000000E+00  0.15354316478E+02  0.15354316478E+02  0.00000000000E+00 0.  1.
         21   -1    0    0  501  502 -0.00000000000E+00 -0.00000000000E+00 -0.17210877151E+03  0.17210877151E+03  0.00000000000E+00 0.  1.
         21    1    1    2  503  504 -0.16766265405E+02  0.17818283291E+02  0.40576359258E+01  0.24800469439E+02  0.00000000000E+00 0.  1.
         21    1    1    2  504  502  0.16766265405E+02 -0.17818283291E+02 -0.16081209095E+03  0.16266261855E+03  0.00000000000E+00 0.  1.
<mgrwt>
<rscale>  2 0.24466280E+02</rscale>
<asrwt>0</asrwt>
<pdfrwt beam="1">  1       21 0.23622026E-02 0.24466280E+02</pdfrwt>
<pdfrwt beam="2">  1       21 0.26478272E-01 0.24466280E+02</pdfrwt>
<totfact> 0.10257308E+07</totfact>
</mgrwt>
</event>
<event>
 4    1  0.4619222E+006  0.3485248E+02  0.7546771E-02  0.1549914E+00
         21   -1    0    0  503  501  0.00000000000E+00  0.00000000000E+00  0.11252205589E+03  0.11252205589E+03  0.00000000000E+00 0.  1.
         21   -1    0    0  504  502 -0.00000000000E+00 -0.00000000000E+00 -0.10807745018E+02  0.10807745018E+02  0.00000000000E+00 0. -1.
         21    1    1    2  503  502 -0.38415755007E+01  0.34640115209E+02  0.48754158998E+02  0.59930487263E+02  0.00000000000E+00 0. -1.
         21    1    1    2  504  501  0.38415755007E+01 -0.34640115209E+02  0.52960151873E+02  0.63399313643E+02  0.00000000000E+00 0.  1.
<mgrwt>
<rscale>  2 0.34852479E+02</rscale>
<asrwt>0</asrwt>
<pdfrwt beam="1">  1       21 0.17311085E-01 0.34852479E+02</pdfrwt>
<pdfrwt beam="2">  1       21 0.16627301E-02 0.34852479E+02</pdfrwt>
<totfact> 0.40090992E+07</totfact>
</mgrwt>
</event>
<event>
 4    1  0.4619222E+006  0.2318754E+02  0.7546771E-02  0.1688488E+00
         21   -1    0    0  503  501  0.00000000000E+00  0.00000000000E+00  0.36448564180E+02  0.36448564180E+02  0.00000000000E+00 0.  1.
         21   -1    0    0  504  502 -0.00000000000E+00 -0.00000000000E+00 -0.17503030771E+02  0.17503030771E+02  0.00000000000E+00 0.  1.
         21    1    1    2  503  502 -0.10693758002E+02  0.20574385676E+02 -0.12233158213E+01  0.23219782681E+02  0.00000000000E+00 0.  1.
         21    1    1    2  504  501  0.10693758002E+02 -0.20574385676E+02  0.20168849230E+02  0.30731812270E+02  0.00000000000E+00 0.  1.
<mgrwt>
<rscale>  2 0.23187536E+02</rscale>
<asrwt>0</asrwt>
<pdfrwt beam="1">  1       21 0.56074714E-02 0.23187536E+02</pdfrwt>
<pdfrwt beam="2">  1       21 0.26927740E-02 0.23187536E+02</pdfrwt>
<totfact> 0.11316438E+08</totfact>
</mgrwt>
</event>
<event>
 4    1  0.4619222E+006  0.2264972E+02  0.7546771E-02  0.1697252E+00
         21   -1    0    0  503  501  0.00000000000E+00  0.00000000000E+00  0.87356308649E+03  0.87356308649E+03  0.00000000000E+00 0.  1.
         21   -1    0    0  504  502 -0.00000000000E+00 -0.00000000000E+00 -0.64760510289E+00  0.64760510289E+00  0.00000000000E+00 0.  1.
         21    1    1    2  503  502  0.18712101855E+02  0.12761940426E+02  0.30302974173E+03  0.30387503065E+03  0.00000000000E+00 0.  1.
         21    1    1    2  504  501 -0.18712101855E+02 -0.12761940426E+02  0.56988573966E+03  0.57033566095E+03  0.00000000000E+00 0.  1.
<mgrwt>
<rscale>  2 0.22649721E+02</rscale>
<asrwt>0</asrwt>
<pdfrwt beam="1">  1       21 0.13439338E+00 0.22649721E+02</pdfrwt>
<pdfrwt beam="2">  1       21 0.99632253E-04 0.22649721E+02</pdfrwt>
<totfact> 0.40956882E+07</totfact>
</mgrwt>
</event>
<event>
 4    1  0.4619222E+006  0.2493948E+02  0.7546771E-02  0.1661873E+00
         21   -1    0    0  504  501  0.00000000000E+00  0.00000000000E+00  0.16075385839E+02  0.16075385839E+02  0.00000000000E+00 0. -1.
         21   -1    0    0  503  502 -0.00000000000E+00 -0.00000000000E+00 -0.66364751956E+02  0.66364751956E+02  0.00000000000E+00 0. -1.
         21    1    1    2  503  501 -0.24924979605E+02  0.85029448335E+00  0.14730844537E+01  0.24982945920E+02  0.00000000000E+00 0. -1.
         21    1    1    2  504  502  0.24924979605E+02 -0.85029448335E+00 -0.51762450571E+02  0.57457191875E+02  0.00000000000E+00 0. -1.
<mgrwt>
<rscale>  2 0.24939479E+02</rscale>
<asrwt>0</asrwt>
<pdfrwt beam="1">  1       21 0.24731363E-02 0.24939479E+02</pdfrwt>
<pdfrwt beam="2">  1       21 0.10209962E-01 0.24939479E+02</pdfrwt>
<totfact> 0.49574003E+07</totfact>
</mgrwt>
</event>
<event>
 4    1  0.4619222E+006  0.2220615E+02  0.7546771E-02  0.1704711E+00
         21   -1    0    0  503  501  0.00000000000E+00  0.00000000000E+00  0.10013953069E+02  0.10013953069E+02  0.00000000000E+00 0. -1.
         21   -1    0    0  504  502 -0.00000000000E+00 -0.00000000000E+00 -0.59455008956E+02  0.59455008956E+02  0.00000000000E+00 0. -1.
         21    1    1    2  503  502  0.18972032230E+02 -0.11540146725E+02 -0.10324891040E+02  0.24489107137E+02  0.00000000000E+00 0. -1.
         21    1    1    2  504  501 -0.18972032230E+02  0.11540146725E+02 -0.39116164846E+02  0.44979854887E+02  0.00000000000E+00 0. -1.
<mgrwt>
<rscale>  2 0.22206148E+02</rscale>
<asrwt>0</asrwt>
<pdfrwt beam="1">  1       21 0.15406082E-02 0.22206148E+02</pdfrwt>
<pdfrwt beam="2">  1       21 0.91469244E-02 0.22206148E+02</pdfrwt>
<totfact> 0.11910051E+08</totfact>
</mgrwt>
</event>
<event>
 4    1  0.4619222E+006  0.2284599E+02  0.7546771E-02  0.1694019E+00
         21   -1    0    0  503  501  0.00000000000E+00  0.00000000000E+00  0.30168241300E+01  0.30168241300E+01  0.00000000000E+00 0.  1.
         21   -1    0    0  504  502 -0.00000000000E+00 -0.00000000000E+00 -0.46319413572E+03  0.46319413572E+03  0.00000000000E+00 0. -1.
         21    1    1    2  503  502  0.18862173870E+02 -0.12890218423E+02 -0.45583655973E+02  0.50988322447E+02  0.00000000000E+00 0.  1.
         21    1    1    2  504  501 -0.18862173870E+02  0.12890218423E+02 -0.41459365561E+03  0.41522263740E+03  0.00000000000E+00 0. -1.
<mgrwt>
<rscale>  2 0.22845992E+02</rscale>
<asrwt>0</asrwt>
<pdfrwt beam="1">  1       21 0.46412728E-03 0.22845992E+02</pdfrwt>
<pdfrwt beam="2">  1       21 0.71260561E-01 0.22845992E+02</pdfrwt>
<totfact> 0.17660827E+07</totfact>
</mgrwt>
</event>
<event>
 4    1  0.4619222E+006  0.2735666E+02  0.7546771E-02  0.1629291E+00
         21   -1    0    0  504  501  0.00000000000E+00  0.00000000000E+00  0.38628130685E+00  0.38628130685E+00  0.00000000000E+00 0.  1.
         21   -1    0    0  503  502 -0.00000000000E+00 -0.00000000000E+00 -0.19488936665E+04  0.19488936665E+04  0.00000000000E+00 0.  1.
         21    1    1    2  503  501 -0.27339200388E+02 -0.97712616017E+00 -0.89945008517E+03  0.89986601356E+03  0.00000000000E+00 0.  1.
         21    1    1    2  504  502  0.27339200388E+02  0.97712616017E+00 -0.10490573001E+04  0.10494139343E+04  0.00000000000E+00 0.  1.
<mgrwt>
<rscale>  2 0.27356656E+02</rscale>
<asrwt>0</asrwt>
<pdfrwt beam="1">  1       21 0.59426203E-04 0.27356656E+02</pdfrwt>
<pdfrwt beam="2">  1       21 0.29983832E+00 0.27356656E+02</pdfrwt>
<totfact> 0.10227845E+07</totfact>
</mgrwt>
</event>
<event>
 4    1  0.4619222E+006  0.2883762E+02  0.7546771E-02  0.1611304E+00
         21   -1    0    0  504  501  0.00000000000E+00  0.00000000000E+00  0.41307751056E+02  0.41307751056E+02  0.00000000000E+00 0. -1.
         21   -1    0    0  501  502 -0.00000000000E+00 -0.00000000000E+00 -0.26965685564E+02  0.26965685564E+02  0.00000000000E+00 0. -1.
         21    1    1    2  503  502  0.18777899641E+02 -0.21886037209E+02 -0.10013714554E+02  0.30526752510E+02  0.00000000000E+00 0. -1.
         21    1    1    2  504  503 -0.18777899641E+02  0.21886037209E+02  0.24355780046E+02  0.37746684110E+02  0.00000000000E+00 0. -1.
<mgrwt>
<rscale>  2 0.28837617E+02</rscale>
<asrwt>0</asrwt>
<pdfrwt beam="1">  1       21 0.63550386E-02 0.28837617E+02</pdfrwt>
<pdfrwt beam="2">  1       21 0.41485670E-02 0.28837617E+02</pdfrwt>
<totfact> 0.49609231E+07</totfact>
</mgrwt>
</event>
<event>
 4    1  0.4619222E+006  0.3133994E+02  0.7546771E-02  0.1583733E+00
         21   -1    0    0  504  501  0.00000000000E+00  0.00000000000E+00  0.29263035795E+02  0.29263035795E+02  0.00000000000E+00 0.  1.
         21   -1    0    0  503  502 -0.00000000000E+00 -0.00000000000E+00 -0.13758184145E+03  0.13758184145E+03  0.00000000000E+00 0.  1.
         21    1    1    2  503  501  0.20583078256E+02 -0.23633218752E+02  0.18376947150E+02  0.36330487549E+02  0.00000000000E+00 0.  1.
         21    1    1    2  504  502 -0.20583078256E+02  0.23633218752E+02 -0.12669575281E+03  0.13051438970E+03  0.00000000000E+00 0.  1.
<mgrwt>
<rscale>  2 0.31339945E+02</rscale>
<asrwt>0</asrwt>
<pdfrwt beam="1">  1       21 0.45020056E-02 0.31339945E+02</pdfrwt>
<pdfrwt beam="2">  1       21 0.21166437E-01 0.31339945E+02</pdfrwt>
<totfact> 0.57661262E+06</totfact>
</mgrwt>
</event>
<event>
 4    1  0.4619222E+006  0.2211828E+02  0.7546771E-02  0.1706214E+00
         21   -1    0    0  503  501  0.00000000000E+00  0.00000000000E+00  0.22267227158E+01  0.22267227158E+01  0.00000000000E+00 0. -1.
         21   -1    0    0  504  502 -0.00000000000E+00 -0.00000000000E+00 -0.22036511414E+03  0.22036511414E+03  0.00000000000E+00 0. -1.
         21    1    1    2  503  502 -0.21965879998E+02 -0.25919592851E+01 -0.11516883421E+03  0.11727352007E+03  0.00000000000E+00 0. -1.
         21    1    1    2  504  501  0.21965879998E+02  0.25919592851E+01 -0.10296955721E+03  0.10531831678E+03  0.00000000000E+00 0. -1.
<mgrwt>
<rscale>  2 0.22118276E+02</rscale>
<asrwt>0</asrwt>
<pdfrwt beam="1">  1       21 0.34257261E-03 0.22118276E+02</pdfrwt>
<pdfrwt beam="2">  1       21 0.33902336E-01 0.22118276E+02</pdfrwt>
<totfact> 0.11566264E+08</totfact>
</mgrwt>
</event>
<event>
 4    1  0.4619222E+006  0.2606361E+02  0.7546771E-02  0.1646179E+00
         21   -1    0    0  502  501  0.00000000000E+00  0.00000000000E+00  0.33770104602E+02  0.33770104602E+02  0.00000000000E+00 0. -1.
         21   -1    0    0  504  502 -0.00000000000E+00 -0.00000000000E+00 -0.20535334525E+03  0.20535334525E+03  0.00000000000E+00 0. -1.
         21    1    1    2  503  501 -0.38561878627E+01 -0.25776768934E+02  0.27763262319E+02  0.38080319538E+02  0.00000000000E+00 0. -1.
         21    1    1    2  504  503  0.38561878627E+01  0.25776768934E+02 -0.19934650296E+03  0.20104313031E+03  0.00000000000E+00 0. -1.
<mgrwt>
<rscale>  2 0.26063615E+02</rscale>
<asrwt>0</asrwt>
<pdfrwt beam="1">  1       21 0.51954008E-02 0.26063615E+02</pdfrwt>
<pdfrwt beam="2">  1       21 0.31592822E-01 0.26063615E+02</pdfrwt>
<totfact> 0.21722021E+06</totfact>
</mgrwt>
</event>
<event>
 4    1  0.4619222E+006  0.2328172E+02  0.7546771E-02  0.1686984E+00
         21   -1    0    0  502  501  0.00000000000E+00  0.00000000000E+00  0.31997833192E+02  0.31997833192E+02  0.00000000000E+00 0. -1.
         21   -1    0    0  503  502 -0.00000000000E+00 -0.00000000000E+00 -0.20481679488E+03  0.20481679488E+03  0.00000000000E+00 0.  1.
         21    1    1    2  503  504 -0.91520753424E+01 -0.21407424773E+02 -0.19981455786E+03  0.20116633876E+03  0.00000000000E+00 0.  1.
         21    1    1    2  504  501  0.91520753424E+01  0.21407424773E+02  0.26995596167E+02  0.35648289313E+02  0.00000000000E+00 0. -1.
<mgrwt>
<rscale>  2 0.23281716E+02</rscale>
<asrwt>0</asrwt>
<pdfrwt beam="1">  1       21 0.49227435E-02 0.23281716E+02</pdfrwt>
<pdfrwt beam="2">  1       21 0.31510277E-01 0.23281716E+02</pdfrwt>
<totfact> 0.23467188E+06</totfact>
</mgrwt>
</event>
<event>
 4    1  0.4619222E+006  0.2450753E+02  0.7546771E-02  0.1668178E+00
         21   -1    0    0  503  501  0.00000000000E+00  0.00000000000E+00  0.47875597765E+02  0.47875597765E+02  0.00000000000E+00 0.  1.
         21   -1    0    0  504  502 -0.00000000000E+00 -0.00000000000E+00 -0.66356085849E+02  0.66356085849E+02  0.00000000000E+00 0.  1.
         21    1    1    2  503  502 -0.36987349876E+01  0.24226807961E+02 -0.60674260195E+02  0.65436875801E+02  0.00000000000E+00 0.  1.
         21    1    1    2  504  501  0.36987349876E+01 -0.24226807961E+02  0.42193772111E+02  0.48794807812E+02  0.00000000000E+00 0.  1.
<mgrwt>
<rscale>  2 0.24507527E+02</rscale>
<asrwt>0</asrwt>
<pdfrwt beam="1">  1       21 0.73654766E-02 0.24507527E+02</pdfrwt>
<pdfrwt beam="2">  1       21 0.10208629E-01 0.24507527E+02</pdfrwt>
<totfact> 0.87486604E+06</totfact>
</mgrwt>
</event>
<event>
 4    1  0.4619222E+006  0.2121915E+02  0.7546771E-02  0.1722117E+00
         21   -1    0    0  503  501  0.00000000000E+00  0.00000000000E+00  0.23315944925E+03  0.23315944925E+03  0.00000000000E+00 0.  1.
         21   -1    0    0  501  502 -0.00000000000E+00 -0.00000000000E+00 -0.25295196868E+02  0.25295196868E+02  0.00000000000E+00 0.  1.
         21    1    1    2  503  504  0.21054104485E+02 -0.26413754125E+01  0.22812878037E+03  0.22911349286E+03  0.00000000000E+00 0.  1.
         21    1    1    2  504  502 -0.21054104485E+02  0.26413754125E+01 -0.20264527986E+02  0.29341153254E+02  0.00000000000E+00 0.  1.
<mgrwt>
<rscale>  2 0.21219147E+02</rscale>
<asrwt>0</asrwt>
<pdfrwt beam="1">  1       21 0.35870683E-01 0.21219147E+02</pdfrwt>
<pdfrwt beam="2">  1       21 0.38915689E-02 0.21219147E+02</pdfrwt>
<totfact> 0.26469201E+06</totfact>
</mgrwt>
</event>
<event>
 4    1  0.4619222E+006  0.2264832E+02  0.7546771E-02  0.1697275E+00
         21   -1    0    0  503  501  0.00000000000E+00  0.00000000000E+00  0.62458523619E+02  0.62458523619E+02  0.00000000000E+00 0. -1.
         21   -1    0    0  504  502 -0.00000000000E+00 -0.00000000000E+00 -0.12724324637E+02  0.12724324637E+02  0.00000000000E+00 0. -1.
         21    1    1    2  503  502 -0.22306520682E+02 -0.39199154998E+01  0.24828308976E+01  0.22784008685E+02  0.00000000000E+00 0. -1.
         21    1    1    2  504  501  0.22306520682E+02  0.39199154998E+01  0.47251368085E+02  0.52398839571E+02  0.00000000000E+00 0. -1.
<mgrwt>
<rscale>  2 0.22648324E+02</rscale>
<asrwt>0</asrwt>
<pdfrwt beam="1">  1       21 0.96090034E-02 0.22648324E+02</pdfrwt>
<pdfrwt beam="2">  1       21 0.19575884E-02 0.22648324E+02</pdfrwt>
<totfact> 0.76631704E+07</totfact>
</mgrwt>
</event>
<event>
 4    1  0.4619222E+006  0.2296792E+02  0.7546771E-02  0.1692031E+00
         21   -1    0    0  504  501  0.00000000000E+00  0.00000000000E+00  0.25601028777E+03  0.25601028777E+03  0.00000000000E+00 0. -1.
         21   -1    0    0  503  502 -0.00000000000E+00 -0.00000000000E+00 -0.32275409923E+01  0.32275409923E+01  0.00000000000E+00 0. -1.
         21    1    1    2  503  501 -0.21846614946E+02 -0.70887634755E+01  0.20433201129E+03  0.20561881235E+03  0.00000000000E+00 0. -1.
         21    1    1    2  504  502  0.21846614946E+02  0.70887634755E+01  0.48450735480E+02  0.53619016410E+02  0.00000000000E+00 0. -1.
<mgrwt>
<rscale>  2 0.22967916E+02</rscale>
<asrwt>0</asrwt>
<pdfrwt beam="1">  1       21 0.39386182E-01 0.22967916E+02</pdfrwt>
<pdfrwt beam="2">  1       21 0.49654497E-03 0.22967916E+02</pdfrwt>
<totfact> 0.51260499E+07</totfact>
</mgrwt>
</event>
<event>
 4    1  0.4619222E+006  0.2959916E+02  0.7546771E-02  0.1602562E+00
         21   -1    0    0  504  501  0.00000000000E+00  0.00000000000E+00  0.10082180144E+02  0.10082180144E+02  0.00000000000E+00 0. -1.
         21   -1    0    0  503  502 -0.00000000000E+00 -0.00000000000E+00 -0.51552738682E+03  0.51552738682E+03  0.00000000000E+00 0. -1.
         21    1    1    2  503  501 -0.29522022943E+02 -0.21354966232E+01 -0.13088334395E+02  0.32363786579E+02  0.00000000000E+00 0. -1.
         21    1    1    2  504  502  0.29522022943E+02  0.21354966232E+01 -0.49235687228E+03  0.49324578038E+03  0.00000000000E+00 0. -1.
<mgrwt>
<rscale>  2 0.29599159E+02</rscale>
<asrwt>0</asrwt>
<pdfrwt beam="1">  1       21 0.15511043E-02 0.29599159E+02</pdfrwt>
<pdfrwt beam="2">  1       21 0.79311921E-01 0.29599159E+02</pdfrwt>
<totfact> 0.23943328E+06</totfact>
</mgrwt>
</event>
<event>
 4    1  0.4619222E+006  0.2567575E+02  0.7546771E-02  0.1651481E+00
         21   -1    0    0  504  501  0.00000000000E+00  0.00000000000E+00  0.11492326094E+03  0.11492326094E+03  0.00000000000E+00 0.  1.
         21   -1    0    0  503  502 -0.00000000000E+00 -0.00000000000E+00 -0.67628402870E+01  0.67628402870E+01  0.00000000000E+00 0.  1.
         21    1    1    2  503  501 -0.24857145238E+02 -0.64316752735E+01  0.77783921612E+02  0.81912041713E+02  0.00000000000E+00 0.  1.
         21    1    1    2  504  502  0.24857145238E+02  0.64316752735E+01  0.30376499038E+02  0.39774059511E+02  0.00000000000E+00 0.  1.
<mgrwt>
<rscale>  2 0.25675750E+02</rscale>
<asrwt>0</asrwt>
<pdfrwt beam="1">  1       21 0.17680500E-01 0.25675750E+02</pdfrwt>
<pdfrwt beam="2">  1       21 0.10404370E-02 0.25675750E+02</pdfrwt>
<totfact> 0.73934245E+07</totfact>
</mgrwt>
</event>
<event>
 4    1  0.4619222E+006  0.2002717E+02  0.7546771E-02  0.1744788E+00
         21   -1    0    0  504  501  0.00000000000E+00  0.00000000000E+00  0.26116311588E+01  0.26116311588E+01  0.00000000000E+00 0. -1.
         21   -1    0    0  501  502 -0.00000000000E+00 -0.00000000000E+00 -0.23657382901E+03  0.23657382901E+03  0.00000000000E+00 0. -1.
         21    1    1    2  503  502 -0.15070347698E+02  0.13189848848E+02 -0.18781663173E+03  0.18888137718E+03  0.00000000000E+00 0. -1.
         21    1    1    2  504  503  0.15070347698E+02 -0.13189848848E+02 -0.46145566125E+02  0.50304082989E+02  0.00000000000E+00 0. -1.
<mgrwt>
<rscale>  2 0.20027169E+02</rscale>
<asrwt>0</asrwt>
<pdfrwt beam="1">  1       21 0.40178921E-03 0.20027169E+02</pdfrwt>
<pdfrwt beam="2">  1       21 0.36395991E-01 0.20027169E+02</pdfrwt>
<totfact> 0.78236045E+07</totfact>
</mgrwt>
</event>
<event>
 4    1  0.4619222E+006  0.2612451E+02  0.7546771E-02  0.1645356E+00
         21   -1    0    0  503  501  0.00000000000E+00  0.00000000000E+00  0.79113309224E+02  0.79113309224E+02  0.00000000000E+00 0.  1.
         21   -1    0    0  501  502 -0.00000000000E+00 -0.00000000000E+00 -0.14125366451E+02  0.14125366451E+02  0.00000000000E+00 0. -1.
         21    1    1    2  503  504  0.25453188086E+02  0.58843364337E+01  0.61580589081E+02  0.66892893125E+02  0.00000000000E+00 0.  1.
         21    1    1    2  504  502 -0.25453188086E+02 -0.58843364337E+01  0.34073536911E+01  0.26345782550E+02  0.00000000000E+00 0. -1.
<mgrwt>
<rscale>  2 0.26124513E+02</rscale>
<asrwt>0</asrwt>
<pdfrwt beam="1">  1       21 0.12171278E-01 0.26124513E+02</pdfrwt>
<pdfrwt beam="2">  1       21 0.21731334E-02 0.26124513E+02</pdfrwt>
<totfact> 0.45629973E+07</totfact>
</mgrwt>
</event>
<event>
 4    1  0.4619222E+006  0.2013733E+02  0.7546771E-02  0.1742611E+00
         21   -1    0    0  504  501  0.00000000000E+00  0.00000000000E+00  0.30614485617E+02  0.30614485617E+02  0.00000000000E+00 0. -1.
         21   -1    0    0  503  502 -0.00000000000E+00 -0.00000000000E+00 -0.13247386103E+02  0.13247386103E+02  0.00000000000E+00 0. -1.
         21    1    1    2  503  501 -0.85106124675E+01 -0.18250519943E+02  0.84402643589E+01  0.21834607054E+02  0.00000000000E+00 0. -1.
         21    1    1    2  504  502  0.85106124675E+01  0.18250519943E+02  0.89268351561E+01  0.22027264666E+02  0.00000000000E+00 0. -1.
<mgrwt>
<rscale>  2 0.20137329E+02</rscale>
<asrwt>0</asrwt>
<pdfrwt beam="1">  1       21 0.47099208E-02 0.20137329E+02</pdfrwt>
<pdfrwt beam="2">  1       21 0.20380594E-02 0.20137329E+02</pdfrwt>
<totfact> 0.21946293E+08</totfact>
</mgrwt>
</event>
<event>
 4    1  0.4619222E+006  0.2923392E+02  0.7546771E-02  0.1606714E+00
         21   -1    0    0  504  501  0.00000000000E+00  0.00000000000E+00  0.77085723628E+00  0.77085723628E+00  0.00000000000E+00 0.  1.
         21   -1    0    0  503  502 -0.00000000000E+00 -0.00000000000E+00 -0.16878036968E+04  0.16878036968E+04  0.00000000000E+00 0.  1.
         21    1    1    2  503  501 -0.26598828837E+02  0.12129483010E+02 -0.13380784346E+04  0.13383977433E+04  0.00000000000E+00 0.  1.
         21    1    1    2  504  502  0.26598828837E+02 -0.12129483010E+02 -0.34895440498E+03  0.35017681078E+03  0.00000000000E+00 0.  1.
<mgrwt>
<rscale>  2 0.29233920E+02</rscale>
<asrwt>0</asrwt>
<pdfrwt beam="1">  1       21 0.11859391E-03 0.29233920E+02</pdfrwt>
<pdfrwt beam="2">  1       21 0.25966104E+00 0.29233920E+02</pdfrwt>
<totfact> 0.60399152E+06</totfact>
</mgrwt>
</event>
<event>
 4    1  0.4619222E+006  0.5208307E+02  0.7546771E-02  0.1434419E+00
         21   -1    0    0  503  501  0.00000000000E+00  0.00000000000E+00  0.20278472587E+03  0.20278472587E+03  0.00000000000E+00 0.  1.
         21   -1    0    0  504  502 -0.00000000000E+00 -0.00000000000E+00 -0.25285161133E+03  0.25285161133E+03  0.00000000000E+00 0. -1.
         21    1    1    2  503  502  0.40106679552E+02  0.33228002116E+02 -0.24674342960E+03  0.25218042335E+03  0.00000000000E+00 0. -1.
         21    1    1    2  504  501 -0.40106679552E+02 -0.33228002116E+02  0.19667654413E+03  0.20345591385E+03  0.00000000000E+00 0.  1.
<mgrwt>
<rscale>  2 0.52083067E+02</rscale>
<asrwt>0</asrwt>
<pdfrwt beam="1">  1       21 0.31197650E-01 0.52083067E+02</pdfrwt>
<pdfrwt beam="2">  1       21 0.38900248E-01 0.52083067E+02</pdfrwt>
<totfact> 0.68210294E+04</totfact>
</mgrwt>
</event>
<event>
 4    1  0.4619222E+006  0.2516568E+02  0.7546771E-02  0.1658633E+00
         21   -1    0    0  503  501  0.00000000000E+00  0.00000000000E+00  0.10607478132E+03  0.10607478132E+03  0.00000000000E+00 0. -1.
         21   -1    0    0  501  502 -0.00000000000E+00 -0.00000000000E+00 -0.12579206644E+04  0.12579206644E+04  0.00000000000E+00 0.  1.
         21    1    1    2  503  504  0.55834305235E+01  0.24538480011E+02  0.10445438488E+03  0.10744314877E+03  0.00000000000E+00 0. -1.
         21    1    1    2  504  502 -0.55834305235E+01 -0.24538480011E+02 -0.12563002679E+04  0.12565522969E+04  0.00000000000E+00 0.  1.
<mgrwt>
<rscale>  2 0.25165685E+02</rscale>
<asrwt>0</asrwt>
<pdfrwt beam="1">  1       21 0.16319198E-01 0.25165685E+02</pdfrwt>
<pdfrwt beam="2">  1       21 0.19352625E+00 0.25165685E+02</pdfrwt>
<totfact> 0.68892863E+03</totfact>
</mgrwt>
</event>
<event>
 4    1  0.4619222E+006  0.2333389E+02  0.7546771E-02  0.1686154E+00
         21   -1    0    0  504  501  0.00000000000E+00  0.00000000000E+00  0.86232119632E+03  0.86232119632E+03  0.00000000000E+00 0. -1.
         21   -1    0    0  503  502 -0.00000000000E+00 -0.00000000000E+00 -0.63161608066E+00  0.63161608066E+00  0.00000000000E+00 0. -1.
         21    1    1    2  503  501 -0.22820493922E+02 -0.48677926847E+01  0.42288011055E+03  0.42352338571E+03  0.00000000000E+00 0. -1.
         21    1    1    2  504  502  0.22820493922E+02  0.48677926847E+01  0.43880946970E+03  0.43942942669E+03  0.00000000000E+00 0. -1.
<mgrwt>
<rscale>  2 0.23333888E+02</rscale>
<asrwt>0</asrwt>
<pdfrwt beam="1">  1       21 0.13266386E+00 0.23333888E+02</pdfrwt>
<pdfrwt beam="2">  1       21 0.97172394E-04 0.23333888E+02</pdfrwt>
<totfact> 0.43990571E+07</totfact>
</mgrwt>
</event>
<event>
 4    1  0.4619222E+006  0.2545044E+02  0.7546771E-02  0.1654615E+00
         21   -1    0    0  502  501  0.00000000000E+00  0.00000000000E+00  0.79143185802E+01  0.79143185802E+01  0.00000000000E+00 0.  1.
         21   -1    0    0  504  502 -0.00000000000E+00 -0.00000000000E+00 -0.10423710987E+03  0.10423710987E+03  0.00000000000E+00 0.  1.
         21    1    1    2  503  501 -0.59068013675E+01 -0.24755500918E+02 -0.22169471272E+02  0.33752193775E+02  0.00000000000E+00 0.  1.
         21    1    1    2  504  503  0.59068013675E+01  0.24755500918E+02 -0.74153320019E+02  0.78399234677E+02  0.00000000000E+00 0.  1.
<mgrwt>
<rscale>  2 0.25450445E+02</rscale>
<asrwt>0</asrwt>
<pdfrwt beam="1">  1       21 0.12175875E-02 0.25450445E+02</pdfrwt>
<pdfrwt beam="2">  1       21 0.16036478E-01 0.25450445E+02</pdfrwt>
<totfact> 0.68830715E+07</totfact>
</mgrwt>
</event>
<event>
 4    1  0.4619222E+006  0.2458662E+02  0.7546771E-02  0.1667011E+00
         21   -1    0    0  502  501  0.00000000000E+00  0.00000000000E+00  0.18259112597E+03  0.18259112597E+03  0.00000000000E+00 0. -1.
         21   -1    0    0  503  502 -0.00000000000E+00 -0.00000000000E+00 -0.25853709154E+03  0.25853709154E+03  0.00000000000E+00 0.  1.
         21    1    1    2  503  504  0.16115452807E+02  0.18568636100E+02 -0.25712032865E+03  0.25829317736E+03  0.00000000000E+00 0.  1.
         21    1    1    2  504  501 -0.16115452807E+02 -0.18568636100E+02  0.18117436308E+03  0.18283504014E+03  0.00000000000E+00 0. -1.
<mgrwt>
<rscale>  2 0.24586624E+02</rscale>
<asrwt>0</asrwt>
<pdfrwt beam="1">  1       21 0.28090942E-01 0.24586624E+02</pdfrwt>
<pdfrwt beam="2">  1       21 0.39774937E-01 0.24586624E+02</pdfrwt>
<totfact> 0.81394351E+04</totfact>
</mgrwt>
</event>
<event>
 4    1  0.4619222E+006  0.2586010E+02  0.7546771E-02  0.1648947E+00
         21   -1    0    0  502  501  0.00000000000E+00  0.00000000000E+00  0.20167267164E+01  0.20167267164E+01  0.00000000000E+00 0.  1.
         21   -1    0    0  503  502 -0.00000000000E+00 -0.00000000000E+00 -0.53811161378E+03  0.53811161378E+03  0.00000000000E+00 0.  1.
         21    1    1    2  503  504 -0.21153237897E+02 -0.14875664498E+02 -0.43535051708E+03  0.43611789414E+03  0.00000000000E+00 0.  1.
         21    1    1    2  504  501  0.21153237897E+02  0.14875664498E+02 -0.10074436999E+03  0.10401044636E+03  0.00000000000E+00 0.  1.
<mgrwt>
<rscale>  2 0.25860102E+02</rscale>
<asrwt>0</asrwt>
<pdfrwt beam="1">  1       21 0.31026577E-03 0.25860102E+02</pdfrwt>
<pdfrwt beam="2">  1       21 0.82786369E-01 0.25860102E+02</pdfrwt>
<totfact> 0.23875157E+07</totfact>
</mgrwt>
</event>
<event>
 4    1  0.4619222E+006  0.2145431E+02  0.7546771E-02  0.1717864E+00
         21   -1    0    0  504  501  0.00000000000E+00  0.00000000000E+00  0.23863447823E+01  0.23863447823E+01  0.00000000000E+00 0. -1.
         21   -1    0    0  503  502 -0.00000000000E+00 -0.00000000000E+00 -0.84015061117E+03  0.84015061117E+03  0.00000000000E+00 0. -1.
         21    1    1    2  503  501  0.10782597370E+02 -0.18547852019E+02 -0.49120315221E+02  0.53601236814E+02  0.00000000000E+00 0. -1.
         21    1    1    2  504  502 -0.10782597370E+02  0.18547852019E+02 -0.78864395117E+03  0.78893571914E+03  0.00000000000E+00 0. -1.
<mgrwt>
<rscale>  2 0.21454305E+02</rscale>
<asrwt>0</asrwt>
<pdfrwt beam="1">  1       21 0.36712999E-03 0.21454305E+02</pdfrwt>
<pdfrwt beam="2">  1       21 0.12925393E+00 0.21454305E+02</pdfrwt>
<totfact> 0.67762894E+06</totfact>
</mgrwt>
</event>
<event>
 4    1  0.4619222E+006  0.2220758E+02  0.7546771E-02  0.1704687E+00
         21   -1    0    0  504  501  0.00000000000E+00  0.00000000000E+00  0.86650600069E+02  0.86650600069E+02  0.00000000000E+00 0.  1.
         21   -1    0    0  503  502 -0.00000000000E+00 -0.00000000000E+00 -0.99217889408E+01  0.99217889408E+01  0.00000000000E+00 0. -1.
         21    1    1    2  503  501 -0.82093786581E+01  0.20634504448E+02  0.68354074389E+01  0.23235736843E+02  0.00000000000E+00 0. -1.
         21    1    1    2  504  502  0.82093786581E+01 -0.20634504448E+02  0.69893403689E+02  0.73336652167E+02  0.00000000000E+00 0.  1.
<mgrwt>
<rscale>  2 0.22207581E+02</rscale>
<asrwt>0</asrwt>
<pdfrwt beam="1">  1       21 0.13330861E-01 0.22207581E+02</pdfrwt>
<pdfrwt beam="2">  1       21 0.15264291E-02 0.22207581E+02</pdfrwt>
<totfact> 0.64566641E+07</totfact>
</mgrwt>
</event>
<event>
 4    1  0.4619222E+006  0.3742490E+02  0.7546771E-02  0.1528064E+00
         21   -1    0    0  504  501  0.00000000000E+00  0.00000000000E+00  0.42615720949E+03  0.42615720949E+03  0.00000000000E+00 0.  1.
         21   -1    0    0  503  502 -0.00000000000E+00 -0.00000000000E+00 -0.57205983340E+01  0.57205983340E+01  0.00000000000E+00 0.  1.
         21    1    1    2  503  501  0.10180673044E+02  0.36013569470E+02  0.35107164958E+03  0.35306079707E+03  0.00000000000E+00 0.  1.
         21    1    1    2  504  502 -0.10180673044E+02 -0.36013569470E+02  0.69364961574E+02  0.78817010751E+02  0.00000000000E+00 0.  1.
<mgrwt>
<rscale>  2 0.37424902E+02</rscale>
<asrwt>0</asrwt>
<pdfrwt beam="1">  1       21 0.65562623E-01 0.37424902E+02</pdfrwt>
<pdfrwt beam="2">  1       21 0.88009239E-03 0.37424902E+02</pdfrwt>
<totfact> 0.86973892E+06</totfact>
</mgrwt>
</event>
<event>
 4    1  0.4619222E+006  0.3500639E+02  0.7546771E-02  0.1548544E+00
         21   -1    0    0  503  501  0.00000000000E+00  0.00000000000E+00  0.60248056035E+01  0.60248056035E+01  0.00000000000E+00 0. -1.
         21   -1    0    0  504  502 -0.00000000000E+00 -0.00000000000E+00 -0.80103637811E+03  0.80103637811E+03  0.00000000000E+00 0. -1.
         21    1    1    2  503  502 -0.26768912199E+02  0.22558200288E+02 -0.48952837950E+02  0.60181620150E+02  0.00000000000E+00 0. -1.
         21    1    1    2  504  501  0.26768912199E+02 -0.22558200288E+02 -0.74605873456E+03  0.74687956356E+03  0.00000000000E+00 0. -1.
<mgrwt>
<rscale>  2 0.35006386E+02</rscale>
<asrwt>0</asrwt>
<pdfrwt beam="1">  1       21 0.92689376E-03 0.35006386E+02</pdfrwt>
<pdfrwt beam="2">  1       21 0.12323629E+00 0.35006386E+02</pdfrwt>
<totfact> 0.20061782E+06</totfact>
</mgrwt>
</event>
<event>
 4    1  0.4619222E+006  0.2718421E+02  0.7546771E-02  0.1631476E+00
         21   -1    0    0  503  501  0.00000000000E+00  0.00000000000E+00  0.19548917479E+04  0.19548917479E+04  0.00000000000E+00 0. -1.
         21   -1    0    0  504  502 -0.00000000000E+00 -0.00000000000E+00 -0.69354171341E+01  0.69354171341E+01  0.00000000000E+00 0. -1.
         21    1    1    2  503  502 -0.50830839642E+01 -0.26704750421E+02  0.20171589924E+02  0.33850767757E+02  0.00000000000E+00 0. -1.
         21    1    1    2  504  501  0.50830839642E+01  0.26704750421E+02  0.19277847408E+04  0.19279763973E+04  0.00000000000E+00 0. -1.
<mgrwt>
<rscale>  2 0.27184213E+02</rscale>
<asrwt>0</asrwt>
<pdfrwt beam="1">  1       21 0.30075214E+00 0.27184213E+02</pdfrwt>
<pdfrwt beam="2">  1       21 0.10669888E-02 0.27184213E+02</pdfrwt>
<totfact> 0.14877606E+05</totfact>
</mgrwt>
</event>
<event>
 4    1  0.4619222E+006  0.4425041E+02  0.7546771E-02  0.1479076E+00
         21   -1    0    0  504  501  0.00000000000E+00  0.00000000000E+00  0.26494506028E+02  0.26494506028E+02  0.00000000000E+00 0. -1.
         21   -1    0    0  503  502 -0.00000000000E+00 -0.00000000000E+00 -0.32833160601E+03  0.32833160601E+03  0.00000000000E+00 0. -1.
         21    1    1    2  503  501  0.41906500999E+02  0.14210694654E+02  0.52558256943E+01  0.44561444908E+02  0.00000000000E+00 0. -1.
         21    1    1    2  504  502 -0.41906500999E+02 -0.14210694654E+02 -0.30709292567E+03  0.31026466713E+03  0.00000000000E+00 0. -1.
<mgrwt>
<rscale>  2 0.44250409E+02</rscale>
<asrwt>0</asrwt>
<pdfrwt beam="1">  1       21 0.40760780E-02 0.44250409E+02</pdfrwt>
<pdfrwt beam="2">  1       21 0.50512553E-01 0.44250409E+02</pdfrwt>
<totfact> 0.13657366E+06</totfact>
</mgrwt>
</event>
<event>
 4    1  0.4619222E+006  0.2703563E+02  0.7546771E-02  0.1633375E+00
         21   -1    0    0  504  501  0.00000000000E+00  0.00000000000E+00  0.48500793116E+02  0.48500793116E+02  0.00000000000E+00 0.  1.
         21   -1    0    0  501  502 -0.00000000000E+00 -0.00000000000E+00 -0.56852114785E+03  0.56852114785E+03  0.00000000000E+00 0.  1.
         21    1    1    2  503  502 -0.18262401764E+02 -0.19935147637E+02 -0.56440467425E+03  0.56505182217E+03  0.00000000000E+00 0.  1.
         21    1    1    2  504  503  0.18262401764E+02  0.19935147637E+02  0.44384319509E+02  0.51970118797E+02  0.00000000000E+00 0.  1.
<mgrwt>
<rscale>  2 0.27035633E+02</rscale>
<asrwt>0</asrwt>
<pdfrwt beam="1">  1       21 0.74616606E-02 0.27035633E+02</pdfrwt>
<pdfrwt beam="2">  1       21 0.87464791E-01 0.27035633E+02</pdfrwt>
<totfact> 0.16166321E+05</totfact>
</mgrwt>
</event>
<event>
 4    1  0.4619222E+006  0.2774225E+02  0.7546771E-02  0.1624475E+00
         21   -1    0    0  504  501  0.00000000000E+00  0.00000000000E+00  0.27350359826E+02  0.27350359826E+02  0.00000000000E+00 0. -1.
         21   -1    0    0  503  502 -0.00000000000E+00 -0.00000000000E+00 -0.29977439376E+02  0.29977439376E+02  0.00000000000E+00 0. -1.
         21    1    1    2  503  501 -0.23042104715E+02 -0.15449726693E+02  0.57834228586E+01  0.28338677184E+02  0.00000000000E+00 0. -1.
         21    1    1    2  504  502  0.23042104715E+02  0.15449726693E+02 -0.84105024086E+01  0.28989122018E+02  0.00000000000E+00 0. -1.
<mgrwt>
<rscale>  2 0.27742254E+02</rscale>
<asrwt>0</asrwt>
<pdfrwt beam="1">  1       21 0.42077477E-02 0.27742254E+02</pdfrwt>
<pdfrwt beam="2">  1       21 0.46119137E-02 0.27742254E+02</pdfrwt>
<totfact> 0.80536694E+07</totfact>
</mgrwt>
</event>
<event>
 4    1  0.4619222E+006  0.2452233E+02  0.7546771E-02  0.1667959E+00
         21   -1    0    0  502  501  0.00000000000E+00  0.00000000000E+00  0.95645465923E+01  0.95645465923E+01  0.00000000000E+00 0.  1.
         21   -1    0    0  504  502 -0.00000000000E+00 -0.00000000000E+00 -0.29883699442E+03  0.29883699442E+03  0.00000000000E+00 0. -1.
         21    1    1    2  503  501  0.24513729491E+02  0.64950627875E+00 -0.76134037294E+01  0.25677007386E+02  0.00000000000E+00 0.  1.
         21    1    1    2  504  503 -0.24513729491E+02 -0.64950627875E+00 -0.28165904410E+03  0.28272453363E+03  0.00000000000E+00 0. -1.
<mgrwt>
<rscale>  2 0.24522333E+02</rscale>
<asrwt>0</asrwt>
<pdfrwt beam="1">  1       21 0.14714686E-02 0.24522333E+02</pdfrwt>
<pdfrwt beam="2">  1       21 0.45974924E-01 0.24522333E+02</pdfrwt>
<totfact> 0.76074801E+06</totfact>
</mgrwt>
</event>
<event>
 4    1  0.4619222E+006  0.3970841E+02  0.7546771E-02  0.1510368E+00
         21   -1    0    0  504  501  0.00000000000E+00  0.00000000000E+00  0.16150085497E+02  0.16150085497E+02  0.00000000000E+00 0. -1.
         21   -1    0    0  503  502 -0.00000000000E+00 -0.00000000000E+00 -0.10327115427E+03  0.10327115427E+03  0.00000000000E+00 0.  1.
         21    1    1    2  503  501 -0.34574543006E+02 -0.19528405769E+02 -0.57514155073E+02  0.69890168763E+02  0.00000000000E+00 0.  1.
         21    1    1    2  504  502  0.34574543006E+02  0.19528405769E+02 -0.29606913697E+02  0.49531071001E+02  0.00000000000E+00 0. -1.
<mgrwt>
<rscale>  2 0.39708408E+02</rscale>
<asrwt>0</asrwt>
<pdfrwt beam="1">  1       21 0.24846285E-02 0.39708408E+02</pdfrwt>
<pdfrwt beam="2">  1       21 0.15887870E-01 0.39708408E+02</pdfrwt>
<totfact> 0.25469062E+07</totfact>
</mgrwt>
</event>
<event>
 4    1  0.4619222E+006  0.2699363E+02  0.7546771E-02  0.1633914E+00
         21   -1    0    0  504  501  0.00000000000E+00  0.00000000000E+00  0.46033478214E+00  0.46033478214E+00  0.00000000000E+00 0. -1.
         21   -1    0    0  503  502 -0.00000000000E+00 -0.00000000000E+00 -0.22443014179E+04  0.22443014179E+04  0.00000000000E+00 0. -1.
         21    1    1    2  503  501 -0.14855265411E+02  0.22538353960E+02 -0.51261144809E+03  0.51332168572E+03  0.00000000000E+00 0. -1.
         21    1    1    2  504  502  0.14855265411E+02 -0.22538353960E+02 -0.17312296351E+04  0.17314400670E+04  0.00000000000E+00 0. -1.
<mgrwt>
<rscale>  2 0.26993635E+02</rscale>
<asrwt>0</asrwt>
<pdfrwt beam="1">  1       21 0.70820811E-04 0.26993635E+02</pdfrwt>
<pdfrwt beam="2">  1       21 0.34527677E+00 0.26993635E+02</pdfrwt>
<totfact> 0.47396636E+06</totfact>
</mgrwt>
</event>
<event>
 4    1  0.4619222E+006  0.2691333E+02  0.7546771E-02  0.1634949E+00
         21   -1    0    0  504  501  0.00000000000E+00  0.00000000000E+00  0.37590375264E+02  0.37590375264E+02  0.00000000000E+00 0. -1.
         21   -1    0    0  503  502 -0.00000000000E+00 -0.00000000000E+00 -0.20526307761E+02  0.20526307761E+02  0.00000000000E+00 0. -1.
         21    1    1    2  503  501 -0.26404987762E+02 -0.52061312836E+01  0.13401230469E+01  0.26946671621E+02  0.00000000000E+00 0. -1.
         21    1    1    2  504  502  0.26404987762E+02  0.52061312836E+01  0.15723944456E+02  0.31170011404E+02  0.00000000000E+00 0. -1.
<mgrwt>
<rscale>  2 0.26913327E+02</rscale>
<asrwt>0</asrwt>
<pdfrwt beam="1">  1       21 0.57831346E-02 0.26913327E+02</pdfrwt>
<pdfrwt beam="2">  1       21 0.31578935E-02 0.26913327E+02</pdfrwt>
<totfact> 0.87460449E+07</totfact>
</mgrwt>
</event>
<event>
 4    1  0.4619222E+006  0.2237707E+02  0.7546771E-02  0.1701811E+00
         21   -1    0    0  502  501  0.00000000000E+00  0.00000000000E+00  0.23506008834E+02  0.23506008834E+02  0.00000000000E+00 0.  1.
         21   -1    0    0  503  502 -0.00000000000E+00 -0.00000000000E+00 -0.47884242938E+02  0.47884242938E+02  0.00000000000E+00 0.  1.
         21    1    1    2  503  504  0.10467290258E+01 -0.22352571641E+02 -0.38784460398E+02  0.44776863099E+02  0.00000000000E+00 0.  1.
         21    1    1    2  504  501 -0.10467290258E+01  0.22352571641E+02  0.14406226294E+02  0.26613388673E+02  0.00000000000E+00 0.  1.
<mgrwt>
<rscale>  2 0.22377066E+02</rscale>
<asrwt>0</asrwt>
<pdfrwt beam="1">  1       21 0.36163091E-02 0.22377066E+02</pdfrwt>
<pdfrwt beam="2">  1       21 0.73668065E-02 0.22377066E+02</pdfrwt>
<totfact> 0.45580893E+07</totfact>
</mgrwt>
</event>
<event>
 4    1  0.4619222E+006  0.3195094E+02  0.7546771E-02  0.1577473E+00
         21   -1    0    0  503  501  0.00000000000E+00  0.00000000000E+00  0.14914427879E+01  0.14914427879E+01  0.00000000000E+00 0.  1.
         21   -1    0    0  504  502 -0.00000000000E+00 -0.00000000000E+00 -0.99815234894E+03  0.99815234894E+03  0.00000000000E+00 0.  1.
         21    1    1    2  503  502 -0.28638743818E+01 -0.31822335124E+02 -0.21813894729E+03  0.22046646710E+03  0.00000000000E+00 0.  1.
         21    1    1    2  504  501  0.28638743818E+01  0.31822335124E+02 -0.77852195886E+03  0.77917732463E+03  0.00000000000E+00 0.  1.
<mgrwt>
<rscale>  2 0.31950943E+02</rscale>
<asrwt>0</asrwt>
<pdfrwt beam="1">  1       21 0.22945365E-03 0.31950943E+02</pdfrwt>
<pdfrwt beam="2">  1       21 0.15356129E+00 0.31950943E+02</pdfrwt>
<totfact> 0.94491515E+06</totfact>
</mgrwt>
</event>
<event>
 4    1  0.4619222E+006  0.3015901E+02  0.7546771E-02  0.1596338E+00
         21   -1    0    0  502  501  0.00000000000E+00  0.00000000000E+00  0.15695857839E+02  0.15695857839E+02  0.00000000000E+00 0. -1.
         21   -1    0    0  503  502 -0.00000000000E+00 -0.00000000000E+00 -0.66686096979E+02  0.66686096979E+02  0.00000000000E+00 0. -1.
         21    1    1    2  503  504  0.33850175975E+00 -0.30157112455E+02 -0.40404422487E+02  0.50419077456E+02  0.00000000000E+00 0. -1.
         21    1    1    2  504  501 -0.33850175975E+00  0.30157112455E+02 -0.10585816652E+02  0.31962877362E+02  0.00000000000E+00 0. -1.
<mgrwt>
<rscale>  2 0.30159012E+02</rscale>
<asrwt>0</asrwt>
<pdfrwt beam="1">  1       21 0.24147474E-02 0.30159012E+02</pdfrwt>
<pdfrwt beam="2">  1       21 0.10259399E-01 0.30159012E+02</pdfrwt>
<totfact> 0.53349096E+07</totfact>
</mgrwt>
</event>
<event>
 4    1  0.4619222E+006  0.3533491E+02  0.7546771E-02  0.1545646E+00
         21   -1    0    0  503  501  0.00000000000E+00  0.00000000000E+00  0.12161887606E+02  0.12161887606E+02  0.00000000000E+00 0. -1.
         21   -1    0    0  504  502 -0.00000000000E+00 -0.00000000000E+00 -0.23433916440E+03  0.23433916440E+03  0.00000000000E+00 0. -1.
         21    1    1    2  503  502  0.33215582443E+02  0.12053251494E+02 -0.20347814530E+03  0.20652339191E+03  0.00000000000E+00 0. -1.
         21    1    1    2  504  501 -0.33215582443E+02 -0.12053251494E+02 -0.18699131492E+02  0.39977660101E+02  0.00000000000E+00 0. -1.
<mgrwt>
<rscale>  2 0.35334909E+02</rscale>
<asrwt>0</asrwt>
<pdfrwt beam="1">  1       21 0.18710597E-02 0.35334909E+02</pdfrwt>
<pdfrwt beam="2">  1       21 0.36052178E-01 0.35334909E+02</pdfrwt>
<totfact> 0.88279645E+06</totfact>
</mgrwt>
</event>
<event>
 4    1  0.4619222E+006  0.2181654E+02  0.7546771E-02  0.1711444E+00
         21   -1    0    0  503  501  0.00000000000E+00  0.00000000000E+00  0.14469421426E+03  0.14469421426E+03  0.00000000000E+00 0.  1.
         21   -1    0    0  504  502 -0.00000000000E+00 -0.00000000000E+00 -0.82951628320E+01  0.82951628320E+01  0.00000000000E+00 0.  1.
         21    1    1    2  503  502  0.21545685945E+02  0.34270732724E+01  0.87767849785E+01  0.23515811034E+02  0.00000000000E+00 0.  1.
         21    1    1    2  504  501 -0.21545685945E+02 -0.34270732724E+01  0.12762226645E+03  0.12947356606E+03  0.00000000000E+00 0.  1.
<mgrwt>
<rscale>  2 0.21816540E+02</rscale>
<asrwt>0</asrwt>
<pdfrwt beam="1">  1       21 0.22260647E-01 0.21816540E+02</pdfrwt>
<pdfrwt beam="2">  1       21 0.12761790E-02 0.21816540E+02</pdfrwt>
<totfact> 0.34903472E+07</totfact>
</mgrwt>
</event>
<event>
 4    1  0.4619222E+006  0.2117166E+02  0.7546771E-02  0.1722984E+00
         21   -1    0    0  504  501  0.00000000000E+00  0.00000000000E+00  0.17482653209E+01  0.17482653209E+01  0.00000000000E+00 0.  1.
         21   -1    0    0  501  502 -0.00000000000E+00 -0.00000000000E+00 -0.61750745451E+03  0.61750745451E+03  0.00000000000E+00 0.  1.
         21    1    1    2  503  502  0.20553288206E+02  0.50795387601E+01 -0.54465828278E+03  0.54506961424E+03  0.00000000000E+00 0.  1.
         21    1    1    2  504  503 -0.20553288206E+02 -0.50795387601E+01 -0.71100906411E+02  0.74186105590E+02  0.00000000000E+00 0.  1.
<mgrwt>
<rscale>  2 0.21171664E+02</rscale>
<asrwt>0</asrwt>
<pdfrwt beam="1">  1       21 0.26896362E-03 0.21171664E+02</pdfrwt>
<pdfrwt beam="2">  1       21 0.95001244E-01 0.21171664E+02</pdfrwt>
<totfact> 0.21076295E+07</totfact>
</mgrwt>
</event>
<event>
 4    1  0.4619222E+006  0.2522939E+02  0.7546771E-02  0.1657729E+00
         21   -1    0    0  504  501  0.00000000000E+00  0.00000000000E+00  0.72182281497E+02  0.72182281497E+02  0.00000000000E+00 0. -1.
         21   -1    0    0  503  502 -0.00000000000E+00 -0.00000000000E+00 -0.20738232904E+02  0.20738232904E+02  0.00000000000E+00 0.  1.
         21    1    1    2  503  501  0.10401166415E+02 -0.22985602787E+02 -0.95015441563E+01  0.26959257031E+02  0.00000000000E+00 0.  1.
         21    1    1    2  504  502 -0.10401166415E+02  0.22985602787E+02  0.60945592749E+02  0.65961257370E+02  0.00000000000E+00 0. -1.
<mgrwt>
<rscale>  2 0.25229392E+02</rscale>
<asrwt>0</asrwt>
<pdfrwt beam="1">  1       21 0.11104966E-01 0.25229392E+02</pdfrwt>
<pdfrwt beam="2">  1       21 0.31904974E-02 0.25229392E+02</pdfrwt>
<totfact> 0.29052744E+07</totfact>
</mgrwt>
</event>
<event>
 4    1  0.4619222E+006  0.2587123E+02  0.7546771E-02  0.1648795E+00
         21   -1    0    0  502  501  0.00000000000E+00  0.00000000000E+00  0.11190752405E+02  0.11190752405E+02  0.00000000000E+00 0.  1.
         21   -1    0    0  503  502 -0.00000000000E+00 -0.00000000000E+00 -0.86226994243E+02  0.86226994243E+02  0.00000000000E+00 0.  1.
         21    1    1    2  503  504  0.23929899671E+02  0.98326124857E+01 -0.64478567698E+02  0.69475219028E+02  0.00000000000E+00 0.  1.
         21    1    1    2  504  501 -0.23929899671E+02 -0.98326124857E+01 -0.10557674140E+02  0.27942527620E+02  0.00000000000E+00 0.  1.
<mgrwt>
<rscale>  2 0.25871227E+02</rscale>
<asrwt>0</asrwt>
<pdfrwt beam="1">  1       21 0.17216542E-02 0.25871227E+02</pdfrwt>
<pdfrwt beam="2">  1       21 0.13265691E-01 0.25871227E+02</pdfrwt>
<totfact> 0.56334252E+07</totfact>
</mgrwt>
</event>
<event>
 4    1  0.4619222E+006  0.2585371E+02  0.7546771E-02  0.1649034E+00
         21   -1    0    0  504  501  0.00000000000E+00  0.00000000000E+00  0.17561734266E+02  0.17561734266E+02  0.00000000000E+00 0.  1.
         21   -1    0    0  501  502 -0.00000000000E+00 -0.00000000000E+00 -0.61043879206E+02  0.61043879206E+02  0.00000000000E+00 0. -1.
         21    1    1    2  503  502  0.25822754369E+02  0.12648082204E+01 -0.45857124886E+02  0.52643045940E+02  0.00000000000E+00 0. -1.
         21    1    1    2  504  503 -0.25822754369E+02 -0.12648082204E+01  0.23749799459E+01  0.25962567531E+02  0.00000000000E+00 0.  1.
<mgrwt>
<rscale>  2 0.25853711E+02</rscale>
<asrwt>0</asrwt>
<pdfrwt beam="1">  1       21 0.27018053E-02 0.25853711E+02</pdfrwt>
<pdfrwt beam="2">  1       21 0.93913659E-02 0.25853711E+02</pdfrwt>
<totfact> 0.50058670E+07</totfact>
</mgrwt>
</event>
<event>
 4    1  0.4619222E+006  0.2372335E+02  0.7546771E-02  0.1680046E+00
         21   -1    0    0  503  501  0.00000000000E+00  0.00000000000E+00  0.19221631989E+02  0.19221631989E+02  0.00000000000E+00 0. -1.
         21   -1    0    0  504  502 -0.00000000000E+00 -0.00000000000E+00 -0.38754527636E+02  0.38754527636E+02  0.00000000000E+00 0. -1.
         21    1    1    2  503  502  0.98889594142E+01  0.21563992049E+02 -0.24099921420E+02  0.33817206920E+02  0.00000000000E+00 0. -1.
         21    1    1    2  504  501 -0.98889594142E+01 -0.21563992049E+02  0.45670257729E+01  0.24158952705E+02  0.00000000000E+00 0. -1.
<mgrwt>
<rscale>  2 0.23723349E+02</rscale>
<asrwt>0</asrwt>
<pdfrwt beam="1">  1       21 0.29571742E-02 0.23723349E+02</pdfrwt>
<pdfrwt beam="2">  1       21 0.59622350E-02 0.23723349E+02</pdfrwt>
<totfact> 0.89243937E+07</totfact>
</mgrwt>
</event>
<event>
 4    1  0.4619222E+006  0.2692508E+02  0.7546771E-02  0.1634798E+00
         21   -1    0    0  503  501  0.00000000000E+00  0.00000000000E+00  0.20597061878E+02  0.20597061878E+02  0.00000000000E+00 0.  1.
         21   -1    0    0  504  502 -0.00000000000E+00 -0.00000000000E+00 -0.12234949863E+03  0.12234949863E+03  0.00000000000E+00 0. -1.
         21    1    1    2  503  502  0.15430606582E+02  0.22064818961E+02 -0.11119907862E+03  0.11441238980E+03  0.00000000000E+00 0. -1.
         21    1    1    2  504  501 -0.15430606582E+02 -0.22064818961E+02  0.94466418649E+01  0.28534170705E+02  0.00000000000E+00 0.  1.
<mgrwt>
<rscale>  2 0.26925079E+02</rscale>
<asrwt>0</asrwt>
<pdfrwt beam="1">  1       21 0.31687787E-02 0.26925079E+02</pdfrwt>
<pdfrwt beam="2">  1       21 0.18823000E-01 0.26925079E+02</pdfrwt>
<totfact> 0.12082227E+07</totfact>
</mgrwt>
</event>
<event>
 4    1  0.4619222E+006  0.2255460E+02  0.7546771E-02  0.1698833E+00
         21   -1    0    0  502  501  0.00000000000E+00  0.00000000000E+00  0.10771137715E+02  0.10771137715E+02  0.00000000000E+00 0.  1.
         21   -1    0    0  504  502 -0.00000000000E+00 -0.00000000000E+00 -0.18751347027E+03  0.18751347027E+03  0.00000000000E+00 0. -1.
         21    1    1    2  503  501 -0.15569347050E+02 -0.16318869422E+02 -0.26185124026E+01  0.22706093323E+02  0.00000000000E+00 0.  1.
         21    1    1    2  504  503  0.15569347050E+02  0.16318869422E+02 -0.17412382015E+03  0.17557851466E+03  0.00000000000E+00 0. -1.
<mgrwt>
<rscale>  2 0.22554602E+02</rscale>
<asrwt>0</asrwt>
<pdfrwt beam="1">  1       21 0.16570983E-02 0.22554602E+02</pdfrwt>
<pdfrwt beam="2">  1       21 0.28848224E-01 0.22554602E+02</pdfrwt>
<totfact> 0.14904133E+07</totfact>
</mgrwt>
</event>
<event>
 4    1  0.4619222E+006  0.2140838E+02  0.7546771E-02  0.1718689E+00
         21   -1    0    0  504  501  0.00000000000E+00  0.00000000000E+00  0.31542308927E+03  0.31542308927E+03  0.00000000000E+00 0. -1.
         21   -1    0    0  503  502 -0.00000000000E+00 -0.00000000000E+00 -0.19558710413E+01  0.19558710413E+01  0.00000000000E+00 0.  1.
         21    1    1    2  503  501 -0.10947660127E+01 -0.21380367365E+02  0.76270984329E+02  0.79218568984E+02  0.00000000000E+00 0.  1.
         21    1    1    2  504  502  0.10947660127E+01  0.21380367365E+02  0.23719623390E+03  0.23816039132E+03  0.00000000000E+00 0. -1.
<mgrwt>
<rscale>  2 0.21408377E+02</rscale>
<asrwt>0</asrwt>
<pdfrwt beam="1">  1       21 0.48526589E-01 0.21408377E+02</pdfrwt>
<pdfrwt beam="2">  1       21 0.30090349E-03 0.21408377E+02</pdfrwt>
<totfact> 0.70480093E+07</totfact>
</mgrwt>
</event>
<event>
 4    1  0.4619222E+006  0.2022434E+02  0.7546771E-02  0.1740903E+00
         21   -1    0    0  503  501  0.00000000000E+00  0.00000000000E+00  0.28404012970E+03  0.28404012970E+03  0.00000000000E+00 0.  1.
         21   -1    0    0  504  502 -0.00000000000E+00 -0.00000000000E+00 -0.21580166173E+01  0.21580166173E+01  0.00000000000E+00 0.  1.
         21    1    1    2  503  502  0.14934054886E+01 -0.20169131143E+02  0.22348209767E+03  0.22439534775E+03  0.00000000000E+00 0.  1.
         21    1    1    2  504  501 -0.14934054886E+01  0.20169131143E+02  0.58400015406E+02  0.61802798565E+02  0.00000000000E+00 0.  1.
<mgrwt>
<rscale>  2 0.20224345E+02</rscale>
<asrwt>0</asrwt>
<pdfrwt beam="1">  1       21 0.43698452E-01 0.20224345E+02</pdfrwt>
<pdfrwt beam="2">  1       21 0.33200278E-03 0.20224345E+02</pdfrwt>
<totfact> 0.73554149E+07</totfact>
</mgrwt>
</event>
<event>
 4    1  0.4619222E+006  0.3483079E+02  0.7546771E-02  0.1550108E+00
         21   -1    0    0  503  501  0.00000000000E+00  0.00000000000E+00  0.11383532720E+03  0.11383532720E+03  0.00000000000E+00 0.  1.
         21   -1    0    0  504  502 -0.00000000000E+00 -0.00000000000E+00 -0.14425633577E+02  0.14425633577E+02  0.00000000000E+00 0.  1.
         21    1    1    2  503  502 -0.66818416262E+01 -0.34183865461E+02  0.16927902859E+02  0.38726445236E+02  0.00000000000E+00 0.  1.
         21    1    1    2  504  501  0.66818416262E+01  0.34183865461E+02  0.82481790764E+02  0.89534515540E+02  0.00000000000E+00 0.  1.
<mgrwt>
<rscale>  2 0.34830786E+02</rscale>
<asrwt>0</asrwt>
<pdfrwt beam="1">  1       21 0.17513127E-01 0.34830786E+02</pdfrwt>
<pdfrwt beam="2">  1       21 0.22193283E-02 0.34830786E+02</pdfrwt>
<totfact> 0.25073701E+07</totfact>
</mgrwt>
</event>
<event>
 4    1  0.4619222E+006  0.2251009E+02  0.7546771E-02  0.1699577E+00
         21   -1    0    0  503  501  0.00000000000E+00  0.00000000000E+00  0.21694795088E+02  0.21694795088E+02  0.00000000000E+00 0.  1.
         21   -1    0    0  504  502 -0.00000000000E+00 -0.00000000000E+00 -0.53695816667E+02  0.53695816667E+02  0.00000000000E+00 0.  1.
         21    1    1    2  503  502 -0.13839804436E+02  0.17752857682E+02  0.12334498151E+02  0.25667956431E+02  0.00000000000E+00 0.  1.
         21    1    1    2  504  501  0.13839804436E+02 -0.17752857682E+02 -0.44335519730E+02  0.49722655324E+02  0.00000000000E+00 0.  1.
<mgrwt>
<rscale>  2 0.22510090E+02</rscale>
<asrwt>0</asrwt>
<pdfrwt beam="1">  1       21 0.33376608E-02 0.22510090E+02</pdfrwt>
<pdfrwt beam="2">  1       21 0.82608948E-02 0.22510090E+02</pdfrwt>
<totfact> 0.42950609E+07</totfact>
</mgrwt>
</event>
<event>
 4    1  0.4619222E+006  0.2039472E+02  0.7546771E-02  0.1737591E+00
         21   -1    0    0  504  501  0.00000000000E+00  0.00000000000E+00  0.20001607718E+02  0.20001607718E+02  0.00000000000E+00 0. -1.
         21   -1    0    0  501  502 -0.00000000000E+00 -0.00000000000E+00 -0.93972353368E+02  0.93972353368E+02  0.00000000000E+00 0. -1.
         21    1    1    2  503  502 -0.16479137107E+02  0.12015941411E+02 -0.87273128815E+02  0.89624459948E+02  0.00000000000E+00 0. -1.
         21    1    1    2  504  503  0.16479137107E+02 -0.12015941411E+02  0.13302383165E+02  0.24349501138E+02  0.00000000000E+00 0. -1.
<mgrwt>
<rscale>  2 0.20394725E+02</rscale>
<asrwt>0</asrwt>
<pdfrwt beam="1">  1       21 0.30771705E-02 0.20394725E+02</pdfrwt>
<pdfrwt beam="2">  1       21 0.14457285E-01 0.20394725E+02</pdfrwt>
<totfact> 0.18804584E+07</totfact>
</mgrwt>
</event>
