<event>
 5    1  0.6125604E+000  0.9185287E+02  0.7546771E-02  0.1298426E+00
         -1   -1    0    0    0  501 -0.00000000000E+00  0.00000000000E+00  0.81969954023E+02  0.81969954023E+02  0.00000000000E+00 0.  1.
          1   -1    0    0  501    0  0.00000000000E+00 -0.00000000000E+00 -0.25731836159E+02  0.25731836159E+02  0.00000000000E+00 0. -1.
         23    2    1    2    0    0  0.00000000000E+00  0.00000000000E+00  0.56238117864E+02  0.10770179018E+03  0.91852869893E+02 0.  0.
        -11    1    3    3    0    0  0.59483986885E+01  0.45461084865E+02  0.31253016396E+02  0.55487338356E+02  0.00000000000E+00 0.  1.
         11    1    3    3    0    0 -0.59483986885E+01 -0.45461084865E+02  0.24985101468E+02  0.52214451825E+02  0.00000000000E+00 0. -1.
<mgrwt>
<rscale>  0 0.91852870E+02</rscale>
<asrwt>0</asrwt>
<pdfrwt beam="2">  1        1 0.39587441E-02 0.91852870E+02</pdfrwt>
<pdfrwt beam="1">  1       -1 0.12610762E-01 0.91852870E+02</pdfrwt>
<totfact> 0.82719553E+04</totfact>
</mgrwt>
</event>
<event>
 5    1  0.6125604E+000  0.6406325E+02  0.7546771E-02  0.1381530E+00
          2   -1    0    0  501    0  0.00000000000E+00  0.00000000000E+00  0.37588452696E+02  0.37588452696E+02  0.00000000000E+00 0. -1.
         -2   -1    0    0    0  501 -0.00000000000E+00 -0.00000000000E+00 -0.27296283367E+02  0.27296283367E+02  0.00000000000E+00 0.  1.
         23    2    1    2    0    0  0.00000000000E+00  0.00000000000E+00  0.10292169329E+02  0.64884736064E+02  0.64063251748E+02 0.  0.
        -11    1    3    3    0    0  0.12311220704E+02 -0.20767203157E+02  0.26467925896E+02  0.35824488599E+02  0.00000000000E+00 0. -1.
         11    1    3    3    0    0 -0.12311220704E+02  0.20767203157E+02 -0.16175756567E+02  0.29060247464E+02  0.00000000000E+00 0.  1.
<mgrwt>
<rscale>  0 0.64063252E+02</rscale>
<asrwt>0</asrwt>
<pdfrwt beam="1">  1        2 0.57828389E-02 0.64063252E+02</pdfrwt>
<pdfrwt beam="2">  1       -2 0.41994282E-02 0.64063252E+02</pdfrwt>
<totfact> 0.25258969E+05</totfact>
</mgrwt>
</event>
<event>
 5    1  0.6125604E+000  0.9137947E+02  0.7546771E-02  0.1299545E+00
          3   -1    0    0  501    0  0.00000000000E+00  0.00000000000E+00  0.65258186631E+02  0.65258186631E+02  0.00000000000E+00 0. -1.
         -3   -1    0    0    0  501 -0.00000000000E+00 -0.00000000000E+00 -0.31989121967E+02  0.31989121967E+02  0.00000000000E+00 0.  1.
         23    2    1    2    0    0  0.00000000000E+00  0.00000000000E+00  0.33269064665E+02  0.97247308598E+02  0.91379474533E+02 0.  0.
        -11    1    3    3    0    0 -0.64704770570E+01  0.11732665807E+02 -0.29851393498E+02  0.32720455591E+02  0.00000000000E+00 0.  1.
         11    1    3    3    0    0  0.64704770570E+01 -0.11732665807E+02  0.63120458163E+02  0.64526853007E+02  0.00000000000E+00 0. -1.
<mgrwt>
<rscale>  0 0.91379475E+02</rscale>
<asrwt>0</asrwt>
<pdfrwt beam="1">  1        3 0.10039721E-01 0.91379475E+02</pdfrwt>
<pdfrwt beam="2">  1       -3 0.49214034E-02 0.91379475E+02</pdfrwt>
<totfact> 0.34665883E+04</totfact>
</mgrwt>
</event>
<event>
 5    1  0.6125604E+000  0.8906852E+02  0.7546771E-02  0.1305123E+00
          2   -1    0    0  501    0  0.00000000000E+00  0.00000000000E+00  0.65756308046E+01  0.65756308046E+01  0.00000000000E+00 0. -1.
         -2   -1    0    0    0  501 -0.00000000000E+00 -0.00000000000E+00 -0.30161366429E+03  0.30161366429E+03  0.00000000000E+00 0.  1.
         23    2    1    2    0    0  0.00000000000E+00  0.00000000000E+00 -0.29503803348E+03  0.30818929509E+03  0.89068515244E+02 0.  0.
        -11    1    3    3    0    0 -0.32984078995E+02 -0.29856044156E+02 -0.15441091388E+03  0.16069244900E+03  0.00000000000E+00 0. -1.
         11    1    3    3    0    0  0.32984078995E+02  0.29856044156E+02 -0.14062711960E+03  0.14749684609E+03  0.00000000000E+00 0.  1.
<mgrwt>
<rscale>  0 0.89068515E+02</rscale>
<asrwt>0</asrwt>
<pdfrwt beam="1">  1        2 0.10116354E-02 0.89068515E+02</pdfrwt>
<pdfrwt beam="2">  1       -2 0.46402107E-01 0.89068515E+02</pdfrwt>
<totfact> 0.54001312E+04</totfact>
</mgrwt>
</event>
<event>
 5    1  0.6125604E+000  0.8999852E+02  0.7546771E-02  0.1302855E+00
         -3   -1    0    0    0  501 -0.00000000000E+00  0.00000000000E+00  0.13495825985E+03  0.13495825985E+03  0.00000000000E+00 0.  1.
          3   -1    0    0  501    0  0.00000000000E+00 -0.00000000000E+00 -0.15004146901E+02  0.15004146901E+02  0.00000000000E+00 0. -1.
         23    2    1    2    0    0  0.00000000000E+00  0.00000000000E+00  0.11995411295E+03  0.14996240675E+03  0.89998523463E+02 0.  0.
        -11    1    3    3    0    0  0.17333202214E+02 -0.33186131784E+02  0.18381035379E+02  0.41708772499E+02  0.00000000000E+00 0. -1.
         11    1    3    3    0    0 -0.17333202214E+02  0.33186131784E+02  0.10157307757E+03  0.10825363426E+03  0.00000000000E+00 0.  1.
<mgrwt>
<rscale>  0 0.89998523E+02</rscale>
<asrwt>0</asrwt>
<pdfrwt beam="2">  1        3 0.23083304E-02 0.89998523E+02</pdfrwt>
<pdfrwt beam="1">  1       -3 0.20762808E-01 0.89998523E+02</pdfrwt>
<totfact> 0.32430677E+04</totfact>
</mgrwt>
</event>
<event>
 5    1  0.6125604E+000  0.9040592E+02  0.7546771E-02  0.1301872E+00
          2   -1    0    0  501    0  0.00000000000E+00  0.00000000000E+00  0.30421688765E+03  0.30421688765E+03  0.00000000000E+00 0. -1.
         -2   -1    0    0    0  501 -0.00000000000E+00 -0.00000000000E+00 -0.67166146543E+01  0.67166146543E+01  0.00000000000E+00 0.  1.
         23    2    1    2    0    0  0.00000000000E+00  0.00000000000E+00  0.29750027300E+03  0.31093350231E+03  0.90405920286E+02 0.  0.
        -11    1    3    3    0    0  0.44945944614E+02 -0.12498634123E+01  0.16473735859E+03  0.17076327887E+03  0.00000000000E+00 0. -1.
         11    1    3    3    0    0 -0.44945944614E+02  0.12498634123E+01  0.13276291441E+03  0.14017022344E+03  0.00000000000E+00 0.  1.
<mgrwt>
<rscale>  0 0.90405920E+02</rscale>
<asrwt>0</asrwt>
<pdfrwt beam="1">  1        2 0.46802587E-01 0.90405920E+02</pdfrwt>
<pdfrwt beam="2">  1       -2 0.10333256E-02 0.90405920E+02</pdfrwt>
<totfact> 0.18472948E+05</totfact>
</mgrwt>
</event>
<event>
 5    1  0.6125604E+000  0.9275425E+02  0.7546771E-02  0.1296316E+00
          1   -1    0    0  501    0  0.00000000000E+00  0.00000000000E+00  0.85314781069E+02  0.85314781069E+02  0.00000000000E+00 0. -1.
         -1   -1    0    0    0  501 -0.00000000000E+00 -0.00000000000E+00 -0.25210611817E+02  0.25210611817E+02  0.00000000000E+00 0.  1.
         23    2    1    2    0    0  0.00000000000E+00  0.00000000000E+00  0.60104169252E+02  0.11052539289E+03  0.92754252254E+02 0.  0.
        -11    1    3    3    0    0 -0.74443223512E+01 -0.41594900009E+02  0.72778561086E+01  0.42877976067E+02  0.00000000000E+00 0. -1.
         11    1    3    3    0    0  0.74443223512E+01  0.41594900009E+02  0.52826313144E+02  0.67647416820E+02  0.00000000000E+00 0.  1.
<mgrwt>
<rscale>  0 0.92754252E+02</rscale>
<asrwt>0</asrwt>
<pdfrwt beam="1">  1        1 0.13125351E-01 0.92754252E+02</pdfrwt>
<pdfrwt beam="2">  1       -1 0.38785557E-02 0.92754252E+02</pdfrwt>
<totfact> 0.97098657E+04</totfact>
</mgrwt>
</event>
<event>
 5    1  0.6125604E+000  0.9148058E+02  0.7546771E-02  0.1299305E+00
         -3   -1    0    0    0  501 -0.00000000000E+00  0.00000000000E+00  0.11268023233E+03  0.11268023233E+03  0.00000000000E+00 0.  1.
          3   -1    0    0  501    0  0.00000000000E+00 -0.00000000000E+00 -0.18567356769E+02  0.18567356769E+02  0.00000000000E+00 0. -1.
         23    2    1    2    0    0  0.00000000000E+00  0.00000000000E+00  0.94112875563E+02  0.13124758910E+03  0.91480578802E+02 0.  0.
        -11    1    3    3    0    0 -0.34266541345E+02  0.25783262503E+02  0.69885898259E+02  0.81993970855E+02  0.00000000000E+00 0.  1.
         11    1    3    3    0    0  0.34266541345E+02 -0.25783262503E+02  0.24226977304E+02  0.49253618246E+02  0.00000000000E+00 0. -1.
<mgrwt>
<rscale>  0 0.91480579E+02</rscale>
<asrwt>0</asrwt>
<pdfrwt beam="2">  1        3 0.28565165E-02 0.91480579E+02</pdfrwt>
<pdfrwt beam="1">  1       -3 0.17335420E-01 0.91480579E+02</pdfrwt>
<totfact> 0.32203191E+04</totfact>
</mgrwt>
</event>
<event>
 5    1  0.8927596E+000  0.9175257E+02  0.7546771E-02  0.1298662E+00
          2   -1    0    0  501    0  0.00000000000E+00  0.00000000000E+00  0.42109937809E+01  0.42109937809E+01  0.00000000000E+00 0. -1.
         -2   -1    0    0    0  501 -0.00000000000E+00 -0.00000000000E+00 -0.49979496800E+03  0.49979496800E+03  0.00000000000E+00 0.  1.
         23    2    1    2    0    0  0.00000000000E+00  0.00000000000E+00 -0.49558397422E+03  0.50400596178E+03  0.91752569489E+02 0.  0.
        -11    1    3    3    0    0 -0.45671172967E+02 -0.28979646457E+01 -0.26548902946E+03  0.26940430398E+03  0.00000000000E+00 0.  1.
         11    1    3    3    0    0  0.45671172967E+02  0.28979646457E+01 -0.23009494476E+03  0.23460165781E+03  0.00000000000E+00 0. -1.
<mgrwt>
<rscale>  0 0.91752569E+02</rscale>
<asrwt>0</asrwt>
<pdfrwt beam="1">  1        2 0.64784512E-03 0.91752569E+02</pdfrwt>
<pdfrwt beam="2">  1       -2 0.76891543E-01 0.91752569E+02</pdfrwt>
<totfact> 0.35728499E+04</totfact>
</mgrwt>
</event>
<event>
 5    1  0.6125604E+000  0.9073086E+02  0.7546771E-02  0.1301091E+00
         -1   -1    0    0    0  501 -0.00000000000E+00  0.00000000000E+00  0.87563087941E+02  0.87563087941E+02  0.00000000000E+00 0.  1.
          1   -1    0    0  501    0  0.00000000000E+00 -0.00000000000E+00 -0.23503308834E+02  0.23503308834E+02  0.00000000000E+00 0. -1.
         23    2    1    2    0    0  0.00000000000E+00  0.00000000000E+00  0.64059779107E+02  0.11106639678E+03  0.90730861307E+02 0.  0.
        -11    1    3    3    0    0  0.27093635929E+02 -0.16956416906E+02 -0.73794473609E+01  0.32803070367E+02  0.00000000000E+00 0. -1.
         11    1    3    3    0    0 -0.27093635929E+02  0.16956416906E+02  0.71439226468E+02  0.78263326408E+02  0.00000000000E+00 0.  1.
<mgrwt>
<rscale>  0 0.90730861E+02</rscale>
<asrwt>0</asrwt>
<pdfrwt beam="2">  1        1 0.36158937E-02 0.90730861E+02</pdfrwt>
<pdfrwt beam="1">  1       -1 0.13471244E-01 0.90730861E+02</pdfrwt>
<totfact> 0.84399542E+04</totfact>
</mgrwt>
</event>
<event>
 5    1  0.6125604E+000  0.9190152E+02  0.7546771E-02  0.1298311E+00
          1   -1    0    0  501    0  0.00000000000E+00  0.00000000000E+00  0.35931212830E+02  0.35931212830E+02  0.00000000000E+00 0. -1.
         -1   -1    0    0    0  501 -0.00000000000E+00 -0.00000000000E+00 -0.58764299645E+02  0.58764299645E+02  0.00000000000E+00 0.  1.
         23    2    1    2    0    0  0.00000000000E+00  0.00000000000E+00 -0.22833086814E+02  0.94695512475E+02  0.91901524630E+02 0.  0.
        -11    1    3    3    0    0 -0.88077145558E+01  0.44888124641E+02 -0.69306853776E+01  0.46266121182E+02  0.00000000000E+00 0. -1.
         11    1    3    3    0    0  0.88077145558E+01 -0.44888124641E+02 -0.15902401437E+02  0.48429391292E+02  0.00000000000E+00 0.  1.
<mgrwt>
<rscale>  0 0.91901525E+02</rscale>
<asrwt>0</asrwt>
<pdfrwt beam="1">  1        1 0.55278789E-02 0.91901525E+02</pdfrwt>
<pdfrwt beam="2">  1       -1 0.90406615E-02 0.91901525E+02</pdfrwt>
<totfact> 0.87199392E+04</totfact>
</mgrwt>
</event>
<event>
 5    1  0.6125604E+000  0.9502404E+02  0.7546771E-02  0.1291122E+00
          3   -1    0    0  501    0  0.00000000000E+00  0.00000000000E+00  0.21188834303E+03  0.21188834303E+03  0.00000000000E+00 0. -1.
         -3   -1    0    0    0  501 -0.00000000000E+00 -0.00000000000E+00 -0.10653686781E+02  0.10653686781E+02  0.00000000000E+00 0.  1.
         23    2    1    2    0    0  0.00000000000E+00  0.00000000000E+00  0.20123465625E+03  0.22254202981E+03  0.95024039889E+02 0.  0.
        -11    1    3    3    0    0  0.46579645131E+02  0.63233633498E+01  0.11679950450E+03  0.12590382248E+03  0.00000000000E+00 0. -1.
         11    1    3    3    0    0 -0.46579645131E+02 -0.63233633498E+01  0.84435151747E+02  0.96638207326E+02  0.00000000000E+00 0.  1.
<mgrwt>
<rscale>  0 0.95024040E+02</rscale>
<asrwt>0</asrwt>
<pdfrwt beam="1">  1        3 0.32598203E-01 0.95024040E+02</pdfrwt>
<pdfrwt beam="2">  1       -3 0.16390289E-02 0.95024040E+02</pdfrwt>
<totfact> 0.24479016E+04</totfact>
</mgrwt>
</event>
<event>
 5    1  0.6125604E+000  0.9235130E+02  0.7546771E-02  0.1297256E+00
         -1   -1    0    0    0  501 -0.00000000000E+00  0.00000000000E+00  0.19603168076E+03  0.19603168076E+03  0.00000000000E+00 0.  1.
          1   -1    0    0  501    0  0.00000000000E+00 -0.00000000000E+00 -0.10876765152E+02  0.10876765152E+02  0.00000000000E+00 0. -1.
         23    2    1    2    0    0  0.00000000000E+00  0.00000000000E+00  0.18515491561E+03  0.20690844591E+03  0.92351297857E+02 0.  0.
        -11    1    3    3    0    0 -0.37913765374E+02 -0.17346784854E+02  0.48115619983E+02  0.63666925762E+02  0.00000000000E+00 0. -1.
         11    1    3    3    0    0  0.37913765374E+02  0.17346784854E+02  0.13703929562E+03  0.14324152015E+03  0.00000000000E+00 0.  1.
<mgrwt>
<rscale>  0 0.92351298E+02</rscale>
<asrwt>0</asrwt>
<pdfrwt beam="2">  1        1 0.16733486E-02 0.92351298E+02</pdfrwt>
<pdfrwt beam="1">  1       -1 0.30158718E-01 0.92351298E+02</pdfrwt>
<totfact> 0.67528774E+04</totfact>
</mgrwt>
</event>
<event>
 5    1  0.6125604E+000  0.9220607E+02  0.7546771E-02  0.1297596E+00
          2   -1    0    0  501    0  0.00000000000E+00  0.00000000000E+00  0.98760316780E+01  0.98760316780E+01  0.00000000000E+00 0. -1.
         -2   -1    0    0    0  501 -0.00000000000E+00 -0.00000000000E+00 -0.21521698682E+03  0.21521698682E+03  0.00000000000E+00 0.  1.
         23    2    1    2    0    0  0.00000000000E+00  0.00000000000E+00 -0.20534095515E+03  0.22509301850E+03  0.92206068770E+02 0.  0.
        -11    1    3    3    0    0 -0.30657252803E+02  0.33916015194E+02 -0.88160956035E+02  0.99310207960E+02  0.00000000000E+00 0.  1.
         11    1    3    3    0    0  0.30657252803E+02 -0.33916015194E+02 -0.11717999911E+03  0.12578281054E+03  0.00000000000E+00 0. -1.
<mgrwt>
<rscale>  0 0.92206069E+02</rscale>
<asrwt>0</asrwt>
<pdfrwt beam="1">  1        2 0.15193897E-02 0.92206069E+02</pdfrwt>
<pdfrwt beam="2">  1       -2 0.33110301E-01 0.92206069E+02</pdfrwt>
<totfact> 0.58617533E+04</totfact>
</mgrwt>
</event>
<event>
 5    1  0.6125604E+000  0.9220052E+02  0.7546771E-02  0.1297609E+00
          2   -1    0    0  501    0  0.00000000000E+00  0.00000000000E+00  0.97441283414E+01  0.97441283414E+01  0.00000000000E+00 0. -1.
         -2   -1    0    0    0  501 -0.00000000000E+00 -0.00000000000E+00 -0.21810405577E+03  0.21810405577E+03  0.00000000000E+00 0.  1.
         23    2    1    2    0    0  0.00000000000E+00  0.00000000000E+00 -0.20835992743E+03  0.22784818411E+03  0.92200518680E+02 0.  0.
        -11    1    3    3    0    0 -0.29852594630E+02  0.34850193713E+02 -0.11509833131E+03  0.12390859243E+03  0.00000000000E+00 0.  1.
         11    1    3    3    0    0  0.29852594630E+02 -0.34850193713E+02 -0.93261596123E+02  0.10393959168E+03  0.00000000000E+00 0. -1.
<mgrwt>
<rscale>  0 0.92200519E+02</rscale>
<asrwt>0</asrwt>
<pdfrwt beam="1">  1        2 0.14990965E-02 0.92200519E+02</pdfrwt>
<pdfrwt beam="2">  1       -2 0.33554473E-01 0.92200519E+02</pdfrwt>
<totfact> 0.58271458E+04</totfact>
</mgrwt>
</event>
<event>
 5    1  0.6125604E+000  0.8945169E+02  0.7546771E-02  0.1304185E+00
         -1   -1    0    0    0  501 -0.00000000000E+00  0.00000000000E+00  0.58820239052E+01  0.58820239052E+01  0.00000000000E+00 0.  1.
          1   -1    0    0  501    0  0.00000000000E+00 -0.00000000000E+00 -0.34008719657E+03  0.34008719657E+03  0.00000000000E+00 0. -1.
         23    2    1    2    0    0  0.00000000000E+00  0.00000000000E+00 -0.33420517266E+03  0.34596922047E+03  0.89451685732E+02 0.  0.
        -11    1    3    3    0    0 -0.20007874105E+02 -0.35030212657E+02 -0.92408538135E+02  0.10083039594E+03  0.00000000000E+00 0.  1.
         11    1    3    3    0    0  0.20007874105E+02  0.35030212657E+02 -0.24179663453E+03  0.24513882454E+03  0.00000000000E+00 0. -1.
<mgrwt>
<rscale>  0 0.89451686E+02</rscale>
<asrwt>0</asrwt>
<pdfrwt beam="2">  1        1 0.52321127E-01 0.89451686E+02</pdfrwt>
<pdfrwt beam="1">  1       -1 0.90492641E-03 0.89451686E+02</pdfrwt>
<totfact> 0.13797897E+05</totfact>
</mgrwt>
</event>
<event>
 5    1  0.6125604E+000  0.9192179E+02  0.7546771E-02  0.1298263E+00
          2   -1    0    0  501    0  0.00000000000E+00  0.00000000000E+00  0.45169482693E+02  0.45169482693E+02  0.00000000000E+00 0. -1.
         -2   -1    0    0    0  501 -0.00000000000E+00 -0.00000000000E+00 -0.46766178408E+02  0.46766178408E+02  0.00000000000E+00 0.  1.
         23    2    1    2    0    0  0.00000000000E+00  0.00000000000E+00 -0.15966957143E+01  0.91935661101E+02  0.91921794722E+02 0.  0.
        -11    1    3    3    0    0 -0.14693262169E+02  0.30950393080E+02 -0.31439308895E+02  0.46499988481E+02  0.00000000000E+00 0.  1.
         11    1    3    3    0    0  0.14693262169E+02 -0.30950393080E+02  0.29842613181E+02  0.45435672620E+02  0.00000000000E+00 0. -1.
<mgrwt>
<rscale>  0 0.91921795E+02</rscale>
<asrwt>0</asrwt>
<pdfrwt beam="1">  1        2 0.69491512E-02 0.91921795E+02</pdfrwt>
<pdfrwt beam="2">  1       -2 0.71947967E-02 0.91921795E+02</pdfrwt>
<totfact> 0.96160937E+04</totfact>
</mgrwt>
</event>
<event>
 5    1  0.6125604E+000  0.9179204E+02  0.7546771E-02  0.1298569E+00
          3   -1    0    0  501    0  0.00000000000E+00  0.00000000000E+00  0.12928701549E+03  0.12928701549E+03  0.00000000000E+00 0. -1.
         -3   -1    0    0    0  501 -0.00000000000E+00 -0.00000000000E+00 -0.16292779271E+02  0.16292779271E+02  0.00000000000E+00 0.  1.
         23    2    1    2    0    0  0.00000000000E+00  0.00000000000E+00  0.11299423621E+03  0.14557979476E+03  0.91792043358E+02 0.  0.
        -11    1    3    3    0    0 -0.41651591976E+01  0.20225422183E+02  0.12150326074E+03  0.12324552172E+03  0.00000000000E+00 0. -1.
         11    1    3    3    0    0  0.41651591976E+01 -0.20225422183E+02 -0.85090245269E+01  0.22334273035E+02  0.00000000000E+00 0.  1.
<mgrwt>
<rscale>  0 0.91792043E+02</rscale>
<asrwt>0</asrwt>
<pdfrwt beam="1">  1        3 0.19890309E-01 0.91792043E+02</pdfrwt>
<pdfrwt beam="2">  1       -3 0.25065815E-02 0.91792043E+02</pdfrwt>
<totfact> 0.31008405E+04</totfact>
</mgrwt>
</event>
<event>
 5    1  0.6125604E+000  0.9533599E+02  0.7546771E-02  0.1290421E+00
         -4   -1    0    0    0  501 -0.00000000000E+00  0.00000000000E+00  0.75309069737E+02  0.75309069737E+02  0.00000000000E+00 0.  1.
          4   -1    0    0  501    0  0.00000000000E+00 -0.00000000000E+00 -0.30172163400E+02  0.30172163400E+02  0.00000000000E+00 0. -1.
         23    2    1    2    0    0  0.00000000000E+00  0.00000000000E+00  0.45136906337E+02  0.10548123314E+03  0.95335986019E+02 0.  0.
        -11    1    3    3    0    0 -0.47443634538E+02  0.20327483730E+01  0.27158016187E+02  0.54704555270E+02  0.00000000000E+00 0.  1.
         11    1    3    3    0    0  0.47443634538E+02 -0.20327483730E+01  0.17978890150E+02  0.50776677866E+02  0.00000000000E+00 0. -1.
<mgrwt>
<rscale>  0 0.95335986E+02</rscale>
<asrwt>0</asrwt>
<pdfrwt beam="2">  1        4 0.46418713E-02 0.95335986E+02</pdfrwt>
<pdfrwt beam="1">  1       -4 0.11586011E-01 0.95335986E+02</pdfrwt>
<totfact> 0.23137341E+04</totfact>
</mgrwt>
</event>
<event>
 5    1  0.6125604E+000  0.9295947E+02  0.7546771E-02  0.1295839E+00
         -1   -1    0    0    0  501 -0.00000000000E+00  0.00000000000E+00  0.16888640575E+02  0.16888640575E+02  0.00000000000E+00 0.  1.
          1   -1    0    0  501    0  0.00000000000E+00 -0.00000000000E+00 -0.12791827256E+03  0.12791827256E+03  0.00000000000E+00 0. -1.
         23    2    1    2    0    0  0.00000000000E+00  0.00000000000E+00 -0.11102963198E+03  0.14480691313E+03  0.92959469193E+02 0.  0.
        -11    1    3    3    0    0  0.38542728954E+02  0.61447172794E+01 -0.16197129976E+02  0.42256910975E+02  0.00000000000E+00 0.  1.
         11    1    3    3    0    0 -0.38542728954E+02 -0.61447172794E+01 -0.94832502005E+02  0.10255000216E+03  0.00000000000E+00 0. -1.
<mgrwt>
<rscale>  0 0.92959469E+02</rscale>
<asrwt>0</asrwt>
<pdfrwt beam="2">  1        1 0.19679734E-01 0.92959469E+02</pdfrwt>
<pdfrwt beam="1">  1       -1 0.25982524E-02 0.92959469E+02</pdfrwt>
<totfact> 0.10337811E+05</totfact>
</mgrwt>
</event>
<event>
 5    1  0.6125604E+000  0.9139332E+02  0.7546771E-02  0.1299512E+00
         -2   -1    0    0    0  501 -0.00000000000E+00  0.00000000000E+00  0.55310983287E+01  0.55310983287E+01  0.00000000000E+00 0.  1.
          2   -1    0    0  501    0  0.00000000000E+00 -0.00000000000E+00 -0.37753526561E+03  0.37753526561E+03  0.00000000000E+00 0. -1.
         23    2    1    2    0    0  0.00000000000E+00  0.00000000000E+00 -0.37200416728E+03  0.38306636394E+03  0.91393318720E+02 0.  0.
        -11    1    3    3    0    0 -0.45600750260E+02  0.21665594919E+01 -0.17755427453E+03  0.18332932883E+03  0.00000000000E+00 0. -1.
         11    1    3    3    0    0  0.45600750260E+02 -0.21665594919E+01 -0.19444989275E+03  0.19973703512E+03  0.00000000000E+00 0.  1.
<mgrwt>
<rscale>  0 0.91393319E+02</rscale>
<asrwt>0</asrwt>
<pdfrwt beam="2">  1        2 0.58082362E-01 0.91393319E+02</pdfrwt>
<pdfrwt beam="1">  1       -2 0.85093801E-03 0.91393319E+02</pdfrwt>
<totfact> 0.19428198E+05</totfact>
</mgrwt>
</event>
<event>
 5    1  0.6125604E+000  0.8941010E+02  0.7546771E-02  0.1304287E+00
          2   -1    0    0  501    0  0.00000000000E+00  0.00000000000E+00  0.31263397210E+02  0.31263397210E+02  0.00000000000E+00 0. -1.
         -2   -1    0    0    0  501 -0.00000000000E+00 -0.00000000000E+00 -0.63925926323E+02  0.63925926323E+02  0.00000000000E+00 0.  1.
         23    2    1    2    0    0  0.00000000000E+00  0.00000000000E+00 -0.32662529113E+02  0.95189323533E+02  0.89410102934E+02 0.  0.
        -11    1    3    3    0    0 -0.91631570770E+01  0.22887963512E+02  0.23371558417E+02  0.33971341807E+02  0.00000000000E+00 0. -1.
         11    1    3    3    0    0  0.91631570770E+01 -0.22887963512E+02 -0.56034087529E+02  0.61217981726E+02  0.00000000000E+00 0.  1.
<mgrwt>
<rscale>  0 0.89410103E+02</rscale>
<asrwt>0</asrwt>
<pdfrwt beam="1">  1        2 0.48097534E-02 0.89410103E+02</pdfrwt>
<pdfrwt beam="2">  1       -2 0.98347579E-02 0.89410103E+02</pdfrwt>
<totfact> 0.94752099E+04</totfact>
</mgrwt>
</event>
<event>
 5    1  0.6125604E+000  0.9088948E+02  0.7546771E-02  0.1300712E+00
         -3   -1    0    0    0  501 -0.00000000000E+00  0.00000000000E+00  0.66610014533E+01  0.66610014533E+01  0.00000000000E+00 0.  1.
          3   -1    0    0  501    0  0.00000000000E+00 -0.00000000000E+00 -0.31004711392E+03  0.31004711392E+03  0.00000000000E+00 0. -1.
         23    2    1    2    0    0  0.00000000000E+00  0.00000000000E+00 -0.30338611247E+03  0.31670811537E+03  0.90889477420E+02 0.  0.
        -11    1    3    3    0    0  0.25147758243E+02  0.30529479767E+02 -0.22966937729E+03  0.23305038456E+03  0.00000000000E+00 0. -1.
         11    1    3    3    0    0 -0.25147758243E+02 -0.30529479767E+02 -0.73716735175E+02  0.83657730811E+02  0.00000000000E+00 0.  1.
<mgrwt>
<rscale>  0 0.90889477E+02</rscale>
<asrwt>0</asrwt>
<pdfrwt beam="2">  1        3 0.47699567E-01 0.90889477E+02</pdfrwt>
<pdfrwt beam="1">  1       -3 0.10247692E-02 0.90889477E+02</pdfrwt>
<totfact> 0.23597824E+04</totfact>
</mgrwt>
</event>
<event>
 5    1  0.6125604E+000  0.9130603E+02  0.7546771E-02  0.1299719E+00
          1   -1    0    0  501    0  0.00000000000E+00  0.00000000000E+00  0.22601251638E+03  0.22601251638E+03  0.00000000000E+00 0. -1.
         -1   -1    0    0    0  501 -0.00000000000E+00 -0.00000000000E+00 -0.92216030711E+01  0.92216030711E+01  0.00000000000E+00 0.  1.
         23    2    1    2    0    0  0.00000000000E+00  0.00000000000E+00  0.21679091331E+03  0.23523411945E+03  0.91306028611E+02 0.  0.
        -11    1    3    3    0    0 -0.43414156944E+02  0.80796689717E+01  0.78558123438E+02  0.90119081397E+02  0.00000000000E+00 0.  1.
         11    1    3    3    0    0  0.43414156944E+02 -0.80796689717E+01  0.13823278987E+03  0.14511503806E+03  0.00000000000E+00 0. -1.
<mgrwt>
<rscale>  0 0.91306029E+02</rscale>
<asrwt>0</asrwt>
<pdfrwt beam="1">  1        1 0.34771152E-01 0.91306029E+02</pdfrwt>
<pdfrwt beam="2">  1       -1 0.14187083E-02 0.91306029E+02</pdfrwt>
<totfact> 0.12080101E+05</totfact>
</mgrwt>
</event>
<event>
 5    1  0.6125604E+000  0.9072189E+02  0.7546771E-02  0.1301113E+00
          1   -1    0    0  501    0  0.00000000000E+00  0.00000000000E+00  0.15236734272E+02  0.15236734272E+02  0.00000000000E+00 0. -1.
         -1   -1    0    0    0  501 -0.00000000000E+00 -0.00000000000E+00 -0.13504306566E+03  0.13504306566E+03  0.00000000000E+00 0.  1.
         23    2    1    2    0    0  0.00000000000E+00  0.00000000000E+00 -0.11980633139E+03  0.15027979993E+03  0.90721889459E+02 0.  0.
        -11    1    3    3    0    0 -0.27640256968E+02  0.14142335142E+02 -0.11468327654E+03  0.11881179810E+03  0.00000000000E+00 0.  1.
         11    1    3    3    0    0  0.27640256968E+02 -0.14142335142E+02 -0.51230548449E+01  0.31468001835E+02  0.00000000000E+00 0. -1.
<mgrwt>
<rscale>  0 0.90721889E+02</rscale>
<asrwt>0</asrwt>
<pdfrwt beam="1">  1        1 0.23441130E-02 0.90721889E+02</pdfrwt>
<pdfrwt beam="2">  1       -1 0.20775856E-01 0.90721889E+02</pdfrwt>
<totfact> 0.77588592E+04</totfact>
</mgrwt>
</event>
<event>
 5    1  0.6125604E+000  0.9069248E+02  0.7546771E-02  0.1301183E+00
         -1   -1    0    0    0  501 -0.00000000000E+00  0.00000000000E+00  0.89366380667E+02  0.89366380667E+02  0.00000000000E+00 0.  1.
          1   -1    0    0  501    0  0.00000000000E+00 -0.00000000000E+00 -0.23009566154E+02  0.23009566154E+02  0.00000000000E+00 0. -1.
         23    2    1    2    0    0  0.00000000000E+00  0.00000000000E+00  0.66356814513E+02  0.11237594682E+03  0.90692483656E+02 0.  0.
        -11    1    3    3    0    0 -0.82659789467E+01  0.25584027731E+02  0.78424842899E+02  0.82905517709E+02  0.00000000000E+00 0.  1.
         11    1    3    3    0    0  0.82659789467E+01 -0.25584027731E+02 -0.12068028387E+02  0.29470429111E+02  0.00000000000E+00 0. -1.
<mgrwt>
<rscale>  0 0.90692484E+02</rscale>
<asrwt>0</asrwt>
<pdfrwt beam="2">  1        1 0.35399333E-02 0.90692484E+02</pdfrwt>
<pdfrwt beam="1">  1       -1 0.13748674E-01 0.90692484E+02</pdfrwt>
<totfact> 0.84189004E+04</totfact>
</mgrwt>
</event>
<event>
 5    1  0.6125604E+000  0.1102750E+03  0.7546771E-02  0.1260062E+00
          3   -1    0    0  501    0  0.00000000000E+00  0.00000000000E+00  0.12431960871E+03  0.12431960871E+03  0.00000000000E+00 0. -1.
         -3   -1    0    0    0  501 -0.00000000000E+00 -0.00000000000E+00 -0.24454249925E+02  0.24454249925E+02  0.00000000000E+00 0.  1.
         23    2    1    2    0    0  0.00000000000E+00  0.00000000000E+00  0.99865358785E+02  0.14877385863E+03  0.11027497961E+03 0.  0.
        -11    1    3    3    0    0 -0.13977297191E+02 -0.41016101887E+02  0.95930594922E+02  0.10526331029E+03  0.00000000000E+00 0. -1.
         11    1    3    3    0    0  0.13977297191E+02  0.41016101887E+02  0.39347638638E+01  0.43510548347E+02  0.00000000000E+00 0.  1.
<mgrwt>
<rscale>  0 0.11027498E+03</rscale>
<asrwt>0</asrwt>
<pdfrwt beam="1">  1        3 0.19126093E-01 0.11027498E+03</pdfrwt>
<pdfrwt beam="2">  1       -3 0.37621924E-02 0.11027498E+03</pdfrwt>
<totfact> 0.18634791E+04</totfact>
</mgrwt>
</event>
<event>
 5    1  0.6125604E+000  0.9101150E+02  0.7546771E-02  0.1300421E+00
         -2   -1    0    0    0  501 -0.00000000000E+00  0.00000000000E+00  0.16633739525E+03  0.16633739525E+03  0.00000000000E+00 0.  1.
          2   -1    0    0  501    0  0.00000000000E+00 -0.00000000000E+00 -0.12449233691E+02  0.12449233691E+02  0.00000000000E+00 0. -1.
         23    2    1    2    0    0  0.00000000000E+00  0.00000000000E+00  0.15388816156E+03  0.17878662894E+03  0.91011496088E+02 0.  0.
        -11    1    3    3    0    0  0.21614960789E+02 -0.37434099212E+02  0.10488162266E+03  0.11344017403E+03  0.00000000000E+00 0.  1.
         11    1    3    3    0    0 -0.21614960789E+02  0.37434099212E+02  0.49006538901E+02  0.65346454906E+02  0.00000000000E+00 0. -1.
<mgrwt>
<rscale>  0 0.91011496E+02</rscale>
<asrwt>0</asrwt>
<pdfrwt beam="2">  1        2 0.19152668E-02 0.91011496E+02</pdfrwt>
<pdfrwt beam="1">  1       -2 0.25590367E-01 0.91011496E+02</pdfrwt>
<totfact> 0.67511078E+04</totfact>
</mgrwt>
</event>
<event>
 5    1  0.6125604E+000  0.8734380E+02  0.7546771E-02  0.1309415E+00
          1   -1    0    0  501    0  0.00000000000E+00  0.00000000000E+00  0.87005998497E+01  0.87005998497E+01  0.00000000000E+00 0. -1.
         -1   -1    0    0    0  501 -0.00000000000E+00 -0.00000000000E+00 -0.21920729240E+03  0.21920729240E+03  0.00000000000E+00 0.  1.
         23    2    1    2    0    0  0.00000000000E+00  0.00000000000E+00 -0.21050669255E+03  0.22790789225E+03  0.87343801962E+02 0.  0.
        -11    1    3    3    0    0  0.34322131984E+02  0.79846749358E+01 -0.37941439833E+02  0.51781431367E+02  0.00000000000E+00 0. -1.
         11    1    3    3    0    0 -0.34322131984E+02 -0.79846749358E+01 -0.17256525272E+03  0.17612646088E+03  0.00000000000E+00 0.  1.
<mgrwt>
<rscale>  0 0.87343802E+02</rscale>
<asrwt>0</asrwt>
<pdfrwt beam="1">  1        1 0.13385539E-02 0.87343802E+02</pdfrwt>
<pdfrwt beam="2">  1       -1 0.33724197E-01 0.87343802E+02</pdfrwt>
<totfact> 0.75557258E+04</totfact>
</mgrwt>
</event>
<event>
 5    1  0.6125604E+000  0.9342997E+02  0.7546771E-02  0.1294752E+00
          1   -1    0    0  501    0  0.00000000000E+00  0.00000000000E+00  0.20620887690E+02  0.20620887690E+02  0.00000000000E+00 0. -1.
         -1   -1    0    0    0  501 -0.00000000000E+00 -0.00000000000E+00 -0.10582909240E+03  0.10582909240E+03  0.00000000000E+00 0.  1.
         23    2    1    2    0    0  0.00000000000E+00  0.00000000000E+00 -0.85208204712E+02  0.12644998009E+03  0.93429970112E+02 0.  0.
        -11    1    3    3    0    0  0.35107794486E+02  0.13378077589E+02 -0.80178500822E+02  0.88544464467E+02  0.00000000000E+00 0.  1.
         11    1    3    3    0    0 -0.35107794486E+02 -0.13378077589E+02 -0.50297038893E+01  0.37905515626E+02  0.00000000000E+00 0. -1.
<mgrwt>
<rscale>  0 0.93429970E+02</rscale>
<asrwt>0</asrwt>
<pdfrwt beam="1">  1        1 0.31724443E-02 0.93429970E+02</pdfrwt>
<pdfrwt beam="2">  1       -1 0.16281399E-01 0.93429970E+02</pdfrwt>
<totfact> 0.75588190E+04</totfact>
</mgrwt>
</event>
<event>
 5    1  0.6125604E+000  0.9560706E+02  0.7546771E-02  0.1289815E+00
          2   -1    0    0  501    0  0.00000000000E+00  0.00000000000E+00  0.82725817300E+01  0.82725817300E+01  0.00000000000E+00 0. -1.
         -2   -1    0    0    0  501 -0.00000000000E+00 -0.00000000000E+00 -0.27623512235E+03  0.27623512235E+03  0.00000000000E+00 0.  1.
         23    2    1    2    0    0  0.00000000000E+00  0.00000000000E+00 -0.26796254062E+03  0.28450770408E+03  0.95607063051E+02 0.  0.
        -11    1    3    3    0    0 -0.35245503840E+02 -0.31791878488E+02 -0.15086971378E+03  0.15816017076E+03  0.00000000000E+00 0.  1.
         11    1    3    3    0    0  0.35245503840E+02  0.31791878488E+02 -0.11709282684E+03  0.12634753332E+03  0.00000000000E+00 0. -1.
<mgrwt>
<rscale>  0 0.95607063E+02</rscale>
<asrwt>0</asrwt>
<pdfrwt beam="1">  1        2 0.12727048E-02 0.95607063E+02</pdfrwt>
<pdfrwt beam="2">  1       -2 0.42497712E-01 0.95607063E+02</pdfrwt>
<totfact> 0.47220379E+04</totfact>
</mgrwt>
</event>
<event>
 5    1  0.6125604E+000  0.9992415E+02  0.7546771E-02  0.1280456E+00
          2   -1    0    0  501    0  0.00000000000E+00  0.00000000000E+00  0.13888007373E+03  0.13888007373E+03  0.00000000000E+00 0. -1.
         -2   -1    0    0    0  501 -0.00000000000E+00 -0.00000000000E+00 -0.17973845559E+02  0.17973845559E+02  0.00000000000E+00 0.  1.
         23    2    1    2    0    0  0.00000000000E+00  0.00000000000E+00  0.12090622817E+03  0.15685391929E+03  0.99924151165E+02 0.  0.
        -11    1    3    3    0    0  0.34082013686E+02 -0.36425293177E+02  0.56062538388E+02  0.75042613563E+02  0.00000000000E+00 0. -1.
         11    1    3    3    0    0 -0.34082013686E+02  0.36425293177E+02  0.64843689785E+02  0.81811305728E+02  0.00000000000E+00 0.  1.
<mgrwt>
<rscale>  0 0.99924151E+02</rscale>
<asrwt>0</asrwt>
<pdfrwt beam="1">  1        2 0.21366165E-01 0.99924151E+02</pdfrwt>
<pdfrwt beam="2">  1       -2 0.27652071E-02 0.99924151E+02</pdfrwt>
<totfact> 0.10599527E+05</totfact>
</mgrwt>
</event>
<event>
 5    1  0.6125604E+000  0.9515647E+02  0.7546771E-02  0.1290824E+00
         -2   -1    0    0    0  501 -0.00000000000E+00  0.00000000000E+00  0.84351985967E+02  0.84351985967E+02  0.00000000000E+00 0.  1.
          2   -1    0    0  501    0  0.00000000000E+00 -0.00000000000E+00 -0.26836217361E+02  0.26836217361E+02  0.00000000000E+00 0. -1.
         23    2    1    2    0    0  0.00000000000E+00  0.00000000000E+00  0.57515768606E+02  0.11118820333E+03  0.95156465472E+02 0.  0.
        -11    1    3    3    0    0  0.39451943041E+02  0.26302482801E+02  0.24170687620E+02  0.53221222752E+02  0.00000000000E+00 0. -1.
         11    1    3    3    0    0 -0.39451943041E+02 -0.26302482801E+02  0.33345080986E+02  0.57966980576E+02  0.00000000000E+00 0.  1.
<mgrwt>
<rscale>  0 0.95156465E+02</rscale>
<asrwt>0</asrwt>
<pdfrwt beam="2">  1        2 0.41286489E-02 0.95156465E+02</pdfrwt>
<pdfrwt beam="1">  1       -2 0.12977228E-01 0.95156465E+02</pdfrwt>
<totfact> 0.75454061E+04</totfact>
</mgrwt>
</event>
<event>
 5    1  0.6125604E+000  0.9199006E+02  0.7546771E-02  0.1298103E+00
          2   -1    0    0  501    0  0.00000000000E+00  0.00000000000E+00  0.20362143811E+03  0.20362143811E+03  0.00000000000E+00 0. -1.
         -2   -1    0    0    0  501 -0.00000000000E+00 -0.00000000000E+00 -0.10389587310E+02  0.10389587310E+02  0.00000000000E+00 0.  1.
         23    2    1    2    0    0  0.00000000000E+00  0.00000000000E+00  0.19323185080E+03  0.21401102542E+03  0.91990058362E+02 0.  0.
        -11    1    3    3    0    0  0.60454283193E+01  0.42907888952E+02  0.60731970831E+02  0.74605672833E+02  0.00000000000E+00 0.  1.
         11    1    3    3    0    0 -0.60454283193E+01 -0.42907888952E+02  0.13249987997E+03  0.13940535258E+03  0.00000000000E+00 0. -1.
<mgrwt>
<rscale>  0 0.91990058E+02</rscale>
<asrwt>0</asrwt>
<pdfrwt beam="1">  1        2 0.31326372E-01 0.91990058E+02</pdfrwt>
<pdfrwt beam="2">  1       -2 0.15983982E-02 0.91990058E+02</pdfrwt>
<totfact> 0.15200697E+05</totfact>
</mgrwt>
</event>
<event>
 5    1  0.6125604E+000  0.9128739E+02  0.7546771E-02  0.1299764E+00
         -3   -1    0    0    0  501 -0.00000000000E+00  0.00000000000E+00  0.46726729381E+02  0.46726729381E+02  0.00000000000E+00 0.  1.
          3   -1    0    0  501    0  0.00000000000E+00 -0.00000000000E+00 -0.44585766394E+02  0.44585766394E+02  0.00000000000E+00 0. -1.
         23    2    1    2    0    0  0.00000000000E+00  0.00000000000E+00  0.21409629867E+01  0.91312495775E+02  0.91287393227E+02 0.  0.
        -11    1    3    3    0    0 -0.55550943316E+01 -0.20296514707E+02  0.41585192718E+02  0.46606178085E+02  0.00000000000E+00 0.  1.
         11    1    3    3    0    0  0.55550943316E+01  0.20296514707E+02 -0.39444229732E+02  0.44706317690E+02  0.00000000000E+00 0. -1.
<mgrwt>
<rscale>  0 0.91287393E+02</rscale>
<asrwt>0</asrwt>
<pdfrwt beam="2">  1        3 0.68593486E-02 0.91287393E+02</pdfrwt>
<pdfrwt beam="1">  1       -3 0.71887277E-02 0.91287393E+02</pdfrwt>
<totfact> 0.35211510E+04</totfact>
</mgrwt>
</event>
<event>
 5    1  0.6125604E+000  0.9036692E+02  0.7546771E-02  0.1301966E+00
         -2   -1    0    0    0  501 -0.00000000000E+00  0.00000000000E+00  0.66525161072E+02  0.66525161072E+02  0.00000000000E+00 0.  1.
          2   -1    0    0  501    0  0.00000000000E+00 -0.00000000000E+00 -0.30688317620E+02  0.30688317620E+02  0.00000000000E+00 0. -1.
         23    2    1    2    0    0  0.00000000000E+00  0.00000000000E+00  0.35836843452E+02  0.97213478693E+02  0.90366924762E+02 0.  0.
        -11    1    3    3    0    0 -0.11173003065E+01 -0.43419498911E+02  0.45233667294E+01  0.43668777086E+02  0.00000000000E+00 0.  1.
         11    1    3    3    0    0  0.11173003065E+01  0.43419498911E+02  0.31313476722E+02  0.53544701606E+02  0.00000000000E+00 0. -1.
<mgrwt>
<rscale>  0 0.90366925E+02</rscale>
<asrwt>0</asrwt>
<pdfrwt beam="2">  1        2 0.47212797E-02 0.90366925E+02</pdfrwt>
<pdfrwt beam="1">  1       -2 0.10234640E-01 0.90366925E+02</pdfrwt>
<totfact> 0.91381513E+04</totfact>
</mgrwt>
</event>
<event>
 5    1  0.6125604E+000  0.9085197E+02  0.7546771E-02  0.1300802E+00
         -2   -1    0    0    0  501 -0.00000000000E+00  0.00000000000E+00  0.11990154809E+03  0.11990154809E+03  0.00000000000E+00 0.  1.
          2   -1    0    0  501    0  0.00000000000E+00 -0.00000000000E+00 -0.17210119906E+02  0.17210119906E+02  0.00000000000E+00 0. -1.
         23    2    1    2    0    0  0.00000000000E+00  0.00000000000E+00  0.10269142819E+03  0.13711166800E+03  0.90851967939E+02 0.  0.
        -11    1    3    3    0    0  0.45083558188E+02 -0.46481165239E+01  0.55969761755E+02  0.72019069954E+02  0.00000000000E+00 0.  1.
         11    1    3    3    0    0 -0.45083558188E+02  0.46481165239E+01  0.46721666434E+02  0.65092598047E+02  0.00000000000E+00 0. -1.
<mgrwt>
<rscale>  0 0.90851968E+02</rscale>
<asrwt>0</asrwt>
<pdfrwt beam="2">  1        2 0.26477108E-02 0.90851968E+02</pdfrwt>
<pdfrwt beam="1">  1       -2 0.18446392E-01 0.90851968E+02</pdfrwt>
<totfact> 0.76115427E+04</totfact>
</mgrwt>
</event>
<event>
 5    1  0.6125604E+000  0.8977429E+02  0.7546771E-02  0.1303399E+00
          1   -1    0    0  501    0  0.00000000000E+00  0.00000000000E+00  0.53941187070E+02  0.53941187070E+02  0.00000000000E+00 0. -1.
         -1   -1    0    0    0  501 -0.00000000000E+00 -0.00000000000E+00 -0.37352826998E+02  0.37352826998E+02  0.00000000000E+00 0.  1.
         23    2    1    2    0    0  0.00000000000E+00  0.00000000000E+00  0.16588360072E+02  0.91294014068E+02  0.89774290945E+02 0.  0.
        -11    1    3    3    0    0  0.12610292568E+02 -0.15906754327E+02 -0.32418673825E+02  0.38249375477E+02  0.00000000000E+00 0.  1.
         11    1    3    3    0    0 -0.12610292568E+02  0.15906754327E+02  0.49007033897E+02  0.53044638591E+02  0.00000000000E+00 0. -1.
<mgrwt>
<rscale>  0 0.89774291E+02</rscale>
<asrwt>0</asrwt>
<pdfrwt beam="1">  1        1 0.82986442E-02 0.89774291E+02</pdfrwt>
<pdfrwt beam="2">  1       -1 0.57465888E-02 0.89774291E+02</pdfrwt>
<totfact> 0.99014595E+04</totfact>
</mgrwt>
</event>
<event>
 5    1  0.6125604E+000  0.9216086E+02  0.7546771E-02  0.1297702E+00
          1   -1    0    0  501    0  0.00000000000E+00  0.00000000000E+00  0.21529212167E+02  0.21529212167E+02  0.00000000000E+00 0. -1.
         -1   -1    0    0    0  501 -0.00000000000E+00 -0.00000000000E+00 -0.98629063073E+02  0.98629063073E+02  0.00000000000E+00 0.  1.
         23    2    1    2    0    0  0.00000000000E+00  0.00000000000E+00 -0.77099850907E+02  0.12015827524E+03  0.92160859907E+02 0.  0.
        -11    1    3    3    0    0 -0.41701560215E+02 -0.16864173621E+02 -0.51586868973E+02  0.68444324284E+02  0.00000000000E+00 0.  1.
         11    1    3    3    0    0  0.41701560215E+02  0.16864173621E+02 -0.25512981934E+02  0.51713950956E+02  0.00000000000E+00 0. -1.
<mgrwt>
<rscale>  0 0.92160860E+02</rscale>
<asrwt>0</asrwt>
<pdfrwt beam="1">  1        1 0.33121865E-02 0.92160860E+02</pdfrwt>
<pdfrwt beam="2">  1       -1 0.15173702E-01 0.92160860E+02</pdfrwt>
<totfact> 0.79352963E+04</totfact>
</mgrwt>
</event>
<event>
 5    1  0.6125604E+000  0.9220824E+02  0.7546771E-02  0.1297591E+00
         -1   -1    0    0    0  501 -0.00000000000E+00  0.00000000000E+00  0.26341314839E+02  0.26341314839E+02  0.00000000000E+00 0.  1.
          1   -1    0    0  501    0  0.00000000000E+00 -0.00000000000E+00 -0.80694140293E+02  0.80694140293E+02  0.00000000000E+00 0. -1.
         23    2    1    2    0    0  0.00000000000E+00  0.00000000000E+00 -0.54352825454E+02  0.10703545513E+03  0.92208237271E+02 0.  0.
        -11    1    3    3    0    0  0.26564033736E+02 -0.36636386607E+02 -0.16943104037E+02  0.48321232252E+02  0.00000000000E+00 0.  1.
         11    1    3    3    0    0 -0.26564033736E+02  0.36636386607E+02 -0.37409721417E+02  0.58714222881E+02  0.00000000000E+00 0. -1.
<mgrwt>
<rscale>  0 0.92208237E+02</rscale>
<asrwt>0</asrwt>
<pdfrwt beam="2">  1        1 0.12414483E-01 0.92208237E+02</pdfrwt>
<pdfrwt beam="1">  1       -1 0.40525100E-02 0.92208237E+02</pdfrwt>
<totfact> 0.97810274E+04</totfact>
</mgrwt>
</event>
<event>
 5    1  0.6125604E+000  0.1101003E+03  0.7546771E-02  0.1260384E+00
         -3   -1    0    0    0  501 -0.00000000000E+00  0.00000000000E+00  0.16973773546E+03  0.16973773546E+03  0.00000000000E+00 0.  1.
          3   -1    0    0  501    0  0.00000000000E+00 -0.00000000000E+00 -0.17854112457E+02  0.17854112457E+02  0.00000000000E+00 0. -1.
         23    2    1    2    0    0  0.00000000000E+00  0.00000000000E+00  0.15188362300E+03  0.18759184792E+03  0.11010025644E+03 0.  0.
        -11    1    3    3    0    0 -0.46714711601E+01  0.54779724489E+02  0.71160226855E+02  0.89924516924E+02  0.00000000000E+00 0. -1.
         11    1    3    3    0    0  0.46714711601E+01 -0.54779724489E+02  0.80723396149E+02  0.97667330995E+02  0.00000000000E+00 0.  1.
<mgrwt>
<rscale>  0 0.11010026E+03</rscale>
<asrwt>0</asrwt>
<pdfrwt beam="2">  1        3 0.27467866E-02 0.11010026E+03</pdfrwt>
<pdfrwt beam="1">  1       -3 0.26113497E-01 0.11010026E+03</pdfrwt>
<totfact> 0.17414584E+04</totfact>
</mgrwt>
</event>
<event>
 5    1  0.6125604E+000  0.8786551E+02  0.7546771E-02  0.1308105E+00
          1   -1    0    0  501    0  0.00000000000E+00  0.00000000000E+00  0.24513463968E+03  0.24513463968E+03  0.00000000000E+00 0. -1.
         -1   -1    0    0    0  501 -0.00000000000E+00 -0.00000000000E+00 -0.78735798242E+01  0.78735798242E+01  0.00000000000E+00 0.  1.
         23    2    1    2    0    0  0.00000000000E+00  0.00000000000E+00  0.23726105985E+03  0.25300821950E+03  0.87865514354E+02 0.  0.
        -11    1    3    3    0    0  0.36189650469E+02 -0.22732212667E+02  0.89315802011E+02  0.99013922166E+02  0.00000000000E+00 0.  1.
         11    1    3    3    0    0 -0.36189650469E+02  0.22732212667E+02  0.14794525784E+03  0.15399429733E+03  0.00000000000E+00 0. -1.
<mgrwt>
<rscale>  0 0.87865514E+02</rscale>
<asrwt>0</asrwt>
<pdfrwt beam="1">  1        1 0.37713016E-01 0.87865514E+02</pdfrwt>
<pdfrwt beam="2">  1       -1 0.12113202E-02 0.87865514E+02</pdfrwt>
<totfact> 0.13596441E+05</totfact>
</mgrwt>
</event>
<event>
 5    1  0.6125604E+000  0.8956094E+02  0.7546771E-02  0.1303918E+00
         -2   -1    0    0    0  501 -0.00000000000E+00  0.00000000000E+00  0.81294428062E+02  0.81294428062E+02  0.00000000000E+00 0.  1.
          2   -1    0    0  501    0  0.00000000000E+00 -0.00000000000E+00 -0.24667010978E+02  0.24667010978E+02  0.00000000000E+00 0. -1.
         23    2    1    2    0    0  0.00000000000E+00  0.00000000000E+00  0.56627417084E+02  0.10596143904E+03  0.89560941250E+02 0.  0.
        -11    1    3    3    0    0 -0.11417233277E+02  0.38224073185E+02  0.42448969953E+01  0.40117977728E+02  0.00000000000E+00 0. -1.
         11    1    3    3    0    0  0.11417233277E+02 -0.38224073185E+02  0.52382520089E+02  0.65843461311E+02  0.00000000000E+00 0.  1.
<mgrwt>
<rscale>  0 0.89560941E+02</rscale>
<asrwt>0</asrwt>
<pdfrwt beam="2">  1        2 0.37949248E-02 0.89560941E+02</pdfrwt>
<pdfrwt beam="1">  1       -2 0.12506835E-01 0.89560941E+02</pdfrwt>
<totfact> 0.88507395E+04</totfact>
</mgrwt>
</event>
<event>
 5    1  0.6125604E+000  0.9087741E+02  0.7546771E-02  0.1300741E+00
         -1   -1    0    0    0  501 -0.00000000000E+00  0.00000000000E+00  0.10401120484E+02  0.10401120484E+02  0.00000000000E+00 0.  1.
          1   -1    0    0  501    0  0.00000000000E+00 -0.00000000000E+00 -0.19850515237E+03  0.19850515237E+03  0.00000000000E+00 0. -1.
         23    2    1    2    0    0  0.00000000000E+00  0.00000000000E+00 -0.18810403189E+03  0.20890627285E+03  0.90877412078E+02 0.  0.
        -11    1    3    3    0    0 -0.28012783308E+02  0.29416183062E+02 -0.47242365639E+02  0.62304646422E+02  0.00000000000E+00 0.  1.
         11    1    3    3    0    0  0.28012783308E+02 -0.29416183062E+02 -0.14086166625E+03  0.14660162643E+03  0.00000000000E+00 0. -1.
<mgrwt>
<rscale>  0 0.90877412E+02</rscale>
<asrwt>0</asrwt>
<pdfrwt beam="2">  1        1 0.30539252E-01 0.90877412E+02</pdfrwt>
<pdfrwt beam="1">  1       -1 0.16001725E-02 0.90877412E+02</pdfrwt>
<totfact> 0.11928151E+05</totfact>
</mgrwt>
</event>
<event>
 5    1  0.6125604E+000  0.9125666E+02  0.7546771E-02  0.1299837E+00
         -1   -1    0    0    0  501 -0.00000000000E+00  0.00000000000E+00  0.14230705867E+02  0.14230705867E+02  0.00000000000E+00 0.  1.
          1   -1    0    0  501    0  0.00000000000E+00 -0.00000000000E+00 -0.14629945570E+03  0.14629945570E+03  0.00000000000E+00 0. -1.
         23    2    1    2    0    0  0.00000000000E+00  0.00000000000E+00 -0.13206874984E+03  0.16053016157E+03  0.91256660525E+02 0.  0.
        -11    1    3    3    0    0 -0.24514118340E+02  0.37722718415E+02 -0.79431218079E+02  0.91286712550E+02  0.00000000000E+00 0. -1.
         11    1    3    3    0    0  0.24514118340E+02 -0.37722718415E+02 -0.52637531756E+02  0.69243449019E+02  0.00000000000E+00 0.  1.
<mgrwt>
<rscale>  0 0.91256661E+02</rscale>
<asrwt>0</asrwt>
<pdfrwt beam="2">  1        1 0.22507606E-01 0.91256661E+02</pdfrwt>
<pdfrwt beam="1">  1       -1 0.21893396E-02 0.91256661E+02</pdfrwt>
<totfact> 0.11135672E+05</totfact>
</mgrwt>
</event>
<event>
 5    1  0.6125604E+000  0.9163834E+02  0.7546771E-02  0.1298932E+00
          1   -1    0    0  501    0  0.00000000000E+00  0.00000000000E+00  0.30220474283E+02  0.30220474283E+02  0.00000000000E+00 0. -1.
         -1   -1    0    0    0  501 -0.00000000000E+00 -0.00000000000E+00 -0.69469330661E+02  0.69469330661E+02  0.00000000000E+00 0.  1.
         23    2    1    2    0    0  0.00000000000E+00  0.00000000000E+00 -0.39248856377E+02  0.99689804944E+02  0.91638335225E+02 0.  0.
        -11    1    3    3    0    0  0.20136613467E+02  0.41103922721E+02 -0.21901271808E+02  0.50741318191E+02  0.00000000000E+00 0. -1.
         11    1    3    3    0    0 -0.20136613467E+02 -0.41103922721E+02 -0.17347584570E+02  0.48948486753E+02  0.00000000000E+00 0.  1.
<mgrwt>
<rscale>  0 0.91638335E+02</rscale>
<asrwt>0</asrwt>
<pdfrwt beam="1">  1        1 0.46493037E-02 0.91638335E+02</pdfrwt>
<pdfrwt beam="2">  1       -1 0.10687589E-01 0.91638335E+02</pdfrwt>
<totfact> 0.85536731E+04</totfact>
</mgrwt>
</event>
<event>
 5    1  0.6125604E+000  0.9077050E+02  0.7546771E-02  0.1300996E+00
         -1   -1    0    0    0  501 -0.00000000000E+00  0.00000000000E+00  0.65382625449E+02  0.65382625449E+02  0.00000000000E+00 0.  1.
          1   -1    0    0  501    0  0.00000000000E+00 -0.00000000000E+00 -0.31504102131E+02  0.31504102131E+02  0.00000000000E+00 0. -1.
         23    2    1    2    0    0  0.00000000000E+00  0.00000000000E+00  0.33878523318E+02  0.96886727580E+02  0.90770499827E+02 0.  0.
        -11    1    3    3    0    0 -0.14748406729E+02 -0.42921024745E+02  0.16617196250E+02  0.48330746709E+02  0.00000000000E+00 0. -1.
         11    1    3    3    0    0  0.14748406729E+02  0.42921024745E+02  0.17261327068E+02  0.48555980871E+02  0.00000000000E+00 0.  1.
<mgrwt>
<rscale>  0 0.90770500E+02</rscale>
<asrwt>0</asrwt>
<pdfrwt beam="2">  1        1 0.48467850E-02 0.90770500E+02</pdfrwt>
<pdfrwt beam="1">  1       -1 0.10058865E-01 0.90770500E+02</pdfrwt>
<totfact> 0.88489998E+04</totfact>
</mgrwt>
</event>
<event>
 5    1  0.6125604E+000  0.9147755E+02  0.7546771E-02  0.1299313E+00
         -2   -1    0    0    0  501 -0.00000000000E+00  0.00000000000E+00  0.48399089477E+02  0.48399089477E+02  0.00000000000E+00 0.  1.
          2   -1    0    0  501    0  0.00000000000E+00 -0.00000000000E+00 -0.43224686992E+02  0.43224686992E+02  0.00000000000E+00 0. -1.
         23    2    1    2    0    0  0.00000000000E+00  0.00000000000E+00  0.51744024849E+01  0.91623776470E+02  0.91477549013E+02 0.  0.
        -11    1    3    3    0    0 -0.33623585303E+02  0.28665340938E+02  0.14429308134E+02  0.46480664722E+02  0.00000000000E+00 0.  1.
         11    1    3    3    0    0  0.33623585303E+02 -0.28665340938E+02 -0.92549056488E+01  0.45143111748E+02  0.00000000000E+00 0. -1.
<mgrwt>
<rscale>  0 0.91477549E+02</rscale>
<asrwt>0</asrwt>
<pdfrwt beam="2">  1        2 0.66499518E-02 0.91477549E+02</pdfrwt>
<pdfrwt beam="1">  1       -2 0.74460138E-02 0.91477549E+02</pdfrwt>
<totfact> 0.96402157E+04</totfact>
</mgrwt>
</event>
<event>
 5    1  0.6125604E+000  0.9100882E+02  0.7546771E-02  0.1300427E+00
         -3   -1    0    0    0  501 -0.00000000000E+00  0.00000000000E+00  0.43873237303E+03  0.43873237303E+03  0.00000000000E+00 0.  1.
          3   -1    0    0  501    0  0.00000000000E+00 -0.00000000000E+00 -0.47196223519E+01  0.47196223519E+01  0.00000000000E+00 0. -1.
         23    2    1    2    0    0  0.00000000000E+00  0.00000000000E+00  0.43401275068E+03  0.44345199538E+03  0.91008815271E+02 0.  0.
        -11    1    3    3    0    0 -0.11491893910E+02  0.44005776646E+02  0.22403227485E+03  0.22860234508E+03  0.00000000000E+00 0.  1.
         11    1    3    3    0    0  0.11491893910E+02 -0.44005776646E+02  0.20998047583E+03  0.21484965030E+03  0.00000000000E+00 0. -1.
<mgrwt>
<rscale>  0 0.91008815E+02</rscale>
<asrwt>0</asrwt>
<pdfrwt beam="2">  1        3 0.72609609E-03 0.91008815E+02</pdfrwt>
<pdfrwt beam="1">  1       -3 0.67497256E-01 0.91008815E+02</pdfrwt>
<totfact> 0.19444708E+04</totfact>
</mgrwt>
</event>
<event>
 5    1  0.6125604E+000  0.9037862E+02  0.7546771E-02  0.1301937E+00
         -1   -1    0    0    0  501 -0.00000000000E+00  0.00000000000E+00  0.12035192741E+02  0.12035192741E+02  0.00000000000E+00 0.  1.
          1   -1    0    0  501    0  0.00000000000E+00 -0.00000000000E+00 -0.16967518600E+03  0.16967518600E+03  0.00000000000E+00 0. -1.
         23    2    1    2    0    0  0.00000000000E+00  0.00000000000E+00 -0.15763999326E+03  0.18171037874E+03  0.90378616205E+02 0.  0.
        -11    1    3    3    0    0  0.94269784386E+01 -0.36583775301E+02 -0.28966842456E+02  0.47605866231E+02  0.00000000000E+00 0.  1.
         11    1    3    3    0    0 -0.94269784386E+01  0.36583775301E+02 -0.12867315080E+03  0.13410451251E+03  0.00000000000E+00 0. -1.
<mgrwt>
<rscale>  0 0.90378616E+02</rscale>
<asrwt>0</asrwt>
<pdfrwt beam="2">  1        1 0.26103874E-01 0.90378616E+02</pdfrwt>
<pdfrwt beam="1">  1       -1 0.18515682E-02 0.90378616E+02</pdfrwt>
<totfact> 0.11747789E+05</totfact>
</mgrwt>
</event>
<event>
 5    1  0.6125604E+000  0.9489975E+02  0.7546771E-02  0.1291402E+00
         -1   -1    0    0    0  501 -0.00000000000E+00  0.00000000000E+00  0.10049592385E+03  0.10049592385E+03  0.00000000000E+00 0.  1.
          1   -1    0    0  501    0  0.00000000000E+00 -0.00000000000E+00 -0.22403799311E+02  0.22403799311E+02  0.00000000000E+00 0. -1.
         23    2    1    2    0    0  0.00000000000E+00  0.00000000000E+00  0.78092124539E+02  0.12289972316E+03  0.94899747303E+02 0.  0.
        -11    1    3    3    0    0  0.25194541056E+02 -0.32266666836E+02  0.70116090434E+02  0.81192172194E+02  0.00000000000E+00 0.  1.
         11    1    3    3    0    0 -0.25194541056E+02  0.32266666836E+02  0.79760341049E+01  0.41707550968E+02  0.00000000000E+00 0. -1.
<mgrwt>
<rscale>  0 0.94899747E+02</rscale>
<asrwt>0</asrwt>
<pdfrwt beam="2">  1        1 0.34467384E-02 0.94899747E+02</pdfrwt>
<pdfrwt beam="1">  1       -1 0.15460911E-01 0.94899747E+02</pdfrwt>
<totfact> 0.73322412E+04</totfact>
</mgrwt>
</event>
<event>
 5    1  0.6125604E+000  0.9253740E+02  0.7546771E-02  0.1296821E+00
         -3   -1    0    0    0  501 -0.00000000000E+00  0.00000000000E+00  0.86048589604E+02  0.86048589604E+02  0.00000000000E+00 0.  1.
          3   -1    0    0  501    0  0.00000000000E+00 -0.00000000000E+00 -0.24878878970E+02  0.24878878970E+02  0.00000000000E+00 0. -1.
         23    2    1    2    0    0  0.00000000000E+00  0.00000000000E+00  0.61169710634E+02  0.11092746857E+03  0.92537396685E+02 0.  0.
        -11    1    3    3    0    0  0.28308053343E+02 -0.33740527434E+02  0.13588918803E+02  0.46091515378E+02  0.00000000000E+00 0. -1.
         11    1    3    3    0    0 -0.28308053343E+02  0.33740527434E+02  0.47580791831E+02  0.64835953196E+02  0.00000000000E+00 0.  1.
<mgrwt>
<rscale>  0 0.92537397E+02</rscale>
<asrwt>0</asrwt>
<pdfrwt beam="2">  1        3 0.38275199E-02 0.92537397E+02</pdfrwt>
<pdfrwt beam="1">  1       -3 0.13238244E-01 0.92537397E+02</pdfrwt>
<totfact> 0.32540190E+04</totfact>
</mgrwt>
</event>
<event>
 5    1  0.6125604E+000  0.9406106E+02  0.7546771E-02  0.1293305E+00
         -2   -1    0    0    0  501 -0.00000000000E+00  0.00000000000E+00  0.11312703412E+02  0.11312703412E+02  0.00000000000E+00 0.  1.
          2   -1    0    0  501    0  0.00000000000E+00 -0.00000000000E+00 -0.19552095546E+03  0.19552095546E+03  0.00000000000E+00 0. -1.
         23    2    1    2    0    0  0.00000000000E+00  0.00000000000E+00 -0.18420825205E+03  0.20683365887E+03  0.94061056340E+02 0.  0.
        -11    1    3    3    0    0 -0.22652817911E+02  0.37125036641E+02 -0.52740698507E+02  0.68359343062E+02  0.00000000000E+00 0.  1.
         11    1    3    3    0    0  0.22652817911E+02 -0.37125036641E+02 -0.13146755354E+03  0.13847431581E+03  0.00000000000E+00 0. -1.
<mgrwt>
<rscale>  0 0.94061056E+02</rscale>
<asrwt>0</asrwt>
<pdfrwt beam="2">  1        2 0.30080144E-01 0.94061056E+02</pdfrwt>
<pdfrwt beam="1">  1       -2 0.17404161E-02 0.94061056E+02</pdfrwt>
<totfact> 0.14104295E+05</totfact>
</mgrwt>
</event>
<event>
 5    1  0.6125604E+000  0.8938945E+02  0.7546771E-02  0.1304337E+00
          1   -1    0    0  501    0  0.00000000000E+00  0.00000000000E+00  0.39902999007E+02  0.39902999007E+02  0.00000000000E+00 0. -1.
         -1   -1    0    0    0  501 -0.00000000000E+00 -0.00000000000E+00 -0.50061857474E+02  0.50061857474E+02  0.00000000000E+00 0.  1.
         23    2    1    2    0    0  0.00000000000E+00  0.00000000000E+00 -0.10158858467E+02  0.89964856481E+02  0.89389445665E+02 0.  0.
        -11    1    3    3    0    0 -0.90990611657E+01  0.20837687711E+02  0.33647038099E+02  0.40609423981E+02  0.00000000000E+00 0. -1.
         11    1    3    3    0    0  0.90990611657E+01 -0.20837687711E+02 -0.43805896567E+02  0.49355432500E+02  0.00000000000E+00 0.  1.
<mgrwt>
<rscale>  0 0.89389446E+02</rscale>
<asrwt>0</asrwt>
<pdfrwt beam="1">  1        1 0.61389229E-02 0.89389446E+02</pdfrwt>
<pdfrwt beam="2">  1       -1 0.77018242E-02 0.89389446E+02</pdfrwt>
<totfact> 0.95830367E+04</totfact>
</mgrwt>
</event>
<event>
 5    1  0.6125604E+000  0.9216797E+02  0.7546771E-02  0.1297685E+00
         -2   -1    0    0    0  501 -0.00000000000E+00  0.00000000000E+00  0.52957289389E+01  0.52957289389E+01  0.00000000000E+00 0.  1.
          2   -1    0    0  501    0  0.00000000000E+00 -0.00000000000E+00 -0.40102759718E+03  0.40102759718E+03  0.00000000000E+00 0. -1.
         23    2    1    2    0    0  0.00000000000E+00  0.00000000000E+00 -0.39573186824E+03  0.40632332612E+03  0.92167965188E+02 0.  0.
        -11    1    3    3    0    0  0.22409265216E+02 -0.38701470700E+02 -0.14882348307E+03  0.15539758079E+03  0.00000000000E+00 0.  1.
         11    1    3    3    0    0 -0.22409265216E+02  0.38701470700E+02 -0.24690838517E+03  0.25092574533E+03  0.00000000000E+00 0. -1.
<mgrwt>
<rscale>  0 0.92167965E+02</rscale>
<asrwt>0</asrwt>
<pdfrwt beam="2">  1        2 0.61696562E-01 0.92167965E+02</pdfrwt>
<pdfrwt beam="1">  1       -2 0.81472742E-03 0.92167965E+02</pdfrwt>
<totfact> 0.19414844E+05</totfact>
</mgrwt>
</event>
<event>
 5    1  0.6125604E+000  0.9296268E+02  0.7546771E-02  0.1295832E+00
         -4   -1    0    0    0  501 -0.00000000000E+00  0.00000000000E+00  0.40397206550E+02  0.40397206550E+02  0.00000000000E+00 0.  1.
          4   -1    0    0  501    0  0.00000000000E+00 -0.00000000000E+00 -0.53481790271E+02  0.53481790271E+02  0.00000000000E+00 0. -1.
         23    2    1    2    0    0  0.00000000000E+00  0.00000000000E+00 -0.13084583721E+02  0.93878996820E+02  0.92962679140E+02 0.  0.
        -11    1    3    3    0    0 -0.38130681249E+02 -0.72804079874E+01  0.19274550168E+02  0.43341221454E+02  0.00000000000E+00 0.  1.
         11    1    3    3    0    0  0.38130681249E+02  0.72804079874E+01 -0.32359133889E+02  0.50537775366E+02  0.00000000000E+00 0. -1.
<mgrwt>
<rscale>  0 0.92962679E+02</rscale>
<asrwt>0</asrwt>
<pdfrwt beam="2">  1        4 0.82279678E-02 0.92962679E+02</pdfrwt>
<pdfrwt beam="1">  1       -4 0.62149548E-02 0.92962679E+02</pdfrwt>
<totfact> 0.25462874E+04</totfact>
</mgrwt>
</event>
<event>
 5    1  0.6125604E+000  0.9600118E+02  0.7546771E-02  0.1288937E+00
          1   -1    0    0  501    0  0.00000000000E+00  0.00000000000E+00  0.32296842190E+02  0.32296842190E+02  0.00000000000E+00 0. -1.
         -1   -1    0    0    0  501 -0.00000000000E+00 -0.00000000000E+00 -0.71339999216E+02  0.71339999216E+02  0.00000000000E+00 0.  1.
         23    2    1    2    0    0  0.00000000000E+00  0.00000000000E+00 -0.39043157026E+02  0.10363684141E+03  0.96001181170E+02 0.  0.
        -11    1    3    3    0    0 -0.30410855426E+02  0.35821108230E+02 -0.89396486667E+01  0.47831885191E+02  0.00000000000E+00 0. -1.
         11    1    3    3    0    0  0.30410855426E+02 -0.35821108230E+02 -0.30103508359E+02  0.55804956215E+02  0.00000000000E+00 0.  1.
<mgrwt>
<rscale>  0 0.96001181E+02</rscale>
<asrwt>0</asrwt>
<pdfrwt beam="1">  1        1 0.49687450E-02 0.96001181E+02</pdfrwt>
<pdfrwt beam="2">  1       -1 0.10975384E-01 0.96001181E+02</pdfrwt>
<totfact> 0.75628962E+04</totfact>
</mgrwt>
</event>
<event>
 5    1  0.6125604E+000  0.8556034E+02  0.7546771E-02  0.1313974E+00
         -1   -1    0    0    0  501 -0.00000000000E+00  0.00000000000E+00  0.24400468237E+02  0.24400468237E+02  0.00000000000E+00 0.  1.
          1   -1    0    0  501    0  0.00000000000E+00 -0.00000000000E+00 -0.75004423192E+02  0.75004423192E+02  0.00000000000E+00 0. -1.
         23    2    1    2    0    0  0.00000000000E+00  0.00000000000E+00 -0.50603954955E+02  0.99404891429E+02  0.85560342350E+02 0.  0.
        -11    1    3    3    0    0 -0.11220043368E+02 -0.27848239554E+02  0.10104261634E+02  0.31678224739E+02  0.00000000000E+00 0.  1.
         11    1    3    3    0    0  0.11220043368E+02  0.27848239554E+02 -0.60708216590E+02  0.67726666690E+02  0.00000000000E+00 0. -1.
<mgrwt>
<rscale>  0 0.85560342E+02</rscale>
<asrwt>0</asrwt>
<pdfrwt beam="2">  1        1 0.11539142E-01 0.85560342E+02</pdfrwt>
<pdfrwt beam="1">  1       -1 0.37539182E-02 0.85560342E+02</pdfrwt>
<totfact> 0.11868236E+05</totfact>
</mgrwt>
</event>
<event>
 5    1  0.6125604E+000  0.9213731E+02  0.7546771E-02  0.1297757E+00
          1   -1    0    0  501    0  0.00000000000E+00  0.00000000000E+00  0.59916444978E+02  0.59916444978E+02  0.00000000000E+00 0. -1.
         -1   -1    0    0    0  501 -0.00000000000E+00 -0.00000000000E+00 -0.35421345082E+02  0.35421345082E+02  0.00000000000E+00 0.  1.
         23    2    1    2    0    0  0.00000000000E+00  0.00000000000E+00  0.24495099897E+02  0.95337790060E+02  0.92137312174E+02 0.  0.
        -11    1    3    3    0    0  0.20921505017E+02 -0.35402244171E+02  0.33736522468E+02  0.53190048061E+02  0.00000000000E+00 0. -1.
         11    1    3    3    0    0 -0.20921505017E+02  0.35402244171E+02 -0.92414225714E+01  0.42147741999E+02  0.00000000000E+00 0.  1.
<mgrwt>
<rscale>  0 0.92137312E+02</rscale>
<asrwt>0</asrwt>
<pdfrwt beam="1">  1        1 0.92179146E-02 0.92137312E+02</pdfrwt>
<pdfrwt beam="2">  1       -1 0.54494377E-02 0.92137312E+02</pdfrwt>
<totfact> 0.93585680E+04</totfact>
</mgrwt>
</event>
<event>
 5    1  0.6125604E+000  0.9609572E+02  0.7546771E-02  0.1288727E+00
          4   -1    0    0  501    0  0.00000000000E+00  0.00000000000E+00  0.33387975651E+02  0.33387975651E+02  0.00000000000E+00 0. -1.
         -4   -1    0    0    0  501 -0.00000000000E+00 -0.00000000000E+00 -0.69144561270E+02  0.69144561270E+02  0.00000000000E+00 0.  1.
         23    2    1    2    0    0  0.00000000000E+00  0.00000000000E+00 -0.35756585618E+02  0.10253253692E+03  0.96095721613E+02 0.  0.
        -11    1    3    3    0    0  0.22363388505E+02  0.26906820701E+02 -0.53015900129E+02  0.63519948144E+02  0.00000000000E+00 0.  1.
         11    1    3    3    0    0 -0.22363388505E+02 -0.26906820701E+02  0.17259314511E+02  0.39012588777E+02  0.00000000000E+00 0. -1.
<mgrwt>
<rscale>  0 0.96095722E+02</rscale>
<asrwt>0</asrwt>
<pdfrwt beam="1">  1        4 0.51366117E-02 0.96095722E+02</pdfrwt>
<pdfrwt beam="2">  1       -4 0.10637625E-01 0.96095722E+02</pdfrwt>
<totfact> 0.22795111E+04</totfact>
</mgrwt>
</event>
<event>
 5    1  0.6125604E+000  0.9139497E+02  0.7546771E-02  0.1299508E+00
          1   -1    0    0  501    0  0.00000000000E+00  0.00000000000E+00  0.17442271444E+03  0.17442271444E+03  0.00000000000E+00 0. -1.
         -1   -1    0    0    0  501 -0.00000000000E+00 -0.00000000000E+00 -0.11972408915E+02  0.11972408915E+02  0.00000000000E+00 0.  1.
         23    2    1    2    0    0  0.00000000000E+00  0.00000000000E+00  0.16245030553E+03  0.18639512336E+03  0.91394968381E+02 0.  0.
        -11    1    3    3    0    0 -0.45188633439E+02 -0.67795704478E+01  0.82313716176E+02  0.94146285314E+02  0.00000000000E+00 0.  1.
         11    1    3    3    0    0  0.45188633439E+02  0.67795704478E+01  0.80136589351E+02  0.92248838044E+02  0.00000000000E+00 0. -1.
<mgrwt>
<rscale>  0 0.91394968E+02</rscale>
<asrwt>0</asrwt>
<pdfrwt beam="1">  1        1 0.26834262E-01 0.91394968E+02</pdfrwt>
<pdfrwt beam="2">  1       -1 0.18419092E-02 0.91394968E+02</pdfrwt>
<totfact> 0.11459385E+05</totfact>
</mgrwt>
</event>
<event>
 5    1  0.6125604E+000  0.9146180E+02  0.7546771E-02  0.1299350E+00
          2   -1    0    0  501    0  0.00000000000E+00  0.00000000000E+00  0.23873781693E+03  0.23873781693E+03  0.00000000000E+00 0. -1.
         -2   -1    0    0    0  501 -0.00000000000E+00 -0.00000000000E+00 -0.87598822941E+01  0.87598822941E+01  0.00000000000E+00 0.  1.
         23    2    1    2    0    0  0.00000000000E+00  0.00000000000E+00  0.22997793464E+03  0.24749769922E+03  0.91461799139E+02 0.  0.
        -11    1    3    3    0    0 -0.32130235296E+02 -0.26895630498E+02  0.65417157285E+02  0.77686108329E+02  0.00000000000E+00 0.  1.
         11    1    3    3    0    0  0.32130235296E+02  0.26895630498E+02  0.16456077735E+03  0.16981159090E+03  0.00000000000E+00 0. -1.
<mgrwt>
<rscale>  0 0.91461799E+02</rscale>
<asrwt>0</asrwt>
<pdfrwt beam="1">  1        2 0.36728890E-01 0.91461799E+02</pdfrwt>
<pdfrwt beam="2">  1       -2 0.13476744E-02 0.91461799E+02</pdfrwt>
<totfact> 0.16364953E+05</totfact>
</mgrwt>
</event>
<event>
 5    1  0.6125604E+000  0.9050899E+02  0.7546771E-02  0.1301624E+00
          2   -1    0    0  501    0  0.00000000000E+00  0.00000000000E+00  0.15294435928E+02  0.15294435928E+02  0.00000000000E+00 0. -1.
         -2   -1    0    0    0  501 -0.00000000000E+00 -0.00000000000E+00 -0.13390289996E+03  0.13390289996E+03  0.00000000000E+00 0.  1.
         23    2    1    2    0    0  0.00000000000E+00  0.00000000000E+00 -0.11860846403E+03  0.14919733589E+03  0.90508990141E+02 0.  0.
        -11    1    3    3    0    0 -0.23958379247E+02 -0.84813930652E+01 -0.12102740064E+03  0.12366717297E+03  0.00000000000E+00 0.  1.
         11    1    3    3    0    0  0.23958379247E+02  0.84813930652E+01  0.24189366065E+01  0.25530162921E+02  0.00000000000E+00 0. -1.
<mgrwt>
<rscale>  0 0.90508990E+02</rscale>
<asrwt>0</asrwt>
<pdfrwt beam="1">  1        2 0.23529901E-02 0.90508990E+02</pdfrwt>
<pdfrwt beam="2">  1       -2 0.20600447E-01 0.90508990E+02</pdfrwt>
<totfact> 0.74072506E+04</totfact>
</mgrwt>
</event>
<event>
 5    1  0.6125604E+000  0.9024192E+02  0.7546771E-02  0.1302267E+00
         -3   -1    0    0    0  501 -0.00000000000E+00  0.00000000000E+00  0.97933626571E+02  0.97933626571E+02  0.00000000000E+00 0.  1.
          3   -1    0    0  501    0  0.00000000000E+00 -0.00000000000E+00 -0.20788578903E+02  0.20788578903E+02  0.00000000000E+00 0. -1.
         23    2    1    2    0    0  0.00000000000E+00  0.00000000000E+00  0.77145047668E+02  0.11872220547E+03  0.90241917604E+02 0.  0.
        -11    1    3    3    0    0  0.10082041290E+02  0.18265260617E+02 -0.14061867847E+02  0.25159559403E+02  0.00000000000E+00 0. -1.
         11    1    3    3    0    0 -0.10082041290E+02 -0.18265260617E+02  0.91206915515E+02  0.93562646071E+02  0.00000000000E+00 0.  1.
<mgrwt>
<rscale>  0 0.90241918E+02</rscale>
<asrwt>0</asrwt>
<pdfrwt beam="2">  1        3 0.31982430E-02 0.90241918E+02</pdfrwt>
<pdfrwt beam="1">  1       -3 0.15066712E-01 0.90241918E+02</pdfrwt>
<totfact> 0.34280338E+04</totfact>
</mgrwt>
</event>
<event>
 5    1  0.6125604E+000  0.9254580E+02  0.7546771E-02  0.1296801E+00
         -2   -1    0    0    0  501 -0.00000000000E+00  0.00000000000E+00  0.37164218985E+02  0.37164218985E+02  0.00000000000E+00 0.  1.
          2   -1    0    0  501    0  0.00000000000E+00 -0.00000000000E+00 -0.57614049945E+02  0.57614049945E+02  0.00000000000E+00 0. -1.
         23    2    1    2    0    0  0.00000000000E+00  0.00000000000E+00 -0.20449830960E+02  0.94778268930E+02  0.92545797717E+02 0.  0.
        -11    1    3    3    0    0  0.33067061523E+02  0.32345638014E+02 -0.89663219922E+01  0.47117574071E+02  0.00000000000E+00 0.  1.
         11    1    3    3    0    0 -0.33067061523E+02 -0.32345638014E+02 -0.11483508968E+02  0.47660694859E+02  0.00000000000E+00 0. -1.
<mgrwt>
<rscale>  0 0.92545798E+02</rscale>
<asrwt>0</asrwt>
<pdfrwt beam="2">  1        2 0.88637000E-02 0.92545798E+02</pdfrwt>
<pdfrwt beam="1">  1       -2 0.57175722E-02 0.92545798E+02</pdfrwt>
<totfact> 0.10058621E+05</totfact>
</mgrwt>
</event>
<event>
 5    1  0.6125604E+000  0.9197543E+02  0.7546771E-02  0.1298137E+00
         -1   -1    0    0    0  501 -0.00000000000E+00  0.00000000000E+00  0.15613373046E+03  0.15613373046E+03  0.00000000000E+00 0.  1.
          1   -1    0    0  501    0  0.00000000000E+00 -0.00000000000E+00 -0.13545248130E+02  0.13545248130E+02  0.00000000000E+00 0. -1.
         23    2    1    2    0    0  0.00000000000E+00  0.00000000000E+00  0.14258848233E+03  0.16967897859E+03  0.91975434124E+02 0.  0.
        -11    1    3    3    0    0 -0.61547209889E+01 -0.35920028940E+02  0.12303968313E+03  0.12832339106E+03  0.00000000000E+00 0.  1.
         11    1    3    3    0    0  0.61547209889E+01  0.35920028940E+02  0.19548799201E+02  0.41355587527E+02  0.00000000000E+00 0. -1.
<mgrwt>
<rscale>  0 0.91975434E+02</rscale>
<asrwt>0</asrwt>
<pdfrwt beam="2">  1        1 0.20838844E-02 0.91975434E+02</pdfrwt>
<pdfrwt beam="1">  1       -1 0.24020573E-01 0.91975434E+02</pdfrwt>
<totfact> 0.72420107E+04</totfact>
</mgrwt>
</event>
<event>
 5    1  0.6125604E+000  0.8825674E+02  0.7546771E-02  0.1307129E+00
          2   -1    0    0  501    0  0.00000000000E+00  0.00000000000E+00  0.60515261223E+01  0.60515261223E+01  0.00000000000E+00 0. -1.
         -2   -1    0    0    0  501 -0.00000000000E+00 -0.00000000000E+00 -0.32178876332E+03  0.32178876332E+03  0.00000000000E+00 0.  1.
         23    2    1    2    0    0  0.00000000000E+00  0.00000000000E+00 -0.31573723720E+03  0.32784028944E+03  0.88256741546E+02 0.  0.
        -11    1    3    3    0    0 -0.25212947197E+02  0.33222254584E+02 -0.10430819797E+03  0.11233704229E+03  0.00000000000E+00 0. -1.
         11    1    3    3    0    0  0.25212947197E+02 -0.33222254584E+02 -0.21142903922E+03  0.21550324715E+03  0.00000000000E+00 0.  1.
<mgrwt>
<rscale>  0 0.88256742E+02</rscale>
<asrwt>0</asrwt>
<pdfrwt beam="1">  1        2 0.93100373E-03 0.88256742E+02</pdfrwt>
<pdfrwt beam="2">  1       -2 0.49505979E-01 0.88256742E+02</pdfrwt>
<totfact> 0.53266089E+04</totfact>
</mgrwt>
</event>
<event>
 5    1  0.6125604E+000  0.9105088E+02  0.7546771E-02  0.1300327E+00
          1   -1    0    0  501    0  0.00000000000E+00  0.00000000000E+00  0.21129706761E+03  0.21129706761E+03  0.00000000000E+00 0. -1.
         -1   -1    0    0    0  501 -0.00000000000E+00 -0.00000000000E+00 -0.98087759747E+01  0.98087759747E+01  0.00000000000E+00 0.  1.
         23    2    1    2    0    0  0.00000000000E+00  0.00000000000E+00  0.20148829163E+03  0.22110584358E+03  0.91050878091E+02 0.  0.
        -11    1    3    3    0    0  0.43096812793E+02  0.14198094433E+02  0.10971417733E+03  0.11872708986E+03  0.00000000000E+00 0. -1.
         11    1    3    3    0    0 -0.43096812793E+02 -0.14198094433E+02  0.91774114299E+02  0.10237875372E+03  0.00000000000E+00 0.  1.
<mgrwt>
<rscale>  0 0.91050878E+02</rscale>
<asrwt>0</asrwt>
<pdfrwt beam="1">  1        1 0.32507238E-01 0.91050878E+02</pdfrwt>
<pdfrwt beam="2">  1       -1 0.15090426E-02 0.91050878E+02</pdfrwt>
<totfact> 0.12012201E+05</totfact>
</mgrwt>
</event>
<event>
 5    1  0.6125604E+000  0.9017920E+02  0.7546771E-02  0.1302418E+00
          2   -1    0    0  501    0  0.00000000000E+00  0.00000000000E+00  0.31940743900E+03  0.31940743900E+03  0.00000000000E+00 0. -1.
         -2   -1    0    0    0  501 -0.00000000000E+00 -0.00000000000E+00 -0.63651362439E+01  0.63651362439E+01  0.00000000000E+00 0.  1.
         23    2    1    2    0    0  0.00000000000E+00  0.00000000000E+00  0.31304230275E+03  0.32577257524E+03  0.90179196416E+02 0.  0.
        -11    1    3    3    0    0  0.44989107451E+02  0.30085494129E+01  0.15642504655E+03  0.16279393830E+03  0.00000000000E+00 0. -1.
         11    1    3    3    0    0 -0.44989107451E+02 -0.30085494129E+01  0.15661725621E+03  0.16297863694E+03  0.00000000000E+00 0.  1.
<mgrwt>
<rscale>  0 0.90179196E+02</rscale>
<asrwt>0</asrwt>
<pdfrwt beam="1">  1        2 0.49139594E-01 0.90179196E+02</pdfrwt>
<pdfrwt beam="2">  1       -2 0.97925198E-03 0.90179196E+02</pdfrwt>
<totfact> 0.18935967E+05</totfact>
</mgrwt>
</event>
<event>
 5    1  0.6125604E+000  0.9225068E+02  0.7546771E-02  0.1297491E+00
          1   -1    0    0  501    0  0.00000000000E+00  0.00000000000E+00  0.30524357326E+02  0.30524357326E+02  0.00000000000E+00 0. -1.
         -1   -1    0    0    0  501 -0.00000000000E+00 -0.00000000000E+00 -0.69699975228E+02  0.69699975228E+02  0.00000000000E+00 0.  1.
         23    2    1    2    0    0  0.00000000000E+00  0.00000000000E+00 -0.39175617902E+02  0.10022433255E+03  0.92250679118E+02 0.  0.
        -11    1    3    3    0    0  0.16023831170E+02  0.33992336736E+02 -0.48644702258E+02  0.61469904668E+02  0.00000000000E+00 0.  1.
         11    1    3    3    0    0 -0.16023831170E+02 -0.33992336736E+02  0.94690843556E+01  0.38754427885E+02  0.00000000000E+00 0. -1.
<mgrwt>
<rscale>  0 0.92250679E+02</rscale>
<asrwt>0</asrwt>
<pdfrwt beam="1">  1        1 0.46960550E-02 0.92250679E+02</pdfrwt>
<pdfrwt beam="2">  1       -1 0.10723073E-01 0.92250679E+02</pdfrwt>
<totfact> 0.84050155E+04</totfact>
</mgrwt>
</event>
<event>
 5    1  0.6125604E+000  0.9120339E+02  0.7546771E-02  0.1299963E+00
          1   -1    0    0  501    0  0.00000000000E+00  0.00000000000E+00  0.36275833840E+03  0.36275833840E+03  0.00000000000E+00 0. -1.
         -1   -1    0    0    0  501 -0.00000000000E+00 -0.00000000000E+00 -0.57325061444E+01  0.57325061444E+01  0.00000000000E+00 0.  1.
         23    2    1    2    0    0  0.00000000000E+00  0.00000000000E+00  0.35702583225E+03  0.36849084454E+03  0.91203385985E+02 0.  0.
        -11    1    3    3    0    0 -0.15890005866E+02  0.39843475019E+02  0.11598322506E+03  0.12366124406E+03  0.00000000000E+00 0.  1.
         11    1    3    3    0    0  0.15890005866E+02 -0.39843475019E+02  0.24104260719E+03  0.24482960048E+03  0.00000000000E+00 0. -1.
<mgrwt>
<rscale>  0 0.91203386E+02</rscale>
<asrwt>0</asrwt>
<pdfrwt beam="1">  1        1 0.55808957E-01 0.91203386E+02</pdfrwt>
<pdfrwt beam="2">  1       -1 0.88192431E-03 0.91203386E+02</pdfrwt>
<totfact> 0.13256648E+05</totfact>
</mgrwt>
</event>
<event>
 5    1  0.6125604E+000  0.9056726E+02  0.7546771E-02  0.1301484E+00
          1   -1    0    0  501    0  0.00000000000E+00  0.00000000000E+00  0.73468427139E+02  0.73468427139E+02  0.00000000000E+00 0. -1.
         -1   -1    0    0    0  501 -0.00000000000E+00 -0.00000000000E+00 -0.27911408096E+02  0.27911408096E+02  0.00000000000E+00 0.  1.
         23    2    1    2    0    0  0.00000000000E+00  0.00000000000E+00  0.45557019043E+02  0.10137983523E+03  0.90567262342E+02 0.  0.
        -11    1    3    3    0    0  0.64273928309E+01 -0.21883843626E+02 -0.21012188041E+02  0.31011708059E+02  0.00000000000E+00 0.  1.
         11    1    3    3    0    0 -0.64273928309E+01  0.21883843626E+02  0.66569207084E+02  0.70368127176E+02  0.00000000000E+00 0. -1.
<mgrwt>
<rscale>  0 0.90567262E+02</rscale>
<asrwt>0</asrwt>
<pdfrwt beam="1">  1        1 0.11302835E-01 0.90567262E+02</pdfrwt>
<pdfrwt beam="2">  1       -1 0.42940628E-02 0.90567262E+02</pdfrwt>
<totfact> 0.10126022E+05</totfact>
</mgrwt>
</event>
<event>
 5    1  0.6125604E+000  0.5994263E+02  0.7546771E-02  0.1398073E+00
         -1   -1    0    0    0  501 -0.00000000000E+00  0.00000000000E+00  0.25087764854E+02  0.25087764854E+02  0.00000000000E+00 0.  1.
          1   -1    0    0  501    0  0.00000000000E+00 -0.00000000000E+00 -0.35805486428E+02  0.35805486428E+02  0.00000000000E+00 0. -1.
         23    2    1    2    0    0  0.00000000000E+00  0.00000000000E+00 -0.10717721574E+02  0.60893251283E+02  0.59942626703E+02 0.  0.
        -11    1    3    3    0    0 -0.24029260354E+02 -0.10292921259E+02  0.95341311937E+01  0.27825334479E+02  0.00000000000E+00 0.  1.
         11    1    3    3    0    0  0.24029260354E+02  0.10292921259E+02 -0.20251852768E+02  0.33067916804E+02  0.00000000000E+00 0. -1.
<mgrwt>
<rscale>  0 0.59942627E+02</rscale>
<asrwt>0</asrwt>
<pdfrwt beam="2">  1        1 0.55085363E-02 0.59942627E+02</pdfrwt>
<pdfrwt beam="1">  1       -1 0.38596562E-02 0.59942627E+02</pdfrwt>
<totfact> 0.28135646E+05</totfact>
</mgrwt>
</event>
<event>
 5    1  0.6125604E+000  0.9262529E+02  0.7546771E-02  0.1296616E+00
          1   -1    0    0  501    0  0.00000000000E+00  0.00000000000E+00  0.13158829399E+03  0.13158829399E+03  0.00000000000E+00 0. -1.
         -1   -1    0    0    0  501 -0.00000000000E+00 -0.00000000000E+00 -0.16299786338E+02  0.16299786338E+02  0.00000000000E+00 0.  1.
         23    2    1    2    0    0  0.00000000000E+00  0.00000000000E+00  0.11528850765E+03  0.14788808032E+03  0.92625289777E+02 0.  0.
        -11    1    3    3    0    0 -0.25019856091E+02  0.23987106927E+01 -0.44625851899E+01  0.25527664962E+02  0.00000000000E+00 0.  1.
         11    1    3    3    0    0  0.25019856091E+02 -0.23987106927E+01  0.11975109284E+03  0.12236041536E+03  0.00000000000E+00 0. -1.
<mgrwt>
<rscale>  0 0.92625290E+02</rscale>
<asrwt>0</asrwt>
<pdfrwt beam="1">  1        1 0.20244352E-01 0.92625290E+02</pdfrwt>
<pdfrwt beam="2">  1       -1 0.25076595E-02 0.92625290E+02</pdfrwt>
<totfact> 0.10492356E+05</totfact>
</mgrwt>
</event>
<event>
 5    1  0.6125604E+000  0.8934480E+02  0.7546771E-02  0.1304446E+00
         -1   -1    0    0    0  501 -0.00000000000E+00  0.00000000000E+00  0.20325699948E+03  0.20325699948E+03  0.00000000000E+00 0.  1.
          1   -1    0    0  501    0  0.00000000000E+00 -0.00000000000E+00 -0.98182263155E+01  0.98182263155E+01  0.00000000000E+00 0. -1.
         23    2    1    2    0    0  0.00000000000E+00  0.00000000000E+00  0.19343877316E+03  0.21307522580E+03  0.89344797747E+02 0.  0.
        -11    1    3    3    0    0  0.41346100866E+02 -0.16611263555E+02  0.10433195714E+03  0.11344862897E+03  0.00000000000E+00 0. -1.
         11    1    3    3    0    0 -0.41346100866E+02  0.16611263555E+02  0.89106816026E+02  0.99626596830E+02  0.00000000000E+00 0.  1.
<mgrwt>
<rscale>  0 0.89344798E+02</rscale>
<asrwt>0</asrwt>
<pdfrwt beam="2">  1        1 0.15104965E-02 0.89344798E+02</pdfrwt>
<pdfrwt beam="1">  1       -1 0.31270304E-01 0.89344798E+02</pdfrwt>
<totfact> 0.72851226E+04</totfact>
</mgrwt>
</event>
<event>
 5    1  0.6125604E+000  0.9088310E+02  0.7546771E-02  0.1300727E+00
          4   -1    0    0  501    0  0.00000000000E+00  0.00000000000E+00  0.19532658198E+02  0.19532658198E+02  0.00000000000E+00 0.  1.
         -4   -1    0    0    0  501 -0.00000000000E+00 -0.00000000000E+00 -0.10571702313E+03  0.10571702313E+03  0.00000000000E+00 0. -1.
         23    2    1    2    0    0  0.00000000000E+00  0.00000000000E+00 -0.86184364932E+02  0.12524968133E+03  0.90883100267E+02 0.  0.
        -11    1    3    3    0    0  0.45000437404E+02 -0.32827808952E+00 -0.34399256553E+02  0.56643234234E+02  0.00000000000E+00 0.  1.
         11    1    3    3    0    0 -0.45000437404E+02  0.32827808952E+00 -0.51785108379E+02  0.68606447095E+02  0.00000000000E+00 0. -1.
<mgrwt>
<rscale>  0 0.90883100E+02</rscale>
<asrwt>0</asrwt>
<pdfrwt beam="1">  1        4 0.30050244E-02 0.90883100E+02</pdfrwt>
<pdfrwt beam="2">  1       -4 0.16264157E-01 0.90883100E+02</pdfrwt>
<totfact> 0.25196972E+04</totfact>
</mgrwt>
</event>
<event>
 5    1  0.6125604E+000  0.8770438E+02  0.7546771E-02  0.1308508E+00
         -1   -1    0    0    0  501 -0.00000000000E+00  0.00000000000E+00  0.35081208030E+03  0.35081208030E+03  0.00000000000E+00 0.  1.
          1   -1    0    0  501    0  0.00000000000E+00 -0.00000000000E+00 -0.54816082504E+01  0.54816082504E+01  0.00000000000E+00 0. -1.
         23    2    1    2    0    0  0.00000000000E+00  0.00000000000E+00  0.34533047205E+03  0.35629368855E+03  0.87704376030E+02 0.  0.
        -11    1    3    3    0    0 -0.30414065629E+02  0.31351803662E+02  0.18843221740E+03  0.19342867299E+03  0.00000000000E+00 0.  1.
         11    1    3    3    0    0  0.30414065629E+02 -0.31351803662E+02  0.15689825465E+03  0.16286501556E+03  0.00000000000E+00 0. -1.
<mgrwt>
<rscale>  0 0.87704376E+02</rscale>
<asrwt>0</asrwt>
<pdfrwt beam="2">  1        1 0.84332462E-03 0.87704376E+02</pdfrwt>
<pdfrwt beam="1">  1       -1 0.53971072E-01 0.87704376E+02</pdfrwt>
<totfact> 0.62785627E+04</totfact>
</mgrwt>
</event>
<event>
 5    1  0.6125604E+000  0.9233783E+02  0.7546771E-02  0.1297287E+00
          1   -1    0    0  501    0  0.00000000000E+00  0.00000000000E+00  0.11555953569E+03  0.11555953569E+03  0.00000000000E+00 0. -1.
         -1   -1    0    0    0  501 -0.00000000000E+00 -0.00000000000E+00 -0.18445632982E+02  0.18445632982E+02  0.00000000000E+00 0.  1.
         23    2    1    2    0    0  0.00000000000E+00  0.00000000000E+00  0.97113902709E+02  0.13400516867E+03  0.92337831531E+02 0.  0.
        -11    1    3    3    0    0 -0.33323881279E+02 -0.25255997265E+02  0.76966692533E+02  0.87591199448E+02  0.00000000000E+00 0. -1.
         11    1    3    3    0    0  0.33323881279E+02  0.25255997265E+02  0.20147210177E+02  0.46413969225E+02  0.00000000000E+00 0.  1.
<mgrwt>
<rscale>  0 0.92337832E+02</rscale>
<asrwt>0</asrwt>
<pdfrwt beam="1">  1        1 0.17778390E-01 0.92337832E+02</pdfrwt>
<pdfrwt beam="2">  1       -1 0.28377898E-02 0.92337832E+02</pdfrwt>
<totfact> 0.10341824E+05</totfact>
</mgrwt>
</event>
<event>
 5    1  0.6125604E+000  0.8131542E+02  0.7546771E-02  0.1325359E+00
         -4   -1    0    0    0  501 -0.00000000000E+00  0.00000000000E+00  0.20279482080E+02  0.20279482080E+02  0.00000000000E+00 0.  1.
          4   -1    0    0  501    0  0.00000000000E+00 -0.00000000000E+00 -0.81513385921E+02  0.81513385921E+02  0.00000000000E+00 0. -1.
         23    2    1    2    0    0  0.00000000000E+00  0.00000000000E+00 -0.61233903841E+02  0.10179286800E+03  0.81315416720E+02 0.  0.
        -11    1    3    3    0    0 -0.91220226724E+01 -0.25305879920E+02 -0.68781275238E+02  0.73854334196E+02  0.00000000000E+00 0. -1.
         11    1    3    3    0    0  0.91220226724E+01  0.25305879920E+02  0.75473713971E+01  0.27938533805E+02  0.00000000000E+00 0.  1.
<mgrwt>
<rscale>  0 0.81315417E+02</rscale>
<asrwt>0</asrwt>
<pdfrwt beam="2">  1        4 0.12540521E-01 0.81315417E+02</pdfrwt>
<pdfrwt beam="1">  1       -4 0.31199204E-02 0.81315417E+02</pdfrwt>
<totfact> 0.35824016E+04</totfact>
</mgrwt>
</event>
<event>
 5    1  0.6125604E+000  0.9093816E+02  0.7546771E-02  0.1300596E+00
         -3   -1    0    0    0  501 -0.00000000000E+00  0.00000000000E+00  0.70923705905E+01  0.70923705905E+01  0.00000000000E+00 0.  1.
          3   -1    0    0  501    0  0.00000000000E+00 -0.00000000000E+00 -0.29150161046E+03  0.29150161046E+03  0.00000000000E+00 0. -1.
         23    2    1    2    0    0  0.00000000000E+00  0.00000000000E+00 -0.28440923987E+03  0.29859398105E+03  0.90938164685E+02 0.  0.
        -11    1    3    3    0    0  0.42965648068E+01 -0.41466759878E+02 -0.82603755372E+02  0.92527471842E+02  0.00000000000E+00 0.  1.
         11    1    3    3    0    0 -0.42965648068E+01  0.41466759878E+02 -0.20180548449E+03  0.20606650920E+03  0.00000000000E+00 0. -1.
<mgrwt>
<rscale>  0 0.90938165E+02</rscale>
<asrwt>0</asrwt>
<pdfrwt beam="2">  1        3 0.44846398E-01 0.90938165E+02</pdfrwt>
<pdfrwt beam="1">  1       -3 0.10911340E-02 0.90938165E+02</pdfrwt>
<totfact> 0.24255799E+04</totfact>
</mgrwt>
</event>
<event>
 5    1  0.6125604E+000  0.9208722E+02  0.7546771E-02  0.1297874E+00
          1   -1    0    0  501    0  0.00000000000E+00  0.00000000000E+00  0.41044554682E+02  0.41044554682E+02  0.00000000000E+00 0. -1.
         -1   -1    0    0    0  501 -0.00000000000E+00 -0.00000000000E+00 -0.51651533465E+02  0.51651533465E+02  0.00000000000E+00 0.  1.
         23    2    1    2    0    0  0.00000000000E+00  0.00000000000E+00 -0.10606978783E+02  0.92696088147E+02  0.92087223647E+02 0.  0.
        -11    1    3    3    0    0 -0.18572268545E+02  0.14844822975E+02 -0.44994083341E+02  0.50889738296E+02  0.00000000000E+00 0.  1.
         11    1    3    3    0    0  0.18572268545E+02 -0.14844822975E+02  0.34387104558E+02  0.41806349852E+02  0.00000000000E+00 0. -1.
<mgrwt>
<rscale>  0 0.92087224E+02</rscale>
<asrwt>0</asrwt>
<pdfrwt beam="1">  1        1 0.63145469E-02 0.92087224E+02</pdfrwt>
<pdfrwt beam="2">  1       -1 0.79463898E-02 0.92087224E+02</pdfrwt>
<totfact> 0.88498806E+04</totfact>
</mgrwt>
</event>
<event>
 5    1  0.6125604E+000  0.8986507E+02  0.7546771E-02  0.1303179E+00
          2   -1    0    0  501    0  0.00000000000E+00  0.00000000000E+00  0.11269291763E+03  0.11269291763E+03  0.00000000000E+00 0. -1.
         -2   -1    0    0    0  501 -0.00000000000E+00 -0.00000000000E+00 -0.17915345723E+02  0.17915345723E+02  0.00000000000E+00 0.  1.
         23    2    1    2    0    0  0.00000000000E+00  0.00000000000E+00  0.94777571903E+02  0.13060826335E+03  0.89865067290E+02 0.  0.
        -11    1    3    3    0    0 -0.28665094855E+02 -0.23099600536E+02  0.84830041478E+02  0.92473861956E+02  0.00000000000E+00 0. -1.
         11    1    3    3    0    0  0.28665094855E+02  0.23099600536E+02  0.99475304250E+01  0.38134401392E+02  0.00000000000E+00 0.  1.
<mgrwt>
<rscale>  0 0.89865067E+02</rscale>
<asrwt>0</asrwt>
<pdfrwt beam="1">  1        2 0.17337371E-01 0.89865067E+02</pdfrwt>
<pdfrwt beam="2">  1       -2 0.27562071E-02 0.89865067E+02</pdfrwt>
<totfact> 0.13244737E+05</totfact>
</mgrwt>
</event>
<event>
 5    1  0.6125604E+000  0.9965679E+02  0.7546771E-02  0.1281019E+00
         -1   -1    0    0    0  501 -0.00000000000E+00  0.00000000000E+00  0.58586749356E+02  0.58586749356E+02  0.00000000000E+00 0.  1.
          1   -1    0    0  501    0  0.00000000000E+00 -0.00000000000E+00 -0.42379360857E+02  0.42379360857E+02  0.00000000000E+00 0. -1.
         23    2    1    2    0    0  0.00000000000E+00  0.00000000000E+00  0.16207388500E+02  0.10096611021E+03  0.99656790886E+02 0.  0.
        -11    1    3    3    0    0  0.24708170484E+02  0.60856486361E+01  0.51507420310E+02  0.57450353828E+02  0.00000000000E+00 0.  1.
         11    1    3    3    0    0 -0.24708170484E+02 -0.60856486361E+01 -0.35300031810E+02  0.43515756385E+02  0.00000000000E+00 0. -1.
<mgrwt>
<rscale>  0 0.99656791E+02</rscale>
<asrwt>0</asrwt>
<pdfrwt beam="2">  1        1 0.65199017E-02 0.99656791E+02</pdfrwt>
<pdfrwt beam="1">  1       -1 0.90133460E-02 0.99656791E+02</pdfrwt>
<totfact> 0.71045644E+04</totfact>
</mgrwt>
</event>
<event>
 5    1  0.6125604E+000  0.8754675E+02  0.7546771E-02  0.1308904E+00
          1   -1    0    0  501    0  0.00000000000E+00  0.00000000000E+00  0.27471781526E+02  0.27471781526E+02  0.00000000000E+00 0. -1.
         -1   -1    0    0    0  501 -0.00000000000E+00 -0.00000000000E+00 -0.69748239157E+02  0.69748239157E+02  0.00000000000E+00 0.  1.
         23    2    1    2    0    0  0.00000000000E+00  0.00000000000E+00 -0.42276457631E+02  0.97220020683E+02  0.87546750664E+02 0.  0.
        -11    1    3    3    0    0 -0.43314777828E+02  0.24538983953E+01 -0.27605529659E+02  0.51422338175E+02  0.00000000000E+00 0. -1.
         11    1    3    3    0    0  0.43314777828E+02 -0.24538983953E+01 -0.14670927972E+02  0.45797682508E+02  0.00000000000E+00 0.  1.
<mgrwt>
<rscale>  0 0.87546751E+02</rscale>
<asrwt>0</asrwt>
<pdfrwt beam="1">  1        1 0.42264280E-02 0.87546751E+02</pdfrwt>
<pdfrwt beam="2">  1       -1 0.10730498E-01 0.87546751E+02</pdfrwt>
<totfact> 0.96025794E+04</totfact>
</mgrwt>
</event>
<event>
 5    1  0.6125604E+000  0.8919190E+02  0.7546771E-02  0.1304821E+00
          2   -1    0    0  501    0  0.00000000000E+00  0.00000000000E+00  0.13480750040E+03  0.13480750040E+03  0.00000000000E+00 0. -1.
         -2   -1    0    0    0  501 -0.00000000000E+00 -0.00000000000E+00 -0.14752878918E+02  0.14752878918E+02  0.00000000000E+00 0.  1.
         23    2    1    2    0    0  0.00000000000E+00  0.00000000000E+00  0.12005462148E+03  0.14956037932E+03  0.89191899422E+02 0.  0.
        -11    1    3    3    0    0 -0.14010316890E+02  0.20761156418E+02  0.12189977847E+03  0.12444625581E+03  0.00000000000E+00 0. -1.
         11    1    3    3    0    0  0.14010316890E+02 -0.20761156418E+02 -0.18451569847E+01  0.25114123506E+02  0.00000000000E+00 0.  1.
<mgrwt>
<rscale>  0 0.89191899E+02</rscale>
<asrwt>0</asrwt>
<pdfrwt beam="1">  1        2 0.20739615E-01 0.89191899E+02</pdfrwt>
<pdfrwt beam="2">  1       -2 0.22696738E-02 0.89191899E+02</pdfrwt>
<totfact> 0.14319943E+05</totfact>
</mgrwt>
</event>
<event>
 5    1  0.6125604E+000  0.9000088E+02  0.7546771E-02  0.1302850E+00
          1   -1    0    0  501    0  0.00000000000E+00  0.00000000000E+00  0.23120980993E+03  0.23120980993E+03  0.00000000000E+00 0. -1.
         -1   -1    0    0    0  501 -0.00000000000E+00 -0.00000000000E+00 -0.87584497834E+01  0.87584497834E+01  0.00000000000E+00 0.  1.
         23    2    1    2    0    0  0.00000000000E+00  0.00000000000E+00  0.22245136014E+03  0.23996825971E+03  0.90000877988E+02 0.  0.
        -11    1    3    3    0    0 -0.28615795064E+02 -0.25418667439E+02  0.17432535146E+03  0.17847773123E+03  0.00000000000E+00 0. -1.
         11    1    3    3    0    0  0.28615795064E+02  0.25418667439E+02  0.48126008679E+02  0.61490528481E+02  0.00000000000E+00 0.  1.
<mgrwt>
<rscale>  0 0.90000878E+02</rscale>
<asrwt>0</asrwt>
<pdfrwt beam="1">  1        1 0.35570735E-01 0.90000878E+02</pdfrwt>
<pdfrwt beam="2">  1       -1 0.13474540E-02 0.90000878E+02</pdfrwt>
<totfact> 0.12609775E+05</totfact>
</mgrwt>
</event>
<event>
 5    1  0.6125604E+000  0.9698718E+02  0.7546771E-02  0.1286762E+00
          1   -1    0    0  501    0  0.00000000000E+00  0.00000000000E+00  0.10274026894E+03  0.10274026894E+03  0.00000000000E+00 0. -1.
         -1   -1    0    0    0  501 -0.00000000000E+00 -0.00000000000E+00 -0.22889060665E+02  0.22889060665E+02  0.00000000000E+00 0.  1.
         23    2    1    2    0    0  0.00000000000E+00  0.00000000000E+00  0.79851208272E+02  0.12562932960E+03  0.96987179534E+02 0.  0.
        -11    1    3    3    0    0  0.17910828090E+02 -0.35998030565E+02  0.48090258250E+01  0.40494230414E+02  0.00000000000E+00 0.  1.
         11    1    3    3    0    0 -0.17910828090E+02  0.35998030565E+02  0.75042182447E+02  0.85135099189E+02  0.00000000000E+00 0. -1.
<mgrwt>
<rscale>  0 0.96987180E+02</rscale>
<asrwt>0</asrwt>
<pdfrwt beam="1">  1        1 0.15806195E-01 0.96987180E+02</pdfrwt>
<pdfrwt beam="2">  1       -1 0.35213940E-02 0.96987180E+02</pdfrwt>
<totfact> 0.88601712E+04</totfact>
</mgrwt>
</event>
<event>
 5    1  0.6125604E+000  0.8167611E+02  0.7546771E-02  0.1324361E+00
         -4   -1    0    0    0  501 -0.00000000000E+00  0.00000000000E+00  0.96515779688E+01  0.96515779688E+01  0.00000000000E+00 0. -1.
          4   -1    0    0  501    0  0.00000000000E+00 -0.00000000000E+00 -0.17279525373E+03  0.17279525373E+03  0.00000000000E+00 0.  1.
         23    2    1    2    0    0  0.00000000000E+00  0.00000000000E+00 -0.16314367576E+03  0.18244683170E+03  0.81676113130E+02 0.  0.
        -11    1    3    3    0    0 -0.32697234822E+02 -0.23303950959E+02 -0.64920990896E+02  0.76334254134E+02  0.00000000000E+00 0.  1.
         11    1    3    3    0    0  0.32697234822E+02  0.23303950959E+02 -0.98222684864E+02  0.10611257756E+03  0.00000000000E+00 0. -1.
<mgrwt>
<rscale>  0 0.81676113E+02</rscale>
<asrwt>0</asrwt>
<pdfrwt beam="2">  1        4 0.26583885E-01 0.81676113E+02</pdfrwt>
<pdfrwt beam="1">  1       -4 0.14848582E-02 0.81676113E+02</pdfrwt>
<totfact> 0.29664094E+04</totfact>
</mgrwt>
</event>
<event>
 5    1  0.6125604E+000  0.9275264E+02  0.7546771E-02  0.1296319E+00
         -3   -1    0    0    0  501 -0.00000000000E+00  0.00000000000E+00  0.60982269491E+02  0.60982269491E+02  0.00000000000E+00 0.  1.
          3   -1    0    0  501    0  0.00000000000E+00 -0.00000000000E+00 -0.35268661768E+02  0.35268661768E+02  0.00000000000E+00 0. -1.
         23    2    1    2    0    0  0.00000000000E+00  0.00000000000E+00  0.25713607724E+02  0.96250931259E+02  0.92752639564E+02 0.  0.
        -11    1    3    3    0    0 -0.35265986698E+02  0.11828174501E+02 -0.15885644681E+02  0.40446869307E+02  0.00000000000E+00 0. -1.
         11    1    3    3    0    0  0.35265986698E+02 -0.11828174501E+02  0.41599252405E+02  0.55804061953E+02  0.00000000000E+00 0.  1.
<mgrwt>
<rscale>  0 0.92752640E+02</rscale>
<asrwt>0</asrwt>
<pdfrwt beam="2">  1        3 0.54259480E-02 0.92752640E+02</pdfrwt>
<pdfrwt beam="1">  1       -3 0.93818876E-02 0.92752640E+02</pdfrwt>
<totfact> 0.33355322E+04</totfact>
</mgrwt>
</event>
<event>
 5    1  0.6125604E+000  0.9141344E+02  0.7546771E-02  0.1299465E+00
          1   -1    0    0  501    0  0.00000000000E+00  0.00000000000E+00  0.27761224829E+02  0.27761224829E+02  0.00000000000E+00 0. -1.
         -1   -1    0    0    0  501 -0.00000000000E+00 -0.00000000000E+00 -0.75252592796E+02  0.75252592796E+02  0.00000000000E+00 0.  1.
         23    2    1    2    0    0  0.00000000000E+00  0.00000000000E+00 -0.47491367968E+02  0.10301381763E+03  0.91413437690E+02 0.  0.
        -11    1    3    3    0    0 -0.37436510584E+02  0.21638339395E+02 -0.70540864643E+01  0.43811758608E+02  0.00000000000E+00 0. -1.
         11    1    3    3    0    0  0.37436510584E+02 -0.21638339395E+02 -0.40437281503E+02  0.59202059017E+02  0.00000000000E+00 0.  1.
<mgrwt>
<rscale>  0 0.91413438E+02</rscale>
<asrwt>0</asrwt>
<pdfrwt beam="1">  1        1 0.42709577E-02 0.91413438E+02</pdfrwt>
<pdfrwt beam="2">  1       -1 0.11577322E-01 0.91413438E+02</pdfrwt>
<totfact> 0.84956193E+04</totfact>
</mgrwt>
</event>
<event>
 5    1  0.6125604E+000  0.8893042E+02  0.7546771E-02  0.1305463E+00
          1   -1    0    0  501    0  0.00000000000E+00  0.00000000000E+00  0.78475794181E+02  0.78475794181E+02  0.00000000000E+00 0. -1.
         -1   -1    0    0    0  501 -0.00000000000E+00 -0.00000000000E+00 -0.25194453493E+02  0.25194453493E+02  0.00000000000E+00 0.  1.
         23    2    1    2    0    0  0.00000000000E+00  0.00000000000E+00  0.53281340687E+02  0.10367024767E+03  0.88930416548E+02 0.  0.
        -11    1    3    3    0    0  0.40279749540E+02 -0.11790192430E+02  0.43761179914E+02  0.60634212521E+02  0.00000000000E+00 0. -1.
         11    1    3    3    0    0 -0.40279749540E+02  0.11790192430E+02  0.95201607729E+01  0.43036035153E+02  0.00000000000E+00 0.  1.
<mgrwt>
<rscale>  0 0.88930417E+02</rscale>
<asrwt>0</asrwt>
<pdfrwt beam="1">  1        1 0.12073199E-01 0.88930417E+02</pdfrwt>
<pdfrwt beam="2">  1       -1 0.38760698E-02 0.88930417E+02</pdfrwt>
<totfact> 0.10754357E+05</totfact>
</mgrwt>
</event>
<event>
 5    1  0.6125604E+000  0.9054233E+02  0.7546771E-02  0.1301544E+00
         -3   -1    0    0    0  501 -0.00000000000E+00  0.00000000000E+00  0.65867954471E+02  0.65867954471E+02  0.00000000000E+00 0.  1.
          3   -1    0    0  501    0  0.00000000000E+00 -0.00000000000E+00 -0.31114953038E+02  0.31114953038E+02  0.00000000000E+00 0. -1.
         23    2    1    2    0    0  0.00000000000E+00  0.00000000000E+00  0.34753001433E+02  0.96982907510E+02  0.90542328446E+02 0.  0.
        -11    1    3    3    0    0  0.18121517876E+02 -0.32290066664E+02 -0.10523192137E+02  0.38493835715E+02  0.00000000000E+00 0. -1.
         11    1    3    3    0    0 -0.18121517876E+02  0.32290066664E+02  0.45276193570E+02  0.58489071795E+02  0.00000000000E+00 0.  1.
<mgrwt>
<rscale>  0 0.90542328E+02</rscale>
<asrwt>0</asrwt>
<pdfrwt beam="2">  1        3 0.47869159E-02 0.90542328E+02</pdfrwt>
<pdfrwt beam="1">  1       -3 0.10133531E-01 0.90542328E+02</pdfrwt>
<totfact> 0.35566388E+04</totfact>
</mgrwt>
</event>
<event>
 5    1  0.6125604E+000  0.9085989E+02  0.7546771E-02  0.1300783E+00
          2   -1    0    0  501    0  0.00000000000E+00  0.00000000000E+00  0.50089429287E+02  0.50089429287E+02  0.00000000000E+00 0. -1.
         -2   -1    0    0    0  501 -0.00000000000E+00 -0.00000000000E+00 -0.41203905490E+02  0.41203905490E+02  0.00000000000E+00 0.  1.
         23    2    1    2    0    0  0.00000000000E+00  0.00000000000E+00  0.88855237963E+01  0.91293334777E+02  0.90859894572E+02 0.  0.
        -11    1    3    3    0    0  0.27290613357E+02  0.28022176208E+02 -0.18772875099E+02  0.43387103802E+02  0.00000000000E+00 0.  1.
         11    1    3    3    0    0 -0.27290613357E+02 -0.28022176208E+02  0.27658398895E+02  0.47906230975E+02  0.00000000000E+00 0. -1.
<mgrwt>
<rscale>  0 0.90859895E+02</rscale>
<asrwt>0</asrwt>
<pdfrwt beam="1">  1        2 0.77060661E-02 0.90859895E+02</pdfrwt>
<pdfrwt beam="2">  1       -2 0.63390624E-02 0.90859895E+02</pdfrwt>
<totfact> 0.10213323E+05</totfact>
</mgrwt>
</event>
<event>
 5    1  0.6125604E+000  0.9618340E+02  0.7546771E-02  0.1288533E+00
          4   -1    0    0  501    0  0.00000000000E+00  0.00000000000E+00  0.55848265134E+03  0.55848265134E+03  0.00000000000E+00 0. -1.
         -4   -1    0    0    0  501 -0.00000000000E+00 -0.00000000000E+00 -0.41412412358E+01  0.41412412358E+01  0.00000000000E+00 0.  1.
         23    2    1    2    0    0  0.00000000000E+00  0.00000000000E+00  0.55434141010E+03  0.56262389257E+03  0.96183395349E+02 0.  0.
        -11    1    3    3    0    0  0.47866654145E+02  0.44664188995E+01  0.26966622004E+03  0.27391793608E+03  0.00000000000E+00 0. -1.
         11    1    3    3    0    0 -0.47866654145E+02 -0.44664188995E+01  0.28467519006E+03  0.28870595649E+03  0.00000000000E+00 0.  1.
<mgrwt>
<rscale>  0 0.96183395E+02</rscale>
<asrwt>0</asrwt>
<pdfrwt beam="1">  1        4 0.85920348E-01 0.96183395E+02</pdfrwt>
<pdfrwt beam="2">  1       -4 0.63711448E-03 0.96183395E+02</pdfrwt>
<totfact> 0.10407608E+04</totfact>
</mgrwt>
</event>
<event>
 5    1  0.6125604E+000  0.9207651E+02  0.7546771E-02  0.1297900E+00
         -2   -1    0    0    0  501 -0.00000000000E+00  0.00000000000E+00  0.12183137723E+02  0.12183137723E+02  0.00000000000E+00 0.  1.
          2   -1    0    0  501    0  0.00000000000E+00 -0.00000000000E+00 -0.17397168489E+03  0.17397168489E+03  0.00000000000E+00 0. -1.
         23    2    1    2    0    0  0.00000000000E+00  0.00000000000E+00 -0.16178854717E+03  0.18615482262E+03  0.92076511597E+02 0.  0.
        -11    1    3    3    0    0 -0.39746437606E+02 -0.10791932184E+02 -0.39299649617E+02  0.56927212849E+02  0.00000000000E+00 0.  1.
         11    1    3    3    0    0  0.39746437606E+02  0.10791932184E+02 -0.12248889755E+03  0.12922760977E+03  0.00000000000E+00 0. -1.
<mgrwt>
<rscale>  0 0.92076512E+02</rscale>
<asrwt>0</asrwt>
<pdfrwt beam="2">  1        2 0.26764875E-01 0.92076512E+02</pdfrwt>
<pdfrwt beam="1">  1       -2 0.18743289E-02 0.92076512E+02</pdfrwt>
<totfact> 0.14330607E+05</totfact>
</mgrwt>
</event>
<event>
 4    1  0.6125604E+000  0.3139952E+02  0.7546771E-02  0.1583115E+00
          4   -1    0    0  501    0  0.00000000000E+00  0.00000000000E+00  0.97684669384E+02  0.97684669384E+02  0.00000000000E+00 0.  1.
         -4   -1    0    0    0  501 -0.00000000000E+00 -0.00000000000E+00 -0.25232463078E+01  0.25232463078E+01  0.00000000000E+00 0. -1.
        -11    1    1    2    0    0 -0.10122543515E+02 -0.11052295784E+02  0.32658356159E+02  0.35933095557E+02  0.00000000000E+00 0.  1.
         11    1    1    2    0    0  0.10122543515E+02  0.11052295784E+02  0.62503066917E+02  0.64274820135E+02  0.00000000000E+00 0. -1.
<mgrwt>
<rscale>  0 0.31399521E+02</rscale>
<asrwt>0</asrwt>
<pdfrwt beam="1">  1        4 0.15028408E-01 0.31399521E+02</pdfrwt>
<pdfrwt beam="2">  1       -4 0.38819181E-03 0.31399521E+02</pdfrwt>
<totfact> 0.37499531E+05</totfact>
</mgrwt>
</event>
<event>
 5    1  0.6125604E+000  0.9001699E+02  0.7546771E-02  0.1302811E+00
         -1   -1    0    0    0  501 -0.00000000000E+00  0.00000000000E+00  0.33861581501E+02  0.33861581501E+02  0.00000000000E+00 0.  1.
          1   -1    0    0  501    0  0.00000000000E+00 -0.00000000000E+00 -0.59824864517E+02  0.59824864517E+02  0.00000000000E+00 0. -1.
         23    2    1    2    0    0  0.00000000000E+00  0.00000000000E+00 -0.25963283016E+02  0.93686446019E+02  0.90016987856E+02 0.  0.
        -11    1    3    3    0    0 -0.25325209171E+02 -0.23156721296E+02 -0.43292089129E+02  0.55243143845E+02  0.00000000000E+00 0. -1.
         11    1    3    3    0    0  0.25325209171E+02  0.23156721296E+02  0.17328806113E+02  0.38443302174E+02  0.00000000000E+00 0.  1.
<mgrwt>
<rscale>  0 0.90016988E+02</rscale>
<asrwt>0</asrwt>
<pdfrwt beam="2">  1        1 0.92038252E-02 0.90016988E+02</pdfrwt>
<pdfrwt beam="1">  1       -1 0.52094741E-02 0.90016988E+02</pdfrwt>
<totfact> 0.99805204E+04</totfact>
</mgrwt>
</event>
<event>
 5    1  0.6125604E+000  0.9468929E+02  0.7546771E-02  0.1291877E+00
          2   -1    0    0  501    0  0.00000000000E+00  0.00000000000E+00  0.23260885336E+03  0.23260885336E+03  0.00000000000E+00 0. -1.
         -2   -1    0    0    0  501 -0.00000000000E+00 -0.00000000000E+00 -0.96364138654E+01  0.96364138654E+01  0.00000000000E+00 0.  1.
         23    2    1    2    0    0  0.00000000000E+00  0.00000000000E+00  0.22297243949E+03  0.24224526722E+03  0.94689285132E+02 0.  0.
        -11    1    3    3    0    0  0.44914386184E+02  0.12918765418E+02  0.13085499793E+03  0.13895044825E+03  0.00000000000E+00 0. -1.
         11    1    3    3    0    0 -0.44914386184E+02 -0.12918765418E+02  0.92117441563E+02  0.10329481897E+03  0.00000000000E+00 0.  1.
<mgrwt>
<rscale>  0 0.94689285E+02</rscale>
<asrwt>0</asrwt>
<pdfrwt beam="1">  1        2 0.35785973E-01 0.94689285E+02</pdfrwt>
<pdfrwt beam="2">  1       -2 0.14825254E-02 0.94689285E+02</pdfrwt>
<totfact> 0.14764685E+05</totfact>
</mgrwt>
</event>
<event>
 5    1  0.6125604E+000  0.9033103E+02  0.7546771E-02  0.1302052E+00
          1   -1    0    0  501    0  0.00000000000E+00  0.00000000000E+00  0.83774087296E+02  0.83774087296E+02  0.00000000000E+00 0. -1.
         -1   -1    0    0    0  501 -0.00000000000E+00 -0.00000000000E+00 -0.24350293721E+02  0.24350293721E+02  0.00000000000E+00 0.  1.
         23    2    1    2    0    0  0.00000000000E+00  0.00000000000E+00  0.59423793576E+02  0.10812438102E+03  0.90331027490E+02 0.  0.
        -11    1    3    3    0    0 -0.32700326753E+02 -0.25267656166E+01 -0.74567277408E+01  0.33634784120E+02  0.00000000000E+00 0.  1.
         11    1    3    3    0    0  0.32700326753E+02  0.25267656166E+01  0.66880521317E+02  0.74489596897E+02  0.00000000000E+00 0. -1.
<mgrwt>
<rscale>  0 0.90331027E+02</rscale>
<asrwt>0</asrwt>
<pdfrwt beam="1">  1        1 0.12888321E-01 0.90331027E+02</pdfrwt>
<pdfrwt beam="2">  1       -1 0.37461991E-02 0.90331027E+02</pdfrwt>
<totfact> 0.10410553E+05</totfact>
</mgrwt>
</event>
<event>
 5    1  0.6125604E+000  0.9065307E+02  0.7546771E-02  0.1301278E+00
          1   -1    0    0  501    0  0.00000000000E+00  0.00000000000E+00  0.47703413408E+02  0.47703413408E+02  0.00000000000E+00 0. -1.
         -1   -1    0    0    0  501 -0.00000000000E+00 -0.00000000000E+00 -0.43068090421E+02  0.43068090421E+02  0.00000000000E+00 0.  1.
         23    2    1    2    0    0  0.00000000000E+00  0.00000000000E+00  0.46353229868E+01  0.90771503829E+02  0.90653073241E+02 0.  0.
        -11    1    3    3    0    0  0.29618001744E+02  0.32019521527E+02 -0.10028050138E+02  0.44755307794E+02  0.00000000000E+00 0.  1.
         11    1    3    3    0    0 -0.29618001744E+02 -0.32019521527E+02  0.14663373125E+02  0.46016196035E+02  0.00000000000E+00 0. -1.
<mgrwt>
<rscale>  0 0.90653073E+02</rscale>
<asrwt>0</asrwt>
<pdfrwt beam="1">  1        1 0.73389867E-02 0.90653073E+02</pdfrwt>
<pdfrwt beam="2">  1       -1 0.66258600E-02 0.90653073E+02</pdfrwt>
<totfact> 0.94617692E+04</totfact>
</mgrwt>
</event>
<event>
 5    1  0.6125604E+000  0.8791207E+02  0.7546771E-02  0.1307988E+00
         -4   -1    0    0    0  501 -0.00000000000E+00  0.00000000000E+00  0.32313566205E+02  0.32313566205E+02  0.00000000000E+00 0.  1.
          4   -1    0    0  501    0  0.00000000000E+00 -0.00000000000E+00 -0.59793242787E+02  0.59793242787E+02  0.00000000000E+00 0. -1.
         23    2    1    2    0    0  0.00000000000E+00  0.00000000000E+00 -0.27479676582E+02  0.92106808992E+02  0.87912067645E+02 0.  0.
        -11    1    3    3    0    0  0.99826669618E+01  0.42774679339E+02 -0.11984773928E+02  0.45529788472E+02  0.00000000000E+00 0. -1.
         11    1    3    3    0    0 -0.99826669618E+01 -0.42774679339E+02 -0.15494902654E+02  0.46577020520E+02  0.00000000000E+00 0.  1.
<mgrwt>
<rscale>  0 0.87912068E+02</rscale>
<asrwt>0</asrwt>
<pdfrwt beam="2">  1        4 0.91989604E-02 0.87912068E+02</pdfrwt>
<pdfrwt beam="1">  1       -4 0.49713179E-02 0.87912068E+02</pdfrwt>
<totfact> 0.29747950E+04</totfact>
</mgrwt>
</event>
<event>
 5    1  0.6125604E+000  0.9058045E+02  0.7546771E-02  0.1301452E+00
          2   -1    0    0  501    0  0.00000000000E+00  0.00000000000E+00  0.12084356504E+02  0.12084356504E+02  0.00000000000E+00 0. -1.
         -2   -1    0    0    0  501 -0.00000000000E+00 -0.00000000000E+00 -0.16974049427E+03  0.16974049427E+03  0.00000000000E+00 0.  1.
         23    2    1    2    0    0  0.00000000000E+00  0.00000000000E+00 -0.15765613776E+03  0.18182485077E+03  0.90580453651E+02 0.  0.
        -11    1    3    3    0    0 -0.29197446251E+02  0.16766549474E+01 -0.14824519896E+03  0.15110241909E+03  0.00000000000E+00 0.  1.
         11    1    3    3    0    0  0.29197446251E+02 -0.16766549474E+01 -0.94109388026E+01  0.30722431684E+02  0.00000000000E+00 0. -1.
<mgrwt>
<rscale>  0 0.90580454E+02</rscale>
<asrwt>0</asrwt>
<pdfrwt beam="1">  1        2 0.18591319E-02 0.90580454E+02</pdfrwt>
<pdfrwt beam="2">  1       -2 0.26113920E-01 0.90580454E+02</pdfrwt>
<totfact> 0.67794225E+04</totfact>
</mgrwt>
</event>
<event>
 5    1  0.6125604E+000  0.9137410E+02  0.7546771E-02  0.1299558E+00
         -1   -1    0    0    0  501 -0.00000000000E+00  0.00000000000E+00  0.11776881134E+02  0.11776881134E+02  0.00000000000E+00 0.  1.
          1   -1    0    0  501    0  0.00000000000E+00 -0.00000000000E+00 -0.17723762725E+03  0.17723762725E+03  0.00000000000E+00 0. -1.
         23    2    1    2    0    0  0.00000000000E+00  0.00000000000E+00 -0.16546074612E+03  0.18901450838E+03  0.91374098487E+02 0.  0.
        -11    1    3    3    0    0 -0.23930406272E+02  0.37275620108E+02 -0.59587214539E+02  0.74248046003E+02  0.00000000000E+00 0.  1.
         11    1    3    3    0    0  0.23930406272E+02 -0.37275620108E+02 -0.10587353158E+03  0.11476646238E+03  0.00000000000E+00 0. -1.
<mgrwt>
<rscale>  0 0.91374098E+02</rscale>
<asrwt>0</asrwt>
<pdfrwt beam="2">  1        1 0.27267328E-01 0.91374098E+02</pdfrwt>
<pdfrwt beam="1">  1       -1 0.18118278E-02 0.91374098E+02</pdfrwt>
<totfact> 0.11501317E+05</totfact>
</mgrwt>
</event>
<event>
 5    1  0.6125604E+000  0.9142103E+02  0.7546771E-02  0.1299447E+00
          1   -1    0    0  501    0  0.00000000000E+00  0.00000000000E+00  0.88534697571E+02  0.88534697571E+02  0.00000000000E+00 0. -1.
         -1   -1    0    0    0  501 -0.00000000000E+00 -0.00000000000E+00 -0.23600363810E+02  0.23600363810E+02  0.00000000000E+00 0.  1.
         23    2    1    2    0    0  0.00000000000E+00  0.00000000000E+00  0.64934333761E+02  0.11213506138E+03  0.91421027614E+02 0.  0.
        -11    1    3    3    0    0  0.84270658079E+01 -0.33309561219E+02  0.69446193258E+02  0.77481069073E+02  0.00000000000E+00 0. -1.
         11    1    3    3    0    0 -0.84270658079E+01  0.33309561219E+02 -0.45118594973E+01  0.34653992307E+02  0.00000000000E+00 0.  1.
<mgrwt>
<rscale>  0 0.91421028E+02</rscale>
<asrwt>0</asrwt>
<pdfrwt beam="1">  1        1 0.13620722E-01 0.91421028E+02</pdfrwt>
<pdfrwt beam="2">  1       -1 0.36308253E-02 0.91421028E+02</pdfrwt>
<totfact> 0.10164062E+05</totfact>
</mgrwt>
</event>
<event>
 5    1  0.6125604E+000  0.8807963E+02  0.7546771E-02  0.1307570E+00
         -1   -1    0    0    0  501 -0.00000000000E+00  0.00000000000E+00  0.15656438458E+02  0.15656438458E+02  0.00000000000E+00 0.  1.
          1   -1    0    0  501    0  0.00000000000E+00 -0.00000000000E+00 -0.12387909681E+03  0.12387909681E+03  0.00000000000E+00 0. -1.
         23    2    1    2    0    0  0.00000000000E+00  0.00000000000E+00 -0.10822265835E+03  0.13953553527E+03  0.88079633411E+02 0.  0.
        -11    1    3    3    0    0  0.23872577313E+02  0.68058473886E+01  0.35170194567E+01  0.25071675894E+02  0.00000000000E+00 0.  1.
         11    1    3    3    0    0 -0.23872577313E+02 -0.68058473886E+01 -0.11173967781E+03  0.11446385937E+03  0.00000000000E+00 0. -1.
<mgrwt>
<rscale>  0 0.88079633E+02</rscale>
<asrwt>0</asrwt>
<pdfrwt beam="2">  1        1 0.19058322E-01 0.88079633E+02</pdfrwt>
<pdfrwt beam="1">  1       -1 0.24086829E-02 0.88079633E+02</pdfrwt>
<totfact> 0.11894422E+05</totfact>
</mgrwt>
</event>
<event>
 5    1  0.6125604E+000  0.9186749E+02  0.7546771E-02  0.1298391E+00
          1   -1    0    0  501    0  0.00000000000E+00  0.00000000000E+00  0.13522992961E+03  0.13522992961E+03  0.00000000000E+00 0. -1.
         -1   -1    0    0    0  501 -0.00000000000E+00 -0.00000000000E+00 -0.15602379679E+02  0.15602379679E+02  0.00000000000E+00 0.  1.
         23    2    1    2    0    0  0.00000000000E+00  0.00000000000E+00  0.11962754993E+03  0.15083230928E+03  0.91867485122E+02 0.  0.
        -11    1    3    3    0    0 -0.36471576078E+02 -0.10305561160E+02  0.17203880190E+02  0.41621556267E+02  0.00000000000E+00 0. -1.
         11    1    3    3    0    0  0.36471576078E+02  0.10305561160E+02  0.10242366974E+03  0.10921075302E+03  0.00000000000E+00 0.  1.
<mgrwt>
<rscale>  0 0.91867485E+02</rscale>
<asrwt>0</asrwt>
<pdfrwt beam="1">  1        1 0.20804604E-01 0.91867485E+02</pdfrwt>
<pdfrwt beam="2">  1       -1 0.24003662E-02 0.91867485E+02</pdfrwt>
<totfact> 0.10781436E+05</totfact>
</mgrwt>
</event>
<event>
 5    1  0.6125604E+000  0.9103411E+02  0.7546771E-02  0.1300367E+00
          1   -1    0    0  501    0  0.00000000000E+00  0.00000000000E+00  0.54477605556E+02  0.54477605556E+02  0.00000000000E+00 0. -1.
         -1   -1    0    0    0  501 -0.00000000000E+00 -0.00000000000E+00 -0.38030346161E+02  0.38030346161E+02  0.00000000000E+00 0.  1.
         23    2    1    2    0    0  0.00000000000E+00  0.00000000000E+00  0.16447259394E+02  0.92507951717E+02  0.91034107835E+02 0.  0.
        -11    1    3    3    0    0  0.33040990227E+02 -0.29896199003E+02 -0.12172321001E+01  0.44575457417E+02  0.00000000000E+00 0.  1.
         11    1    3    3    0    0 -0.33040990227E+02  0.29896199003E+02  0.17664491494E+02  0.47932494299E+02  0.00000000000E+00 0. -1.
<mgrwt>
<rscale>  0 0.91034108E+02</rscale>
<asrwt>0</asrwt>
<pdfrwt beam="1">  1        1 0.83811701E-02 0.91034108E+02</pdfrwt>
<pdfrwt beam="2">  1       -1 0.58508225E-02 0.91034108E+02</pdfrwt>
<totfact> 0.95394494E+04</totfact>
</mgrwt>
</event>
<event>
 5    1  0.6125604E+000  0.9046131E+02  0.7546771E-02  0.1301738E+00
         -3   -1    0    0    0  501 -0.00000000000E+00  0.00000000000E+00  0.63202953906E+02  0.63202953906E+02  0.00000000000E+00 0. -1.
          3   -1    0    0  501    0  0.00000000000E+00 -0.00000000000E+00 -0.32368929948E+02  0.32368929948E+02  0.00000000000E+00 0.  1.
         23    2    1    2    0    0  0.00000000000E+00  0.00000000000E+00  0.30834023958E+02  0.95571883854E+02  0.90461306368E+02 0.  0.
        -11    1    3    3    0    0 -0.20733120193E+02  0.35863917098E+02 -0.37672887100E+01  0.41596577825E+02  0.00000000000E+00 0.  1.
         11    1    3    3    0    0  0.20733120193E+02 -0.35863917098E+02  0.34601312668E+02  0.53975306028E+02  0.00000000000E+00 0. -1.
<mgrwt>
<rscale>  0 0.90461306E+02</rscale>
<asrwt>0</asrwt>
<pdfrwt beam="2">  1        3 0.49798354E-02 0.90461306E+02</pdfrwt>
<pdfrwt beam="1">  1       -3 0.97235313E-02 0.90461306E+02</pdfrwt>
<totfact> 0.35761782E+04</totfact>
</mgrwt>
</event>
<event>
 5    1  0.6125604E+000  0.9257224E+02  0.7546771E-02  0.1296740E+00
         -2   -1    0    0    0  501 -0.00000000000E+00  0.00000000000E+00  0.19521732488E+03  0.19521732488E+03  0.00000000000E+00 0.  1.
          2   -1    0    0  501    0  0.00000000000E+00 -0.00000000000E+00 -0.10974460738E+02  0.10974460738E+02  0.00000000000E+00 0. -1.
         23    2    1    2    0    0  0.00000000000E+00  0.00000000000E+00  0.18424286414E+03  0.20619178562E+03  0.92572239191E+02 0.  0.
        -11    1    3    3    0    0 -0.61304240821E+01  0.43496514207E+02  0.12461923205E+03  0.13213433257E+03  0.00000000000E+00 0.  1.
         11    1    3    3    0    0  0.61304240821E+01 -0.43496514207E+02  0.59623632087E+02  0.74057453040E+02  0.00000000000E+00 0. -1.
<mgrwt>
<rscale>  0 0.92572239E+02</rscale>
<asrwt>0</asrwt>
<pdfrwt beam="2">  1        2 0.16883787E-02 0.92572239E+02</pdfrwt>
<pdfrwt beam="1">  1       -2 0.30033432E-01 0.92572239E+02</pdfrwt>
<totfact> 0.60574259E+04</totfact>
</mgrwt>
</event>
<event>
 5    1  0.6125604E+000  0.9472767E+02  0.7546771E-02  0.1291791E+00
          1   -1    0    0  501    0  0.00000000000E+00  0.00000000000E+00  0.85624740906E+02  0.85624740906E+02  0.00000000000E+00 0. -1.
         -1   -1    0    0    0  501 -0.00000000000E+00 -0.00000000000E+00 -0.26199586285E+02  0.26199586285E+02  0.00000000000E+00 0.  1.
         23    2    1    2    0    0  0.00000000000E+00  0.00000000000E+00  0.59425154621E+02  0.11182432719E+03  0.94727668344E+02 0.  0.
        -11    1    3    3    0    0  0.64724367262E+00 -0.44670281385E+02  0.11141831497E+02  0.46043385762E+02  0.00000000000E+00 0.  1.
         11    1    3    3    0    0 -0.64724367262E+00  0.44670281385E+02  0.48283323124E+02  0.65780941429E+02  0.00000000000E+00 0. -1.
<mgrwt>
<rscale>  0 0.94727668E+02</rscale>
<asrwt>0</asrwt>
<pdfrwt beam="1">  1        1 0.13173037E-01 0.94727668E+02</pdfrwt>
<pdfrwt beam="2">  1       -1 0.40307056E-02 0.94727668E+02</pdfrwt>
<totfact> 0.91688103E+04</totfact>
</mgrwt>
</event>
<event>
 5    1  0.6125604E+000  0.9084557E+02  0.7546771E-02  0.1300817E+00
         -2   -1    0    0    0  501 -0.00000000000E+00  0.00000000000E+00  0.53403633921E+01  0.53403633921E+01  0.00000000000E+00 0.  1.
          2   -1    0    0  501    0  0.00000000000E+00 -0.00000000000E+00 -0.38634624254E+03  0.38634624254E+03  0.00000000000E+00 0. -1.
         23    2    1    2    0    0  0.00000000000E+00  0.00000000000E+00 -0.38100587915E+03  0.39168660593E+03  0.90845568529E+02 0.  0.
        -11    1    3    3    0    0  0.12130842665E+02  0.43676651908E+02 -0.17799043471E+03  0.18367199600E+03  0.00000000000E+00 0.  1.
         11    1    3    3    0    0 -0.12130842665E+02 -0.43676651908E+02 -0.20301544443E+03  0.20801460993E+03  0.00000000000E+00 0. -1.
<mgrwt>
<rscale>  0 0.90845569E+02</rscale>
<asrwt>0</asrwt>
<pdfrwt beam="2">  1        2 0.59437881E-01 0.90845569E+02</pdfrwt>
<pdfrwt beam="1">  1       -2 0.82159440E-03 0.90845569E+02</pdfrwt>
<totfact> 0.19906483E+05</totfact>
</mgrwt>
</event>
<event>
 5    1  0.6125604E+000  0.8888022E+02  0.7546771E-02  0.1305586E+00
          1   -1    0    0  501    0  0.00000000000E+00  0.00000000000E+00  0.21716592388E+03  0.21716592388E+03  0.00000000000E+00 0. -1.
         -1   -1    0    0    0  501 -0.00000000000E+00 -0.00000000000E+00 -0.90940752906E+01  0.90940752906E+01  0.00000000000E+00 0.  1.
         23    2    1    2    0    0  0.00000000000E+00  0.00000000000E+00  0.20807184859E+03  0.22625999918E+03  0.88880217424E+02 0.  0.
        -11    1    3    3    0    0 -0.24259490570E+02 -0.33986254711E+02  0.65317005311E+02  0.77523542068E+02  0.00000000000E+00 0.  1.
         11    1    3    3    0    0  0.24259490570E+02  0.33986254711E+02  0.14275484328E+03  0.14873645711E+03  0.00000000000E+00 0. -1.
<mgrwt>
<rscale>  0 0.88880217E+02</rscale>
<asrwt>0</asrwt>
<pdfrwt beam="1">  1        1 0.33410138E-01 0.88880217E+02</pdfrwt>
<pdfrwt beam="2">  1       -1 0.13990887E-02 0.88880217E+02</pdfrwt>
<totfact> 0.12880797E+05</totfact>
</mgrwt>
</event>
<event>
 5    1  0.6125604E+000  0.8876178E+02  0.7546771E-02  0.1305878E+00
          2   -1    0    0  501    0  0.00000000000E+00  0.00000000000E+00  0.65884809203E+02  0.65884809203E+02  0.00000000000E+00 0. -1.
         -2   -1    0    0    0  501 -0.00000000000E+00 -0.00000000000E+00 -0.29895560746E+02  0.29895560746E+02  0.00000000000E+00 0.  1.
         23    2    1    2    0    0  0.00000000000E+00  0.00000000000E+00  0.35989248456E+02  0.95780369949E+02  0.88761778165E+02 0.  0.
        -11    1    3    3    0    0 -0.18642750458E+02 -0.21128525598E+02 -0.19005070699E+02  0.33987636736E+02  0.00000000000E+00 0.  1.
         11    1    3    3    0    0  0.18642750458E+02  0.21128525598E+02  0.54994319155E+02  0.61792733213E+02  0.00000000000E+00 0. -1.
<mgrwt>
<rscale>  0 0.88761778E+02</rscale>
<asrwt>0</asrwt>
<pdfrwt beam="1">  1        2 0.10136124E-01 0.88761778E+02</pdfrwt>
<pdfrwt beam="2">  1       -2 0.45993171E-02 0.88761778E+02</pdfrwt>
<totfact> 0.11727558E+05</totfact>
</mgrwt>
</event>
<event>
 5    1  0.6125604E+000  0.1003820E+03  0.7546771E-02  0.1279495E+00
         -4   -1    0    0    0  501 -0.00000000000E+00  0.00000000000E+00  0.21068849431E+03  0.21068849431E+03  0.00000000000E+00 0.  1.
          4   -1    0    0  501    0  0.00000000000E+00 -0.00000000000E+00 -0.11956684737E+02  0.11956684737E+02  0.00000000000E+00 0. -1.
         23    2    1    2    0    0  0.00000000000E+00  0.00000000000E+00  0.19873180957E+03  0.22264517904E+03  0.10038198851E+03 0.  0.
        -11    1    3    3    0    0 -0.16931349363E+02  0.46288045007E+02  0.78338079788E+02  0.92553273560E+02  0.00000000000E+00 0. -1.
         11    1    3    3    0    0  0.16931349363E+02 -0.46288045007E+02  0.12039372978E+03  0.13009190548E+03  0.00000000000E+00 0.  1.
<mgrwt>
<rscale>  0 0.10038199E+03</rscale>
<asrwt>0</asrwt>
<pdfrwt beam="2">  1        4 0.18394901E-02 0.10038199E+03</pdfrwt>
<pdfrwt beam="1">  1       -4 0.32413612E-01 0.10038199E+03</pdfrwt>
<totfact> 0.15804136E+04</totfact>
</mgrwt>
</event>
<event>
 5    1  0.6125604E+000  0.9047439E+02  0.7546771E-02  0.1301707E+00
         -3   -1    0    0    0  501 -0.00000000000E+00  0.00000000000E+00  0.62882563124E+02  0.62882563124E+02  0.00000000000E+00 0.  1.
          3   -1    0    0  501    0  0.00000000000E+00 -0.00000000000E+00 -0.32543262281E+02  0.32543262281E+02  0.00000000000E+00 0. -1.
         23    2    1    2    0    0  0.00000000000E+00  0.00000000000E+00  0.30339300844E+02  0.95425825405E+02  0.90474388522E+02 0.  0.
        -11    1    3    3    0    0  0.13710426378E+02  0.99576939180E+01 -0.29069502138E+02  0.33647695526E+02  0.00000000000E+00 0. -1.
         11    1    3    3    0    0 -0.13710426378E+02 -0.99576939180E+01  0.59408802982E+02  0.61778129879E+02  0.00000000000E+00 0.  1.
<mgrwt>
<rscale>  0 0.90474389E+02</rscale>
<asrwt>0</asrwt>
<pdfrwt beam="2">  1        3 0.50066557E-02 0.90474389E+02</pdfrwt>
<pdfrwt beam="1">  1       -3 0.96742405E-02 0.90474389E+02</pdfrwt>
<totfact> 0.35759048E+04</totfact>
</mgrwt>
</event>
<event>
 5    1  0.6125604E+000  0.9170019E+02  0.7546771E-02  0.1298786E+00
         -2   -1    0    0    0  501 -0.00000000000E+00  0.00000000000E+00  0.86285093952E+02  0.86285093952E+02  0.00000000000E+00 0.  1.
          2   -1    0    0  501    0  0.00000000000E+00 -0.00000000000E+00 -0.24363782820E+02  0.24363782820E+02  0.00000000000E+00 0. -1.
         23    2    1    2    0    0  0.00000000000E+00  0.00000000000E+00  0.61921311133E+02  0.11064887677E+03  0.91700191704E+02 0.  0.
        -11    1    3    3    0    0 -0.22277834189E+02  0.29089155561E+02  0.64219889445E+02  0.73936966855E+02  0.00000000000E+00 0.  1.
         11    1    3    3    0    0  0.22277834189E+02 -0.29089155561E+02 -0.22985783124E+01  0.36711909916E+02  0.00000000000E+00 0. -1.
<mgrwt>
<rscale>  0 0.91700192E+02</rscale>
<asrwt>0</asrwt>
<pdfrwt beam="2">  1        2 0.37482743E-02 0.91700192E+02</pdfrwt>
<pdfrwt beam="1">  1       -2 0.13274630E-01 0.91700192E+02</pdfrwt>
<totfact> 0.82129726E+04</totfact>
</mgrwt>
</event>
<event>
 5    1  0.6125604E+000  0.9121248E+02  0.7546771E-02  0.1299942E+00
          4   -1    0    0  501    0  0.00000000000E+00  0.00000000000E+00  0.15691439637E+03  0.15691439637E+03  0.00000000000E+00 0. -1.
         -4   -1    0    0    0  501 -0.00000000000E+00 -0.00000000000E+00 -0.13255183957E+02  0.13255183957E+02  0.00000000000E+00 0.  1.
         23    2    1    2    0    0  0.00000000000E+00  0.00000000000E+00  0.14365921241E+03  0.17016958032E+03  0.91212481366E+02 0.  0.
        -11    1    3    3    0    0  0.41412209522E+02 -0.42425230986E+01  0.37078647367E+02  0.55747611521E+02  0.00000000000E+00 0.  1.
         11    1    3    3    0    0 -0.41412209522E+02  0.42425230986E+01  0.10658056504E+03  0.11442196880E+03  0.00000000000E+00 0. -1.
<mgrwt>
<rscale>  0 0.91212481E+02</rscale>
<asrwt>0</asrwt>
<pdfrwt beam="1">  1        4 0.24140675E-01 0.91212481E+02</pdfrwt>
<pdfrwt beam="2">  1       -4 0.20392592E-02 0.91212481E+02</pdfrwt>
<totfact> 0.22675851E+04</totfact>
</mgrwt>
</event>
<event>
 5    1  0.6125604E+000  0.9111585E+02  0.7546771E-02  0.1300172E+00
          1   -1    0    0  501    0  0.00000000000E+00  0.00000000000E+00  0.15811134842E+03  0.15811134842E+03  0.00000000000E+00 0. -1.
         -1   -1    0    0    0  501 -0.00000000000E+00 -0.00000000000E+00 -0.13126980642E+02  0.13126980642E+02  0.00000000000E+00 0.  1.
         23    2    1    2    0    0  0.00000000000E+00  0.00000000000E+00  0.14498436778E+03  0.17123832907E+03  0.91115851752E+02 0.  0.
        -11    1    3    3    0    0  0.38966655389E+02  0.21815030299E+02  0.55554183302E+02  0.71278068587E+02  0.00000000000E+00 0.  1.
         11    1    3    3    0    0 -0.38966655389E+02 -0.21815030299E+02  0.89430184480E+02  0.99960260481E+02  0.00000000000E+00 0. -1.
<mgrwt>
<rscale>  0 0.91115852E+02</rscale>
<asrwt>0</asrwt>
<pdfrwt beam="1">  1        1 0.24324822E-01 0.91115852E+02</pdfrwt>
<pdfrwt beam="2">  1       -1 0.20195356E-02 0.91115852E+02</pdfrwt>
<totfact> 0.11343427E+05</totfact>
</mgrwt>
</event>
<event>
 5    1  0.6125604E+000  0.9156408E+02  0.7546771E-02  0.1299108E+00
          1   -1    0    0  501    0  0.00000000000E+00  0.00000000000E+00  0.20234627098E+03  0.20234627098E+03  0.00000000000E+00 0. -1.
         -1   -1    0    0    0  501 -0.00000000000E+00 -0.00000000000E+00 -0.10358456586E+02  0.10358456586E+02  0.00000000000E+00 0.  1.
         23    2    1    2    0    0  0.00000000000E+00  0.00000000000E+00  0.19198781439E+03  0.21270472757E+03  0.91564077308E+02 0.  0.
        -11    1    3    3    0    0 -0.24594031664E+02 -0.25571050616E+02  0.28776832525E+02  0.45682065554E+02  0.00000000000E+00 0.  1.
         11    1    3    3    0    0  0.24594031664E+02  0.25571050616E+02  0.16321098187E+03  0.16702266201E+03  0.00000000000E+00 0. -1.
<mgrwt>
<rscale>  0 0.91564077E+02</rscale>
<asrwt>0</asrwt>
<pdfrwt beam="1">  1        1 0.31130193E-01 0.91564077E+02</pdfrwt>
<pdfrwt beam="2">  1       -1 0.15936089E-02 0.91564077E+02</pdfrwt>
<totfact> 0.11733200E+05</totfact>
</mgrwt>
</event>
<event>
 5    1  0.6125604E+000  0.9376689E+02  0.7546771E-02  0.1293978E+00
         -2   -1    0    0    0  501 -0.00000000000E+00  0.00000000000E+00  0.12266427119E+02  0.12266427119E+02  0.00000000000E+00 0. -1.
          2   -1    0    0  501    0  0.00000000000E+00 -0.00000000000E+00 -0.17919296449E+03  0.17919296449E+03  0.00000000000E+00 0.  1.
         23    2    1    2    0    0  0.00000000000E+00  0.00000000000E+00 -0.16692653737E+03  0.19145939160E+03  0.93766890512E+02 0.  0.
        -11    1    3    3    0    0 -0.10246078012E+02 -0.45746973690E+02 -0.84562320957E+02  0.96687919835E+02  0.00000000000E+00 0.  1.
         11    1    3    3    0    0  0.10246078012E+02  0.45746973690E+02 -0.82364216409E+02  0.94771471769E+02  0.00000000000E+00 0. -1.
<mgrwt>
<rscale>  0 0.93766891E+02</rscale>
<asrwt>0</asrwt>
<pdfrwt beam="2">  1        2 0.27568148E-01 0.93766891E+02</pdfrwt>
<pdfrwt beam="1">  1       -2 0.18871427E-02 0.93766891E+02</pdfrwt>
<totfact> 0.13785104E+05</totfact>
</mgrwt>
</event>
<event>
 5    1  0.6125604E+000  0.8998475E+02  0.7546771E-02  0.1302889E+00
          2   -1    0    0  501    0  0.00000000000E+00  0.00000000000E+00  0.20934925487E+03  0.20934925487E+03  0.00000000000E+00 0. -1.
         -2   -1    0    0    0  501 -0.00000000000E+00 -0.00000000000E+00 -0.96695535985E+01  0.96695535985E+01  0.00000000000E+00 0.  1.
         23    2    1    2    0    0  0.00000000000E+00  0.00000000000E+00  0.19967970127E+03  0.21901880847E+03  0.89984750725E+02 0.  0.
        -11    1    3    3    0    0 -0.36970584627E+02 -0.20622971494E+02  0.62752357532E+02  0.75696693830E+02  0.00000000000E+00 0.  1.
         11    1    3    3    0    0  0.36970584627E+02  0.20622971494E+02  0.13692734374E+03  0.14332211464E+03  0.00000000000E+00 0. -1.
<mgrwt>
<rscale>  0 0.89984751E+02</rscale>
<asrwt>0</asrwt>
<pdfrwt beam="1">  1        2 0.32207574E-01 0.89984751E+02</pdfrwt>
<pdfrwt beam="2">  1       -2 0.14876238E-02 0.89984751E+02</pdfrwt>
<totfact> 0.16292285E+05</totfact>
</mgrwt>
</event>
<event>
 5    1  0.6125604E+000  0.8348054E+02  0.7546771E-02  0.1319455E+00
         -1   -1    0    0    0  501 -0.00000000000E+00  0.00000000000E+00  0.20099918300E+02  0.20099918300E+02  0.00000000000E+00 0.  1.
          1   -1    0    0  501    0  0.00000000000E+00 -0.00000000000E+00 -0.86679469296E+02  0.86679469296E+02  0.00000000000E+00 0. -1.
         23    2    1    2    0    0  0.00000000000E+00  0.00000000000E+00 -0.66579550996E+02  0.10677938760E+03  0.83480542671E+02 0.  0.
        -11    1    3    3    0    0 -0.13012474506E+02  0.26541908974E+02  0.44044894357E+01  0.29886400786E+02  0.00000000000E+00 0.  1.
         11    1    3    3    0    0  0.13012474506E+02 -0.26541908974E+02 -0.70984040432E+02  0.76892986811E+02  0.00000000000E+00 0. -1.
<mgrwt>
<rscale>  0 0.83480543E+02</rscale>
<asrwt>0</asrwt>
<pdfrwt beam="2">  1        1 0.13335303E-01 0.83480543E+02</pdfrwt>
<pdfrwt beam="1">  1       -1 0.30922951E-02 0.83480543E+02</pdfrwt>
<totfact> 0.12969801E+05</totfact>
</mgrwt>
</event>
<event>
 5    1  0.6125604E+000  0.8993244E+02  0.7546771E-02  0.1303015E+00
          1   -1    0    0  501    0  0.00000000000E+00  0.00000000000E+00  0.69533758473E+02  0.69533758473E+02  0.00000000000E+00 0. -1.
         -1   -1    0    0    0  501 -0.00000000000E+00 -0.00000000000E+00 -0.29078838398E+02  0.29078838398E+02  0.00000000000E+00 0.  1.
         23    2    1    2    0    0  0.00000000000E+00  0.00000000000E+00  0.40454920075E+02  0.98612596871E+02  0.89932439661E+02 0.  0.
        -11    1    3    3    0    0 -0.26557050917E+01 -0.44693288543E+02  0.15651137732E+02  0.47428903874E+02  0.00000000000E+00 0.  1.
         11    1    3    3    0    0  0.26557050917E+01  0.44693288543E+02  0.24803782343E+02  0.51183692997E+02  0.00000000000E+00 0. -1.
<mgrwt>
<rscale>  0 0.89932440E+02</rscale>
<asrwt>0</asrwt>
<pdfrwt beam="1">  1        1 0.10697501E-01 0.89932440E+02</pdfrwt>
<pdfrwt beam="2">  1       -1 0.44736675E-02 0.89932440E+02</pdfrwt>
<totfact> 0.10236668E+05</totfact>
</mgrwt>
</event>
<event>
 5    1  0.6125604E+000  0.9026137E+02  0.7546771E-02  0.1302220E+00
         -3   -1    0    0    0  501 -0.00000000000E+00  0.00000000000E+00  0.36716455889E+02  0.36716455889E+02  0.00000000000E+00 0.  1.
          3   -1    0    0  501    0  0.00000000000E+00 -0.00000000000E+00 -0.55473190074E+02  0.55473190074E+02  0.00000000000E+00 0. -1.
         23    2    1    2    0    0  0.00000000000E+00  0.00000000000E+00 -0.18756734185E+02  0.92189645962E+02  0.90261374604E+02 0.  0.
        -11    1    3    3    0    0  0.39966485652E+02 -0.19815862304E+02 -0.16364861813E+02  0.47516282224E+02  0.00000000000E+00 0.  1.
         11    1    3    3    0    0 -0.39966485652E+02  0.19815862304E+02 -0.23918723718E+01  0.44673363738E+02  0.00000000000E+00 0. -1.
<mgrwt>
<rscale>  0 0.90261375E+02</rscale>
<asrwt>0</asrwt>
<pdfrwt beam="2">  1        3 0.85343369E-02 0.90261375E+02</pdfrwt>
<pdfrwt beam="1">  1       -3 0.56486856E-02 0.90261375E+02</pdfrwt>
<totfact> 0.36241938E+04</totfact>
</mgrwt>
</event>
<event>
 5    1  0.6125604E+000  0.9159318E+02  0.7546771E-02  0.1299039E+00
         -1   -1    0    0    0  501 -0.00000000000E+00  0.00000000000E+00  0.38954481399E+03  0.38954481399E+03  0.00000000000E+00 0.  1.
          1   -1    0    0  501    0  0.00000000000E+00 -0.00000000000E+00 -0.53840467367E+01  0.53840467367E+01  0.00000000000E+00 0. -1.
         23    2    1    2    0    0  0.00000000000E+00  0.00000000000E+00  0.38416076726E+03  0.39492886073E+03  0.91593176265E+02 0.  0.
        -11    1    3    3    0    0  0.16914974523E+02 -0.39586407407E+02  0.12471076669E+03  0.13193170712E+03  0.00000000000E+00 0. -1.
         11    1    3    3    0    0 -0.16914974523E+02  0.39586407407E+02  0.25945000056E+03  0.26299715361E+03  0.00000000000E+00 0.  1.
<mgrwt>
<rscale>  0 0.91593176E+02</rscale>
<asrwt>0</asrwt>
<pdfrwt beam="2">  1        1 0.82831519E-03 0.91593176E+02</pdfrwt>
<pdfrwt beam="1">  1       -1 0.59929949E-01 0.91593176E+02</pdfrwt>
<totfact> 0.53358187E+04</totfact>
</mgrwt>
</event>
<event>
 5    1  0.6125604E+000  0.9168112E+02  0.7546771E-02  0.1298831E+00
          1   -1    0    0  501    0  0.00000000000E+00  0.00000000000E+00  0.11772989199E+03  0.11772989199E+03  0.00000000000E+00 0. -1.
         -1   -1    0    0    0  501 -0.00000000000E+00 -0.00000000000E+00 -0.17848968301E+02  0.17848968301E+02  0.00000000000E+00 0.  1.
         23    2    1    2    0    0  0.00000000000E+00  0.00000000000E+00  0.99880923690E+02  0.13557886029E+03  0.91681123690E+02 0.  0.
        -11    1    3    3    0    0  0.40147226628E+02  0.20508144783E+02  0.37658929401E+02  0.58741627250E+02  0.00000000000E+00 0. -1.
         11    1    3    3    0    0 -0.40147226628E+02 -0.20508144783E+02  0.62221994288E+02  0.76837233042E+02  0.00000000000E+00 0.  1.
<mgrwt>
<rscale>  0 0.91681124E+02</rscale>
<asrwt>0</asrwt>
<pdfrwt beam="1">  1        1 0.18112291E-01 0.91681124E+02</pdfrwt>
<pdfrwt beam="2">  1       -1 0.27459952E-02 0.91681124E+02</pdfrwt>
<totfact> 0.10578555E+05</totfact>
</mgrwt>
</event>
<event>
 5    1  0.6125604E+000  0.9967666E+02  0.7546771E-02  0.1280977E+00
          2   -1    0    0  501    0  0.00000000000E+00  0.00000000000E+00  0.51474101032E+02  0.51474101032E+02  0.00000000000E+00 0.  1.
         -2   -1    0    0    0  501 -0.00000000000E+00 -0.00000000000E+00 -0.48254539405E+02  0.48254539405E+02  0.00000000000E+00 0. -1.
         23    2    1    2    0    0  0.00000000000E+00  0.00000000000E+00  0.32195616263E+01  0.99728640437E+02  0.99676657981E+02 0.  0.
        -11    1    3    3    0    0 -0.49977282365E+01  0.32263700831E+02  0.39284900994E+02  0.51080594407E+02  0.00000000000E+00 0.  1.
         11    1    3    3    0    0  0.49977282365E+01 -0.32263700831E+02 -0.36065339367E+02  0.48648046030E+02  0.00000000000E+00 0. -1.
<mgrwt>
<rscale>  0 0.99676658E+02</rscale>
<asrwt>0</asrwt>
<pdfrwt beam="1">  1        2 0.79190925E-02 0.99676658E+02</pdfrwt>
<pdfrwt beam="2">  1       -2 0.74237752E-02 0.99676658E+02</pdfrwt>
<totfact> 0.78831257E+04</totfact>
</mgrwt>
</event>
<event>
 5    1  0.6125604E+000  0.8974632E+02  0.7546771E-02  0.1303467E+00
         -2   -1    0    0    0  501 -0.00000000000E+00  0.00000000000E+00  0.45579845162E+02  0.45579845162E+02  0.00000000000E+00 0.  1.
          2   -1    0    0  501    0  0.00000000000E+00 -0.00000000000E+00 -0.44177435436E+02  0.44177435436E+02  0.00000000000E+00 0. -1.
         23    2    1    2    0    0  0.00000000000E+00  0.00000000000E+00  0.14024097257E+01  0.89757280598E+02  0.89746323977E+02 0.  0.
        -11    1    3    3    0    0  0.23327367310E+02  0.28577704435E+02  0.26253285036E+02  0.45277877949E+02  0.00000000000E+00 0.  1.
         11    1    3    3    0    0 -0.23327367310E+02 -0.28577704435E+02 -0.24850875310E+02  0.44479402649E+02  0.00000000000E+00 0. -1.
<mgrwt>
<rscale>  0 0.89746324E+02</rscale>
<asrwt>0</asrwt>
<pdfrwt beam="2">  1        2 0.67965286E-02 0.89746324E+02</pdfrwt>
<pdfrwt beam="1">  1       -2 0.70122838E-02 0.89746324E+02</pdfrwt>
<totfact> 0.10241616E+05</totfact>
</mgrwt>
</event>
<event>
 5    1  0.6125604E+000  0.9040956E+02  0.7546771E-02  0.1301863E+00
          1   -1    0    0  501    0  0.00000000000E+00  0.00000000000E+00  0.38787155045E+03  0.38787155045E+03  0.00000000000E+00 0. -1.
         -1   -1    0    0    0  501 -0.00000000000E+00 -0.00000000000E+00 -0.52684248824E+01  0.52684248824E+01  0.00000000000E+00 0.  1.
         23    2    1    2    0    0  0.00000000000E+00  0.00000000000E+00  0.38260312557E+03  0.39313997533E+03  0.90409559839E+02 0.  0.
        -11    1    3    3    0    0  0.35009531474E+02 -0.27845988392E+02  0.16298468949E+03  0.16901205689E+03  0.00000000000E+00 0.  1.
         11    1    3    3    0    0 -0.35009531474E+02  0.27845988392E+02  0.21961843607E+03  0.22412791845E+03  0.00000000000E+00 0. -1.
<mgrwt>
<rscale>  0 0.90409560E+02</rscale>
<asrwt>0</asrwt>
<pdfrwt beam="1">  1        1 0.59672524E-01 0.90409560E+02</pdfrwt>
<pdfrwt beam="2">  1       -1 0.81052721E-03 0.90409560E+02</pdfrwt>
<totfact> 0.13724804E+05</totfact>
</mgrwt>
</event>
<event>
 5    1  0.6125604E+000  0.9285320E+02  0.7546771E-02  0.1296086E+00
          2   -1    0    0  501    0  0.00000000000E+00  0.00000000000E+00  0.25951760204E+02  0.25951760204E+02  0.00000000000E+00 0.  1.
         -2   -1    0    0    0  501 -0.00000000000E+00 -0.00000000000E+00 -0.83055212776E+02  0.83055212776E+02  0.00000000000E+00 0. -1.
         23    2    1    2    0    0  0.00000000000E+00  0.00000000000E+00 -0.57103452573E+02  0.10900697298E+03  0.92853195220E+02 0.  0.
        -11    1    3    3    0    0 -0.26659647194E+02  0.60756854138E+01 -0.72599559371E+02  0.77578004374E+02  0.00000000000E+00 0. -1.
         11    1    3    3    0    0  0.26659647194E+02 -0.60756854138E+01  0.15496106798E+02  0.31428968606E+02  0.00000000000E+00 0.  1.
<mgrwt>
<rscale>  0 0.92853195E+02</rscale>
<asrwt>0</asrwt>
<pdfrwt beam="1">  1        2 0.39925785E-02 0.92853195E+02</pdfrwt>
<pdfrwt beam="2">  1       -2 0.12777725E-01 0.92853195E+02</pdfrwt>
<totfact> 0.80501482E+04</totfact>
</mgrwt>
</event>
<event>
 5    1  0.6125604E+000  0.1081291E+03  0.7546771E-02  0.1264074E+00
         -2   -1    0    0    0  501 -0.00000000000E+00  0.00000000000E+00  0.15261530449E+02  0.15261530449E+02  0.00000000000E+00 0. -1.
          2   -1    0    0  501    0  0.00000000000E+00 -0.00000000000E+00 -0.19152586556E+03  0.19152586556E+03  0.00000000000E+00 0.  1.
         23    2    1    2    0    0  0.00000000000E+00  0.00000000000E+00 -0.17626433511E+03  0.20678739601E+03  0.10812914185E+03 0.  0.
        -11    1    3    3    0    0  0.36836620302E+02  0.29541880723E+02 -0.37776575352E+02  0.60470893471E+02  0.00000000000E+00 0. -1.
         11    1    3    3    0    0 -0.36836620302E+02 -0.29541880723E+02 -0.13848775976E+03  0.14631650254E+03  0.00000000000E+00 0.  1.
<mgrwt>
<rscale>  0 0.10812914E+03</rscale>
<asrwt>0</asrwt>
<pdfrwt beam="2">  1        2 0.29465517E-01 0.10812914E+03</pdfrwt>
<pdfrwt beam="1">  1       -2 0.23479278E-02 0.10812914E+03</pdfrwt>
<totfact> 0.95686969E+04</totfact>
</mgrwt>
</event>
<event>
 5    1  0.6125604E+000  0.9046238E+02  0.7546771E-02  0.1301736E+00
         -2   -1    0    0    0  501 -0.00000000000E+00  0.00000000000E+00  0.31426279775E+02  0.31426279775E+02  0.00000000000E+00 0.  1.
          2   -1    0    0  501    0  0.00000000000E+00 -0.00000000000E+00 -0.65100316949E+02  0.65100316949E+02  0.00000000000E+00 0. -1.
         23    2    1    2    0    0  0.00000000000E+00  0.00000000000E+00 -0.33674037174E+02  0.96526596723E+02  0.90462384975E+02 0.  0.
        -11    1    3    3    0    0 -0.11009690409E+02 -0.43761479726E+02 -0.20139728266E+02  0.49415473744E+02  0.00000000000E+00 0. -1.
         11    1    3    3    0    0  0.11009690409E+02  0.43761479726E+02 -0.13534308907E+02  0.47111122979E+02  0.00000000000E+00 0.  1.
<mgrwt>
<rscale>  0 0.90462385E+02</rscale>
<asrwt>0</asrwt>
<pdfrwt beam="2">  1        2 0.10015433E-01 0.90462385E+02</pdfrwt>
<pdfrwt beam="1">  1       -2 0.48348123E-02 0.90462385E+02</pdfrwt>
<totfact> 0.11085447E+05</totfact>
</mgrwt>
</event>
<event>
 5    1  0.6125604E+000  0.9191742E+02  0.7546771E-02  0.1298274E+00
          1   -1    0    0  501    0  0.00000000000E+00  0.00000000000E+00  0.51024076285E+02  0.51024076285E+02  0.00000000000E+00 0. -1.
         -1   -1    0    0    0  501 -0.00000000000E+00 -0.00000000000E+00 -0.41396202157E+02  0.41396202157E+02  0.00000000000E+00 0.  1.
         23    2    1    2    0    0  0.00000000000E+00  0.00000000000E+00  0.96278741282E+01  0.92420278442E+02  0.91917418953E+02 0.  0.
        -11    1    3    3    0    0  0.42209546209E+01 -0.38171590463E+02 -0.20569295621E+02  0.43565843257E+02  0.00000000000E+00 0.  1.
         11    1    3    3    0    0 -0.42209546209E+01  0.38171590463E+02  0.30197169749E+02  0.48854435185E+02  0.00000000000E+00 0. -1.
<mgrwt>
<rscale>  0 0.91917419E+02</rscale>
<asrwt>0</asrwt>
<pdfrwt beam="1">  1        1 0.78498579E-02 0.91917419E+02</pdfrwt>
<pdfrwt beam="2">  1       -1 0.63686465E-02 0.91917419E+02</pdfrwt>
<totfact> 0.91945299E+04</totfact>
</mgrwt>
</event>
<event>
 5    1  0.6125604E+000  0.9049657E+02  0.7546771E-02  0.1301654E+00
         -2   -1    0    0    0  501 -0.00000000000E+00  0.00000000000E+00  0.41386772498E+02  0.41386772498E+02  0.00000000000E+00 0.  1.
          2   -1    0    0  501    0  0.00000000000E+00 -0.00000000000E+00 -0.49470091909E+02  0.49470091909E+02  0.00000000000E+00 0. -1.
         23    2    1    2    0    0  0.00000000000E+00  0.00000000000E+00 -0.80833194109E+01  0.90856864408E+02  0.90496573180E+02 0.  0.
        -11    1    3    3    0    0  0.12909887153E+02 -0.43046540042E+02 -0.93292815860E+01  0.45898859363E+02  0.00000000000E+00 0. -1.
         11    1    3    3    0    0 -0.12909887153E+02  0.43046540042E+02  0.12459621751E+01  0.44958005045E+02  0.00000000000E+00 0.  1.
<mgrwt>
<rscale>  0 0.90496573E+02</rscale>
<asrwt>0</asrwt>
<pdfrwt beam="2">  1        2 0.76107834E-02 0.90496573E+02</pdfrwt>
<pdfrwt beam="1">  1       -2 0.63671958E-02 0.90496573E+02</pdfrwt>
<totfact> 0.10297091E+05</totfact>
</mgrwt>
</event>
<event>
 5    1  0.6125604E+000  0.9135418E+02  0.7546771E-02  0.1299605E+00
          1   -1    0    0  501    0  0.00000000000E+00  0.00000000000E+00  0.10073531616E+03  0.10073531616E+03  0.00000000000E+00 0. -1.
         -1   -1    0    0    0  501 -0.00000000000E+00 -0.00000000000E+00 -0.20711671082E+02  0.20711671082E+02  0.00000000000E+00 0.  1.
         23    2    1    2    0    0  0.00000000000E+00  0.00000000000E+00  0.80023645075E+02  0.12144698724E+03  0.91354184021E+02 0.  0.
        -11    1    3    3    0    0 -0.34918531714E+02 -0.17926180998E+02  0.71068368343E+02  0.81187220676E+02  0.00000000000E+00 0. -1.
         11    1    3    3    0    0  0.34918531714E+02  0.17926180998E+02  0.89552767323E+01  0.40259766562E+02  0.00000000000E+00 0.  1.
<mgrwt>
<rscale>  0 0.91354184E+02</rscale>
<asrwt>0</asrwt>
<pdfrwt beam="1">  1        1 0.15497741E-01 0.91354184E+02</pdfrwt>
<pdfrwt beam="2">  1       -1 0.31864110E-02 0.91354184E+02</pdfrwt>
<totfact> 0.10402615E+05</totfact>
</mgrwt>
</event>
<event>
 5    1  0.6125604E+000  0.9178100E+02  0.7546771E-02  0.1298595E+00
          3   -1    0    0  501    0  0.00000000000E+00  0.00000000000E+00  0.95778506860E+01  0.95778506860E+01  0.00000000000E+00 0. -1.
         -3   -1    0    0    0  501 -0.00000000000E+00 -0.00000000000E+00 -0.21987586627E+03  0.21987586627E+03  0.00000000000E+00 0.  1.
         23    2    1    2    0    0  0.00000000000E+00  0.00000000000E+00 -0.21029801558E+03  0.22945371695E+03  0.91781004931E+02 0.  0.
        -11    1    3    3    0    0 -0.32385227002E+02 -0.29560733584E+02 -0.71301902742E+02  0.83705443268E+02  0.00000000000E+00 0.  1.
         11    1    3    3    0    0  0.32385227002E+02  0.29560733584E+02 -0.13899611284E+03  0.14574827369E+03  0.00000000000E+00 0. -1.
<mgrwt>
<rscale>  0 0.91781005E+02</rscale>
<asrwt>0</asrwt>
<pdfrwt beam="1">  1        3 0.14735155E-02 0.91781005E+02</pdfrwt>
<pdfrwt beam="2">  1       -3 0.33827057E-01 0.91781005E+02</pdfrwt>
<totfact> 0.26563566E+04</totfact>
</mgrwt>
</event>
<event>
 5    1  0.6125604E+000  0.9502132E+02  0.7546771E-02  0.1291128E+00
         -2   -1    0    0    0  501 -0.00000000000E+00  0.00000000000E+00  0.10098832109E+03  0.10098832109E+03  0.00000000000E+00 0.  1.
          2   -1    0    0  501    0  0.00000000000E+00 -0.00000000000E+00 -0.22351720132E+02  0.22351720132E+02  0.00000000000E+00 0. -1.
         23    2    1    2    0    0  0.00000000000E+00  0.00000000000E+00  0.78636600955E+02  0.12334004122E+03  0.95021317388E+02 0.  0.
        -11    1    3    3    0    0  0.16509737962E+02  0.35294117141E+02  0.74604925339E+02  0.84167339492E+02  0.00000000000E+00 0.  1.
         11    1    3    3    0    0 -0.16509737962E+02 -0.35294117141E+02  0.40316756162E+01  0.39172701727E+02  0.00000000000E+00 0. -1.
<mgrwt>
<rscale>  0 0.95021317E+02</rscale>
<asrwt>0</asrwt>
<pdfrwt beam="2">  1        2 0.34387262E-02 0.95021317E+02</pdfrwt>
<pdfrwt beam="1">  1       -2 0.15536664E-01 0.95021317E+02</pdfrwt>
<totfact> 0.71793698E+04</totfact>
</mgrwt>
</event>
<event>
 5    1  0.6125604E+000  0.9239700E+02  0.7546771E-02  0.1297149E+00
         -2   -1    0    0    0  501 -0.00000000000E+00  0.00000000000E+00  0.59069998776E+02  0.59069998776E+02  0.00000000000E+00 0.  1.
          2   -1    0    0  501    0  0.00000000000E+00 -0.00000000000E+00 -0.36131735626E+02  0.36131735626E+02  0.00000000000E+00 0. -1.
         23    2    1    2    0    0  0.00000000000E+00  0.00000000000E+00  0.22938263150E+02  0.95201734402E+02  0.92397003830E+02 0.  0.
        -11    1    3    3    0    0 -0.13915965467E+02  0.29633254607E+00  0.56858116759E+02  0.58537059622E+02  0.00000000000E+00 0.  1.
         11    1    3    3    0    0  0.13915965467E+02 -0.29633254607E+00 -0.33919853609E+02  0.36664674780E+02  0.00000000000E+00 0. -1.
<mgrwt>
<rscale>  0 0.92397004E+02</rscale>
<asrwt>0</asrwt>
<pdfrwt beam="2">  1        2 0.55587286E-02 0.92397004E+02</pdfrwt>
<pdfrwt beam="1">  1       -2 0.90876921E-02 0.92397004E+02</pdfrwt>
<totfact> 0.89359272E+04</totfact>
</mgrwt>
</event>
<event>
 5    1  0.6125604E+000  0.9322993E+02  0.7546771E-02  0.1295213E+00
          4   -1    0    0  501    0  0.00000000000E+00  0.00000000000E+00  0.84347626881E+02  0.84347626881E+02  0.00000000000E+00 0. -1.
         -4   -1    0    0    0  501 -0.00000000000E+00 -0.00000000000E+00 -0.25761897604E+02  0.25761897604E+02  0.00000000000E+00 0.  1.
         23    2    1    2    0    0  0.00000000000E+00  0.00000000000E+00  0.58585729277E+02  0.11010952448E+03  0.93229929247E+02 0.  0.
        -11    1    3    3    0    0  0.19440549846E+02 -0.34629759609E+02  0.58121207053E+02  0.70393394137E+02  0.00000000000E+00 0. -1.
         11    1    3    3    0    0 -0.19440549846E+02  0.34629759609E+02  0.46452222396E+00  0.39716130347E+02  0.00000000000E+00 0.  1.
<mgrwt>
<rscale>  0 0.93229929E+02</rscale>
<asrwt>0</asrwt>
<pdfrwt beam="1">  1        4 0.12976558E-01 0.93229929E+02</pdfrwt>
<pdfrwt beam="2">  1       -4 0.39633689E-02 0.93229929E+02</pdfrwt>
<totfact> 0.24330265E+04</totfact>
</mgrwt>
</event>
<event>
 5    1  0.6125604E+000  0.9082096E+02  0.7546771E-02  0.1300876E+00
          1   -1    0    0  501    0  0.00000000000E+00  0.00000000000E+00  0.29200504506E+02  0.29200504506E+02  0.00000000000E+00 0. -1.
         -1   -1    0    0    0  501 -0.00000000000E+00 -0.00000000000E+00 -0.70619040296E+02  0.70619040296E+02  0.00000000000E+00 0.  1.
         23    2    1    2    0    0  0.00000000000E+00  0.00000000000E+00 -0.41418535789E+02  0.99819544802E+02  0.90820958030E+02 0.  0.
        -11    1    3    3    0    0  0.80131048904E+01 -0.42991215489E+02 -0.72637283440E+01  0.44330759171E+02  0.00000000000E+00 0. -1.
         11    1    3    3    0    0 -0.80131048904E+01  0.42991215489E+02 -0.34154807445E+02  0.55488785631E+02  0.00000000000E+00 0.  1.
<mgrwt>
<rscale>  0 0.90820958E+02</rscale>
<asrwt>0</asrwt>
<pdfrwt beam="1">  1        1 0.44923853E-02 0.90820958E+02</pdfrwt>
<pdfrwt beam="2">  1       -1 0.10864468E-01 0.90820958E+02</pdfrwt>
<totfact> 0.87281899E+04</totfact>
</mgrwt>
</event>
<event>
 5    1  0.6125604E+000  0.9135085E+02  0.7546771E-02  0.1299613E+00
         -1   -1    0    0    0  501 -0.00000000000E+00  0.00000000000E+00  0.15794653806E+02  0.15794653806E+02  0.00000000000E+00 0.  1.
          1   -1    0    0  501    0  0.00000000000E+00 -0.00000000000E+00 -0.13208549156E+03  0.13208549156E+03  0.00000000000E+00 0. -1.
         23    2    1    2    0    0  0.00000000000E+00  0.00000000000E+00 -0.11629083775E+03  0.14788014536E+03  0.91350853569E+02 0.  0.
        -11    1    3    3    0    0 -0.21869914100E+02 -0.34137494383E+02 -0.92201494141E+02  0.10072128468E+03  0.00000000000E+00 0. -1.
         11    1    3    3    0    0  0.21869914100E+02  0.34137494383E+02 -0.24089343610E+02  0.47158860684E+02  0.00000000000E+00 0.  1.
<mgrwt>
<rscale>  0 0.91350854E+02</rscale>
<asrwt>0</asrwt>
<pdfrwt beam="2">  1        1 0.20320845E-01 0.91350854E+02</pdfrwt>
<pdfrwt beam="1">  1       -1 0.24299467E-02 0.91350854E+02</pdfrwt>
<totfact> 0.10901305E+05</totfact>
</mgrwt>
</event>
<event>
 5    1  0.6125604E+000  0.9011950E+02  0.7546771E-02  0.1302563E+00
          2   -1    0    0  501    0  0.00000000000E+00  0.00000000000E+00  0.24766444345E+03  0.24766444345E+03  0.00000000000E+00 0. -1.
         -2   -1    0    0    0  501 -0.00000000000E+00 -0.00000000000E+00 -0.81981132725E+01  0.81981132725E+01  0.00000000000E+00 0.  1.
         23    2    1    2    0    0  0.00000000000E+00  0.00000000000E+00  0.23946633017E+03  0.25586255672E+03  0.90119502017E+02 0.  0.
        -11    1    3    3    0    0  0.17354732715E+02  0.32921494435E+02  0.47607104883E+02  0.60427212237E+02  0.00000000000E+00 0.  1.
         11    1    3    3    0    0 -0.17354732715E+02 -0.32921494435E+02  0.19185922529E+03  0.19543534448E+03  0.00000000000E+00 0. -1.
<mgrwt>
<rscale>  0 0.90119502E+02</rscale>
<asrwt>0</asrwt>
<pdfrwt beam="1">  1        2 0.38102216E-01 0.90119502E+02</pdfrwt>
<pdfrwt beam="2">  1       -2 0.12612484E-02 0.90119502E+02</pdfrwt>
<totfact> 0.17258101E+05</totfact>
</mgrwt>
</event>
<event>
 5    1  0.6125604E+000  0.9375243E+02  0.7546771E-02  0.1294011E+00
         -2   -1    0    0    0  501 -0.00000000000E+00  0.00000000000E+00  0.18702010438E+02  0.18702010438E+02  0.00000000000E+00 0.  1.
          2   -1    0    0  501    0  0.00000000000E+00 -0.00000000000E+00 -0.11749429919E+03  0.11749429919E+03  0.00000000000E+00 0. -1.
         23    2    1    2    0    0  0.00000000000E+00  0.00000000000E+00 -0.98792288747E+02  0.13619630962E+03  0.93752431644E+02 0.  0.
        -11    1    3    3    0    0  0.26109500633E+02 -0.27998386549E+02 -0.88693950040E+02  0.96603480509E+02  0.00000000000E+00 0. -1.
         11    1    3    3    0    0 -0.26109500633E+02  0.27998386549E+02 -0.10098338707E+02  0.39592829115E+02  0.00000000000E+00 0.  1.
<mgrwt>
<rscale>  0 0.93752432E+02</rscale>
<asrwt>0</asrwt>
<pdfrwt beam="2">  1        2 0.18076046E-01 0.93752432E+02</pdfrwt>
<pdfrwt beam="1">  1       -2 0.28772323E-02 0.93752432E+02</pdfrwt>
<totfact> 0.11950082E+05</totfact>
</mgrwt>
</event>
<event>
 4    1  0.6125604E+000  0.1335945E+03  0.7546771E-02  0.1222218E+00
          3   -1    0    0  501    0  0.00000000000E+00  0.00000000000E+00  0.17951866007E+02  0.17951866007E+02  0.00000000000E+00 0. -1.
         -3   -1    0    0    0  501 -0.00000000000E+00 -0.00000000000E+00 -0.24854656309E+03  0.24854656309E+03  0.00000000000E+00 0.  1.
        -11    1    1    2    0    0 -0.10480615394E+01  0.66647502868E+02 -0.12396660827E+03  0.14075051701E+03  0.00000000000E+00 0. -1.
         11    1    1    2    0    0  0.10480615394E+01 -0.66647502868E+02 -0.10662808882E+03  0.12574791210E+03  0.00000000000E+00 0.  1.
<mgrwt>
<rscale>  0 0.13359453E+03</rscale>
<asrwt>0</asrwt>
<pdfrwt beam="1">  1        3 0.27618259E-02 0.13359453E+03</pdfrwt>
<pdfrwt beam="2">  1       -3 0.38237927E-01 0.13359453E+03</pdfrwt>
<totfact> 0.88742671E+03</totfact>
</mgrwt>
</event>
<event>
 5    1  0.6125604E+000  0.9160416E+02  0.7546771E-02  0.1299013E+00
         -1   -1    0    0    0  501 -0.00000000000E+00  0.00000000000E+00  0.10694245336E+03  0.10694245336E+03  0.00000000000E+00 0.  1.
          1   -1    0    0  501    0  0.00000000000E+00 -0.00000000000E+00 -0.19616443900E+02  0.19616443900E+02  0.00000000000E+00 0. -1.
         23    2    1    2    0    0  0.00000000000E+00  0.00000000000E+00  0.87326009463E+02  0.12655889726E+03  0.91604162284E+02 0.  0.
        -11    1    3    3    0    0 -0.33023247175E+02  0.30687712387E+02  0.54849582589E+02  0.70998220089E+02  0.00000000000E+00 0.  1.
         11    1    3    3    0    0  0.33023247175E+02 -0.30687712387E+02  0.32476426874E+02  0.55560677174E+02  0.00000000000E+00 0. -1.
<mgrwt>
<rscale>  0 0.91604162E+02</rscale>
<asrwt>0</asrwt>
<pdfrwt beam="2">  1        1 0.30179145E-02 0.91604162E+02</pdfrwt>
<pdfrwt beam="1">  1       -1 0.16452685E-01 0.91604162E+02</pdfrwt>
<totfact> 0.79380501E+04</totfact>
</mgrwt>
</event>
<event>
 5    1  0.6125604E+000  0.9133696E+02  0.7546771E-02  0.1299646E+00
         -2   -1    0    0    0  501 -0.00000000000E+00  0.00000000000E+00  0.90061428577E+01  0.90061428577E+01  0.00000000000E+00 0. -1.
          2   -1    0    0  501    0  0.00000000000E+00 -0.00000000000E+00 -0.23157637725E+03  0.23157637725E+03  0.00000000000E+00 0.  1.
         23    2    1    2    0    0  0.00000000000E+00  0.00000000000E+00 -0.22257023439E+03  0.24058252010E+03  0.91336957163E+02 0.  0.
        -11    1    3    3    0    0  0.32487917988E+02  0.36187477719E+00 -0.19582061797E+03  0.19849763271E+03  0.00000000000E+00 0.  1.
         11    1    3    3    0    0 -0.32487917988E+02 -0.36187477719E+00 -0.26749616416E+02  0.42084887394E+02  0.00000000000E+00 0. -1.
<mgrwt>
<rscale>  0 0.91336957E+02</rscale>
<asrwt>0</asrwt>
<pdfrwt beam="2">  1        2 0.35627136E-01 0.91336957E+02</pdfrwt>
<pdfrwt beam="1">  1       -2 0.13855604E-02 0.91336957E+02</pdfrwt>
<totfact> 0.16241715E+05</totfact>
</mgrwt>
</event>
<event>
 5    1  0.6125604E+000  0.9034769E+02  0.7546771E-02  0.1302012E+00
          1   -1    0    0  501    0  0.00000000000E+00  0.00000000000E+00  0.19452756904E+02  0.19452756904E+02  0.00000000000E+00 0. -1.
         -1   -1    0    0    0  501 -0.00000000000E+00 -0.00000000000E+00 -0.10490422936E+03  0.10490422936E+03  0.00000000000E+00 0.  1.
         23    2    1    2    0    0  0.00000000000E+00  0.00000000000E+00 -0.85451472455E+02  0.12435698626E+03  0.90347694424E+02 0.  0.
        -11    1    3    3    0    0 -0.10437740421E+02 -0.31384846158E+02 -0.37468162783E+00  0.33077112628E+02  0.00000000000E+00 0. -1.
         11    1    3    3    0    0  0.10437740421E+02  0.31384846158E+02 -0.85076790827E+02  0.91279873635E+02  0.00000000000E+00 0.  1.
<mgrwt>
<rscale>  0 0.90347694E+02</rscale>
<asrwt>0</asrwt>
<pdfrwt beam="1">  1        1 0.29927319E-02 0.90347694E+02</pdfrwt>
<pdfrwt beam="2">  1       -1 0.16139112E-01 0.90347694E+02</pdfrwt>
<totfact> 0.82561054E+04</totfact>
</mgrwt>
</event>
<event>
 5    1  0.6125604E+000  0.9159435E+02  0.7546771E-02  0.1299036E+00
          1   -1    0    0  501    0  0.00000000000E+00  0.00000000000E+00  0.68557320130E+02  0.68557320130E+02  0.00000000000E+00 0. -1.
         -1   -1    0    0    0  501 -0.00000000000E+00 -0.00000000000E+00 -0.30593105414E+02  0.30593105414E+02  0.00000000000E+00 0.  1.
         23    2    1    2    0    0  0.00000000000E+00  0.00000000000E+00  0.37964214716E+02  0.99150425544E+02  0.91594351827E+02 0.  0.
        -11    1    3    3    0    0 -0.30808849089E+02 -0.30148918485E+02  0.22387808973E+01  0.43164274672E+02  0.00000000000E+00 0. -1.
         11    1    3    3    0    0  0.30808849089E+02  0.30148918485E+02  0.35725433818E+02  0.55986150872E+02  0.00000000000E+00 0.  1.
<mgrwt>
<rscale>  0 0.91594352E+02</rscale>
<asrwt>0</asrwt>
<pdfrwt beam="1">  1        1 0.10547280E-01 0.91594352E+02</pdfrwt>
<pdfrwt beam="2">  1       -1 0.47066316E-02 0.91594352E+02</pdfrwt>
<totfact> 0.97116864E+04</totfact>
</mgrwt>
</event>
<event>
 5    1  0.6125604E+000  0.9238439E+02  0.7546771E-02  0.1297178E+00
          2   -1    0    0  501    0  0.00000000000E+00  0.00000000000E+00  0.41654346123E+03  0.41654346123E+03  0.00000000000E+00 0. -1.
         -2   -1    0    0    0  501 -0.00000000000E+00 -0.00000000000E+00 -0.51224397377E+01  0.51224397377E+01  0.00000000000E+00 0.  1.
         23    2    1    2    0    0  0.00000000000E+00  0.00000000000E+00  0.41142102149E+03  0.42166590097E+03  0.92384387821E+02 0.  0.
        -11    1    3    3    0    0  0.43845988150E+00  0.44903499894E+02  0.15629789650E+03  0.16262087504E+03  0.00000000000E+00 0. -1.
         11    1    3    3    0    0 -0.43845988150E+00 -0.44903499894E+02  0.25512312499E+03  0.25904502592E+03  0.00000000000E+00 0.  1.
<mgrwt>
<rscale>  0 0.92384388E+02</rscale>
<asrwt>0</asrwt>
<pdfrwt beam="1">  1        2 0.64083582E-01 0.92384388E+02</pdfrwt>
<pdfrwt beam="2">  1       -2 0.78806798E-03 0.92384388E+02</pdfrwt>
<totfact> 0.19556408E+05</totfact>
</mgrwt>
</event>
<event>
 5    1  0.6125604E+000  0.9088202E+02  0.7546771E-02  0.1300730E+00
         -2   -1    0    0    0  501 -0.00000000000E+00  0.00000000000E+00  0.16399331858E+02  0.16399331858E+02  0.00000000000E+00 0.  1.
          2   -1    0    0  501    0  0.00000000000E+00 -0.00000000000E+00 -0.12591276396E+03  0.12591276396E+03  0.00000000000E+00 0. -1.
         23    2    1    2    0    0  0.00000000000E+00  0.00000000000E+00 -0.10951343210E+03  0.14231209582E+03  0.90882015853E+02 0.  0.
        -11    1    3    3    0    0  0.20092684221E+01  0.41084298339E+02 -0.24517074863E+02  0.47885735762E+02  0.00000000000E+00 0.  1.
         11    1    3    3    0    0 -0.20092684221E+01 -0.41084298339E+02 -0.84996357241E+02  0.94426360058E+02  0.00000000000E+00 0. -1.
<mgrwt>
<rscale>  0 0.90882016E+02</rscale>
<asrwt>0</asrwt>
<pdfrwt beam="2">  1        2 0.19371194E-01 0.90882016E+02</pdfrwt>
<pdfrwt beam="1">  1       -2 0.25229742E-02 0.90882016E+02</pdfrwt>
<totfact> 0.13306772E+05</totfact>
</mgrwt>
</event>
<event>
 5    1  0.6125604E+000  0.9209446E+02  0.7546771E-02  0.1297857E+00
         -2   -1    0    0    0  501 -0.00000000000E+00  0.00000000000E+00  0.38403626062E+02  0.38403626062E+02  0.00000000000E+00 0.  1.
          2   -1    0    0  501    0  0.00000000000E+00 -0.00000000000E+00 -0.55212163110E+02  0.55212163110E+02  0.00000000000E+00 0. -1.
         23    2    1    2    0    0  0.00000000000E+00  0.00000000000E+00 -0.16808537047E+02  0.93615789172E+02  0.92094457296E+02 0.  0.
        -11    1    3    3    0    0  0.11523554275E+02 -0.31332918636E+02  0.23834029842E+02  0.41019569377E+02  0.00000000000E+00 0.  1.
         11    1    3    3    0    0 -0.11523554275E+02  0.31332918636E+02 -0.40642566889E+02  0.52596219795E+02  0.00000000000E+00 0. -1.
<mgrwt>
<rscale>  0 0.92094457E+02</rscale>
<asrwt>0</asrwt>
<pdfrwt beam="2">  1        2 0.84941789E-02 0.92094457E+02</pdfrwt>
<pdfrwt beam="1">  1       -2 0.59082502E-02 0.92094457E+02</pdfrwt>
<totfact> 0.10083761E+05</totfact>
</mgrwt>
</event>
<event>
 5    1  0.6125604E+000  0.9064093E+02  0.7546771E-02  0.1301307E+00
          2   -1    0    0  501    0  0.00000000000E+00  0.00000000000E+00  0.11390851989E+03  0.11390851989E+03  0.00000000000E+00 0. -1.
         -2   -1    0    0    0  501 -0.00000000000E+00 -0.00000000000E+00 -0.18031528567E+02  0.18031528567E+02  0.00000000000E+00 0.  1.
         23    2    1    2    0    0  0.00000000000E+00  0.00000000000E+00  0.95876991321E+02  0.13194004845E+03  0.90640934028E+02 0.  0.
        -11    1    3    3    0    0 -0.28636081637E+02 -0.31715472888E+02  0.25956570592E+02  0.49996399360E+02  0.00000000000E+00 0.  1.
         11    1    3    3    0    0  0.28636081637E+02  0.31715472888E+02  0.69920420729E+02  0.81943649094E+02  0.00000000000E+00 0. -1.
<mgrwt>
<rscale>  0 0.90640934E+02</rscale>
<asrwt>0</asrwt>
<pdfrwt beam="1">  1        2 0.17524387E-01 0.90640934E+02</pdfrwt>
<pdfrwt beam="2">  1       -2 0.27740814E-02 0.90640934E+02</pdfrwt>
<totfact> 0.12980843E+05</totfact>
</mgrwt>
</event>
<event>
 5    1  0.6125604E+000  0.9943229E+02  0.7546771E-02  0.1281494E+00
          2   -1    0    0  501    0  0.00000000000E+00  0.00000000000E+00  0.26000742045E+03  0.26000742045E+03  0.00000000000E+00 0. -1.
         -2   -1    0    0    0  501 -0.00000000000E+00 -0.00000000000E+00 -0.95062482258E+01  0.95062482258E+01  0.00000000000E+00 0.  1.
         23    2    1    2    0    0  0.00000000000E+00  0.00000000000E+00  0.25050117223E+03  0.26951366868E+03  0.99432290115E+02 0.  0.
        -11    1    3    3    0    0  0.40770168753E+02 -0.27781276135E+02  0.14189089282E+03  0.15022327193E+03  0.00000000000E+00 0.  1.
         11    1    3    3    0    0 -0.40770168753E+02  0.27781276135E+02  0.10861027941E+03  0.11929039675E+03  0.00000000000E+00 0. -1.
<mgrwt>
<rscale>  0 0.99432290E+02</rscale>
<asrwt>0</asrwt>
<pdfrwt beam="1">  1        2 0.40001136E-01 0.99432290E+02</pdfrwt>
<pdfrwt beam="2">  1       -2 0.14624999E-02 0.99432290E+02</pdfrwt>
<totfact> 0.13489521E+05</totfact>
</mgrwt>
</event>
<event>
 5    1  0.6125604E+000  0.9119436E+02  0.7546771E-02  0.1299985E+00
         -1   -1    0    0    0  501 -0.00000000000E+00  0.00000000000E+00  0.47107780929E+03  0.47107780929E+03  0.00000000000E+00 0.  1.
          1   -1    0    0  501    0  0.00000000000E+00 -0.00000000000E+00 -0.44135020180E+01  0.44135020180E+01  0.00000000000E+00 0. -1.
         23    2    1    2    0    0  0.00000000000E+00  0.00000000000E+00  0.46666430727E+03  0.47549131131E+03  0.91194360833E+02 0.  0.
        -11    1    3    3    0    0 -0.64782202553E+01 -0.44688810908E+02  0.26632749056E+03  0.27012846830E+03  0.00000000000E+00 0.  1.
         11    1    3    3    0    0  0.64782202553E+01  0.44688810908E+02  0.20033681671E+03  0.20536284301E+03  0.00000000000E+00 0. -1.
<mgrwt>
<rscale>  0 0.91194361E+02</rscale>
<asrwt>0</asrwt>
<pdfrwt beam="2">  1        1 0.67900068E-03 0.91194361E+02</pdfrwt>
<pdfrwt beam="1">  1       -1 0.72473469E-01 0.91194361E+02</pdfrwt>
<totfact> 0.48731558E+04</totfact>
</mgrwt>
</event>
<event>
 5    1  0.6125604E+000  0.8995750E+02  0.7546771E-02  0.1302955E+00
         -2   -1    0    0    0  501 -0.00000000000E+00  0.00000000000E+00  0.35347782948E+02  0.35347782948E+02  0.00000000000E+00 0.  1.
          2   -1    0    0  501    0  0.00000000000E+00 -0.00000000000E+00 -0.57233797724E+02  0.57233797724E+02  0.00000000000E+00 0. -1.
         23    2    1    2    0    0  0.00000000000E+00  0.00000000000E+00 -0.21886014776E+02  0.92581580671E+02  0.89957497947E+02 0.  0.
        -11    1    3    3    0    0 -0.33836412597E+02 -0.33949843302E+01  0.19354812557E+02  0.39128474353E+02  0.00000000000E+00 0.  1.
         11    1    3    3    0    0  0.33836412597E+02  0.33949843302E+01 -0.41240827333E+02  0.53453106319E+02  0.00000000000E+00 0. -1.
<mgrwt>
<rscale>  0 0.89957498E+02</rscale>
<asrwt>0</asrwt>
<pdfrwt beam="2">  1        2 0.88051996E-02 0.89957498E+02</pdfrwt>
<pdfrwt beam="1">  1       -2 0.54381205E-02 0.89957498E+02</pdfrwt>
<totfact> 0.10879727E+05</totfact>
</mgrwt>
</event>
<event>
 5    1  0.6125604E+000  0.8483405E+02  0.7546771E-02  0.1315867E+00
          2   -1    0    0  501    0  0.00000000000E+00  0.00000000000E+00  0.15694407943E+03  0.15694407943E+03  0.00000000000E+00 0. -1.
         -2   -1    0    0    0  501 -0.00000000000E+00 -0.00000000000E+00 -0.11463982032E+02  0.11463982032E+02  0.00000000000E+00 0.  1.
         23    2    1    2    0    0  0.00000000000E+00  0.00000000000E+00  0.14548009740E+03  0.16840806146E+03  0.84834052283E+02 0.  0.
        -11    1    3    3    0    0  0.36310335673E+02 -0.14430457778E+02  0.10551154351E+03  0.11251384094E+03  0.00000000000E+00 0. -1.
         11    1    3    3    0    0 -0.36310335673E+02  0.14430457778E+02  0.39968553888E+02  0.55894220526E+02  0.00000000000E+00 0.  1.
<mgrwt>
<rscale>  0 0.84834052E+02</rscale>
<asrwt>0</asrwt>
<pdfrwt beam="1">  1        2 0.24145241E-01 0.84834052E+02</pdfrwt>
<pdfrwt beam="2">  1       -2 0.17636897E-02 0.84834052E+02</pdfrwt>
<totfact> 0.17245852E+05</totfact>
</mgrwt>
</event>
<event>
 5    1  0.6125604E+000  0.9029646E+02  0.7546771E-02  0.1302135E+00
         -1   -1    0    0    0  501 -0.00000000000E+00  0.00000000000E+00  0.28246991977E+02  0.28246991977E+02  0.00000000000E+00 0.  1.
          1   -1    0    0  501    0  0.00000000000E+00 -0.00000000000E+00 -0.72162109975E+02  0.72162109975E+02  0.00000000000E+00 0. -1.
         23    2    1    2    0    0  0.00000000000E+00  0.00000000000E+00 -0.43915117997E+02  0.10040910195E+03  0.90296457107E+02 0.  0.
        -11    1    3    3    0    0  0.19027570106E+02 -0.18415991442E+02  0.18705021275E+02  0.32420286640E+02  0.00000000000E+00 0.  1.
         11    1    3    3    0    0 -0.19027570106E+02  0.18415991442E+02 -0.62620139272E+02  0.67988815311E+02  0.00000000000E+00 0. -1.
<mgrwt>
<rscale>  0 0.90296457E+02</rscale>
<asrwt>0</asrwt>
<pdfrwt beam="2">  1        1 0.11101863E-01 0.90296457E+02</pdfrwt>
<pdfrwt beam="1">  1       -1 0.43456912E-02 0.90296457E+02</pdfrwt>
<totfact> 0.10181427E+05</totfact>
</mgrwt>
</event>
<event>
 5    1  0.6125604E+000  0.9083865E+02  0.7546771E-02  0.1300833E+00
         -1   -1    0    0    0  501 -0.00000000000E+00  0.00000000000E+00  0.69986529209E+01  0.69986529209E+01  0.00000000000E+00 0.  1.
          1   -1    0    0  501    0  0.00000000000E+00 -0.00000000000E+00 -0.29475888449E+03  0.29475888449E+03  0.00000000000E+00 0. -1.
         23    2    1    2    0    0  0.00000000000E+00  0.00000000000E+00 -0.28776023157E+03  0.30175753742E+03  0.90838650979E+02 0.  0.
        -11    1    3    3    0    0 -0.34262765289E+02 -0.21368375057E+02 -0.21295426169E+03  0.21674884570E+03  0.00000000000E+00 0. -1.
         11    1    3    3    0    0  0.34262765289E+02  0.21368375057E+02 -0.74805969879E+02  0.85008691717E+02  0.00000000000E+00 0.  1.
<mgrwt>
<rscale>  0 0.90838651E+02</rscale>
<asrwt>0</asrwt>
<pdfrwt beam="2">  1        1 0.45347516E-01 0.90838651E+02</pdfrwt>
<pdfrwt beam="1">  1       -1 0.10767159E-02 0.90838651E+02</pdfrwt>
<totfact> 0.12896164E+05</totfact>
</mgrwt>
</event>
<event>
 5    1  0.6125604E+000  0.8802814E+02  0.7546771E-02  0.1307698E+00
          2   -1    0    0  501    0  0.00000000000E+00  0.00000000000E+00  0.64670961150E+02  0.64670961150E+02  0.00000000000E+00 0. -1.
         -2   -1    0    0    0  501 -0.00000000000E+00 -0.00000000000E+00 -0.29955304788E+02  0.29955304788E+02  0.00000000000E+00 0.  1.
         23    2    1    2    0    0  0.00000000000E+00  0.00000000000E+00  0.34715656362E+02  0.94626265938E+02  0.88028139869E+02 0.  0.
        -11    1    3    3    0    0 -0.34864332411E+02  0.23233261541E+02  0.28585959374E+01  0.41993781528E+02  0.00000000000E+00 0.  1.
         11    1    3    3    0    0  0.34864332411E+02 -0.23233261541E+02  0.31857060425E+02  0.52632484410E+02  0.00000000000E+00 0. -1.
<mgrwt>
<rscale>  0 0.88028140E+02</rscale>
<asrwt>0</asrwt>
<pdfrwt beam="1">  1        2 0.99493786E-02 0.88028140E+02</pdfrwt>
<pdfrwt beam="2">  1       -2 0.46085084E-02 0.88028140E+02</pdfrwt>
<totfact> 0.11942601E+05</totfact>
</mgrwt>
</event>
<event>
 5    1  0.6125604E+000  0.9028979E+02  0.7546771E-02  0.1302151E+00
         -4   -1    0    0    0  501 -0.00000000000E+00  0.00000000000E+00  0.18022967551E+02  0.18022967551E+02  0.00000000000E+00 0.  1.
          4   -1    0    0  501    0  0.00000000000E+00 -0.00000000000E+00 -0.11308136115E+03  0.11308136115E+03  0.00000000000E+00 0. -1.
         23    2    1    2    0    0  0.00000000000E+00  0.00000000000E+00 -0.95058393597E+02  0.13110432870E+03  0.90289793500E+02 0.  0.
        -11    1    3    3    0    0  0.18364402456E+01  0.40221881257E+02 -0.77176748008E+02  0.87048392735E+02  0.00000000000E+00 0. -1.
         11    1    3    3    0    0 -0.18364402456E+01 -0.40221881257E+02 -0.17881645589E+02  0.44055935963E+02  0.00000000000E+00 0.  1.
<mgrwt>
<rscale>  0 0.90289793E+02</rscale>
<asrwt>0</asrwt>
<pdfrwt beam="2">  1        4 0.17397133E-01 0.90289793E+02</pdfrwt>
<pdfrwt beam="1">  1       -4 0.27727642E-02 0.90289793E+02</pdfrwt>
<totfact> 0.25315343E+04</totfact>
</mgrwt>
</event>
<event>
 5    1  0.6125604E+000  0.7369473E+02  0.7546771E-02  0.1347961E+00
          3   -1    0    0  501    0  0.00000000000E+00  0.00000000000E+00  0.81188589447E+02  0.81188589447E+02  0.00000000000E+00 0. -1.
         -3   -1    0    0    0  501 -0.00000000000E+00 -0.00000000000E+00 -0.16723141516E+02  0.16723141516E+02  0.00000000000E+00 0.  1.
         23    2    1    2    0    0  0.00000000000E+00  0.00000000000E+00  0.64465447931E+02  0.97911730962E+02  0.73694729005E+02 0.  0.
        -11    1    3    3    0    0  0.22058417535E+02 -0.59244777571E+01 -0.61835941927E+01  0.23662418684E+02  0.00000000000E+00 0.  1.
         11    1    3    3    0    0 -0.22058417535E+02  0.59244777571E+01  0.70649042124E+02  0.74249312279E+02  0.00000000000E+00 0. -1.
<mgrwt>
<rscale>  0 0.73694729E+02</rscale>
<asrwt>0</asrwt>
<pdfrwt beam="1">  1        3 0.12490552E-01 0.73694729E+02</pdfrwt>
<pdfrwt beam="2">  1       -3 0.25727911E-02 0.73694729E+02</pdfrwt>
<totfact> 0.61677631E+04</totfact>
</mgrwt>
</event>
<event>
 5    1  0.6125604E+000  0.9296376E+02  0.7546771E-02  0.1295829E+00
          1   -1    0    0  501    0  0.00000000000E+00  0.00000000000E+00  0.15873138139E+03  0.15873138139E+03  0.00000000000E+00 0. -1.
         -1   -1    0    0    0  501 -0.00000000000E+00 -0.00000000000E+00 -0.13611456237E+02  0.13611456237E+02  0.00000000000E+00 0.  1.
         23    2    1    2    0    0  0.00000000000E+00  0.00000000000E+00  0.14511992515E+03  0.17234283763E+03  0.92963761783E+02 0.  0.
        -11    1    3    3    0    0 -0.13457962313E+02  0.27291534442E+02  0.74201779404E+01  0.31320977675E+02  0.00000000000E+00 0.  1.
         11    1    3    3    0    0  0.13457962313E+02 -0.27291534442E+02  0.13769974721E+03  0.14102185995E+03  0.00000000000E+00 0. -1.
<mgrwt>
<rscale>  0 0.92963762E+02</rscale>
<asrwt>0</asrwt>
<pdfrwt beam="1">  1        1 0.24420211E-01 0.92963762E+02</pdfrwt>
<pdfrwt beam="2">  1       -1 0.20940703E-02 0.92963762E+02</pdfrwt>
<totfact> 0.10752777E+05</totfact>
</mgrwt>
</event>
<event>
 5    1  0.6125604E+000  0.9186736E+02  0.7546771E-02  0.1298392E+00
          4   -1    0    0  501    0  0.00000000000E+00  0.00000000000E+00  0.65620116002E+01  0.65620116002E+01  0.00000000000E+00 0. -1.
         -4   -1    0    0    0  501 -0.00000000000E+00 -0.00000000000E+00 -0.32153292368E+03  0.32153292368E+03  0.00000000000E+00 0.  1.
         23    2    1    2    0    0  0.00000000000E+00  0.00000000000E+00 -0.31497091208E+03  0.32809493528E+03  0.91867356009E+02 0.  0.
        -11    1    3    3    0    0 -0.38041104343E+02 -0.25704345427E+02 -0.15235483226E+03  0.15912207234E+03  0.00000000000E+00 0.  1.
         11    1    3    3    0    0  0.38041104343E+02  0.25704345427E+02 -0.16261607982E+03  0.16897286294E+03  0.00000000000E+00 0. -1.
<mgrwt>
<rscale>  0 0.91867356E+02</rscale>
<asrwt>0</asrwt>
<pdfrwt beam="1">  1        4 0.10095404E-02 0.91867356E+02</pdfrwt>
<pdfrwt beam="2">  1       -4 0.49466595E-01 0.91867356E+02</pdfrwt>
<totfact> 0.16658516E+04</totfact>
</mgrwt>
</event>
<event>
 5    1  0.6125604E+000  0.9589422E+02  0.7546771E-02  0.1289175E+00
         -1   -1    0    0    0  501 -0.00000000000E+00  0.00000000000E+00  0.34176507543E+02  0.34176507543E+02  0.00000000000E+00 0.  1.
          1   -1    0    0  501    0  0.00000000000E+00 -0.00000000000E+00 -0.67266252328E+02  0.67266252328E+02  0.00000000000E+00 0. -1.
         23    2    1    2    0    0  0.00000000000E+00  0.00000000000E+00 -0.33089744785E+02  0.10144275987E+03  0.95894224645E+02 0.  0.
        -11    1    3    3    0    0 -0.36642300348E+01  0.16078466316E+02  0.31082162173E+02  0.35185856053E+02  0.00000000000E+00 0.  1.
         11    1    3    3    0    0  0.36642300348E+01 -0.16078466316E+02 -0.64171906958E+02  0.66256903818E+02  0.00000000000E+00 0. -1.
<mgrwt>
<rscale>  0 0.95894225E+02</rscale>
<asrwt>0</asrwt>
<pdfrwt beam="2">  1        1 0.10348654E-01 0.95894225E+02</pdfrwt>
<pdfrwt beam="1">  1       -1 0.52579242E-02 0.95894225E+02</pdfrwt>
<totfact> 0.85256928E+04</totfact>
</mgrwt>
</event>
<event>
 5    1  0.6125604E+000  0.9420433E+02  0.7546771E-02  0.1292978E+00
         -2   -1    0    0    0  501 -0.00000000000E+00  0.00000000000E+00  0.15299459157E+02  0.15299459157E+02  0.00000000000E+00 0.  1.
          2   -1    0    0  501    0  0.00000000000E+00 -0.00000000000E+00 -0.14501257839E+03  0.14501257839E+03  0.00000000000E+00 0. -1.
         23    2    1    2    0    0  0.00000000000E+00  0.00000000000E+00 -0.12971311923E+03  0.16031203755E+03  0.94204331542E+02 0.  0.
        -11    1    3    3    0    0 -0.17349669584E+02  0.42394401005E+02 -0.83522939973E+02  0.95259528516E+02  0.00000000000E+00 0.  1.
         11    1    3    3    0    0  0.17349669584E+02 -0.42394401005E+02 -0.46190179258E+02  0.65052509030E+02  0.00000000000E+00 0. -1.
<mgrwt>
<rscale>  0 0.94204332E+02</rscale>
<asrwt>0</asrwt>
<pdfrwt beam="2">  1        2 0.22309626E-01 0.94204332E+02</pdfrwt>
<pdfrwt beam="1">  1       -2 0.23537631E-02 0.94204332E+02</pdfrwt>
<totfact> 0.12644591E+05</totfact>
</mgrwt>
</event>
<event>
 5    1  0.6125604E+000  0.8493601E+02  0.7546771E-02  0.1315600E+00
          4   -1    0    0  501    0  0.00000000000E+00  0.00000000000E+00  0.12148924571E+02  0.12148924571E+02  0.00000000000E+00 0. -1.
         -4   -1    0    0    0  501 -0.00000000000E+00 -0.00000000000E+00 -0.14845194312E+03  0.14845194312E+03  0.00000000000E+00 0.  1.
         23    2    1    2    0    0  0.00000000000E+00  0.00000000000E+00 -0.13630301855E+03  0.16060086769E+03  0.84936010252E+02 0.  0.
        -11    1    3    3    0    0 -0.32809777898E+02 -0.19044462232E+02 -0.10424429631E+03  0.11093262090E+03  0.00000000000E+00 0.  1.
         11    1    3    3    0    0  0.32809777898E+02  0.19044462232E+02 -0.32058722241E+02  0.49668246789E+02  0.00000000000E+00 0. -1.
<mgrwt>
<rscale>  0 0.84936010E+02</rscale>
<asrwt>0</asrwt>
<pdfrwt beam="1">  1        4 0.18690654E-02 0.84936010E+02</pdfrwt>
<pdfrwt beam="2">  1       -4 0.22838760E-01 0.84936010E+02</pdfrwt>
<totfact> 0.27977751E+04</totfact>
</mgrwt>
</event>
<event>
 5    1  0.6125604E+000  0.6439552E+02  0.7546771E-02  0.1380260E+00
         -1   -1    0    0    0  501 -0.00000000000E+00  0.00000000000E+00  0.31147779825E+02  0.31147779825E+02  0.00000000000E+00 0.  1.
          1   -1    0    0  501    0  0.00000000000E+00 -0.00000000000E+00 -0.33283136775E+02  0.33283136775E+02  0.00000000000E+00 0. -1.
         23    2    1    2    0    0  0.00000000000E+00  0.00000000000E+00 -0.21353569500E+01  0.64430916601E+02  0.64395522086E+02 0.  0.
        -11    1    3    3    0    0 -0.20511692673E+02  0.77171111866E+01  0.22533683748E+02  0.31433266528E+02  0.00000000000E+00 0.  1.
         11    1    3    3    0    0  0.20511692673E+02 -0.77171111866E+01 -0.24669040698E+02  0.32997650073E+02  0.00000000000E+00 0. -1.
<mgrwt>
<rscale>  0 0.64395522E+02</rscale>
<asrwt>0</asrwt>
<pdfrwt beam="2">  1        1 0.51204825E-02 0.64395522E+02</pdfrwt>
<pdfrwt beam="1">  1       -1 0.47919662E-02 0.64395522E+02</pdfrwt>
<totfact> 0.23059840E+05</totfact>
</mgrwt>
</event>
<event>
 5    1  0.6125604E+000  0.9286963E+02  0.7546771E-02  0.1296048E+00
          2   -1    0    0  501    0  0.00000000000E+00  0.00000000000E+00  0.17631930800E+03  0.17631930800E+03  0.00000000000E+00 0. -1.
         -2   -1    0    0    0  501 -0.00000000000E+00 -0.00000000000E+00 -0.12228903839E+02  0.12228903839E+02  0.00000000000E+00 0.  1.
         23    2    1    2    0    0  0.00000000000E+00  0.00000000000E+00  0.16409040416E+03  0.18854821183E+03  0.92869626086E+02 0.  0.
        -11    1    3    3    0    0  0.31018981833E+02  0.17420032221E+02  0.21458179908E+02  0.41546218137E+02  0.00000000000E+00 0.  1.
         11    1    3    3    0    0 -0.31018981833E+02 -0.17420032221E+02  0.14263222425E+03  0.14700199370E+03  0.00000000000E+00 0. -1.
<mgrwt>
<rscale>  0 0.92869626E+02</rscale>
<asrwt>0</asrwt>
<pdfrwt beam="1">  1        2 0.27126046E-01 0.92869626E+02</pdfrwt>
<pdfrwt beam="2">  1       -2 0.18813699E-02 0.92869626E+02</pdfrwt>
<totfact> 0.14067923E+05</totfact>
</mgrwt>
</event>
<event>
 4    1  0.6125604E+000  0.1511340E+03  0.7546771E-02  0.1199086E+00
          1   -1    0    0  501    0  0.00000000000E+00  0.00000000000E+00  0.36841267916E+03  0.36841267916E+03  0.00000000000E+00 0. -1.
         -1   -1    0    0    0  501 -0.00000000000E+00 -0.00000000000E+00 -0.15499926235E+02  0.15499926235E+02  0.00000000000E+00 0.  1.
        -11    1    1    2    0    0 -0.50706770669E+02  0.41882703135E+02  0.27099301816E+03  0.27885937909E+03  0.00000000000E+00 0.  1.
         11    1    1    2    0    0  0.50706770669E+02 -0.41882703135E+02  0.81919734764E+02  0.10505322631E+03  0.00000000000E+00 0. -1.
<mgrwt>
<rscale>  0 0.15113397E+03</rscale>
<asrwt>0</asrwt>
<pdfrwt beam="1">  1        1 0.56678867E-01 0.15113397E+03</pdfrwt>
<pdfrwt beam="2">  1       -1 0.23846043E-02 0.15113397E+03</pdfrwt>
<totfact> 0.33500157E+04</totfact>
</mgrwt>
</event>
<event>
 5    1  0.6125604E+000  0.9191236E+02  0.7546771E-02  0.1298286E+00
         -2   -1    0    0    0  501 -0.00000000000E+00  0.00000000000E+00  0.20588547991E+02  0.20588547991E+02  0.00000000000E+00 0.  1.
          2   -1    0    0  501    0  0.00000000000E+00 -0.00000000000E+00 -0.10257987147E+03  0.10257987147E+03  0.00000000000E+00 0. -1.
         23    2    1    2    0    0  0.00000000000E+00  0.00000000000E+00 -0.81991323477E+02  0.12316841946E+03  0.91912362752E+02 0.  0.
        -11    1    3    3    0    0  0.14718976113E+01  0.24008056315E+02  0.11479722253E+02  0.26652153264E+02  0.00000000000E+00 0.  1.
         11    1    3    3    0    0 -0.14718976113E+01 -0.24008056315E+02 -0.93471045729E+02  0.96516266196E+02  0.00000000000E+00 0. -1.
<mgrwt>
<rscale>  0 0.91912363E+02</rscale>
<asrwt>0</asrwt>
<pdfrwt beam="2">  1        2 0.15781519E-01 0.91912363E+02</pdfrwt>
<pdfrwt beam="1">  1       -2 0.31674688E-02 0.91912363E+02</pdfrwt>
<totfact> 0.12092877E+05</totfact>
</mgrwt>
</event>
<event>
 5    1  0.6125604E+000  0.9034881E+02  0.7546771E-02  0.1302009E+00
         -4   -1    0    0    0  501 -0.00000000000E+00  0.00000000000E+00  0.10367040622E+03  0.10367040622E+03  0.00000000000E+00 0. -1.
          4   -1    0    0  501    0  0.00000000000E+00 -0.00000000000E+00 -0.19684758567E+02  0.19684758567E+02  0.00000000000E+00 0.  1.
         23    2    1    2    0    0  0.00000000000E+00  0.00000000000E+00  0.83985647650E+02  0.12335516478E+03  0.90348811101E+02 0.  0.
        -11    1    3    3    0    0  0.42454730752E+02  0.10165240138E+02  0.26129772313E+02  0.50877315882E+02  0.00000000000E+00 0.  1.
         11    1    3    3    0    0 -0.42454730752E+02 -0.10165240138E+02  0.57855875337E+02  0.72477848901E+02  0.00000000000E+00 0. -1.
<mgrwt>
<rscale>  0 0.90348811E+02</rscale>
<asrwt>0</asrwt>
<pdfrwt beam="2">  1        4 0.30284245E-02 0.90348811E+02</pdfrwt>
<pdfrwt beam="1">  1       -4 0.15949293E-01 0.90348811E+02</pdfrwt>
<totfact> 0.25708267E+04</totfact>
</mgrwt>
</event>
<event>
 5    1  0.6125604E+000  0.9050346E+02  0.7546771E-02  0.1301637E+00
          2   -1    0    0  501    0  0.00000000000E+00  0.00000000000E+00  0.71520667294E+02  0.71520667294E+02  0.00000000000E+00 0. -1.
         -2   -1    0    0    0  501 -0.00000000000E+00 -0.00000000000E+00 -0.28631151925E+02  0.28631151925E+02  0.00000000000E+00 0.  1.
         23    2    1    2    0    0  0.00000000000E+00  0.00000000000E+00  0.42889515369E+02  0.10015181922E+03  0.90503460511E+02 0.  0.
        -11    1    3    3    0    0  0.24794101209E+02  0.26575127061E+02 -0.83871807300E+01  0.37300531278E+02  0.00000000000E+00 0.  1.
         11    1    3    3    0    0 -0.24794101209E+02 -0.26575127061E+02  0.51276696099E+02  0.62851287941E+02  0.00000000000E+00 0. -1.
<mgrwt>
<rscale>  0 0.90503461E+02</rscale>
<asrwt>0</asrwt>
<pdfrwt beam="1">  1        2 0.11003180E-01 0.90503461E+02</pdfrwt>
<pdfrwt beam="2">  1       -2 0.44047926E-02 0.90503461E+02</pdfrwt>
<totfact> 0.11360834E+05</totfact>
</mgrwt>
</event>
<event>
 5    1  0.6125604E+000  0.9263461E+02  0.7546771E-02  0.1296594E+00
         -1   -1    0    0    0  501 -0.00000000000E+00  0.00000000000E+00  0.41236303118E+02  0.41236303118E+02  0.00000000000E+00 0.  1.
          1   -1    0    0  501    0  0.00000000000E+00 -0.00000000000E+00 -0.52024368963E+02  0.52024368963E+02  0.00000000000E+00 0. -1.
         23    2    1    2    0    0  0.00000000000E+00  0.00000000000E+00 -0.10788065845E+02  0.93260672081E+02  0.92634607962E+02 0.  0.
        -11    1    3    3    0    0  0.20595656199E+02 -0.40321128389E+02  0.44350542654E+01  0.45493341878E+02  0.00000000000E+00 0. -1.
         11    1    3    3    0    0 -0.20595656199E+02  0.40321128389E+02 -0.15223120110E+02  0.47767330203E+02  0.00000000000E+00 0.  1.
<mgrwt>
<rscale>  0 0.92634608E+02</rscale>
<asrwt>0</asrwt>
<pdfrwt beam="2">  1        1 0.80037491E-02 0.92634608E+02</pdfrwt>
<pdfrwt beam="1">  1       -1 0.63440466E-02 0.92634608E+02</pdfrwt>
<totfact> 0.90231516E+04</totfact>
</mgrwt>
</event>
<event>
 5    1  0.6125604E+000  0.1109191E+03  0.7546771E-02  0.1258877E+00
         -1   -1    0    0    0  501 -0.00000000000E+00  0.00000000000E+00  0.99151687913E+02  0.99151687913E+02  0.00000000000E+00 0.  1.
          1   -1    0    0  501    0  0.00000000000E+00 -0.00000000000E+00 -0.31020792431E+02  0.31020792431E+02  0.00000000000E+00 0. -1.
         23    2    1    2    0    0  0.00000000000E+00  0.00000000000E+00  0.68130895483E+02  0.13017248034E+03  0.11091914046E+03 0.  0.
        -11    1    3    3    0    0  0.11258052885E+01 -0.45438966868E+02  0.71358649943E+02  0.84605106638E+02  0.00000000000E+00 0.  1.
         11    1    3    3    0    0 -0.11258052885E+01  0.45438966868E+02 -0.32277544599E+01  0.45567373706E+02  0.00000000000E+00 0. -1.
<mgrwt>
<rscale>  0 0.11091914E+03</rscale>
<asrwt>0</asrwt>
<pdfrwt beam="2">  1        1 0.47724296E-02 0.11091914E+03</pdfrwt>
<pdfrwt beam="1">  1       -1 0.15254106E-01 0.11091914E+03</pdfrwt>
<totfact> 0.49136085E+04</totfact>
</mgrwt>
</event>
<event>
 5    1  0.6125604E+000  0.9490127E+02  0.7546771E-02  0.1291399E+00
          3   -1    0    0  501    0  0.00000000000E+00  0.00000000000E+00  0.89193560597E+02  0.89193560597E+02  0.00000000000E+00 0. -1.
         -3   -1    0    0    0  501 -0.00000000000E+00 -0.00000000000E+00 -0.25243556823E+02  0.25243556823E+02  0.00000000000E+00 0.  1.
         23    2    1    2    0    0  0.00000000000E+00  0.00000000000E+00  0.63950003774E+02  0.11443711742E+03  0.94901269015E+02 0.  0.
        -11    1    3    3    0    0  0.30267489689E+02  0.31095552573E+02  0.88267296187E+01  0.44282789859E+02  0.00000000000E+00 0.  1.
         11    1    3    3    0    0 -0.30267489689E+02 -0.31095552573E+02  0.55123274156E+02  0.70154327561E+02  0.00000000000E+00 0. -1.
<mgrwt>
<rscale>  0 0.94901269E+02</rscale>
<asrwt>0</asrwt>
<pdfrwt beam="1">  1        3 0.13722086E-01 0.94901269E+02</pdfrwt>
<pdfrwt beam="2">  1       -3 0.38836242E-02 0.94901269E+02</pdfrwt>
<totfact> 0.30152132E+04</totfact>
</mgrwt>
</event>
<event>
 5    1  0.6125604E+000  0.9043175E+02  0.7546771E-02  0.1301810E+00
         -2   -1    0    0    0  501 -0.00000000000E+00  0.00000000000E+00  0.17929686300E+02  0.17929686300E+02  0.00000000000E+00 0. -1.
          2   -1    0    0  501    0  0.00000000000E+00 -0.00000000000E+00 -0.11402739483E+03  0.11402739483E+03  0.00000000000E+00 0.  1.
         23    2    1    2    0    0  0.00000000000E+00  0.00000000000E+00 -0.96097708529E+02  0.13195708113E+03  0.90431751478E+02 0.  0.
        -11    1    3    3    0    0 -0.16249541862E+02  0.31644722404E+02 -0.73210069271E+01  0.36318496791E+02  0.00000000000E+00 0. -1.
         11    1    3    3    0    0  0.16249541862E+02 -0.31644722404E+02 -0.88776701601E+02  0.95638584337E+02  0.00000000000E+00 0.  1.
<mgrwt>
<rscale>  0 0.90431751E+02</rscale>
<asrwt>0</asrwt>
<pdfrwt beam="2">  1        2 0.17542676E-01 0.90431751E+02</pdfrwt>
<pdfrwt beam="1">  1       -2 0.27584133E-02 0.90431751E+02</pdfrwt>
<totfact> 0.13067385E+05</totfact>
</mgrwt>
</event>
<event>
 5    1  0.6125604E+000  0.9238302E+02  0.7546771E-02  0.1297181E+00
         -1   -1    0    0    0  501 -0.00000000000E+00  0.00000000000E+00  0.66681878430E+01  0.66681878430E+01  0.00000000000E+00 0.  1.
          1   -1    0    0  501    0  0.00000000000E+00 -0.00000000000E+00 -0.31997531585E+03  0.31997531585E+03  0.00000000000E+00 0. -1.
         23    2    1    2    0    0  0.00000000000E+00  0.00000000000E+00 -0.31330712800E+03  0.32664350369E+03  0.92383018162E+02 0.  0.
        -11    1    3    3    0    0  0.38712238321E+02  0.24624299017E+02 -0.13772423474E+03  0.14516527936E+03  0.00000000000E+00 0.  1.
         11    1    3    3    0    0 -0.38712238321E+02 -0.24624299017E+02 -0.17558289326E+03  0.18147822433E+03  0.00000000000E+00 0. -1.
<mgrwt>
<rscale>  0 0.92383018E+02</rscale>
<asrwt>0</asrwt>
<pdfrwt beam="2">  1        1 0.49226968E-01 0.92383018E+02</pdfrwt>
<pdfrwt beam="1">  1       -1 0.10258751E-02 0.92383018E+02</pdfrwt>
<totfact> 0.12522475E+05</totfact>
</mgrwt>
</event>
<event>
 5    1  0.6125604E+000  0.9163534E+02  0.7546771E-02  0.1298939E+00
         -1   -1    0    0    0  501 -0.00000000000E+00  0.00000000000E+00  0.49393345991E+02  0.49393345991E+02  0.00000000000E+00 0.  1.
          1   -1    0    0  501    0  0.00000000000E+00 -0.00000000000E+00 -0.42500845746E+02  0.42500845746E+02  0.00000000000E+00 0. -1.
         23    2    1    2    0    0  0.00000000000E+00  0.00000000000E+00  0.68925002451E+01  0.91894191736E+02  0.91635342064E+02 0.  0.
        -11    1    3    3    0    0  0.41820494459E+02 -0.91677986471E+01 -0.12917216735E+02  0.44719758240E+02  0.00000000000E+00 0.  1.
         11    1    3    3    0    0 -0.41820494459E+02  0.91677986471E+01  0.19809716980E+02  0.47174433496E+02  0.00000000000E+00 0. -1.
<mgrwt>
<rscale>  0 0.91635342E+02</rscale>
<asrwt>0</asrwt>
<pdfrwt beam="2">  1        1 0.65385917E-02 0.91635342E+02</pdfrwt>
<pdfrwt beam="1">  1       -1 0.75989763E-02 0.91635342E+02</pdfrwt>
<totfact> 0.90215044E+04</totfact>
</mgrwt>
</event>
<event>
 5    1  0.6125604E+000  0.8677873E+02  0.7546771E-02  0.1310845E+00
          2   -1    0    0  501    0  0.00000000000E+00  0.00000000000E+00  0.16912849324E+02  0.16912849324E+02  0.00000000000E+00 0. -1.
         -2   -1    0    0    0  501 -0.00000000000E+00 -0.00000000000E+00 -0.11131401376E+03  0.11131401376E+03  0.00000000000E+00 0.  1.
         23    2    1    2    0    0  0.00000000000E+00  0.00000000000E+00 -0.94401164436E+02  0.12822686308E+03  0.86778733394E+02 0.  0.
        -11    1    3    3    0    0  0.11548361232E+02 -0.28519693664E+02 -0.19962212223E+01  0.30833787847E+02  0.00000000000E+00 0. -1.
         11    1    3    3    0    0 -0.11548361232E+02  0.28519693664E+02 -0.92404943213E+02  0.97393075237E+02  0.00000000000E+00 0.  1.
<mgrwt>
<rscale>  0 0.86778733E+02</rscale>
<asrwt>0</asrwt>
<pdfrwt beam="1">  1        2 0.26019768E-02 0.86778733E+02</pdfrwt>
<pdfrwt beam="2">  1       -2 0.17125233E-01 0.86778733E+02</pdfrwt>
<totfact> 0.87398114E+04</totfact>
</mgrwt>
</event>
<event>
 4    1  0.6125604E+000  0.3675721E+02  0.7546771E-02  0.1533528E+00
         -1   -1    0    0    0  501 -0.00000000000E+00  0.00000000000E+00  0.61912864166E+02  0.61912864166E+02  0.00000000000E+00 0.  1.
          1   -1    0    0  501    0  0.00000000000E+00 -0.00000000000E+00 -0.54556197684E+01  0.54556197684E+01  0.00000000000E+00 0. -1.
        -11    1    1    2    0    0  0.14133729333E+02 -0.95703873067E+01  0.40715661996E+02  0.44148836336E+02  0.00000000000E+00 0.  1.
         11    1    1    2    0    0 -0.14133729333E+02  0.95703873067E+01  0.15741582402E+02  0.23219647598E+02  0.00000000000E+00 0. -1.
<mgrwt>
<rscale>  0 0.36757206E+02</rscale>
<asrwt>0</asrwt>
<pdfrwt beam="2">  1        1 0.83932616E-03 0.36757206E+02</pdfrwt>
<pdfrwt beam="1">  1       -1 0.95250555E-02 0.36757206E+02</pdfrwt>
<totfact> 0.84163439E+05</totfact>
</mgrwt>
</event>
<event>
 5    1  0.6125604E+000  0.8898643E+02  0.7546771E-02  0.1305325E+00
          2   -1    0    0  501    0  0.00000000000E+00  0.00000000000E+00  0.39242616496E+02  0.39242616496E+02  0.00000000000E+00 0. -1.
         -2   -1    0    0    0  501 -0.00000000000E+00 -0.00000000000E+00 -0.50446330346E+02  0.50446330346E+02  0.00000000000E+00 0.  1.
         23    2    1    2    0    0  0.00000000000E+00  0.00000000000E+00 -0.11203713851E+02  0.89688946842E+02  0.88986425828E+02 0.  0.
        -11    1    3    3    0    0  0.14040507364E+02 -0.41097803237E+02  0.41430159800E+01  0.43627168821E+02  0.00000000000E+00 0. -1.
         11    1    3    3    0    0 -0.14040507364E+02  0.41097803237E+02 -0.15346729831E+02  0.46061778021E+02  0.00000000000E+00 0.  1.
<mgrwt>
<rscale>  0 0.88986426E+02</rscale>
<asrwt>0</asrwt>
<pdfrwt beam="1">  1        2 0.60373256E-02 0.88986426E+02</pdfrwt>
<pdfrwt beam="2">  1       -2 0.77609739E-02 0.88986426E+02</pdfrwt>
<totfact> 0.10182996E+05</totfact>
</mgrwt>
</event>
<event>
 5    1  0.6125604E+000  0.9037558E+02  0.7546771E-02  0.1301945E+00
          3   -1    0    0  501    0  0.00000000000E+00  0.00000000000E+00  0.94242010597E+02  0.94242010597E+02  0.00000000000E+00 0. -1.
         -3   -1    0    0    0  501 -0.00000000000E+00 -0.00000000000E+00 -0.21666941827E+02  0.21666941827E+02  0.00000000000E+00 0.  1.
         23    2    1    2    0    0  0.00000000000E+00  0.00000000000E+00  0.72575068771E+02  0.11590895242E+03  0.90375575489E+02 0.  0.
        -11    1    3    3    0    0  0.14028938612E+02 -0.16255430290E+02  0.87281194578E+02  0.89883575026E+02  0.00000000000E+00 0. -1.
         11    1    3    3    0    0 -0.14028938612E+02  0.16255430290E+02 -0.14706125807E+02  0.26025377399E+02  0.00000000000E+00 0.  1.
<mgrwt>
<rscale>  0 0.90375575E+02</rscale>
<asrwt>0</asrwt>
<pdfrwt beam="1">  1        3 0.14498771E-01 0.90375575E+02</pdfrwt>
<pdfrwt beam="2">  1       -3 0.33333757E-02 0.90375575E+02</pdfrwt>
<totfact> 0.34340856E+04</totfact>
</mgrwt>
</event>
<event>
 5    1  0.6125604E+000  0.9112563E+02  0.7546771E-02  0.1300149E+00
         -1   -1    0    0    0  501 -0.00000000000E+00  0.00000000000E+00  0.61943533299E+01  0.61943533299E+01  0.00000000000E+00 0.  1.
          1   -1    0    0  501    0  0.00000000000E+00 -0.00000000000E+00 -0.33513909339E+03  0.33513909339E+03  0.00000000000E+00 0. -1.
         23    2    1    2    0    0  0.00000000000E+00  0.00000000000E+00 -0.32894474006E+03  0.34133344672E+03  0.91125626672E+02 0.  0.
        -11    1    3    3    0    0  0.39992905724E+02  0.17790125489E+02 -0.11708477745E+03  0.12499906473E+03  0.00000000000E+00 0.  1.
         11    1    3    3    0    0 -0.39992905724E+02 -0.17790125489E+02 -0.21185996261E+03  0.21633438199E+03  0.00000000000E+00 0. -1.
<mgrwt>
<rscale>  0 0.91125627E+02</rscale>
<asrwt>0</asrwt>
<pdfrwt beam="2">  1        1 0.51559860E-01 0.91125627E+02</pdfrwt>
<pdfrwt beam="1">  1       -1 0.95297744E-03 0.91125627E+02</pdfrwt>
<totfact> 0.13099899E+05</totfact>
</mgrwt>
</event>
<event>
 5    1  0.6125604E+000  0.8819062E+02  0.7546771E-02  0.1307293E+00
         -3   -1    0    0    0  501 -0.00000000000E+00  0.00000000000E+00  0.87737755243E+02  0.87737755243E+02  0.00000000000E+00 0.  1.
          3   -1    0    0  501    0  0.00000000000E+00 -0.00000000000E+00 -0.22161456743E+02  0.22161456743E+02  0.00000000000E+00 0. -1.
         23    2    1    2    0    0  0.00000000000E+00  0.00000000000E+00  0.65576298500E+02  0.10989921199E+03  0.88190622349E+02 0.  0.
        -11    1    3    3    0    0 -0.55845303560E+01  0.34619453410E+02 -0.52647762158E+00  0.35070938288E+02  0.00000000000E+00 0. -1.
         11    1    3    3    0    0  0.55845303560E+01 -0.34619453410E+02  0.66102776122E+02  0.74828273699E+02  0.00000000000E+00 0.  1.
<mgrwt>
<rscale>  0 0.88190622E+02</rscale>
<asrwt>0</asrwt>
<pdfrwt beam="2">  1        3 0.34094549E-02 0.88190622E+02</pdfrwt>
<pdfrwt beam="1">  1       -3 0.13498116E-01 0.88190622E+02</pdfrwt>
<totfact> 0.37159109E+04</totfact>
</mgrwt>
</event>
<event>
 5    1  0.6125604E+000  0.9081900E+02  0.7546771E-02  0.1300880E+00
          2   -1    0    0  501    0  0.00000000000E+00  0.00000000000E+00  0.32404196241E+02  0.32404196241E+02  0.00000000000E+00 0. -1.
         -2   -1    0    0    0  501 -0.00000000000E+00 -0.00000000000E+00 -0.63634434866E+02  0.63634434866E+02  0.00000000000E+00 0.  1.
         23    2    1    2    0    0  0.00000000000E+00  0.00000000000E+00 -0.31230238625E+02  0.96038631107E+02  0.90819000547E+02 0.  0.
        -11    1    3    3    0    0  0.37020140717E+02  0.18852213468E+02  0.37723114681E+01  0.41714830758E+02  0.00000000000E+00 0. -1.
         11    1    3    3    0    0 -0.37020140717E+02 -0.18852213468E+02 -0.35002550093E+02  0.54323800349E+02  0.00000000000E+00 0.  1.
<mgrwt>
<rscale>  0 0.90819001E+02</rscale>
<asrwt>0</asrwt>
<pdfrwt beam="1">  1        2 0.49852610E-02 0.90819001E+02</pdfrwt>
<pdfrwt beam="2">  1       -2 0.97899129E-02 0.90819001E+02</pdfrwt>
<totfact> 0.91345522E+04</totfact>
</mgrwt>
</event>
<event>
 5    1  0.6125604E+000  0.9213129E+02  0.7546771E-02  0.1297771E+00
          1   -1    0    0  501    0  0.00000000000E+00  0.00000000000E+00  0.78932134302E+01  0.78932134302E+01  0.00000000000E+00 0. -1.
         -1   -1    0    0    0  501 -0.00000000000E+00 -0.00000000000E+00 -0.26884405820E+03  0.26884405820E+03  0.00000000000E+00 0.  1.
         23    2    1    2    0    0  0.00000000000E+00  0.00000000000E+00 -0.26095084477E+03  0.27673727163E+03  0.92131287429E+02 0.  0.
        -11    1    3    3    0    0 -0.36966032822E+02 -0.23084118198E+01 -0.21274834267E+03  0.21594831247E+03  0.00000000000E+00 0.  1.
         11    1    3    3    0    0  0.36966032822E+02  0.23084118198E+01 -0.48202502101E+02  0.60788959166E+02  0.00000000000E+00 0. -1.
<mgrwt>
<rscale>  0 0.92131287E+02</rscale>
<asrwt>0</asrwt>
<pdfrwt beam="1">  1        1 0.12143407E-02 0.92131287E+02</pdfrwt>
<pdfrwt beam="2">  1       -1 0.41360620E-01 0.92131287E+02</pdfrwt>
<totfact> 0.61444017E+04</totfact>
</mgrwt>
</event>
<event>
 5    1  0.6125604E+000  0.9480348E+02  0.7546771E-02  0.1291619E+00
          2   -1    0    0  501    0  0.00000000000E+00  0.00000000000E+00  0.29552821167E+03  0.29552821167E+03  0.00000000000E+00 0.  1.
         -2   -1    0    0    0  501 -0.00000000000E+00 -0.00000000000E+00 -0.76030816432E+01  0.76030816432E+01  0.00000000000E+00 0. -1.
         23    2    1    2    0    0  0.00000000000E+00  0.00000000000E+00  0.28792513003E+03  0.30313129331E+03  0.94803483506E+02 0.  0.
        -11    1    3    3    0    0 -0.36829370755E+02 -0.16306883969E+02  0.22387424943E+03  0.22746867163E+03  0.00000000000E+00 0.  1.
         11    1    3    3    0    0  0.36829370755E+02  0.16306883969E+02  0.64050880602E+02  0.75662621689E+02  0.00000000000E+00 0. -1.
<mgrwt>
<rscale>  0 0.94803484E+02</rscale>
<asrwt>0</asrwt>
<pdfrwt beam="1">  1        2 0.45465870E-01 0.94803484E+02</pdfrwt>
<pdfrwt beam="2">  1       -2 0.11697051E-02 0.94803484E+02</pdfrwt>
<totfact> 0.16094830E+05</totfact>
</mgrwt>
</event>
<event>
 5    1  0.6125604E+000  0.9226370E+02  0.7546771E-02  0.1297461E+00
         -1   -1    0    0    0  501 -0.00000000000E+00  0.00000000000E+00  0.80577374449E+02  0.80577374449E+02  0.00000000000E+00 0.  1.
          1   -1    0    0  501    0  0.00000000000E+00 -0.00000000000E+00 -0.26411230903E+02  0.26411230903E+02  0.00000000000E+00 0. -1.
         23    2    1    2    0    0  0.00000000000E+00  0.00000000000E+00  0.54166143546E+02  0.10698860535E+03  0.92263701252E+02 0.  0.
        -11    1    3    3    0    0  0.30377621129E+02  0.11768621074E+02  0.64958520936E+02  0.72669868237E+02  0.00000000000E+00 0.  1.
         11    1    3    3    0    0 -0.30377621129E+02 -0.11768621074E+02 -0.10792377390E+02  0.34318737115E+02  0.00000000000E+00 0. -1.
<mgrwt>
<rscale>  0 0.92263701E+02</rscale>
<asrwt>0</asrwt>
<pdfrwt beam="2">  1        1 0.40632663E-02 0.92263701E+02</pdfrwt>
<pdfrwt beam="1">  1       -1 0.12396519E-01 0.92263701E+02</pdfrwt>
<totfact> 0.82018068E+04</totfact>
</mgrwt>
</event>
<event>
 5    1  0.6125604E+000  0.9171531E+02  0.7546771E-02  0.1298750E+00
          1   -1    0    0  501    0  0.00000000000E+00  0.00000000000E+00  0.11272458734E+03  0.11272458734E+03  0.00000000000E+00 0. -1.
         -1   -1    0    0    0  501 -0.00000000000E+00 -0.00000000000E+00 -0.18655419147E+02  0.18655419147E+02  0.00000000000E+00 0.  1.
         23    2    1    2    0    0  0.00000000000E+00  0.00000000000E+00  0.94069168190E+02  0.13138000648E+03  0.91715307882E+02 0.  0.
        -11    1    3    3    0    0 -0.33043420066E+02  0.25179967044E+01  0.16290049287E+01  0.33179234080E+02  0.00000000000E+00 0.  1.
         11    1    3    3    0    0  0.33043420066E+02 -0.25179967044E+01  0.92440163261E+02  0.98200772405E+02  0.00000000000E+00 0. -1.
<mgrwt>
<rscale>  0 0.91715308E+02</rscale>
<asrwt>0</asrwt>
<pdfrwt beam="1">  1        1 0.17342244E-01 0.91715308E+02</pdfrwt>
<pdfrwt beam="2">  1       -1 0.28700646E-02 0.91715308E+02</pdfrwt>
<totfact> 0.10488993E+05</totfact>
</mgrwt>
</event>
<event>
 5    1  0.6125604E+000  0.9501771E+02  0.7546771E-02  0.1291136E+00
         -1   -1    0    0    0  501 -0.00000000000E+00  0.00000000000E+00  0.41951120365E+02  0.41951120365E+02  0.00000000000E+00 0.  1.
          1   -1    0    0  501    0  0.00000000000E+00 -0.00000000000E+00 -0.53802885964E+02  0.53802885964E+02  0.00000000000E+00 0. -1.
         23    2    1    2    0    0  0.00000000000E+00  0.00000000000E+00 -0.11851765599E+02  0.95754006330E+02  0.95017710877E+02 0.  0.
        -11    1    3    3    0    0 -0.20397364960E+02 -0.10772012679E+02 -0.47780875088E+02  0.53057523299E+02  0.00000000000E+00 0. -1.
         11    1    3    3    0    0  0.20397364960E+02  0.10772012679E+02  0.35929109489E+02  0.42696483030E+02  0.00000000000E+00 0.  1.
<mgrwt>
<rscale>  0 0.95017711E+02</rscale>
<asrwt>0</asrwt>
<pdfrwt beam="2">  1        1 0.82773670E-02 0.95017711E+02</pdfrwt>
<pdfrwt beam="1">  1       -1 0.64540186E-02 0.95017711E+02</pdfrwt>
<totfact> 0.84465352E+04</totfact>
</mgrwt>
</event>
<event>
 5    1  0.6125604E+000  0.9153442E+02  0.7546771E-02  0.1299178E+00
         -1   -1    0    0    0  501 -0.00000000000E+00  0.00000000000E+00  0.13543915746E+03  0.13543915746E+03  0.00000000000E+00 0.  1.
          1   -1    0    0  501    0  0.00000000000E+00 -0.00000000000E+00 -0.15465524576E+02  0.15465524576E+02  0.00000000000E+00 0. -1.
         23    2    1    2    0    0  0.00000000000E+00  0.00000000000E+00  0.11997363289E+03  0.15090468204E+03  0.91534422340E+02 0.  0.
        -11    1    3    3    0    0  0.37739561530E+01  0.38093523847E+02  0.10134292363E+03  0.10833165500E+03  0.00000000000E+00 0. -1.
         11    1    3    3    0    0 -0.37739561530E+01 -0.38093523847E+02  0.18630709254E+02  0.42573027041E+02  0.00000000000E+00 0.  1.
<mgrwt>
<rscale>  0 0.91534422E+02</rscale>
<asrwt>0</asrwt>
<pdfrwt beam="2">  1        1 0.23793116E-02 0.91534422E+02</pdfrwt>
<pdfrwt beam="1">  1       -1 0.20836793E-01 0.91534422E+02</pdfrwt>
<totfact> 0.75767561E+04</totfact>
</mgrwt>
</event>
<event>
 5    1  0.6125604E+000  0.9065133E+02  0.7546771E-02  0.1301282E+00
         -1   -1    0    0    0  501 -0.00000000000E+00  0.00000000000E+00  0.13362948347E+03  0.13362948347E+03  0.00000000000E+00 0.  1.
          1   -1    0    0  501    0  0.00000000000E+00 -0.00000000000E+00 -0.15373970119E+02  0.15373970119E+02  0.00000000000E+00 0. -1.
         23    2    1    2    0    0  0.00000000000E+00  0.00000000000E+00  0.11825551336E+03  0.14900345359E+03  0.90651325108E+02 0.  0.
        -11    1    3    3    0    0  0.35773861284E+02  0.11098287660E+02  0.10108151805E+03  0.10779802610E+03  0.00000000000E+00 0.  1.
         11    1    3    3    0    0 -0.35773861284E+02 -0.11098287660E+02  0.17173995310E+02  0.41205427496E+02  0.00000000000E+00 0. -1.
<mgrwt>
<rscale>  0 0.90651325E+02</rscale>
<asrwt>0</asrwt>
<pdfrwt beam="2">  1        1 0.23652263E-02 0.90651325E+02</pdfrwt>
<pdfrwt beam="1">  1       -1 0.20558381E-01 0.90651325E+02</pdfrwt>
<totfact> 0.77923858E+04</totfact>
</mgrwt>
</event>
<event>
 5    1  0.6125604E+000  0.8811097E+02  0.7546771E-02  0.1307492E+00
         -3   -1    0    0    0  501 -0.00000000000E+00  0.00000000000E+00  0.19028971562E+03  0.19028971562E+03  0.00000000000E+00 0.  1.
          3   -1    0    0  501    0  0.00000000000E+00 -0.00000000000E+00 -0.10199634918E+02  0.10199634918E+02  0.00000000000E+00 0. -1.
         23    2    1    2    0    0  0.00000000000E+00  0.00000000000E+00  0.18009008070E+03  0.20048935053E+03  0.88110967035E+02 0.  0.
        -11    1    3    3    0    0  0.40067552784E+01  0.43825669765E+02  0.85414012582E+02  0.96084842528E+02  0.00000000000E+00 0.  1.
         11    1    3    3    0    0 -0.40067552784E+01 -0.43825669765E+02  0.94676068115E+02  0.10440450801E+03  0.00000000000E+00 0. -1.
<mgrwt>
<rscale>  0 0.88110967E+02</rscale>
<asrwt>0</asrwt>
<pdfrwt beam="2">  1        3 0.15691748E-02 0.88110967E+02</pdfrwt>
<pdfrwt beam="1">  1       -3 0.29275338E-01 0.88110967E+02</pdfrwt>
<totfact> 0.31214690E+04</totfact>
</mgrwt>
</event>
<event>
 5    1  0.6125604E+000  0.9274976E+02  0.7546771E-02  0.1296326E+00
          1   -1    0    0  501    0  0.00000000000E+00  0.00000000000E+00  0.50106780276E+02  0.50106780276E+02  0.00000000000E+00 0. -1.
         -1   -1    0    0    0  501 -0.00000000000E+00 -0.00000000000E+00 -0.42920924654E+02  0.42920924654E+02  0.00000000000E+00 0.  1.
         23    2    1    2    0    0  0.00000000000E+00  0.00000000000E+00  0.71858556219E+01  0.93027704930E+02  0.92749756677E+02 0.  0.
        -11    1    3    3    0    0  0.40691749713E+01 -0.22223733207E+02  0.44213390422E+02  0.49651549776E+02  0.00000000000E+00 0. -1.
         11    1    3    3    0    0 -0.40691749713E+01  0.22223733207E+02 -0.37027534800E+02  0.43376155154E+02  0.00000000000E+00 0.  1.
<mgrwt>
<rscale>  0 0.92749757E+02</rscale>
<asrwt>0</asrwt>
<pdfrwt beam="1">  1        1 0.77087355E-02 0.92749757E+02</pdfrwt>
<pdfrwt beam="2">  1       -1 0.66032192E-02 0.92749757E+02</pdfrwt>
<totfact> 0.89405600E+04</totfact>
</mgrwt>
</event>
<event>
 5    1  0.6125604E+000  0.8916829E+02  0.7546771E-02  0.1304878E+00
         -1   -1    0    0    0  501 -0.00000000000E+00  0.00000000000E+00  0.17931879199E+03  0.17931879199E+03  0.00000000000E+00 0.  1.
          1   -1    0    0  501    0  0.00000000000E+00 -0.00000000000E+00 -0.11084984259E+02  0.11084984259E+02  0.00000000000E+00 0. -1.
         23    2    1    2    0    0  0.00000000000E+00  0.00000000000E+00  0.16823380773E+03  0.19040377625E+03  0.89168290025E+02 0.  0.
        -11    1    3    3    0    0 -0.26758583766E+02 -0.22299119993E+02  0.24692014714E+02  0.42696231078E+02  0.00000000000E+00 0.  1.
         11    1    3    3    0    0  0.26758583766E+02  0.22299119993E+02  0.14354179302E+03  0.14770754517E+03  0.00000000000E+00 0. -1.
<mgrwt>
<rscale>  0 0.89168290E+02</rscale>
<asrwt>0</asrwt>
<pdfrwt beam="2">  1        1 0.17053823E-02 0.89168290E+02</pdfrwt>
<pdfrwt beam="1">  1       -1 0.27587504E-01 0.89168290E+02</pdfrwt>
<totfact> 0.75804172E+04</totfact>
</mgrwt>
</event>
<event>
 5    1  0.6125604E+000  0.9206087E+02  0.7546771E-02  0.1297936E+00
         -3   -1    0    0    0  501 -0.00000000000E+00  0.00000000000E+00  0.21881576849E+02  0.21881576849E+02  0.00000000000E+00 0.  1.
          3   -1    0    0  501    0  0.00000000000E+00 -0.00000000000E+00 -0.96830358823E+02  0.96830358823E+02  0.00000000000E+00 0. -1.
         23    2    1    2    0    0  0.00000000000E+00  0.00000000000E+00 -0.74948781974E+02  0.11871193567E+03  0.92060869817E+02 0.  0.
        -11    1    3    3    0    0  0.48815920839E+01 -0.38616183360E+02 -0.69159264455E+02  0.79360213070E+02  0.00000000000E+00 0. -1.
         11    1    3    3    0    0 -0.48815920839E+01  0.38616183360E+02 -0.57895175188E+01  0.39351722601E+02  0.00000000000E+00 0.  1.
<mgrwt>
<rscale>  0 0.92060870E+02</rscale>
<asrwt>0</asrwt>
<pdfrwt beam="2">  1        3 0.14896979E-01 0.92060870E+02</pdfrwt>
<pdfrwt beam="1">  1       -3 0.33663964E-02 0.92060870E+02</pdfrwt>
<totfact> 0.32470438E+04</totfact>
</mgrwt>
</event>
<event>
 5    1  0.6125604E+000  0.9271416E+02  0.7546771E-02  0.1296409E+00
         -1   -1    0    0    0  501 -0.00000000000E+00  0.00000000000E+00  0.11231189246E+02  0.11231189246E+02  0.00000000000E+00 0.  1.
          1   -1    0    0  501    0  0.00000000000E+00 -0.00000000000E+00 -0.19134026127E+03  0.19134026127E+03  0.00000000000E+00 0. -1.
         23    2    1    2    0    0  0.00000000000E+00  0.00000000000E+00 -0.18010907202E+03  0.20257145052E+03  0.92714156088E+02 0.  0.
        -11    1    3    3    0    0  0.31329922922E+02  0.18686564849E+01 -0.15513699113E+02  0.35010438551E+02  0.00000000000E+00 0.  1.
         11    1    3    3    0    0 -0.31329922922E+02 -0.18686564849E+01 -0.16459537291E+03  0.16756101196E+03  0.00000000000E+00 0. -1.
<mgrwt>
<rscale>  0 0.92714156E+02</rscale>
<asrwt>0</asrwt>
<pdfrwt beam="2">  1        1 0.29436964E-01 0.92714156E+02</pdfrwt>
<pdfrwt beam="1">  1       -1 0.17278752E-02 0.92714156E+02</pdfrwt>
<totfact> 0.11223575E+05</totfact>
</mgrwt>
</event>
<event>
 5    1  0.6125604E+000  0.8378121E+02  0.7546771E-02  0.1318651E+00
          4   -1    0    0  501    0  0.00000000000E+00  0.00000000000E+00  0.73913221969E+02  0.73913221969E+02  0.00000000000E+00 0. -1.
         -4   -1    0    0    0  501 -0.00000000000E+00 -0.00000000000E+00 -0.23741665077E+02  0.23741665077E+02  0.00000000000E+00 0.  1.
         23    2    1    2    0    0  0.00000000000E+00  0.00000000000E+00  0.50171556893E+02  0.97654887046E+02  0.83781214141E+02 0.  0.
        -11    1    3    3    0    0  0.26380880198E+02  0.10628962680E+02 -0.10762583758E+02  0.30409848682E+02  0.00000000000E+00 0.  1.
         11    1    3    3    0    0 -0.26380880198E+02 -0.10628962680E+02  0.60934140651E+02  0.67245038364E+02  0.00000000000E+00 0. -1.
<mgrwt>
<rscale>  0 0.83781214E+02</rscale>
<asrwt>0</asrwt>
<pdfrwt beam="1">  1        4 0.11371265E-01 0.83781214E+02</pdfrwt>
<pdfrwt beam="2">  1       -4 0.36525639E-02 0.83781214E+02</pdfrwt>
<totfact> 0.33405131E+04</totfact>
</mgrwt>
</event>
<event>
 5    1  0.6125604E+000  0.9075740E+02  0.7546771E-02  0.1301028E+00
          2   -1    0    0  501    0  0.00000000000E+00  0.00000000000E+00  0.12734866842E+02  0.12734866842E+02  0.00000000000E+00 0. -1.
         -2   -1    0    0    0  501 -0.00000000000E+00 -0.00000000000E+00 -0.16169986804E+03  0.16169986804E+03  0.00000000000E+00 0.  1.
         23    2    1    2    0    0  0.00000000000E+00  0.00000000000E+00 -0.14896500120E+03  0.17443473488E+03  0.90757397227E+02 0.  0.
        -11    1    3    3    0    0  0.45293184711E+02  0.25197660527E+01 -0.72204732042E+02  0.85272182636E+02  0.00000000000E+00 0. -1.
         11    1    3    3    0    0 -0.45293184711E+02 -0.25197660527E+01 -0.76760269157E+02  0.89162552247E+02  0.00000000000E+00 0.  1.
<mgrwt>
<rscale>  0 0.90757397E+02</rscale>
<asrwt>0</asrwt>
<pdfrwt beam="1">  1        2 0.19592102E-02 0.90757397E+02</pdfrwt>
<pdfrwt beam="2">  1       -2 0.24876904E-01 0.90757397E+02</pdfrwt>
<totfact> 0.68731660E+04</totfact>
</mgrwt>
</event>
<event>
 5    1  0.6125604E+000  0.8860568E+02  0.7546771E-02  0.1306264E+00
         -2   -1    0    0    0  501 -0.00000000000E+00  0.00000000000E+00  0.87186259627E+01  0.87186259627E+01  0.00000000000E+00 0.  1.
          2   -1    0    0  501    0  0.00000000000E+00 -0.00000000000E+00 -0.22512052016E+03  0.22512052016E+03  0.00000000000E+00 0. -1.
         23    2    1    2    0    0  0.00000000000E+00  0.00000000000E+00 -0.21640189419E+03  0.23383914612E+03  0.88605679542E+02 0.  0.
        -11    1    3    3    0    0 -0.16915145257E+01  0.33853122837E+02 -0.32912750158E+02  0.47245574080E+02  0.00000000000E+00 0.  1.
         11    1    3    3    0    0  0.16915145257E+01 -0.33853122837E+02 -0.18348914404E+03  0.18659357204E+03  0.00000000000E+00 0. -1.
<mgrwt>
<rscale>  0 0.88605680E+02</rscale>
<asrwt>0</asrwt>
<pdfrwt beam="2">  1        2 0.34633930E-01 0.88605680E+02</pdfrwt>
<pdfrwt beam="1">  1       -2 0.13413269E-02 0.88605680E+02</pdfrwt>
<totfact> 0.17435600E+05</totfact>
</mgrwt>
</event>
<event>
 5    1  0.6125604E+000  0.9154398E+02  0.7546771E-02  0.1299155E+00
          1   -1    0    0  501    0  0.00000000000E+00  0.00000000000E+00  0.53857048348E+02  0.53857048348E+02  0.00000000000E+00 0.  1.
         -1   -1    0    0    0  501 -0.00000000000E+00 -0.00000000000E+00 -0.38900668803E+02  0.38900668803E+02  0.00000000000E+00 0. -1.
         23    2    1    2    0    0  0.00000000000E+00  0.00000000000E+00  0.14956379544E+02  0.92757717151E+02  0.91543982883E+02 0.  0.
        -11    1    3    3    0    0 -0.19403471058E+02 -0.46992278088E+01 -0.34256471641E+02  0.39649505424E+02  0.00000000000E+00 0. -1.
         11    1    3    3    0    0  0.19403471058E+02  0.46992278088E+01  0.49212851185E+02  0.53108211727E+02  0.00000000000E+00 0.  1.
<mgrwt>
<rscale>  0 0.91543983E+02</rscale>
<asrwt>0</asrwt>
<pdfrwt beam="1">  1        1 0.82856998E-02 0.91543983E+02</pdfrwt>
<pdfrwt beam="2">  1       -1 0.59847183E-02 0.91543983E+02</pdfrwt>
<totfact> 0.93758584E+04</totfact>
</mgrwt>
</event>
<event>
 5    1  0.6125604E+000  0.9081134E+02  0.7546771E-02  0.1300899E+00
         -1   -1    0    0    0  501 -0.00000000000E+00  0.00000000000E+00  0.13160808487E+02  0.13160808487E+02  0.00000000000E+00 0.  1.
          1   -1    0    0  501    0  0.00000000000E+00 -0.00000000000E+00 -0.15665261652E+03  0.15665261652E+03  0.00000000000E+00 0. -1.
         23    2    1    2    0    0  0.00000000000E+00  0.00000000000E+00 -0.14349180803E+03  0.16981342500E+03  0.90811344774E+02 0.  0.
        -11    1    3    3    0    0 -0.19565304811E+02  0.18947296850E+02 -0.13968161592E+03  0.14231217459E+03  0.00000000000E+00 0. -1.
         11    1    3    3    0    0  0.19565304811E+02 -0.18947296850E+02 -0.38101921067E+01  0.27501250411E+02  0.00000000000E+00 0.  1.
<mgrwt>
<rscale>  0 0.90811345E+02</rscale>
<asrwt>0</asrwt>
<pdfrwt beam="2">  1        1 0.24100402E-01 0.90811345E+02</pdfrwt>
<pdfrwt beam="1">  1       -1 0.20247398E-02 0.90811345E+02</pdfrwt>
<totfact> 0.11426486E+05</totfact>
</mgrwt>
</event>
<event>
 5    1  0.6125604E+000  0.9255395E+02  0.7546771E-02  0.1296782E+00
         -2   -1    0    0    0  501 -0.00000000000E+00  0.00000000000E+00  0.69267812768E+02  0.69267812768E+02  0.00000000000E+00 0.  1.
          2   -1    0    0  501    0  0.00000000000E+00 -0.00000000000E+00 -0.30917080254E+02  0.30917080254E+02  0.00000000000E+00 0. -1.
         23    2    1    2    0    0  0.00000000000E+00  0.00000000000E+00  0.38350732515E+02  0.10018489302E+03  0.92553952403E+02 0.  0.
        -11    1    3    3    0    0  0.33704630064E+02 -0.31501548916E+02  0.23109416003E+02  0.51598399005E+02  0.00000000000E+00 0.  1.
         11    1    3    3    0    0 -0.33704630064E+02  0.31501548916E+02  0.15241316511E+02  0.48586494017E+02  0.00000000000E+00 0. -1.
<mgrwt>
<rscale>  0 0.92553952E+02</rscale>
<asrwt>0</asrwt>
<pdfrwt beam="2">  1        2 0.47564739E-02 0.92553952E+02</pdfrwt>
<pdfrwt beam="1">  1       -2 0.10656587E-01 0.92553952E+02</pdfrwt>
<totfact> 0.85297609E+04</totfact>
</mgrwt>
</event>
<event>
 5    1  0.6125604E+000  0.9010072E+02  0.7546771E-02  0.1302608E+00
         -4   -1    0    0    0  501 -0.00000000000E+00  0.00000000000E+00  0.58957257432E+02  0.58957257432E+02  0.00000000000E+00 0.  1.
          4   -1    0    0  501    0  0.00000000000E+00 -0.00000000000E+00 -0.34423835502E+02  0.34423835502E+02  0.00000000000E+00 0. -1.
         23    2    1    2    0    0  0.00000000000E+00  0.00000000000E+00  0.24533421930E+02  0.93381092934E+02  0.90100719897E+02 0.  0.
        -11    1    3    3    0    0 -0.30335122731E+02  0.33229393186E+02  0.99209720090E+01  0.46074265358E+02  0.00000000000E+00 0.  1.
         11    1    3    3    0    0  0.30335122731E+02 -0.33229393186E+02  0.14612449921E+02  0.47306827576E+02  0.00000000000E+00 0. -1.
<mgrwt>
<rscale>  0 0.90100720E+02</rscale>
<asrwt>0</asrwt>
<pdfrwt beam="2">  1        4 0.52959747E-02 0.90100720E+02</pdfrwt>
<pdfrwt beam="1">  1       -4 0.90703473E-02 0.90100720E+02</pdfrwt>
<totfact> 0.27752724E+04</totfact>
</mgrwt>
</event>
<event>
 5    1  0.6125604E+000  0.1022229E+03  0.7546771E-02  0.1275690E+00
         -1   -1    0    0    0  501 -0.00000000000E+00  0.00000000000E+00  0.48050500462E+01  0.48050500462E+01  0.00000000000E+00 0.  1.
          1   -1    0    0  501    0  0.00000000000E+00 -0.00000000000E+00 -0.54367397667E+03  0.54367397667E+03  0.00000000000E+00 0. -1.
         23    2    1    2    0    0  0.00000000000E+00  0.00000000000E+00 -0.53886892663E+03  0.54847902672E+03  0.10222290676E+03 0.  0.
        -11    1    3    3    0    0 -0.38243536027E+02 -0.33851914764E+02 -0.27997670022E+03  0.28459703591E+03  0.00000000000E+00 0.  1.
         11    1    3    3    0    0  0.38243536027E+02  0.33851914764E+02 -0.25889222640E+03  0.26388199081E+03  0.00000000000E+00 0. -1.
<mgrwt>
<rscale>  0 0.10222291E+03</rscale>
<asrwt>0</asrwt>
<pdfrwt beam="2">  1        1 0.83642156E-01 0.10222291E+03</pdfrwt>
<pdfrwt beam="1">  1       -1 0.73923842E-03 0.10222291E+03</pdfrwt>
<totfact> 0.10361503E+05</totfact>
</mgrwt>
</event>
<event>
 5    1  0.6125604E+000  0.8431084E+02  0.7546771E-02  0.1317245E+00
         -1   -1    0    0    0  501 -0.00000000000E+00  0.00000000000E+00  0.50203446540E+02  0.50203446540E+02  0.00000000000E+00 0.  1.
          1   -1    0    0  501    0  0.00000000000E+00 -0.00000000000E+00 -0.35397557492E+02  0.35397557492E+02  0.00000000000E+00 0. -1.
         23    2    1    2    0    0  0.00000000000E+00  0.00000000000E+00  0.14805889048E+02  0.85601004032E+02  0.84310838810E+02 0.  0.
        -11    1    3    3    0    0 -0.20131466746E+02 -0.61604797425E+01  0.44483758406E+02  0.49214146603E+02  0.00000000000E+00 0.  1.
         11    1    3    3    0    0  0.20131466746E+02  0.61604797425E+01 -0.29677869357E+02  0.36386857429E+02  0.00000000000E+00 0. -1.
<mgrwt>
<rscale>  0 0.84310839E+02</rscale>
<asrwt>0</asrwt>
<pdfrwt beam="2">  1        1 0.54457781E-02 0.84310839E+02</pdfrwt>
<pdfrwt beam="1">  1       -1 0.77236072E-02 0.84310839E+02</pdfrwt>
<totfact> 0.11097294E+05</totfact>
</mgrwt>
</event>
<event>
 5    1  0.6125604E+000  0.9052125E+02  0.7546771E-02  0.1301594E+00
         -2   -1    0    0    0  501 -0.00000000000E+00  0.00000000000E+00  0.13419198086E+03  0.13419198086E+03  0.00000000000E+00 0.  1.
          2   -1    0    0  501    0  0.00000000000E+00 -0.00000000000E+00 -0.15265622618E+02  0.15265622618E+02  0.00000000000E+00 0. -1.
         23    2    1    2    0    0  0.00000000000E+00  0.00000000000E+00  0.11892635825E+03  0.14945760348E+03  0.90521249180E+02 0.  0.
        -11    1    3    3    0    0 -0.12334614993E+02 -0.42376941921E+02  0.76021454360E+02  0.87904547417E+02  0.00000000000E+00 0. -1.
         11    1    3    3    0    0  0.12334614993E+02  0.42376941921E+02  0.42904903886E+02  0.61553056066E+02  0.00000000000E+00 0.  1.
<mgrwt>
<rscale>  0 0.90521249E+02</rscale>
<asrwt>0</asrwt>
<pdfrwt beam="2">  1        2 0.23485574E-02 0.90521249E+02</pdfrwt>
<pdfrwt beam="1">  1       -2 0.20644919E-01 0.90521249E+02</pdfrwt>
<totfact> 0.73992659E+04</totfact>
</mgrwt>
</event>
<event>
 5    1  0.6125604E+000  0.9289213E+02  0.7546771E-02  0.1295995E+00
         -2   -1    0    0    0  501 -0.00000000000E+00  0.00000000000E+00  0.84105089817E+02  0.84105089817E+02  0.00000000000E+00 0.  1.
          2   -1    0    0  501    0  0.00000000000E+00 -0.00000000000E+00 -0.25649305893E+02  0.25649305893E+02  0.00000000000E+00 0. -1.
         23    2    1    2    0    0  0.00000000000E+00  0.00000000000E+00  0.58455783924E+02  0.10975439571E+03  0.92892134777E+02 0.  0.
        -11    1    3    3    0    0  0.37717903616E+02  0.18453817387E+02  0.57736932891E+01  0.42385364969E+02  0.00000000000E+00 0. -1.
         11    1    3    3    0    0 -0.37717903616E+02 -0.18453817387E+02  0.52682090635E+02  0.67369030741E+02  0.00000000000E+00 0.  1.
<mgrwt>
<rscale>  0 0.92892135E+02</rscale>
<asrwt>0</asrwt>
<pdfrwt beam="2">  1        2 0.39460471E-02 0.92892135E+02</pdfrwt>
<pdfrwt beam="1">  1       -2 0.12939244E-01 0.92892135E+02</pdfrwt>
<totfact> 0.80133429E+04</totfact>
</mgrwt>
</event>
<event>
 5    1  0.6125604E+000  0.9092518E+02  0.7546771E-02  0.1300627E+00
          1   -1    0    0  501    0  0.00000000000E+00  0.00000000000E+00  0.19898841126E+02  0.19898841126E+02  0.00000000000E+00 0. -1.
         -1   -1    0    0    0  501 -0.00000000000E+00 -0.00000000000E+00 -0.10386772165E+03  0.10386772165E+03  0.00000000000E+00 0.  1.
         23    2    1    2    0    0  0.00000000000E+00  0.00000000000E+00 -0.83968880528E+02  0.12376656278E+03  0.90925184440E+02 0.  0.
        -11    1    3    3    0    0  0.95386798678E+01 -0.25997215242E+02  0.70941143161E+01  0.28586151750E+02  0.00000000000E+00 0. -1.
         11    1    3    3    0    0 -0.95386798678E+01  0.25997215242E+02 -0.91062994844E+02  0.95180411030E+02  0.00000000000E+00 0.  1.
<mgrwt>
<rscale>  0 0.90925184E+02</rscale>
<asrwt>0</asrwt>
<pdfrwt beam="1">  1        1 0.30613602E-02 0.90925184E+02</pdfrwt>
<pdfrwt beam="2">  1       -1 0.15979650E-01 0.90925184E+02</pdfrwt>
<totfact> 0.81370804E+04</totfact>
</mgrwt>
</event>
<event>
 5    1  0.6125604E+000  0.9237337E+02  0.7546771E-02  0.1297204E+00
          1   -1    0    0  501    0  0.00000000000E+00  0.00000000000E+00  0.63939130792E+02  0.63939130792E+02  0.00000000000E+00 0. -1.
         -1   -1    0    0    0  501 -0.00000000000E+00 -0.00000000000E+00 -0.33363132190E+02  0.33363132190E+02  0.00000000000E+00 0.  1.
         23    2    1    2    0    0  0.00000000000E+00  0.00000000000E+00  0.30575998602E+02  0.97302262981E+02  0.92373365700E+02 0.  0.
        -11    1    3    3    0    0  0.19285589754E+02 -0.20074261119E+02  0.54109648602E+02  0.60850341030E+02  0.00000000000E+00 0. -1.
         11    1    3    3    0    0 -0.19285589754E+02  0.20074261119E+02 -0.23533650000E+02  0.36451921952E+02  0.00000000000E+00 0.  1.
<mgrwt>
<rscale>  0 0.92373366E+02</rscale>
<asrwt>0</asrwt>
<pdfrwt beam="1">  1        1 0.98367894E-02 0.92373366E+02</pdfrwt>
<pdfrwt beam="2">  1       -1 0.51327896E-02 0.92373366E+02</pdfrwt>
<totfact> 0.93851908E+04</totfact>
</mgrwt>
</event>
<event>
 5    1  0.6125604E+000  0.8884476E+02  0.7546771E-02  0.1305674E+00
          1   -1    0    0  501    0  0.00000000000E+00  0.00000000000E+00  0.46809699627E+02  0.46809699627E+02  0.00000000000E+00 0. -1.
         -1   -1    0    0    0  501 -0.00000000000E+00 -0.00000000000E+00 -0.42156814577E+02  0.42156814577E+02  0.00000000000E+00 0.  1.
         23    2    1    2    0    0  0.00000000000E+00  0.00000000000E+00  0.46528850498E+01  0.88966514205E+02  0.88844759612E+02 0.  0.
        -11    1    3    3    0    0  0.31157415232E+02  0.28605509758E+02 -0.11267437177E+02  0.43772306918E+02  0.00000000000E+00 0. -1.
         11    1    3    3    0    0 -0.31157415232E+02 -0.28605509758E+02  0.15920322227E+02  0.45194207286E+02  0.00000000000E+00 0.  1.
<mgrwt>
<rscale>  0 0.88844760E+02</rscale>
<asrwt>0</asrwt>
<pdfrwt beam="1">  1        1 0.72014922E-02 0.88844760E+02</pdfrwt>
<pdfrwt beam="2">  1       -1 0.64856638E-02 0.88844760E+02</pdfrwt>
<totfact> 0.99813900E+04</totfact>
</mgrwt>
</event>
<event>
 5    1  0.6125604E+000  0.9027214E+02  0.7546771E-02  0.1302194E+00
          1   -1    0    0  501    0  0.00000000000E+00  0.00000000000E+00  0.56061640498E+02  0.56061640498E+02  0.00000000000E+00 0. -1.
         -1   -1    0    0    0  501 -0.00000000000E+00 -0.00000000000E+00 -0.36339728762E+02  0.36339728762E+02  0.00000000000E+00 0.  1.
         23    2    1    2    0    0  0.00000000000E+00  0.00000000000E+00  0.19721911736E+02  0.92401369260E+02  0.90272139880E+02 0.  0.
        -11    1    3    3    0    0  0.24534425018E+02  0.35904312138E+02  0.22237773815E+02  0.48842360972E+02  0.00000000000E+00 0. -1.
         11    1    3    3    0    0 -0.24534425018E+02 -0.35904312138E+02 -0.25158620782E+01  0.43559008288E+02  0.00000000000E+00 0.  1.
<mgrwt>
<rscale>  0 0.90272140E+02</rscale>
<asrwt>0</asrwt>
<pdfrwt beam="1">  1        1 0.86248677E-02 0.90272140E+02</pdfrwt>
<pdfrwt beam="2">  1       -1 0.55907275E-02 0.90272140E+02</pdfrwt>
<totfact> 0.98067776E+04</totfact>
</mgrwt>
</event>
<event>
 5    1  0.6125604E+000  0.8869810E+02  0.7546771E-02  0.1306035E+00
         -2   -1    0    0    0  501 -0.00000000000E+00  0.00000000000E+00  0.88555776659E+01  0.88555776659E+01  0.00000000000E+00 0.  1.
          2   -1    0    0  501    0  0.00000000000E+00 -0.00000000000E+00 -0.22210163940E+03  0.22210163940E+03  0.00000000000E+00 0. -1.
         23    2    1    2    0    0  0.00000000000E+00  0.00000000000E+00 -0.21324606174E+03  0.23095721707E+03  0.88698101839E+02 0.  0.
        -11    1    3    3    0    0 -0.10382023316E+00 -0.32601555208E+02 -0.28335374376E+02  0.43194509161E+02  0.00000000000E+00 0.  1.
         11    1    3    3    0    0  0.10382023316E+00  0.32601555208E+02 -0.18491068736E+03  0.18776270791E+03  0.00000000000E+00 0. -1.
<mgrwt>
<rscale>  0 0.88698102E+02</rscale>
<asrwt>0</asrwt>
<pdfrwt beam="2">  1        2 0.34169479E-01 0.88698102E+02</pdfrwt>
<pdfrwt beam="1">  1       -2 0.13623967E-02 0.88698102E+02</pdfrwt>
<totfact> 0.17301594E+05</totfact>
</mgrwt>
</event>
<event>
 5    1  0.6125604E+000  0.7360715E+02  0.7546771E-02  0.1348239E+00
          2   -1    0    0  501    0  0.00000000000E+00  0.00000000000E+00  0.99917754411E+02  0.99917754411E+02  0.00000000000E+00 0. -1.
         -2   -1    0    0    0  501 -0.00000000000E+00 -0.00000000000E+00 -0.13556179411E+02  0.13556179411E+02  0.00000000000E+00 0.  1.
         23    2    1    2    0    0  0.00000000000E+00  0.00000000000E+00  0.86361575000E+02  0.11347393382E+03  0.73607146533E+02 0.  0.
        -11    1    3    3    0    0 -0.20290752383E+02 -0.28820315926E+02  0.26852918172E+02  0.44310319980E+02  0.00000000000E+00 0.  1.
         11    1    3    3    0    0  0.20290752383E+02  0.28820315926E+02  0.59508656828E+02  0.69163613843E+02  0.00000000000E+00 0. -1.
<mgrwt>
<rscale>  0 0.73607147E+02</rscale>
<asrwt>0</asrwt>
<pdfrwt beam="1">  1        2 0.15371962E-01 0.73607147E+02</pdfrwt>
<pdfrwt beam="2">  1       -2 0.20855661E-02 0.73607147E+02</pdfrwt>
<totfact> 0.21905963E+05</totfact>
</mgrwt>
</event>
<event>
 5    1  0.6125604E+000  0.9324501E+02  0.7546771E-02  0.1295178E+00
         -4   -1    0    0    0  501 -0.00000000000E+00  0.00000000000E+00  0.27384243194E+02  0.27384243194E+02  0.00000000000E+00 0.  1.
          4   -1    0    0  501    0  0.00000000000E+00 -0.00000000000E+00 -0.79376232627E+02  0.79376232627E+02  0.00000000000E+00 0. -1.
         23    2    1    2    0    0  0.00000000000E+00  0.00000000000E+00 -0.51991989433E+02  0.10676047582E+03  0.93245011836E+02 0.  0.
        -11    1    3    3    0    0  0.79154446990E+01 -0.15559559019E+02  0.23500948539E+02  0.29275394513E+02  0.00000000000E+00 0.  1.
         11    1    3    3    0    0 -0.79154446990E+01  0.15559559019E+02 -0.75492937972E+02  0.77485081308E+02  0.00000000000E+00 0. -1.
<mgrwt>
<rscale>  0 0.93245012E+02</rscale>
<asrwt>0</asrwt>
<pdfrwt beam="2">  1        4 0.12211728E-01 0.93245012E+02</pdfrwt>
<pdfrwt beam="1">  1       -4 0.42129605E-02 0.93245012E+02</pdfrwt>
<totfact> 0.24506678E+04</totfact>
</mgrwt>
</event>
<event>
 5    1  0.6125604E+000  0.8152139E+02  0.7546771E-02  0.1324789E+00
          1   -1    0    0  501    0  0.00000000000E+00  0.00000000000E+00  0.16158478600E+03  0.16158478600E+03  0.00000000000E+00 0. -1.
         -1   -1    0    0    0  501 -0.00000000000E+00 -0.00000000000E+00 -0.10282120284E+02  0.10282120284E+02  0.00000000000E+00 0.  1.
         23    2    1    2    0    0  0.00000000000E+00  0.00000000000E+00  0.15130266571E+03  0.17186690628E+03  0.81521388746E+02 0.  0.
        -11    1    3    3    0    0  0.19825404970E+02 -0.18991471477E+02  0.12133654295E+02  0.30015799800E+02  0.00000000000E+00 0.  1.
         11    1    3    3    0    0 -0.19825404970E+02  0.18991471477E+02  0.13916901142E+03  0.14185110648E+03  0.00000000000E+00 0. -1.
<mgrwt>
<rscale>  0 0.81521389E+02</rscale>
<asrwt>0</asrwt>
<pdfrwt beam="1">  1        1 0.24859196E-01 0.81521389E+02</pdfrwt>
<pdfrwt beam="2">  1       -1 0.15818648E-02 0.81521389E+02</pdfrwt>
<totfact> 0.15336675E+05</totfact>
</mgrwt>
</event>
<event>
 5    1  0.6125604E+000  0.9114881E+02  0.7546771E-02  0.1300093E+00
         -4   -1    0    0    0  501 -0.00000000000E+00  0.00000000000E+00  0.95482485647E+01  0.95482485647E+01  0.00000000000E+00 0. -1.
          4   -1    0    0  501    0  0.00000000000E+00 -0.00000000000E+00 -0.21752956892E+03  0.21752956892E+03  0.00000000000E+00 0.  1.
         23    2    1    2    0    0  0.00000000000E+00  0.00000000000E+00 -0.20798132036E+03  0.22707781749E+03  0.91148810069E+02 0.  0.
        -11    1    3    3    0    0  0.19457181110E+02 -0.41211976478E+02 -0.10366116659E+03  0.11323712448E+03  0.00000000000E+00 0.  1.
         11    1    3    3    0    0 -0.19457181110E+02  0.41211976478E+02 -0.10432015377E+03  0.11384069301E+03  0.00000000000E+00 0. -1.
<mgrwt>
<rscale>  0 0.91148810E+02</rscale>
<asrwt>0</asrwt>
<pdfrwt beam="2">  1        4 0.33466084E-01 0.91148810E+02</pdfrwt>
<pdfrwt beam="1">  1       -4 0.14689615E-02 0.91148810E+02</pdfrwt>
<totfact> 0.20322620E+04</totfact>
</mgrwt>
</event>
<event>
 5    1  0.6125604E+000  0.8773093E+02  0.7546771E-02  0.1308441E+00
         -4   -1    0    0    0  501 -0.00000000000E+00  0.00000000000E+00  0.25225906698E+02  0.25225906698E+02  0.00000000000E+00 0.  1.
          4   -1    0    0  501    0  0.00000000000E+00 -0.00000000000E+00 -0.76277888680E+02  0.76277888680E+02  0.00000000000E+00 0. -1.
         23    2    1    2    0    0  0.00000000000E+00  0.00000000000E+00 -0.51051981982E+02  0.10150379538E+03  0.87730927340E+02 0.  0.
        -11    1    3    3    0    0 -0.66610536370E+01 -0.34046013213E+02 -0.56585906474E+02  0.66373680497E+02  0.00000000000E+00 0. -1.
         11    1    3    3    0    0  0.66610536370E+01  0.34046013213E+02  0.55339244927E+01  0.35130114881E+02  0.00000000000E+00 0.  1.
<mgrwt>
<rscale>  0 0.87730927E+02</rscale>
<asrwt>0</asrwt>
<pdfrwt beam="2">  1        4 0.11735060E-01 0.87730927E+02</pdfrwt>
<pdfrwt beam="1">  1       -4 0.38809087E-02 0.87730927E+02</pdfrwt>
<totfact> 0.29252737E+04</totfact>
</mgrwt>
</event>
<event>
 5    1  0.6125604E+000  0.9052437E+02  0.7546771E-02  0.1301587E+00
          2   -1    0    0  501    0  0.00000000000E+00  0.00000000000E+00  0.63848581640E+02  0.63848581640E+02  0.00000000000E+00 0. -1.
         -2   -1    0    0    0  501 -0.00000000000E+00 -0.00000000000E+00 -0.32086311500E+02  0.32086311500E+02  0.00000000000E+00 0.  1.
         23    2    1    2    0    0  0.00000000000E+00  0.00000000000E+00  0.31762270140E+02  0.95934893141E+02  0.90524371953E+02 0.  0.
        -11    1    3    3    0    0  0.57889540984E+01 -0.97788891309E+01  0.62312149007E+02  0.63339897191E+02  0.00000000000E+00 0. -1.
         11    1    3    3    0    0 -0.57889540984E+01  0.97788891309E+01 -0.30549878867E+02  0.32594995950E+02  0.00000000000E+00 0.  1.
<mgrwt>
<rscale>  0 0.90524372E+02</rscale>
<asrwt>0</asrwt>
<pdfrwt beam="1">  1        2 0.98228587E-02 0.90524372E+02</pdfrwt>
<pdfrwt beam="2">  1       -2 0.49363556E-02 0.90524372E+02</pdfrwt>
<totfact> 0.11006125E+05</totfact>
</mgrwt>
</event>
<event>
 5    1  0.6125604E+000  0.9075086E+02  0.7546771E-02  0.1301044E+00
          1   -1    0    0  501    0  0.00000000000E+00  0.00000000000E+00  0.35414737167E+03  0.35414737167E+03  0.00000000000E+00 0. -1.
         -1   -1    0    0    0  501 -0.00000000000E+00 -0.00000000000E+00 -0.58137649202E+01  0.58137649202E+01  0.00000000000E+00 0.  1.
         23    2    1    2    0    0  0.00000000000E+00  0.00000000000E+00  0.34833360675E+03  0.35996113659E+03  0.90750858199E+02 0.  0.
        -11    1    3    3    0    0 -0.17025967162E+02 -0.41954714229E+02  0.18596529534E+03  0.19139794324E+03  0.00000000000E+00 0.  1.
         11    1    3    3    0    0  0.17025967162E+02  0.41954714229E+02  0.16236831141E+03  0.16856319335E+03  0.00000000000E+00 0. -1.
<mgrwt>
<rscale>  0 0.90750858E+02</rscale>
<asrwt>0</asrwt>
<pdfrwt beam="1">  1        1 0.54484194E-01 0.90750858E+02</pdfrwt>
<pdfrwt beam="2">  1       -1 0.89442565E-03 0.90750858E+02</pdfrwt>
<totfact> 0.13376364E+05</totfact>
</mgrwt>
</event>
<event>
 5    1  0.6125604E+000  0.9060275E+02  0.7546771E-02  0.1301399E+00
          2   -1    0    0  501    0  0.00000000000E+00  0.00000000000E+00  0.46987855551E+02  0.46987855551E+02  0.00000000000E+00 0. -1.
         -2   -1    0    0    0  501 -0.00000000000E+00 -0.00000000000E+00 -0.43675421206E+02  0.43675421206E+02  0.00000000000E+00 0.  1.
         23    2    1    2    0    0  0.00000000000E+00  0.00000000000E+00  0.33124343450E+01  0.90663276758E+02  0.90602745716E+02 0.  0.
        -11    1    3    3    0    0  0.87733636382E+01 -0.11582337753E+02  0.44592830776E+02  0.46900351960E+02  0.00000000000E+00 0. -1.
         11    1    3    3    0    0 -0.87733636382E+01  0.11582337753E+02 -0.41280396431E+02  0.43762924798E+02  0.00000000000E+00 0.  1.
<mgrwt>
<rscale>  0 0.90602746E+02</rscale>
<asrwt>0</asrwt>
<pdfrwt beam="1">  1        2 0.72289008E-02 0.90602746E+02</pdfrwt>
<pdfrwt beam="2">  1       -2 0.67192956E-02 0.90602746E+02</pdfrwt>
<totfact> 0.10126616E+05</totfact>
</mgrwt>
</event>
<event>
 5    1  0.6125604E+000  0.9072425E+02  0.7546771E-02  0.1301107E+00
         -2   -1    0    0    0  501 -0.00000000000E+00  0.00000000000E+00  0.12489552308E+02  0.12489552308E+02  0.00000000000E+00 0.  1.
          2   -1    0    0  501    0  0.00000000000E+00 -0.00000000000E+00 -0.16475550708E+03  0.16475550708E+03  0.00000000000E+00 0. -1.
         23    2    1    2    0    0  0.00000000000E+00  0.00000000000E+00 -0.15226595477E+03  0.17724505939E+03  0.90724253069E+02 0.  0.
        -11    1    3    3    0    0  0.28097170112E+02 -0.31155742560E+02 -0.10983537700E+03  0.11757525804E+03  0.00000000000E+00 0.  1.
         11    1    3    3    0    0 -0.28097170112E+02  0.31155742560E+02 -0.42430577776E+02  0.59669801351E+02  0.00000000000E+00 0. -1.
<mgrwt>
<rscale>  0 0.90724253E+02</rscale>
<asrwt>0</asrwt>
<pdfrwt beam="2">  1        2 0.25347000E-01 0.90724253E+02</pdfrwt>
<pdfrwt beam="1">  1       -2 0.19214697E-02 0.90724253E+02</pdfrwt>
<totfact> 0.14634958E+05</totfact>
</mgrwt>
</event>
<event>
 5    1  0.6125604E+000  0.9357190E+02  0.7546771E-02  0.1294425E+00
         -1   -1    0    0    0  501 -0.00000000000E+00  0.00000000000E+00  0.98812259321E+02  0.98812259321E+02  0.00000000000E+00 0.  1.
          1   -1    0    0  501    0  0.00000000000E+00 -0.00000000000E+00 -0.22152365491E+02  0.22152365491E+02  0.00000000000E+00 0. -1.
         23    2    1    2    0    0  0.00000000000E+00  0.00000000000E+00  0.76659893830E+02  0.12096462481E+03  0.93571903550E+02 0.  0.
        -11    1    3    3    0    0 -0.34749611192E+02  0.96767169099E+01  0.76847482495E+02  0.84892342965E+02  0.00000000000E+00 0.  1.
         11    1    3    3    0    0  0.34749611192E+02 -0.96767169099E+01 -0.18758866544E+00  0.36072281848E+02  0.00000000000E+00 0. -1.
<mgrwt>
<rscale>  0 0.93571904E+02</rscale>
<asrwt>0</asrwt>
<pdfrwt beam="2">  1        1 0.34080563E-02 0.93571904E+02</pdfrwt>
<pdfrwt beam="1">  1       -1 0.15201886E-01 0.93571904E+02</pdfrwt>
<totfact> 0.76278158E+04</totfact>
</mgrwt>
</event>
<event>
 5    1  0.6125604E+000  0.9284685E+02  0.7546771E-02  0.1296100E+00
         -2   -1    0    0    0  501 -0.00000000000E+00  0.00000000000E+00  0.25669227027E+02  0.25669227027E+02  0.00000000000E+00 0.  1.
          2   -1    0    0  501    0  0.00000000000E+00 -0.00000000000E+00 -0.83957908022E+02  0.83957908022E+02  0.00000000000E+00 0. -1.
         23    2    1    2    0    0  0.00000000000E+00  0.00000000000E+00 -0.58288680994E+02  0.10962713505E+03  0.92846854589E+02 0.  0.
        -11    1    3    3    0    0  0.32986356957E+02  0.22173355958E+02 -0.82212836077E+00  0.39754664567E+02  0.00000000000E+00 0.  1.
         11    1    3    3    0    0 -0.32986356957E+02 -0.22173355958E+02 -0.57466552634E+02  0.69872470483E+02  0.00000000000E+00 0. -1.
<mgrwt>
<rscale>  0 0.92846855E+02</rscale>
<asrwt>0</asrwt>
<pdfrwt beam="2">  1        2 0.12916601E-01 0.92846855E+02</pdfrwt>
<pdfrwt beam="1">  1       -2 0.39491119E-02 0.92846855E+02</pdfrwt>
<totfact> 0.11073333E+05</totfact>
</mgrwt>
</event>
<event>
 5    1  0.6125604E+000  0.9209612E+02  0.7546771E-02  0.1297854E+00
          1   -1    0    0  501    0  0.00000000000E+00  0.00000000000E+00  0.31208796799E+02  0.31208796799E+02  0.00000000000E+00 0. -1.
         -1   -1    0    0    0  501 -0.00000000000E+00 -0.00000000000E+00 -0.67943144581E+02  0.67943144581E+02  0.00000000000E+00 0.  1.
         23    2    1    2    0    0  0.00000000000E+00  0.00000000000E+00 -0.36734347782E+02  0.99151941381E+02  0.92096119205E+02 0.  0.
        -11    1    3    3    0    0 -0.43964251072E+02  0.74355357852E+01 -0.59846549316E+01  0.44988428061E+02  0.00000000000E+00 0. -1.
         11    1    3    3    0    0  0.43964251072E+02 -0.74355357852E+01 -0.30749692850E+02  0.54163513320E+02  0.00000000000E+00 0.  1.
<mgrwt>
<rscale>  0 0.92096119E+02</rscale>
<asrwt>0</asrwt>
<pdfrwt beam="1">  1        1 0.48013534E-02 0.92096119E+02</pdfrwt>
<pdfrwt beam="2">  1       -1 0.10452791E-01 0.92096119E+02</pdfrwt>
<totfact> 0.84760079E+04</totfact>
</mgrwt>
</event>
<event>
 5    1  0.6125604E+000  0.9103293E+02  0.7546771E-02  0.1300369E+00
          2   -1    0    0  501    0  0.00000000000E+00  0.00000000000E+00  0.70572011971E+02  0.70572011971E+02  0.00000000000E+00 0. -1.
         -2   -1    0    0    0  501 -0.00000000000E+00 -0.00000000000E+00 -0.29356519246E+02  0.29356519246E+02  0.00000000000E+00 0.  1.
         23    2    1    2    0    0  0.00000000000E+00  0.00000000000E+00  0.41215492725E+02  0.99928531216E+02  0.91032930912E+02 0.  0.
        -11    1    3    3    0    0  0.85628120449E+01 -0.78179171041E+01  0.68923661287E+02  0.69892150225E+02  0.00000000000E+00 0. -1.
         11    1    3    3    0    0 -0.85628120449E+01  0.78179171041E+01 -0.27708168562E+02  0.30036380991E+02  0.00000000000E+00 0.  1.
<mgrwt>
<rscale>  0 0.91032931E+02</rscale>
<asrwt>0</asrwt>
<pdfrwt beam="1">  1        2 0.10857233E-01 0.91032931E+02</pdfrwt>
<pdfrwt beam="2">  1       -2 0.45163876E-02 0.91032931E+02</pdfrwt>
<totfact> 0.11136068E+05</totfact>
</mgrwt>
</event>
<event>
 5    1  0.6125604E+000  0.8862946E+02  0.7546771E-02  0.1306205E+00
          3   -1    0    0  501    0  0.00000000000E+00  0.00000000000E+00  0.13831953036E+03  0.13831953036E+03  0.00000000000E+00 0. -1.
         -3   -1    0    0    0  501 -0.00000000000E+00 -0.00000000000E+00 -0.14197525779E+02  0.14197525779E+02  0.00000000000E+00 0.  1.
         23    2    1    2    0    0  0.00000000000E+00  0.00000000000E+00  0.12412200459E+03  0.15251705614E+03  0.88629455556E+02 0.  0.
        -11    1    3    3    0    0  0.20511626829E+02  0.10242238917E+02 -0.31986357555E+01  0.23148683849E+02  0.00000000000E+00 0.  1.
         11    1    3    3    0    0 -0.20511626829E+02 -0.10242238917E+02  0.12732064034E+03  0.12936837229E+03  0.00000000000E+00 0. -1.
<mgrwt>
<rscale>  0 0.88629456E+02</rscale>
<asrwt>0</asrwt>
<pdfrwt beam="1">  1        3 0.21279927E-01 0.88629456E+02</pdfrwt>
<pdfrwt beam="2">  1       -3 0.21842348E-02 0.88629456E+02</pdfrwt>
<totfact> 0.33630022E+04</totfact>
</mgrwt>
</event>
<event>
 5    1  0.6125604E+000  0.9088392E+02  0.7546771E-02  0.1300725E+00
          2   -1    0    0  501    0  0.00000000000E+00  0.00000000000E+00  0.70369725671E+02  0.70369725671E+02  0.00000000000E+00 0.  1.
         -2   -1    0    0    0  501 -0.00000000000E+00 -0.00000000000E+00 -0.29344607079E+02  0.29344607079E+02  0.00000000000E+00 0. -1.
         23    2    1    2    0    0  0.00000000000E+00  0.00000000000E+00  0.41025118592E+02  0.99714332750E+02  0.90883924873E+02 0.  0.
        -11    1    3    3    0    0  0.17505032279E+02 -0.13461316293E+02 -0.23061999750E+02  0.31929438202E+02  0.00000000000E+00 0. -1.
         11    1    3    3    0    0 -0.17505032279E+02  0.13461316293E+02  0.64087118342E+02  0.67784894548E+02  0.00000000000E+00 0.  1.
<mgrwt>
<rscale>  0 0.90883925E+02</rscale>
<asrwt>0</asrwt>
<pdfrwt beam="1">  1        2 0.10826112E-01 0.90883925E+02</pdfrwt>
<pdfrwt beam="2">  1       -2 0.45145549E-02 0.90883925E+02</pdfrwt>
<totfact> 0.11178239E+05</totfact>
</mgrwt>
</event>
<event>
 5    1  0.6125604E+000  0.9085731E+02  0.7546771E-02  0.1300789E+00
          2   -1    0    0  501    0  0.00000000000E+00  0.00000000000E+00  0.83416434363E+01  0.83416434363E+01  0.00000000000E+00 0. -1.
         -2   -1    0    0    0  501 -0.00000000000E+00 -0.00000000000E+00 -0.24740479365E+03  0.24740479365E+03  0.00000000000E+00 0.  1.
         23    2    1    2    0    0  0.00000000000E+00  0.00000000000E+00 -0.23906315022E+03  0.25574643709E+03  0.90857307314E+02 0.  0.
        -11    1    3    3    0    0 -0.38923483158E+02  0.70252539772E+01 -0.18243312102E+03  0.18667146375E+03  0.00000000000E+00 0.  1.
         11    1    3    3    0    0  0.38923483158E+02 -0.70252539772E+01 -0.56630029197E+02  0.69074973337E+02  0.00000000000E+00 0. -1.
<mgrwt>
<rscale>  0 0.90857307E+02</rscale>
<asrwt>0</asrwt>
<pdfrwt beam="1">  1        2 0.12833298E-02 0.90857307E+02</pdfrwt>
<pdfrwt beam="2">  1       -2 0.38062275E-01 0.90857307E+02</pdfrwt>
<totfact> 0.56980258E+04</totfact>
</mgrwt>
</event>
<event>
 5    1  0.6125604E+000  0.9130796E+02  0.7546771E-02  0.1299715E+00
         -2   -1    0    0    0  501 -0.00000000000E+00  0.00000000000E+00  0.25811952901E+03  0.25811952901E+03  0.00000000000E+00 0.  1.
          2   -1    0    0  501    0  0.00000000000E+00 -0.00000000000E+00 -0.80748866548E+01  0.80748866548E+01  0.00000000000E+00 0. -1.
         23    2    1    2    0    0  0.00000000000E+00  0.00000000000E+00  0.25004464236E+03  0.26619441567E+03  0.91307961102E+02 0.  0.
        -11    1    3    3    0    0 -0.33038452939E+02  0.28541124679E+02  0.86110268010E+02  0.96545913571E+02  0.00000000000E+00 0.  1.
         11    1    3    3    0    0  0.33038452939E+02 -0.28541124679E+02  0.16393437435E+03  0.16964850210E+03  0.00000000000E+00 0. -1.
<mgrwt>
<rscale>  0 0.91307961E+02</rscale>
<asrwt>0</asrwt>
<pdfrwt beam="2">  1        2 0.12422905E-02 0.91307961E+02</pdfrwt>
<pdfrwt beam="1">  1       -2 0.39710690E-01 0.91307961E+02</pdfrwt>
<totfact> 0.55074953E+04</totfact>
</mgrwt>
</event>
<event>
 5    1  0.6125604E+000  0.9276374E+02  0.7546771E-02  0.1296294E+00
         -2   -1    0    0    0  501 -0.00000000000E+00  0.00000000000E+00  0.10917362281E+03  0.10917362281E+03  0.00000000000E+00 0.  1.
          2   -1    0    0  501    0  0.00000000000E+00 -0.00000000000E+00 -0.19705107986E+02  0.19705107986E+02  0.00000000000E+00 0. -1.
         23    2    1    2    0    0  0.00000000000E+00  0.00000000000E+00  0.89468514820E+02  0.12887873079E+03  0.92763743491E+02 0.  0.
        -11    1    3    3    0    0 -0.17104089965E+02  0.42176255274E+02  0.32316201545E+02  0.55818664305E+02  0.00000000000E+00 0.  1.
         11    1    3    3    0    0  0.17104089965E+02 -0.42176255274E+02  0.57152313275E+02  0.73060066487E+02  0.00000000000E+00 0. -1.
<mgrwt>
<rscale>  0 0.92763743E+02</rscale>
<asrwt>0</asrwt>
<pdfrwt beam="2">  1        2 0.30315551E-02 0.92763743E+02</pdfrwt>
<pdfrwt beam="1">  1       -2 0.16795942E-01 0.92763743E+02</pdfrwt>
<totfact> 0.74423975E+04</totfact>
</mgrwt>
</event>
<event>
 5    1  0.6125604E+000  0.8705450E+02  0.7546771E-02  0.1310146E+00
         -1   -1    0    0    0  501 -0.00000000000E+00  0.00000000000E+00  0.10881106140E+02  0.10881106140E+02  0.00000000000E+00 0.  1.
          1   -1    0    0  501    0  0.00000000000E+00 -0.00000000000E+00 -0.17412030471E+03  0.17412030471E+03  0.00000000000E+00 0. -1.
         23    2    1    2    0    0  0.00000000000E+00  0.00000000000E+00 -0.16323919857E+03  0.18500141085E+03  0.87054500554E+02 0.  0.
        -11    1    3    3    0    0  0.18681399461E+02 -0.38669899115E+02 -0.66552840917E+02  0.79206290265E+02  0.00000000000E+00 0.  1.
         11    1    3    3    0    0 -0.18681399461E+02  0.38669899115E+02 -0.96686357654E+02  0.10579512059E+03  0.00000000000E+00 0. -1.
<mgrwt>
<rscale>  0 0.87054501E+02</rscale>
<asrwt>0</asrwt>
<pdfrwt beam="2">  1        1 0.26787738E-01 0.87054501E+02</pdfrwt>
<pdfrwt beam="1">  1       -1 0.16740164E-02 0.87054501E+02</pdfrwt>
<totfact> 0.13051602E+05</totfact>
</mgrwt>
</event>
<event>
 5    1  0.6125604E+000  0.9084481E+02  0.7546771E-02  0.1300819E+00
         -3   -1    0    0    0  501 -0.00000000000E+00  0.00000000000E+00  0.30325627792E+02  0.30325627792E+02  0.00000000000E+00 0.  1.
          3   -1    0    0  501    0  0.00000000000E+00 -0.00000000000E+00 -0.68034700378E+02  0.68034700378E+02  0.00000000000E+00 0. -1.
         23    2    1    2    0    0  0.00000000000E+00  0.00000000000E+00 -0.37709072586E+02  0.98360328170E+02  0.90844812743E+02 0.  0.
        -11    1    3    3    0    0 -0.20490528220E+02  0.12996936157E+02  0.22720189800E+02  0.33241376637E+02  0.00000000000E+00 0.  1.
         11    1    3    3    0    0  0.20490528220E+02 -0.12996936157E+02 -0.60429262386E+02  0.65118951533E+02  0.00000000000E+00 0. -1.
<mgrwt>
<rscale>  0 0.90844813E+02</rscale>
<asrwt>0</asrwt>
<pdfrwt beam="2">  1        3 0.10466877E-01 0.90844813E+02</pdfrwt>
<pdfrwt beam="1">  1       -3 0.46654813E-02 0.90844813E+02</pdfrwt>
<totfact> 0.35140126E+04</totfact>
</mgrwt>
</event>
<event>
 5    1  0.6125604E+000  0.9202581E+02  0.7546771E-02  0.1298019E+00
          2   -1    0    0  501    0  0.00000000000E+00  0.00000000000E+00  0.30115358309E+02  0.30115358309E+02  0.00000000000E+00 0. -1.
         -2   -1    0    0    0  501 -0.00000000000E+00 -0.00000000000E+00 -0.70302587815E+02  0.70302587815E+02  0.00000000000E+00 0.  1.
         23    2    1    2    0    0  0.00000000000E+00  0.00000000000E+00 -0.40187229506E+02  0.10041794612E+03  0.92025814249E+02 0.  0.
        -11    1    3    3    0    0 -0.44659738730E+00 -0.37761359333E+02  0.85918592282E+01  0.38729055668E+02  0.00000000000E+00 0. -1.
         11    1    3    3    0    0  0.44659738730E+00  0.37761359333E+02 -0.48779088735E+02  0.61688890456E+02  0.00000000000E+00 0.  1.
<mgrwt>
<rscale>  0 0.92025814E+02</rscale>
<asrwt>0</asrwt>
<pdfrwt beam="1">  1        2 0.46331321E-02 0.92025814E+02</pdfrwt>
<pdfrwt beam="2">  1       -2 0.10815783E-01 0.92025814E+02</pdfrwt>
<totfact> 0.86149970E+04</totfact>
</mgrwt>
</event>
<event>
 5    1  0.6125604E+000  0.9837734E+02  0.7546771E-02  0.1283746E+00
         -1   -1    0    0    0  501 -0.00000000000E+00  0.00000000000E+00  0.58109556863E+02  0.58109556863E+02  0.00000000000E+00 0.  1.
          1   -1    0    0  501    0  0.00000000000E+00 -0.00000000000E+00 -0.41637307235E+02  0.41637307235E+02  0.00000000000E+00 0. -1.
         23    2    1    2    0    0  0.00000000000E+00  0.00000000000E+00  0.16472249628E+02  0.99746864099E+02  0.98377344392E+02 0.  0.
        -11    1    3    3    0    0  0.34789422547E+01 -0.44806184317E+02  0.28510193355E+02  0.53221502397E+02  0.00000000000E+00 0.  1.
         11    1    3    3    0    0 -0.34789422547E+01  0.44806184317E+02 -0.12037943727E+02  0.46525361701E+02  0.00000000000E+00 0. -1.
<mgrwt>
<rscale>  0 0.98377344E+02</rscale>
<asrwt>0</asrwt>
<pdfrwt beam="2">  1        1 0.64057396E-02 0.98377344E+02</pdfrwt>
<pdfrwt beam="1">  1       -1 0.89399318E-02 0.98377344E+02</pdfrwt>
<totfact> 0.73507790E+04</totfact>
</mgrwt>
</event>
<event>
 5    1  0.6125604E+000  0.9411361E+02  0.7546771E-02  0.1293185E+00
          4   -1    0    0  501    0  0.00000000000E+00  0.00000000000E+00  0.14039559268E+03  0.14039559268E+03  0.00000000000E+00 0. -1.
         -4   -1    0    0    0  501 -0.00000000000E+00 -0.00000000000E+00 -0.15772169080E+02  0.15772169080E+02  0.00000000000E+00 0.  1.
         23    2    1    2    0    0  0.00000000000E+00  0.00000000000E+00  0.12462342360E+03  0.15616776176E+03  0.94113612742E+02 0.  0.
        -11    1    3    3    0    0  0.31705048974E+02 -0.44825212866E+01  0.50931213851E+01  0.32422877926E+02  0.00000000000E+00 0.  1.
         11    1    3    3    0    0 -0.31705048974E+02  0.44825212866E+01  0.11953030222E+03  0.12374488383E+03  0.00000000000E+00 0. -1.
<mgrwt>
<rscale>  0 0.94113613E+02</rscale>
<asrwt>0</asrwt>
<pdfrwt beam="1">  1        4 0.21599321E-01 0.94113613E+02</pdfrwt>
<pdfrwt beam="2">  1       -4 0.24264876E-02 0.94113613E+02</pdfrwt>
<totfact> 0.21450754E+04</totfact>
</mgrwt>
</event>
<event>
 5    1  0.6125604E+000  0.9127940E+02  0.7546771E-02  0.1299783E+00
          4   -1    0    0  501    0  0.00000000000E+00  0.00000000000E+00  0.46922648334E+02  0.46922648334E+02  0.00000000000E+00 0. -1.
         -4   -1    0    0    0  501 -0.00000000000E+00 -0.00000000000E+00 -0.44391833075E+02  0.44391833075E+02  0.00000000000E+00 0.  1.
         23    2    1    2    0    0  0.00000000000E+00  0.00000000000E+00  0.25308152589E+01  0.91314481409E+02  0.91279403423E+02 0.  0.
        -11    1    3    3    0    0 -0.23686958006E+02 -0.16153290674E+02 -0.34258541346E+02  0.44672681074E+02  0.00000000000E+00 0.  1.
         11    1    3    3    0    0  0.23686958006E+02  0.16153290674E+02  0.36789356605E+02  0.46641800336E+02  0.00000000000E+00 0. -1.
<mgrwt>
<rscale>  0 0.91279403E+02</rscale>
<asrwt>0</asrwt>
<pdfrwt beam="1">  1        4 0.72188689E-02 0.91279403E+02</pdfrwt>
<pdfrwt beam="2">  1       -4 0.68295128E-02 0.91279403E+02</pdfrwt>
<totfact> 0.26924857E+04</totfact>
</mgrwt>
</event>
<event>
 5    1  0.6125604E+000  0.9130743E+02  0.7546771E-02  0.1299716E+00
          2   -1    0    0  501    0  0.00000000000E+00  0.00000000000E+00  0.67725353921E+02  0.67725353921E+02  0.00000000000E+00 0. -1.
         -2   -1    0    0    0  501 -0.00000000000E+00 -0.00000000000E+00 -0.30775206634E+02  0.30775206634E+02  0.00000000000E+00 0.  1.
         23    2    1    2    0    0  0.00000000000E+00  0.00000000000E+00  0.36950147287E+02  0.98500560555E+02  0.91307431489E+02 0.  0.
        -11    1    3    3    0    0  0.11227964363E+02 -0.23888852698E+02  0.58658945333E+02  0.64324305939E+02  0.00000000000E+00 0. -1.
         11    1    3    3    0    0 -0.11227964363E+02  0.23888852698E+02 -0.21708798046E+02  0.34176254616E+02  0.00000000000E+00 0.  1.
<mgrwt>
<rscale>  0 0.91307431E+02</rscale>
<asrwt>0</asrwt>
<pdfrwt beam="1">  1        2 0.10419285E-01 0.91307431E+02</pdfrwt>
<pdfrwt beam="2">  1       -2 0.47346472E-02 0.91307431E+02</pdfrwt>
<totfact> 0.10917624E+05</totfact>
</mgrwt>
</event>
<event>
 5    1  0.6125604E+000  0.1028062E+03  0.7546771E-02  0.1274503E+00
          2   -1    0    0  501    0  0.00000000000E+00  0.00000000000E+00  0.14041376911E+03  0.14041376911E+03  0.00000000000E+00 0. -1.
         -2   -1    0    0    0  501 -0.00000000000E+00 -0.00000000000E+00 -0.18817798456E+02  0.18817798456E+02  0.00000000000E+00 0.  1.
         23    2    1    2    0    0  0.00000000000E+00  0.00000000000E+00  0.12159597066E+03  0.15923156757E+03  0.10280618673E+03 0.  0.
        -11    1    3    3    0    0 -0.97276802594E+00 -0.50937103936E+02  0.50208642407E+02  0.71529312924E+02  0.00000000000E+00 0.  1.
         11    1    3    3    0    0  0.97276802594E+00  0.50937103936E+02  0.71387328251E+02  0.87702254645E+02  0.00000000000E+00 0. -1.
<mgrwt>
<rscale>  0 0.10280619E+03</rscale>
<asrwt>0</asrwt>
<pdfrwt beam="1">  1        2 0.21602118E-01 0.10280619E+03</pdfrwt>
<pdfrwt beam="2">  1       -2 0.28950460E-02 0.10280619E+03</pdfrwt>
<totfact> 0.98365970E+04</totfact>
</mgrwt>
</event>
<event>
 5    1  0.6125604E+000  0.8728108E+02  0.7546771E-02  0.1309573E+00
          1   -1    0    0  501    0  0.00000000000E+00  0.00000000000E+00  0.67851144663E+02  0.67851144663E+02  0.00000000000E+00 0. -1.
         -1   -1    0    0    0  501 -0.00000000000E+00 -0.00000000000E+00 -0.28068747150E+02  0.28068747150E+02  0.00000000000E+00 0.  1.
         23    2    1    2    0    0  0.00000000000E+00  0.00000000000E+00  0.39782397514E+02  0.95919891813E+02  0.87281077522E+02 0.  0.
        -11    1    3    3    0    0  0.13696488818E+02  0.22056589159E+02 -0.18657831096E+02  0.31971887534E+02  0.00000000000E+00 0.  1.
         11    1    3    3    0    0 -0.13696488818E+02 -0.22056589159E+02  0.58440228610E+02  0.63948004279E+02  0.00000000000E+00 0. -1.
<mgrwt>
<rscale>  0 0.87281078E+02</rscale>
<asrwt>0</asrwt>
<pdfrwt beam="1">  1        1 0.10438638E-01 0.87281078E+02</pdfrwt>
<pdfrwt beam="2">  1       -1 0.43182688E-02 0.87281078E+02</pdfrwt>
<totfact> 0.11072343E+05</totfact>
</mgrwt>
</event>
<event>
 5    1  0.6125604E+000  0.9099862E+02  0.7546771E-02  0.1300451E+00
          1   -1    0    0  501    0  0.00000000000E+00  0.00000000000E+00  0.44938623488E+01  0.44938623488E+01  0.00000000000E+00 0. -1.
         -1   -1    0    0    0  501 -0.00000000000E+00 -0.00000000000E+00 -0.46066993991E+03  0.46066993991E+03  0.00000000000E+00 0.  1.
         23    2    1    2    0    0  0.00000000000E+00  0.00000000000E+00 -0.45617607757E+03  0.46516380226E+03  0.90998621928E+02 0.  0.
        -11    1    3    3    0    0  0.23584311784E+02 -0.38786598425E+02 -0.24389928906E+03  0.24808765222E+03  0.00000000000E+00 0.  1.
         11    1    3    3    0    0 -0.23584311784E+02  0.38786598425E+02 -0.21227678851E+03  0.21707615004E+03  0.00000000000E+00 0. -1.
<mgrwt>
<rscale>  0 0.90998622E+02</rscale>
<asrwt>0</asrwt>
<pdfrwt beam="1">  1        1 0.69136387E-03 0.90998622E+02</pdfrwt>
<pdfrwt beam="2">  1       -1 0.70872254E-01 0.90998622E+02</pdfrwt>
<totfact> 0.49644469E+04</totfact>
</mgrwt>
</event>
<event>
 5    1  0.6125604E+000  0.8115178E+02  0.7546771E-02  0.1325814E+00
          2   -1    0    0  501    0  0.00000000000E+00  0.00000000000E+00  0.81377424976E+02  0.81377424976E+02  0.00000000000E+00 0. -1.
         -2   -1    0    0    0  501 -0.00000000000E+00 -0.00000000000E+00 -0.20231690147E+02  0.20231690147E+02  0.00000000000E+00 0.  1.
         23    2    1    2    0    0  0.00000000000E+00  0.00000000000E+00  0.61145734830E+02  0.10160911512E+03  0.81151779945E+02 0.  0.
        -11    1    3    3    0    0 -0.22947903042E+02  0.33379876437E+02  0.33530668223E+02  0.52584485511E+02  0.00000000000E+00 0.  1.
         11    1    3    3    0    0  0.22947903042E+02 -0.33379876437E+02  0.27615066607E+02  0.49024629613E+02  0.00000000000E+00 0. -1.
<mgrwt>
<rscale>  0 0.81151780E+02</rscale>
<asrwt>0</asrwt>
<pdfrwt beam="1">  1        2 0.12519604E-01 0.81151780E+02</pdfrwt>
<pdfrwt beam="2">  1       -2 0.31125678E-02 0.81151780E+02</pdfrwt>
<totfact> 0.15900517E+05</totfact>
</mgrwt>
</event>
<event>
 5    1  0.6125604E+000  0.9066665E+02  0.7546771E-02  0.1301245E+00
         -2   -1    0    0    0  501 -0.00000000000E+00  0.00000000000E+00  0.66151878782E+02  0.66151878782E+02  0.00000000000E+00 0.  1.
          2   -1    0    0  501    0  0.00000000000E+00 -0.00000000000E+00 -0.31066547982E+02  0.31066547982E+02  0.00000000000E+00 0. -1.
         23    2    1    2    0    0  0.00000000000E+00  0.00000000000E+00  0.35085330800E+02  0.97218426764E+02  0.90666653546E+02 0.  0.
        -11    1    3    3    0    0  0.13790408044E+02  0.20790180858E+02 -0.23043607356E+02  0.33961961282E+02  0.00000000000E+00 0. -1.
         11    1    3    3    0    0 -0.13790408044E+02 -0.20790180858E+02  0.58128938156E+02  0.63256465482E+02  0.00000000000E+00 0.  1.
<mgrwt>
<rscale>  0 0.90666654E+02</rscale>
<asrwt>0</asrwt>
<pdfrwt beam="2">  1        2 0.47794689E-02 0.90666654E+02</pdfrwt>
<pdfrwt beam="1">  1       -2 0.10177212E-01 0.90666654E+02</pdfrwt>
<totfact> 0.90785446E+04</totfact>
</mgrwt>
</event>
<event>
 5    1  0.6125604E+000  0.8872044E+02  0.7546771E-02  0.1305980E+00
         -2   -1    0    0    0  501 -0.00000000000E+00  0.00000000000E+00  0.19843905340E+03  0.19843905340E+03  0.00000000000E+00 0.  1.
          2   -1    0    0  501    0  0.00000000000E+00 -0.00000000000E+00 -0.99165411501E+01  0.99165411501E+01  0.00000000000E+00 0. -1.
         23    2    1    2    0    0  0.00000000000E+00  0.00000000000E+00  0.18852251225E+03  0.20835559455E+03  0.88720438206E+02 0.  0.
        -11    1    3    3    0    0  0.17231842737E+02  0.35498455540E+02  0.46665143431E+02  0.61112293046E+02  0.00000000000E+00 0. -1.
         11    1    3    3    0    0 -0.17231842737E+02 -0.35498455540E+02  0.14185736882E+03  0.14724330151E+03  0.00000000000E+00 0.  1.
<mgrwt>
<rscale>  0 0.88720438E+02</rscale>
<asrwt>0</asrwt>
<pdfrwt beam="2">  1        2 0.15256219E-02 0.88720438E+02</pdfrwt>
<pdfrwt beam="1">  1       -2 0.30529082E-01 0.88720438E+02</pdfrwt>
<totfact> 0.67040777E+04</totfact>
</mgrwt>
</event>
<event>
 5    1  0.6125604E+000  0.9169154E+02  0.7546771E-02  0.1298806E+00
          1   -1    0    0  501    0  0.00000000000E+00  0.00000000000E+00  0.28989056320E+03  0.28989056320E+03  0.00000000000E+00 0. -1.
         -1   -1    0    0    0  501 -0.00000000000E+00 -0.00000000000E+00 -0.72504422165E+01  0.72504422165E+01  0.00000000000E+00 0.  1.
         23    2    1    2    0    0  0.00000000000E+00  0.00000000000E+00  0.28264012099E+03  0.29714100542E+03  0.91691543288E+02 0.  0.
        -11    1    3    3    0    0 -0.22019551922E+02  0.35097828173E+02  0.20491600292E+03  0.20906287681E+03  0.00000000000E+00 0. -1.
         11    1    3    3    0    0  0.22019551922E+02 -0.35097828173E+02  0.77724118066E+02  0.88078128605E+02  0.00000000000E+00 0.  1.
<mgrwt>
<rscale>  0 0.91691543E+02</rscale>
<asrwt>0</asrwt>
<pdfrwt beam="1">  1        1 0.44598539E-01 0.91691543E+02</pdfrwt>
<pdfrwt beam="2">  1       -1 0.11154529E-02 0.91691543E+02</pdfrwt>
<totfact> 0.12538593E+05</totfact>
</mgrwt>
</event>
<event>
 4    1  0.6125604E+000  0.4063425E+02  0.7546771E-02  0.1503595E+00
         -2   -1    0    0    0  501 -0.00000000000E+00  0.00000000000E+00  0.73257314755E+01  0.73257314755E+01  0.00000000000E+00 0.  1.
          2   -1    0    0  501    0  0.00000000000E+00 -0.00000000000E+00 -0.56347352413E+02  0.56347352413E+02  0.00000000000E+00 0. -1.
        -11    1    1    2    0    0  0.11151069001E+02  0.70802384352E+01 -0.32089936665E+00  0.13212838173E+02  0.00000000000E+00 0.  1.
         11    1    1    2    0    0 -0.11151069001E+02 -0.70802384352E+01 -0.48700721570E+02  0.50460245715E+02  0.00000000000E+00 0. -1.
<mgrwt>
<rscale>  0 0.40634250E+02</rscale>
<asrwt>0</asrwt>
<pdfrwt beam="2">  1        2 0.86688235E-02 0.40634250E+02</pdfrwt>
<pdfrwt beam="1">  1       -2 0.11270356E-02 0.40634250E+02</pdfrwt>
<totfact> 0.88672200E+05</totfact>
</mgrwt>
</event>
<event>
 5    1  0.6125604E+000  0.9085340E+02  0.7546771E-02  0.1300798E+00
          3   -1    0    0  501    0  0.00000000000E+00  0.00000000000E+00  0.74594202795E+02  0.74594202795E+02  0.00000000000E+00 0. -1.
         -3   -1    0    0    0  501 -0.00000000000E+00 -0.00000000000E+00 -0.27664146985E+02  0.27664146985E+02  0.00000000000E+00 0.  1.
         23    2    1    2    0    0  0.00000000000E+00  0.00000000000E+00  0.46930055810E+02  0.10225834978E+03  0.90853398184E+02 0.  0.
        -11    1    3    3    0    0 -0.35869327282E+02  0.23847010675E+02  0.39709235093E+02  0.58584229187E+02  0.00000000000E+00 0. -1.
         11    1    3    3    0    0  0.35869327282E+02 -0.23847010675E+02  0.72208207172E+01  0.43674120594E+02  0.00000000000E+00 0.  1.
<mgrwt>
<rscale>  0 0.90853398E+02</rscale>
<asrwt>0</asrwt>
<pdfrwt beam="1">  1        3 0.11476031E-01 0.90853398E+02</pdfrwt>
<pdfrwt beam="2">  1       -3 0.42560226E-02 0.90853398E+02</pdfrwt>
<totfact> 0.34839729E+04</totfact>
</mgrwt>
</event>
<event>
 5    1  0.6125604E+000  0.9134431E+02  0.7546771E-02  0.1299629E+00
         -2   -1    0    0    0  501 -0.00000000000E+00  0.00000000000E+00  0.85811902614E+01  0.85811902614E+01  0.00000000000E+00 0.  1.
          2   -1    0    0  501    0  0.00000000000E+00 -0.00000000000E+00 -0.24308351090E+03  0.24308351090E+03  0.00000000000E+00 0. -1.
         23    2    1    2    0    0  0.00000000000E+00  0.00000000000E+00 -0.23450232063E+03  0.25166470116E+03  0.91344312497E+02 0.  0.
        -11    1    3    3    0    0 -0.39942363381E+02  0.12877555746E+02 -0.67603742575E+02  0.79570659445E+02  0.00000000000E+00 0.  1.
         11    1    3    3    0    0  0.39942363381E+02 -0.12877555746E+02 -0.16689857806E+03  0.17209404171E+03  0.00000000000E+00 0. -1.
<mgrwt>
<rscale>  0 0.91344312E+02</rscale>
<asrwt>0</asrwt>
<pdfrwt beam="2">  1        2 0.37397463E-01 0.91344312E+02</pdfrwt>
<pdfrwt beam="1">  1       -2 0.13201831E-02 0.91344312E+02</pdfrwt>
<totfact> 0.16531251E+05</totfact>
</mgrwt>
</event>
<event>
 5    1  0.6125604E+000  0.8907766E+02  0.7546771E-02  0.1305101E+00
          2   -1    0    0  501    0  0.00000000000E+00  0.00000000000E+00  0.18123377010E+03  0.18123377010E+03  0.00000000000E+00 0. -1.
         -2   -1    0    0    0  501 -0.00000000000E+00 -0.00000000000E+00 -0.10945572496E+02  0.10945572496E+02  0.00000000000E+00 0.  1.
         23    2    1    2    0    0  0.00000000000E+00  0.00000000000E+00  0.17028819760E+03  0.19217934259E+03  0.89077659809E+02 0.  0.
        -11    1    3    3    0    0 -0.43646852816E+02  0.26440932747E+01  0.10340834261E+03  0.11227343547E+03  0.00000000000E+00 0.  1.
         11    1    3    3    0    0  0.43646852816E+02 -0.26440932747E+01  0.66879854989E+02  0.79905907124E+02  0.00000000000E+00 0. -1.
<mgrwt>
<rscale>  0 0.89077660E+02</rscale>
<asrwt>0</asrwt>
<pdfrwt beam="1">  1        2 0.27882116E-01 0.89077660E+02</pdfrwt>
<pdfrwt beam="2">  1       -2 0.16839344E-02 0.89077660E+02</pdfrwt>
<totfact> 0.15897606E+05</totfact>
</mgrwt>
</event>
<event>
 5    1  0.6125604E+000  0.9109934E+02  0.7546771E-02  0.1300211E+00
         -2   -1    0    0    0  501 -0.00000000000E+00  0.00000000000E+00  0.68453309045E+02  0.68453309045E+02  0.00000000000E+00 0. -1.
          2   -1    0    0  501    0  0.00000000000E+00 -0.00000000000E+00 -0.30309310992E+02  0.30309310992E+02  0.00000000000E+00 0.  1.
         23    2    1    2    0    0  0.00000000000E+00  0.00000000000E+00  0.38143998053E+02  0.98762620037E+02  0.91099344285E+02 0.  0.
        -11    1    3    3    0    0 -0.18254689510E+02 -0.33979201227E+02  0.45337092519E+02  0.59525387552E+02  0.00000000000E+00 0. -1.
         11    1    3    3    0    0  0.18254689510E+02  0.33979201227E+02 -0.71930944657E+01  0.39237232485E+02  0.00000000000E+00 0.  1.
<mgrwt>
<rscale>  0 0.91099344E+02</rscale>
<asrwt>0</asrwt>
<pdfrwt beam="2">  1        2 0.46629709E-02 0.91099344E+02</pdfrwt>
<pdfrwt beam="1">  1       -2 0.10531278E-01 0.91099344E+02</pdfrwt>
<totfact> 0.88932548E+04</totfact>
</mgrwt>
</event>
<event>
 5    1  0.6125604E+000  0.9229109E+02  0.7546771E-02  0.1297396E+00
         -4   -1    0    0    0  501 -0.00000000000E+00  0.00000000000E+00  0.38747546397E+02  0.38747546397E+02  0.00000000000E+00 0.  1.
          4   -1    0    0  501    0  0.00000000000E+00 -0.00000000000E+00 -0.54956035731E+02  0.54956035731E+02  0.00000000000E+00 0. -1.
         23    2    1    2    0    0  0.00000000000E+00  0.00000000000E+00 -0.16208489334E+02  0.93703582128E+02  0.92291094788E+02 0.  0.
        -11    1    3    3    0    0 -0.15089336719E+02 -0.34541086310E+01 -0.52241311388E+02  0.54486453037E+02  0.00000000000E+00 0. -1.
         11    1    3    3    0    0  0.15089336719E+02  0.34541086310E+01  0.36032822053E+02  0.39217129091E+02  0.00000000000E+00 0.  1.
<mgrwt>
<rscale>  0 0.92291095E+02</rscale>
<asrwt>0</asrwt>
<pdfrwt beam="2">  1        4 0.84547747E-02 0.92291095E+02</pdfrwt>
<pdfrwt beam="1">  1       -4 0.59611610E-02 0.92291095E+02</pdfrwt>
<totfact> 0.25981589E+04</totfact>
</mgrwt>
</event>
<event>
 5    1  0.6125604E+000  0.9147499E+02  0.7546771E-02  0.1299319E+00
          1   -1    0    0  501    0  0.00000000000E+00  0.00000000000E+00  0.20109718763E+02  0.20109718763E+02  0.00000000000E+00 0. -1.
         -1   -1    0    0    0  501 -0.00000000000E+00 -0.00000000000E+00 -0.10402524034E+03  0.10402524034E+03  0.00000000000E+00 0.  1.
         23    2    1    2    0    0  0.00000000000E+00  0.00000000000E+00 -0.83915521576E+02  0.12413495910E+03  0.91474987345E+02 0.  0.
        -11    1    3    3    0    0  0.55880716757E+01  0.32638050409E+02 -0.84773293554E+02  0.91010879457E+02  0.00000000000E+00 0.  1.
         11    1    3    3    0    0 -0.55880716757E+01 -0.32638050409E+02  0.85777197824E+00  0.33124079645E+02  0.00000000000E+00 0. -1.
<mgrwt>
<rscale>  0 0.91474987E+02</rscale>
<asrwt>0</asrwt>
<pdfrwt beam="1">  1        1 0.30938028E-02 0.91474987E+02</pdfrwt>
<pdfrwt beam="2">  1       -1 0.16003883E-01 0.91474987E+02</pdfrwt>
<totfact> 0.80092378E+04</totfact>
</mgrwt>
</event>
<event>
 5    1  0.6125604E+000  0.8845564E+02  0.7546771E-02  0.1306635E+00
         -1   -1    0    0    0  501 -0.00000000000E+00  0.00000000000E+00  0.43035698480E+02  0.43035698480E+02  0.00000000000E+00 0.  1.
          1   -1    0    0  501    0  0.00000000000E+00 -0.00000000000E+00 -0.45452961990E+02  0.45452961990E+02  0.00000000000E+00 0. -1.
         23    2    1    2    0    0  0.00000000000E+00  0.00000000000E+00 -0.24172635104E+01  0.88488660470E+02  0.88455637859E+02 0.  0.
        -11    1    3    3    0    0  0.39694466572E+02 -0.11066460348E+02 -0.17276469334E+02  0.44683258763E+02  0.00000000000E+00 0. -1.
         11    1    3    3    0    0 -0.39694466572E+02  0.11066460348E+02  0.14859205824E+02  0.43805401707E+02  0.00000000000E+00 0.  1.
<mgrwt>
<rscale>  0 0.88455638E+02</rscale>
<asrwt>0</asrwt>
<pdfrwt beam="2">  1        1 0.69927633E-02 0.88455638E+02</pdfrwt>
<pdfrwt beam="1">  1       -1 0.66208767E-02 0.88455638E+02</pdfrwt>
<totfact> 0.10060874E+05</totfact>
</mgrwt>
</event>
<event>
 5    1  0.6125604E+000  0.9276654E+02  0.7546771E-02  0.1296287E+00
          2   -1    0    0  501    0  0.00000000000E+00  0.00000000000E+00  0.25325973773E+02  0.25325973773E+02  0.00000000000E+00 0. -1.
         -2   -1    0    0    0  501 -0.00000000000E+00 -0.00000000000E+00 -0.84948676019E+02  0.84948676019E+02  0.00000000000E+00 0.  1.
         23    2    1    2    0    0  0.00000000000E+00  0.00000000000E+00 -0.59622702245E+02  0.11027464979E+03  0.92766544421E+02 0.  0.
        -11    1    3    3    0    0  0.25500004383E+02 -0.36203936331E+02 -0.13407150066E+02  0.46267990040E+02  0.00000000000E+00 0.  1.
         11    1    3    3    0    0 -0.25500004383E+02  0.36203936331E+02 -0.46215552179E+02  0.64006659752E+02  0.00000000000E+00 0. -1.
<mgrwt>
<rscale>  0 0.92766544E+02</rscale>
<asrwt>0</asrwt>
<pdfrwt beam="1">  1        2 0.38963036E-02 0.92766544E+02</pdfrwt>
<pdfrwt beam="2">  1       -2 0.13069027E-01 0.92766544E+02</pdfrwt>
<totfact> 0.80173669E+04</totfact>
</mgrwt>
</event>
<event>
 5    1  0.6125604E+000  0.9233579E+02  0.7546771E-02  0.1297292E+00
          2   -1    0    0  501    0  0.00000000000E+00  0.00000000000E+00  0.33487367218E+03  0.33487367218E+03  0.00000000000E+00 0. -1.
         -2   -1    0    0    0  501 -0.00000000000E+00 -0.00000000000E+00 -0.63650107020E+01  0.63650107020E+01  0.00000000000E+00 0.  1.
         23    2    1    2    0    0  0.00000000000E+00  0.00000000000E+00  0.32850866148E+03  0.34123868289E+03  0.92335789535E+02 0.  0.
        -11    1    3    3    0    0  0.10920597587E+02  0.44789735617E+02  0.15513081589E+03  0.16183618232E+03  0.00000000000E+00 0.  1.
         11    1    3    3    0    0 -0.10920597587E+02 -0.44789735617E+02  0.17337784559E+03  0.17940250057E+03  0.00000000000E+00 0. -1.
<mgrwt>
<rscale>  0 0.92335790E+02</rscale>
<asrwt>0</asrwt>
<pdfrwt beam="1">  1        2 0.51519013E-01 0.92335790E+02</pdfrwt>
<pdfrwt beam="2">  1       -2 0.97923268E-03 0.92335790E+02</pdfrwt>
<totfact> 0.18093858E+05</totfact>
</mgrwt>
</event>
<event>
 5    1  0.6125604E+000  0.8675989E+02  0.7546771E-02  0.1310893E+00
          2   -1    0    0  501    0  0.00000000000E+00  0.00000000000E+00  0.80654467827E+02  0.80654467827E+02  0.00000000000E+00 0. -1.
         -2   -1    0    0    0  501 -0.00000000000E+00 -0.00000000000E+00 -0.23331872610E+02  0.23331872610E+02  0.00000000000E+00 0.  1.
         23    2    1    2    0    0  0.00000000000E+00  0.00000000000E+00  0.57322595217E+02  0.10398634044E+03  0.86759893240E+02 0.  0.
        -11    1    3    3    0    0 -0.42588992198E+02 -0.77523568647E+01  0.25292856804E+02  0.50136313175E+02  0.00000000000E+00 0.  1.
         11    1    3    3    0    0  0.42588992198E+02  0.77523568647E+01  0.32029738412E+02  0.53850027262E+02  0.00000000000E+00 0. -1.
<mgrwt>
<rscale>  0 0.86759893E+02</rscale>
<asrwt>0</asrwt>
<pdfrwt beam="1">  1        2 0.12408380E-01 0.86759893E+02</pdfrwt>
<pdfrwt beam="2">  1       -2 0.35895189E-02 0.86759893E+02</pdfrwt>
<totfact> 0.13206802E+05</totfact>
</mgrwt>
</event>
<event>
 5    1  0.6125604E+000  0.9250545E+02  0.7546771E-02  0.1296895E+00
         -2   -1    0    0    0  501 -0.00000000000E+00  0.00000000000E+00  0.15385286660E+02  0.15385286660E+02  0.00000000000E+00 0.  1.
          2   -1    0    0  501    0  0.00000000000E+00 -0.00000000000E+00 -0.13904936536E+03  0.13904936536E+03  0.00000000000E+00 0. -1.
         23    2    1    2    0    0  0.00000000000E+00  0.00000000000E+00 -0.12366407870E+03  0.15443465202E+03  0.92505445158E+02 0.  0.
        -11    1    3    3    0    0  0.88693243434E+01  0.43091103346E+02 -0.37998628524E+02  0.58132640329E+02  0.00000000000E+00 0.  1.
         11    1    3    3    0    0 -0.88693243434E+01 -0.43091103346E+02 -0.85665450176E+02  0.96302011691E+02  0.00000000000E+00 0. -1.
<mgrwt>
<rscale>  0 0.92505445E+02</rscale>
<asrwt>0</asrwt>
<pdfrwt beam="2">  1        2 0.21392209E-01 0.92505445E+02</pdfrwt>
<pdfrwt beam="1">  1       -2 0.23669673E-02 0.92505445E+02</pdfrwt>
<totfact> 0.13101388E+05</totfact>
</mgrwt>
</event>
<event>
 5    1  0.6125604E+000  0.9153331E+02  0.7546771E-02  0.1299180E+00
         -4   -1    0    0    0  501 -0.00000000000E+00  0.00000000000E+00  0.71303185393E+02  0.71303185393E+02  0.00000000000E+00 0.  1.
          4   -1    0    0  501    0  0.00000000000E+00 -0.00000000000E+00 -0.29375782569E+02  0.29375782569E+02  0.00000000000E+00 0. -1.
         23    2    1    2    0    0  0.00000000000E+00  0.00000000000E+00  0.41927402825E+02  0.10067896796E+03  0.91533313511E+02 0.  0.
        -11    1    3    3    0    0 -0.58934162465E+01  0.44123100207E+02  0.92710940361E+01  0.45470138680E+02  0.00000000000E+00 0. -1.
         11    1    3    3    0    0  0.58934162465E+01 -0.44123100207E+02  0.32656308789E+02  0.55208829282E+02  0.00000000000E+00 0.  1.
<mgrwt>
<rscale>  0 0.91533314E+02</rscale>
<asrwt>0</asrwt>
<pdfrwt beam="2">  1        4 0.45193512E-02 0.91533314E+02</pdfrwt>
<pdfrwt beam="1">  1       -4 0.10969721E-01 0.91533314E+02</pdfrwt>
<totfact> 0.26137744E+04</totfact>
</mgrwt>
</event>
<event>
 5    1  0.6125604E+000  0.8996099E+02  0.7546771E-02  0.1302946E+00
         -2   -1    0    0    0  501 -0.00000000000E+00  0.00000000000E+00  0.87606809749E+01  0.87606809749E+01  0.00000000000E+00 0.  1.
          2   -1    0    0  501    0  0.00000000000E+00 -0.00000000000E+00 -0.23094610007E+03  0.23094610007E+03  0.00000000000E+00 0. -1.
         23    2    1    2    0    0  0.00000000000E+00  0.00000000000E+00 -0.22218541909E+03  0.23970678104E+03  0.89960993883E+02 0.  0.
        -11    1    3    3    0    0 -0.28856729106E+02 -0.33115745271E+02 -0.85275068370E+02  0.95922889266E+02  0.00000000000E+00 0.  1.
         11    1    3    3    0    0  0.28856729106E+02  0.33115745271E+02 -0.13691035072E+03  0.14378389178E+03  0.00000000000E+00 0. -1.
<mgrwt>
<rscale>  0 0.89960994E+02</rscale>
<asrwt>0</asrwt>
<pdfrwt beam="2">  1        2 0.35530171E-01 0.89960994E+02</pdfrwt>
<pdfrwt beam="1">  1       -2 0.13477970E-02 0.89960994E+02</pdfrwt>
<totfact> 0.16899065E+05</totfact>
</mgrwt>
</event>
<event>
 5    1  0.6125604E+000  0.9429634E+02  0.7546771E-02  0.1292769E+00
         -1   -1    0    0    0  501 -0.00000000000E+00  0.00000000000E+00  0.18901545451E+02  0.18901545451E+02  0.00000000000E+00 0.  1.
          1   -1    0    0  501    0  0.00000000000E+00 -0.00000000000E+00 -0.11760678179E+03  0.11760678179E+03  0.00000000000E+00 0. -1.
         23    2    1    2    0    0  0.00000000000E+00  0.00000000000E+00 -0.98705236339E+02  0.13650832724E+03  0.94296339936E+02 0.  0.
        -11    1    3    3    0    0 -0.44546700426E+02 -0.15076372233E+02 -0.54206986203E+02  0.71764217210E+02  0.00000000000E+00 0. -1.
         11    1    3    3    0    0  0.44546700426E+02  0.15076372233E+02 -0.44498250135E+02  0.64744110030E+02  0.00000000000E+00 0.  1.
<mgrwt>
<rscale>  0 0.94296340E+02</rscale>
<asrwt>0</asrwt>
<pdfrwt beam="2">  1        1 0.18093351E-01 0.94296340E+02</pdfrwt>
<pdfrwt beam="1">  1       -1 0.29079301E-02 0.94296340E+02</pdfrwt>
<totfact> 0.97970249E+04</totfact>
</mgrwt>
</event>
<event>
 5    1  0.6125604E+000  0.1253143E+03  0.7546771E-02  0.1234579E+00
         -2   -1    0    0    0  501 -0.00000000000E+00  0.00000000000E+00  0.12135376716E+03  0.12135376716E+03  0.00000000000E+00 0.  1.
          2   -1    0    0  501    0  0.00000000000E+00 -0.00000000000E+00 -0.32351034066E+02  0.32351034066E+02  0.00000000000E+00 0. -1.
         23    2    1    2    0    0  0.00000000000E+00  0.00000000000E+00  0.89002733095E+02  0.15370480123E+03  0.12531432249E+03 0.  0.
        -11    1    3    3    0    0  0.44472900951E+02 -0.29240558248E+02  0.39495001207E+01  0.53370850816E+02  0.00000000000E+00 0. -1.
         11    1    3    3    0    0 -0.44472900951E+02  0.29240558248E+02  0.85053232974E+02  0.10033395041E+03  0.00000000000E+00 0.  1.
<mgrwt>
<rscale>  0 0.12531432E+03</rscale>
<asrwt>0</asrwt>
<pdfrwt beam="2">  1        2 0.49770822E-02 0.12531432E+03</pdfrwt>
<pdfrwt beam="1">  1       -2 0.18669810E-01 0.12531432E+03</pdfrwt>
<totfact> 0.33906510E+04</totfact>
</mgrwt>
</event>
<event>
 5    1  0.6125604E+000  0.9104122E+02  0.7546771E-02  0.1300350E+00
          1   -1    0    0  501    0  0.00000000000E+00  0.00000000000E+00  0.29129856902E+02  0.29129856902E+02  0.00000000000E+00 0. -1.
         -1   -1    0    0    0  501 -0.00000000000E+00 -0.00000000000E+00 -0.71134088640E+02  0.71134088640E+02  0.00000000000E+00 0.  1.
         23    2    1    2    0    0  0.00000000000E+00  0.00000000000E+00 -0.42004231738E+02  0.10026394554E+03  0.91041217543E+02 0.  0.
        -11    1    3    3    0    0 -0.13155451077E+02 -0.31998011545E+02 -0.53582575666E+02  0.63781118294E+02  0.00000000000E+00 0.  1.
         11    1    3    3    0    0  0.13155451077E+02  0.31998011545E+02  0.11578343928E+02  0.36482827247E+02  0.00000000000E+00 0. -1.
<mgrwt>
<rscale>  0 0.91041218E+02</rscale>
<asrwt>0</asrwt>
<pdfrwt beam="1">  1        1 0.44815165E-02 0.91041218E+02</pdfrwt>
<pdfrwt beam="2">  1       -1 0.10943706E-01 0.91041218E+02</pdfrwt>
<totfact> 0.86642791E+04</totfact>
</mgrwt>
</event>
<event>
 5    1  0.6125604E+000  0.9410770E+02  0.7546771E-02  0.1293199E+00
          2   -1    0    0  501    0  0.00000000000E+00  0.00000000000E+00  0.19398908859E+03  0.19398908859E+03  0.00000000000E+00 0. -1.
         -2   -1    0    0    0  501 -0.00000000000E+00 -0.00000000000E+00 -0.11413346895E+02  0.11413346895E+02  0.00000000000E+00 0.  1.
         23    2    1    2    0    0  0.00000000000E+00  0.00000000000E+00  0.18257574170E+03  0.20540243549E+03  0.94107699197E+02 0.  0.
        -11    1    3    3    0    0 -0.42953489336E+02 -0.12428977465E+02  0.59315258291E+02  0.74281771607E+02  0.00000000000E+00 0.  1.
         11    1    3    3    0    0  0.42953489336E+02  0.12428977465E+02  0.12326048341E+03  0.13112066388E+03  0.00000000000E+00 0. -1.
<mgrwt>
<rscale>  0 0.94107699E+02</rscale>
<asrwt>0</asrwt>
<pdfrwt beam="1">  1        2 0.29844473E-01 0.94107699E+02</pdfrwt>
<pdfrwt beam="2">  1       -2 0.17558997E-02 0.94107699E+02</pdfrwt>
<totfact> 0.14045300E+05</totfact>
</mgrwt>
</event>
<event>
 5    1  0.6125604E+000  0.9452767E+02  0.7546771E-02  0.1292243E+00
         -2   -1    0    0    0  501 -0.00000000000E+00  0.00000000000E+00  0.22659900035E+02  0.22659900035E+02  0.00000000000E+00 0.  1.
          2   -1    0    0  501    0  0.00000000000E+00 -0.00000000000E+00 -0.98582527969E+02  0.98582527969E+02  0.00000000000E+00 0. -1.
         23    2    1    2    0    0  0.00000000000E+00  0.00000000000E+00 -0.75922627935E+02  0.12124242800E+03  0.94527672752E+02 0.  0.
        -11    1    3    3    0    0 -0.22744454614E+02 -0.35746226719E+02 -0.64827918351E+02  0.77445218949E+02  0.00000000000E+00 0. -1.
         11    1    3    3    0    0  0.22744454614E+02  0.35746226719E+02 -0.11094709584E+02  0.43797209056E+02  0.00000000000E+00 0.  1.
<mgrwt>
<rscale>  0 0.94527673E+02</rscale>
<asrwt>0</asrwt>
<pdfrwt beam="2">  1        2 0.15166543E-01 0.94527673E+02</pdfrwt>
<pdfrwt beam="1">  1       -2 0.34861384E-02 0.94527673E+02</pdfrwt>
<totfact> 0.11054720E+05</totfact>
</mgrwt>
</event>
<event>
 5    1  0.6125604E+000  0.8418637E+02  0.7546771E-02  0.1317574E+00
          3   -1    0    0  501    0  0.00000000000E+00  0.00000000000E+00  0.76232928419E+01  0.76232928419E+01  0.00000000000E+00 0. -1.
         -3   -1    0    0    0  501 -0.00000000000E+00 -0.00000000000E+00 -0.23242402511E+03  0.23242402511E+03  0.00000000000E+00 0.  1.
         23    2    1    2    0    0  0.00000000000E+00  0.00000000000E+00 -0.22480073227E+03  0.24004731795E+03  0.84186374359E+02 0.  0.
        -11    1    3    3    0    0  0.32139234974E+02 -0.19137926642E+02 -0.16744349788E+03  0.17157073073E+03  0.00000000000E+00 0.  1.
         11    1    3    3    0    0 -0.32139234974E+02  0.19137926642E+02 -0.57357234384E+02  0.68476587218E+02  0.00000000000E+00 0. -1.
<mgrwt>
<rscale>  0 0.84186374E+02</rscale>
<asrwt>0</asrwt>
<pdfrwt beam="1">  1        3 0.11728142E-02 0.84186374E+02</pdfrwt>
<pdfrwt beam="2">  1       -3 0.35757544E-01 0.84186374E+02</pdfrwt>
<totfact> 0.32865463E+04</totfact>
</mgrwt>
</event>
<event>
 5    1  0.6125604E+000  0.9126497E+02  0.7546771E-02  0.1299817E+00
          3   -1    0    0  501    0  0.00000000000E+00  0.00000000000E+00  0.19661527135E+03  0.19661527135E+03  0.00000000000E+00 0. -1.
         -3   -1    0    0    0  501 -0.00000000000E+00 -0.00000000000E+00 -0.10590854536E+02  0.10590854536E+02  0.00000000000E+00 0.  1.
         23    2    1    2    0    0  0.00000000000E+00  0.00000000000E+00  0.18602441681E+03  0.20720612589E+03  0.91264971121E+02 0.  0.
        -11    1    3    3    0    0 -0.44513286331E+02 -0.54684965702E+01  0.73883452276E+02  0.86429749710E+02  0.00000000000E+00 0.  1.
         11    1    3    3    0    0  0.44513286331E+02  0.54684965702E+01  0.11214096454E+03  0.12077637618E+03  0.00000000000E+00 0. -1.
<mgrwt>
<rscale>  0 0.91264971E+02</rscale>
<asrwt>0</asrwt>
<pdfrwt beam="1">  1        3 0.30248500E-01 0.91264971E+02</pdfrwt>
<pdfrwt beam="2">  1       -3 0.16293624E-02 0.91264971E+02</pdfrwt>
<totfact> 0.28056936E+04</totfact>
</mgrwt>
</event>
<event>
 5    1  0.6125604E+000  0.9489939E+02  0.7546771E-02  0.1291403E+00
          4   -1    0    0  501    0  0.00000000000E+00  0.00000000000E+00  0.94649478998E+01  0.94649478998E+01  0.00000000000E+00 0. -1.
         -4   -1    0    0    0  501 -0.00000000000E+00 -0.00000000000E+00 -0.23787487732E+03  0.23787487732E+03  0.00000000000E+00 0.  1.
         23    2    1    2    0    0  0.00000000000E+00  0.00000000000E+00 -0.22840992942E+03  0.24733982522E+03  0.94899385046E+02 0.  0.
        -11    1    3    3    0    0  0.42011377755E+02 -0.17300374112E+02 -0.78543398722E+02  0.90737667416E+02  0.00000000000E+00 0. -1.
         11    1    3    3    0    0 -0.42011377755E+02  0.17300374112E+02 -0.14986653070E+03  0.15660215781E+03  0.00000000000E+00 0.  1.
<mgrwt>
<rscale>  0 0.94899385E+02</rscale>
<asrwt>0</asrwt>
<pdfrwt beam="1">  1        4 0.14561459E-02 0.94899385E+02</pdfrwt>
<pdfrwt beam="2">  1       -4 0.36596133E-01 0.94899385E+02</pdfrwt>
<totfact> 0.17570492E+04</totfact>
</mgrwt>
</event>
<event>
 5    1  0.6125604E+000  0.9070736E+02  0.7546771E-02  0.1301148E+00
          2   -1    0    0  501    0  0.00000000000E+00  0.00000000000E+00  0.24416235245E+03  0.24416235245E+03  0.00000000000E+00 0. -1.
         -2   -1    0    0    0  501 -0.00000000000E+00 -0.00000000000E+00 -0.84245426631E+01  0.84245426631E+01  0.00000000000E+00 0.  1.
         23    2    1    2    0    0  0.00000000000E+00  0.00000000000E+00  0.23573780978E+03  0.25258689511E+03  0.90707357031E+02 0.  0.
        -11    1    3    3    0    0 -0.19325089055E+02  0.39922070393E+02  0.14424593913E+03  0.15091097285E+03  0.00000000000E+00 0.  1.
         11    1    3    3    0    0  0.19325089055E+02 -0.39922070393E+02  0.91491870653E+02  0.10167592226E+03  0.00000000000E+00 0. -1.
<mgrwt>
<rscale>  0 0.90707357E+02</rscale>
<asrwt>0</asrwt>
<pdfrwt beam="1">  1        2 0.37563433E-01 0.90707357E+02</pdfrwt>
<pdfrwt beam="2">  1       -2 0.12960837E-02 0.90707357E+02</pdfrwt>
<totfact> 0.16871648E+05</totfact>
</mgrwt>
</event>
<event>
 5    1  0.6125604E+000  0.8807410E+02  0.7546771E-02  0.1307584E+00
         -1   -1    0    0    0  501 -0.00000000000E+00  0.00000000000E+00  0.73306493770E+02  0.73306493770E+02  0.00000000000E+00 0.  1.
          1   -1    0    0  501    0  0.00000000000E+00 -0.00000000000E+00 -0.26454161685E+02  0.26454161685E+02  0.00000000000E+00 0. -1.
         23    2    1    2    0    0  0.00000000000E+00  0.00000000000E+00  0.46852332085E+02  0.99760655456E+02  0.88074101500E+02 0.  0.
        -11    1    3    3    0    0 -0.36244307320E+02  0.83476471060E+00 -0.48891631092E+01  0.36582107117E+02  0.00000000000E+00 0. -1.
         11    1    3    3    0    0  0.36244307320E+02 -0.83476471060E+00  0.51741495194E+02  0.63178548338E+02  0.00000000000E+00 0.  1.
<mgrwt>
<rscale>  0 0.88074102E+02</rscale>
<asrwt>0</asrwt>
<pdfrwt beam="2">  1        1 0.40698711E-02 0.88074102E+02</pdfrwt>
<pdfrwt beam="1">  1       -1 0.11277922E-01 0.88074102E+02</pdfrwt>
<totfact> 0.93818873E+04</totfact>
</mgrwt>
</event>
<event>
 5    1  0.6125604E+000  0.9040694E+02  0.7546771E-02  0.1301869E+00
          1   -1    0    0  501    0  0.00000000000E+00  0.00000000000E+00  0.44097595200E+02  0.44097595200E+02  0.00000000000E+00 0. -1.
         -1   -1    0    0    0  501 -0.00000000000E+00 -0.00000000000E+00 -0.46337073984E+02  0.46337073984E+02  0.00000000000E+00 0.  1.
         23    2    1    2    0    0  0.00000000000E+00  0.00000000000E+00 -0.22394787841E+01  0.90434669184E+02  0.90406936267E+02 0.  0.
        -11    1    3    3    0    0  0.26950158814E+02  0.10702343273E+02  0.33568013255E+02  0.44358344486E+02  0.00000000000E+00 0. -1.
         11    1    3    3    0    0 -0.26950158814E+02 -0.10702343273E+02 -0.35807492039E+02  0.46076324699E+02  0.00000000000E+00 0.  1.
<mgrwt>
<rscale>  0 0.90406936E+02</rscale>
<asrwt>0</asrwt>
<pdfrwt beam="1">  1        1 0.67842454E-02 0.90406936E+02</pdfrwt>
<pdfrwt beam="2">  1       -1 0.71287806E-02 0.90406936E+02</pdfrwt>
<totfact> 0.94227603E+04</totfact>
</mgrwt>
</event>
<event>
 5    1  0.6125604E+000  0.9029718E+02  0.7546771E-02  0.1302134E+00
          2   -1    0    0  501    0  0.00000000000E+00  0.00000000000E+00  0.20211699326E+02  0.20211699326E+02  0.00000000000E+00 0. -1.
         -2   -1    0    0    0  501 -0.00000000000E+00 -0.00000000000E+00 -0.10085224798E+03  0.10085224798E+03  0.00000000000E+00 0.  1.
         23    2    1    2    0    0  0.00000000000E+00  0.00000000000E+00 -0.80640548655E+02  0.12106394731E+03  0.90297182958E+02 0.  0.
        -11    1    3    3    0    0 -0.22373269998E+02  0.34544430928E+02 -0.15434892182E+02  0.43955850750E+02  0.00000000000E+00 0. -1.
         11    1    3    3    0    0  0.22373269998E+02 -0.34544430928E+02 -0.65205656473E+02  0.77108096557E+02  0.00000000000E+00 0.  1.
<mgrwt>
<rscale>  0 0.90297183E+02</rscale>
<asrwt>0</asrwt>
<pdfrwt beam="1">  1        2 0.31094922E-02 0.90297183E+02</pdfrwt>
<pdfrwt beam="2">  1       -2 0.15515730E-01 0.90297183E+02</pdfrwt>
<totfact> 0.81547366E+04</totfact>
</mgrwt>
</event>
<event>
 5    1  0.6125604E+000  0.9149715E+02  0.7546771E-02  0.1299266E+00
          2   -1    0    0  501    0  0.00000000000E+00  0.00000000000E+00  0.87000730631E+02  0.87000730631E+02  0.00000000000E+00 0. -1.
         -2   -1    0    0    0  501 -0.00000000000E+00 -0.00000000000E+00 -0.24056488358E+02  0.24056488358E+02  0.00000000000E+00 0.  1.
         23    2    1    2    0    0  0.00000000000E+00  0.00000000000E+00  0.62944242273E+02  0.11105721899E+03  0.91497148885E+02 0.  0.
        -11    1    3    3    0    0 -0.19496769984E+02  0.33200056709E+02  0.14801560800E+01  0.38529971027E+02  0.00000000000E+00 0. -1.
         11    1    3    3    0    0  0.19496769984E+02 -0.33200056709E+02  0.61464086193E+02  0.72527247962E+02  0.00000000000E+00 0.  1.
<mgrwt>
<rscale>  0 0.91497149E+02</rscale>
<asrwt>0</asrwt>
<pdfrwt beam="1">  1        2 0.13384728E-01 0.91497149E+02</pdfrwt>
<pdfrwt beam="2">  1       -2 0.37009983E-02 0.91497149E+02</pdfrwt>
<totfact> 0.11654003E+05</totfact>
</mgrwt>
</event>
<event>
 5    1  0.6125604E+000  0.8952791E+02  0.7546771E-02  0.1303999E+00
          2   -1    0    0  501    0  0.00000000000E+00  0.00000000000E+00  0.48251734799E+02  0.48251734799E+02  0.00000000000E+00 0. -1.
         -2   -1    0    0    0  501 -0.00000000000E+00 -0.00000000000E+00 -0.41528282602E+02  0.41528282602E+02  0.00000000000E+00 0.  1.
         23    2    1    2    0    0  0.00000000000E+00  0.00000000000E+00  0.67234521966E+01  0.89780017401E+02  0.89527910257E+02 0.  0.
        -11    1    3    3    0    0 -0.21075534890E+02  0.35650711999E+02 -0.13676121273E+02  0.43614077200E+02  0.00000000000E+00 0.  1.
         11    1    3    3    0    0  0.21075534890E+02 -0.35650711999E+02  0.20399573469E+02  0.46165940201E+02  0.00000000000E+00 0. -1.
<mgrwt>
<rscale>  0 0.89527910E+02</rscale>
<asrwt>0</asrwt>
<pdfrwt beam="1">  1        2 0.74233438E-02 0.89527910E+02</pdfrwt>
<pdfrwt beam="2">  1       -2 0.63889666E-02 0.89527910E+02</pdfrwt>
<totfact> 0.10549181E+05</totfact>
</mgrwt>
</event>
<event>
 5    1  0.6125604E+000  0.9134747E+02  0.7546771E-02  0.1299621E+00
         -2   -1    0    0    0  501 -0.00000000000E+00  0.00000000000E+00  0.46700473277E+02  0.46700473277E+02  0.00000000000E+00 0.  1.
          2   -1    0    0  501    0  0.00000000000E+00 -0.00000000000E+00 -0.44669574059E+02  0.44669574059E+02  0.00000000000E+00 0. -1.
         23    2    1    2    0    0  0.00000000000E+00  0.00000000000E+00  0.20308992187E+01  0.91370047336E+02  0.91347473959E+02 0.  0.
        -11    1    3    3    0    0 -0.23783005507E+02 -0.26288727479E+02  0.29821206901E+02  0.46325294651E+02  0.00000000000E+00 0.  1.
         11    1    3    3    0    0  0.23783005507E+02  0.26288727479E+02 -0.27790307682E+02  0.45044752686E+02  0.00000000000E+00 0. -1.
<mgrwt>
<rscale>  0 0.91347474E+02</rscale>
<asrwt>0</asrwt>
<pdfrwt beam="2">  1        2 0.68722422E-02 0.91347474E+02</pdfrwt>
<pdfrwt beam="1">  1       -2 0.71846882E-02 0.91347474E+02</pdfrwt>
<totfact> 0.97628160E+04</totfact>
</mgrwt>
</event>
<event>
 5    1  0.6125604E+000  0.8757855E+02  0.7546771E-02  0.1308824E+00
          2   -1    0    0  501    0  0.00000000000E+00  0.00000000000E+00  0.34115688643E+02  0.34115688643E+02  0.00000000000E+00 0. -1.
         -2   -1    0    0    0  501 -0.00000000000E+00 -0.00000000000E+00 -0.56205824009E+02  0.56205824009E+02  0.00000000000E+00 0.  1.
         23    2    1    2    0    0  0.00000000000E+00  0.00000000000E+00 -0.22090135366E+02  0.90321512651E+02  0.87578545131E+02 0.  0.
        -11    1    3    3    0    0 -0.85614837704E+01  0.32892728792E+02 -0.39519024841E+02  0.52124696029E+02  0.00000000000E+00 0.  1.
         11    1    3    3    0    0  0.85614837704E+01 -0.32892728792E+02  0.17428889475E+02  0.38196816622E+02  0.00000000000E+00 0. -1.
<mgrwt>
<rscale>  0 0.87578545E+02</rscale>
<asrwt>0</asrwt>
<pdfrwt beam="1">  1        2 0.52485675E-02 0.87578545E+02</pdfrwt>
<pdfrwt beam="2">  1       -2 0.86470498E-02 0.87578545E+02</pdfrwt>
<totfact> 0.10293357E+05</totfact>
</mgrwt>
</event>
<event>
 5    1  0.6125604E+000  0.9330379E+02  0.7546771E-02  0.1295043E+00
         -3   -1    0    0    0  501 -0.00000000000E+00  0.00000000000E+00  0.20553302136E+02  0.20553302136E+02  0.00000000000E+00 0.  1.
          3   -1    0    0  501    0  0.00000000000E+00 -0.00000000000E+00 -0.10589048307E+03  0.10589048307E+03  0.00000000000E+00 0. -1.
         23    2    1    2    0    0  0.00000000000E+00  0.00000000000E+00 -0.85337180937E+02  0.12644378521E+03  0.93303785388E+02 0.  0.
        -11    1    3    3    0    0  0.21355586124E+02  0.32849532485E+02 -0.83514854750E+01  0.40061205085E+02  0.00000000000E+00 0.  1.
         11    1    3    3    0    0 -0.21355586124E+02 -0.32849532485E+02 -0.76985695462E+02  0.86382580125E+02  0.00000000000E+00 0. -1.
<mgrwt>
<rscale>  0 0.93303785E+02</rscale>
<asrwt>0</asrwt>
<pdfrwt beam="2">  1        3 0.16290843E-01 0.93303785E+02</pdfrwt>
<pdfrwt beam="1">  1       -3 0.31620465E-02 0.93303785E+02</pdfrwt>
<totfact> 0.30814991E+04</totfact>
</mgrwt>
</event>
<event>
 5    1  0.6125604E+000  0.8951074E+02  0.7546771E-02  0.1304041E+00
          1   -1    0    0  501    0  0.00000000000E+00  0.00000000000E+00  0.49292806907E+02  0.49292806907E+02  0.00000000000E+00 0. -1.
         -1   -1    0    0    0  501 -0.00000000000E+00 -0.00000000000E+00 -0.40635604994E+02  0.40635604994E+02  0.00000000000E+00 0.  1.
         23    2    1    2    0    0  0.00000000000E+00  0.00000000000E+00  0.86572019132E+01  0.89928411901E+02  0.89510737468E+02 0.  0.
        -11    1    3    3    0    0  0.17324061385E+02 -0.99428108080E+01 -0.35909006824E+02  0.41090623756E+02  0.00000000000E+00 0.  1.
         11    1    3    3    0    0 -0.17324061385E+02  0.99428108080E+01  0.44566208737E+02  0.48837788144E+02  0.00000000000E+00 0. -1.
<mgrwt>
<rscale>  0 0.89510737E+02</rscale>
<asrwt>0</asrwt>
<pdfrwt beam="1">  1        1 0.75835088E-02 0.89510737E+02</pdfrwt>
<pdfrwt beam="2">  1       -1 0.62516315E-02 0.89510737E+02</pdfrwt>
<totfact> 0.98504915E+04</totfact>
</mgrwt>
</event>
<event>
 5    1  0.6125604E+000  0.9163264E+02  0.7546771E-02  0.1298945E+00
          2   -1    0    0  501    0  0.00000000000E+00  0.00000000000E+00  0.31422996181E+02  0.31422996181E+02  0.00000000000E+00 0. -1.
         -2   -1    0    0    0  501 -0.00000000000E+00 -0.00000000000E+00 -0.66802519286E+02  0.66802519286E+02  0.00000000000E+00 0.  1.
         23    2    1    2    0    0  0.00000000000E+00  0.00000000000E+00 -0.35379523105E+02  0.98225515467E+02  0.91632642838E+02 0.  0.
        -11    1    3    3    0    0  0.40091694864E+02 -0.21747686148E+02 -0.22341261493E+02  0.50788166092E+02  0.00000000000E+00 0. -1.
         11    1    3    3    0    0 -0.40091694864E+02  0.21747686148E+02 -0.13038261612E+02  0.47437349375E+02  0.00000000000E+00 0.  1.
<mgrwt>
<rscale>  0 0.91632643E+02</rscale>
<asrwt>0</asrwt>
<pdfrwt beam="1">  1        2 0.48343071E-02 0.91632643E+02</pdfrwt>
<pdfrwt beam="2">  1       -2 0.10277311E-01 0.91632643E+02</pdfrwt>
<totfact> 0.88250672E+04</totfact>
</mgrwt>
</event>
<event>
 5    1  0.6125604E+000  0.9213268E+02  0.7546771E-02  0.1297768E+00
         -2   -1    0    0    0  501 -0.00000000000E+00  0.00000000000E+00  0.88562254168E+01  0.88562254168E+01  0.00000000000E+00 0. -1.
          2   -1    0    0  501    0  0.00000000000E+00 -0.00000000000E+00 -0.23961761119E+03  0.23961761119E+03  0.00000000000E+00 0.  1.
         23    2    1    2    0    0  0.00000000000E+00  0.00000000000E+00 -0.23076138577E+03  0.24847383660E+03  0.92132677775E+02 0.  0.
        -11    1    3    3    0    0  0.42616165690E+02  0.13573999269E+02 -0.14513444762E+03  0.15186967742E+03  0.00000000000E+00 0. -1.
         11    1    3    3    0    0 -0.42616165690E+02 -0.13573999269E+02 -0.85626938148E+02  0.96604159180E+02  0.00000000000E+00 0.  1.
<mgrwt>
<rscale>  0 0.92132678E+02</rscale>
<asrwt>0</asrwt>
<pdfrwt beam="2">  1        2 0.36864252E-01 0.92132678E+02</pdfrwt>
<pdfrwt beam="1">  1       -2 0.13624961E-02 0.92132678E+02</pdfrwt>
<totfact> 0.16068815E+05</totfact>
</mgrwt>
</event>
<event>
 5    1  0.6125604E+000  0.8135836E+02  0.7546771E-02  0.1325240E+00
         -2   -1    0    0    0  501 -0.00000000000E+00  0.00000000000E+00  0.10163763644E+02  0.10163763644E+02  0.00000000000E+00 0.  1.
          2   -1    0    0  501    0  0.00000000000E+00 -0.00000000000E+00 -0.16281326575E+03  0.16281326575E+03  0.00000000000E+00 0. -1.
         23    2    1    2    0    0  0.00000000000E+00  0.00000000000E+00 -0.15264950211E+03  0.17297702940E+03  0.81358356699E+02 0.  0.
        -11    1    3    3    0    0 -0.26146634325E+02 -0.29257343283E+02 -0.99140320004E+02  0.10662289469E+03  0.00000000000E+00 0.  1.
         11    1    3    3    0    0  0.26146634325E+02  0.29257343283E+02 -0.53509182104E+02  0.66354134701E+02  0.00000000000E+00 0. -1.
<mgrwt>
<rscale>  0 0.81358357E+02</rscale>
<asrwt>0</asrwt>
<pdfrwt beam="2">  1        2 0.25048193E-01 0.81358357E+02</pdfrwt>
<pdfrwt beam="1">  1       -2 0.15636561E-02 0.81358357E+02</pdfrwt>
<totfact> 0.19530025E+05</totfact>
</mgrwt>
</event>
<event>
 5    1  0.6125604E+000  0.8152377E+02  0.7546771E-02  0.1324782E+00
          2   -1    0    0  501    0  0.00000000000E+00  0.00000000000E+00  0.70459617075E+02  0.70459617075E+02  0.00000000000E+00 0. -1.
         -2   -1    0    0    0  501 -0.00000000000E+00 -0.00000000000E+00 -0.23581329700E+02  0.23581329700E+02  0.00000000000E+00 0.  1.
         23    2    1    2    0    0  0.00000000000E+00  0.00000000000E+00  0.46878287375E+02  0.94040946775E+02  0.81523774711E+02 0.  0.
        -11    1    3    3    0    0  0.32357946340E+02 -0.20703535201E+02  0.77129431559E+01  0.39181150485E+02  0.00000000000E+00 0.  1.
         11    1    3    3    0    0 -0.32357946340E+02  0.20703535201E+02  0.39165344219E+02  0.54859796290E+02  0.00000000000E+00 0. -1.
<mgrwt>
<rscale>  0 0.81523775E+02</rscale>
<asrwt>0</asrwt>
<pdfrwt beam="1">  1        2 0.10839941E-01 0.81523775E+02</pdfrwt>
<pdfrwt beam="2">  1       -2 0.36278969E-02 0.81523775E+02</pdfrwt>
<totfact> 0.15107583E+05</totfact>
</mgrwt>
</event>
<event>
 5    1  0.6125604E+000  0.9176248E+02  0.7546771E-02  0.1298639E+00
         -1   -1    0    0    0  501 -0.00000000000E+00  0.00000000000E+00  0.11588346709E+02  0.11588346709E+02  0.00000000000E+00 0.  1.
          1   -1    0    0  501    0  0.00000000000E+00 -0.00000000000E+00 -0.18165560381E+03  0.18165560381E+03  0.00000000000E+00 0. -1.
         23    2    1    2    0    0  0.00000000000E+00  0.00000000000E+00 -0.17006725710E+03  0.19324395052E+03  0.91762478577E+02 0.  0.
        -11    1    3    3    0    0 -0.40543629299E+02  0.18281322929E+02 -0.61292256497E+02  0.75728022233E+02  0.00000000000E+00 0.  1.
         11    1    3    3    0    0  0.40543629299E+02 -0.18281322929E+02 -0.10877500060E+03  0.11751592829E+03  0.00000000000E+00 0. -1.
<mgrwt>
<rscale>  0 0.91762479E+02</rscale>
<asrwt>0</asrwt>
<pdfrwt beam="2">  1        1 0.27947015E-01 0.91762479E+02</pdfrwt>
<pdfrwt beam="1">  1       -1 0.17828226E-02 0.91762479E+02</pdfrwt>
<totfact> 0.11424511E+05</totfact>
</mgrwt>
</event>
<event>
 5    1  0.6125604E+000  0.8860097E+02  0.7546771E-02  0.1306275E+00
          2   -1    0    0  501    0  0.00000000000E+00  0.00000000000E+00  0.10872648243E+03  0.10872648243E+03  0.00000000000E+00 0. -1.
         -2   -1    0    0    0  501 -0.00000000000E+00 -0.00000000000E+00 -0.18050184113E+02  0.18050184113E+02  0.00000000000E+00 0.  1.
         23    2    1    2    0    0  0.00000000000E+00  0.00000000000E+00  0.90676298316E+02  0.12677666654E+03  0.88600971233E+02 0.  0.
        -11    1    3    3    0    0  0.41888630770E+02  0.14417138102E+02  0.45127043025E+02  0.63237340796E+02  0.00000000000E+00 0.  1.
         11    1    3    3    0    0 -0.41888630770E+02 -0.14417138102E+02  0.45549255291E+02  0.63539325747E+02  0.00000000000E+00 0. -1.
<mgrwt>
<rscale>  0 0.88600971E+02</rscale>
<asrwt>0</asrwt>
<pdfrwt beam="1">  1        2 0.16727151E-01 0.88600971E+02</pdfrwt>
<pdfrwt beam="2">  1       -2 0.27769515E-02 0.88600971E+02</pdfrwt>
<totfact> 0.13614710E+05</totfact>
</mgrwt>
</event>
<event>
 5    1  0.6125604E+000  0.9175356E+02  0.7546771E-02  0.1298660E+00
          2   -1    0    0  501    0  0.00000000000E+00  0.00000000000E+00  0.46176678924E+03  0.46176678924E+03  0.00000000000E+00 0. -1.
         -2   -1    0    0    0  501 -0.00000000000E+00 -0.00000000000E+00 -0.45578825557E+01  0.45578825557E+01  0.00000000000E+00 0.  1.
         23    2    1    2    0    0  0.00000000000E+00  0.00000000000E+00  0.45720890669E+03  0.46632467180E+03  0.91753556737E+02 0.  0.
        -11    1    3    3    0    0  0.16708797256E+02 -0.42657724878E+02  0.24085852565E+03  0.24517686427E+03  0.00000000000E+00 0.  1.
         11    1    3    3    0    0 -0.16708797256E+02  0.42657724878E+02  0.21635038104E+03  0.22114780752E+03  0.00000000000E+00 0. -1.
<mgrwt>
<rscale>  0 0.91753557E+02</rscale>
<asrwt>0</asrwt>
<pdfrwt beam="1">  1        2 0.71041008E-01 0.91753557E+02</pdfrwt>
<pdfrwt beam="2">  1       -2 0.70121307E-03 0.91753557E+02</pdfrwt>
<totfact> 0.20639848E+05</totfact>
</mgrwt>
</event>
<event>
 5    1  0.6125604E+000  0.9066670E+02  0.7546771E-02  0.1301245E+00
         -2   -1    0    0    0  501 -0.00000000000E+00  0.00000000000E+00  0.28761313989E+02  0.28761313989E+02  0.00000000000E+00 0.  1.
          2   -1    0    0  501    0  0.00000000000E+00 -0.00000000000E+00 -0.71454052598E+02  0.71454052598E+02  0.00000000000E+00 0. -1.
         23    2    1    2    0    0  0.00000000000E+00  0.00000000000E+00 -0.42692738609E+02  0.10021536659E+03  0.90666696036E+02 0.  0.
        -11    1    3    3    0    0  0.17224236579E+02 -0.17078341023E+02  0.20985485678E+02  0.32073893854E+02  0.00000000000E+00 0.  1.
         11    1    3    3    0    0 -0.17224236579E+02  0.17078341023E+02 -0.63678224287E+02  0.68141472733E+02  0.00000000000E+00 0. -1.
<mgrwt>
<rscale>  0 0.90666696E+02</rscale>
<asrwt>0</asrwt>
<pdfrwt beam="2">  1        2 0.10992931E-01 0.90666696E+02</pdfrwt>
<pdfrwt beam="1">  1       -2 0.44248175E-02 0.90666696E+02</pdfrwt>
<totfact> 0.11300958E+05</totfact>
</mgrwt>
</event>
<event>
 5    1  0.6125604E+000  0.7370265E+02  0.7546771E-02  0.1347936E+00
         -2   -1    0    0    0  501 -0.00000000000E+00  0.00000000000E+00  0.31204886722E+02  0.31204886722E+02  0.00000000000E+00 0.  1.
          2   -1    0    0  501    0  0.00000000000E+00 -0.00000000000E+00 -0.43519467751E+02  0.43519467751E+02  0.00000000000E+00 0. -1.
         23    2    1    2    0    0  0.00000000000E+00  0.00000000000E+00 -0.12314581029E+02  0.74724354473E+02  0.73702647480E+02 0.  0.
        -11    1    3    3    0    0 -0.25765431669E+02  0.44153267773E+01  0.20177142512E+02  0.33022260062E+02  0.00000000000E+00 0.  1.
         11    1    3    3    0    0  0.25765431669E+02 -0.44153267773E+01 -0.32491723541E+02  0.41702094411E+02  0.00000000000E+00 0. -1.
<mgrwt>
<rscale>  0 0.73702647E+02</rscale>
<asrwt>0</asrwt>
<pdfrwt beam="2">  1        2 0.66953027E-02 0.73702647E+02</pdfrwt>
<pdfrwt beam="1">  1       -2 0.48007518E-02 0.73702647E+02</pdfrwt>
<totfact> 0.17753809E+05</totfact>
</mgrwt>
</event>
<event>
 5    1  0.6125604E+000  0.9252549E+02  0.7546771E-02  0.1296849E+00
          1   -1    0    0  501    0  0.00000000000E+00  0.00000000000E+00  0.49447034430E+02  0.49447034430E+02  0.00000000000E+00 0. -1.
         -1   -1    0    0    0  501 -0.00000000000E+00 -0.00000000000E+00 -0.43283521139E+02  0.43283521139E+02  0.00000000000E+00 0.  1.
         23    2    1    2    0    0  0.00000000000E+00  0.00000000000E+00  0.61635132910E+01  0.92730555569E+02  0.92525494000E+02 0.  0.
        -11    1    3    3    0    0  0.28389244498E+02 -0.99119627540E+01  0.38317114544E+02  0.48707263071E+02  0.00000000000E+00 0. -1.
         11    1    3    3    0    0 -0.28389244498E+02  0.99119627540E+01 -0.32153601253E+02  0.44023292498E+02  0.00000000000E+00 0.  1.
<mgrwt>
<rscale>  0 0.92525494E+02</rscale>
<asrwt>0</asrwt>
<pdfrwt beam="1">  1        1 0.76072360E-02 0.92525494E+02</pdfrwt>
<pdfrwt beam="2">  1       -1 0.66590033E-02 0.92525494E+02</pdfrwt>
<totfact> 0.89833627E+04</totfact>
</mgrwt>
</event>
<event>
 5    1  0.6125604E+000  0.9071183E+02  0.7546771E-02  0.1301137E+00
          4   -1    0    0  501    0  0.00000000000E+00  0.00000000000E+00  0.22391594920E+02  0.22391594920E+02  0.00000000000E+00 0. -1.
         -4   -1    0    0    0  501 -0.00000000000E+00 -0.00000000000E+00 -0.91871934423E+02  0.91871934423E+02  0.00000000000E+00 0.  1.
         23    2    1    2    0    0  0.00000000000E+00  0.00000000000E+00 -0.69480339503E+02  0.11426352934E+03  0.90711832528E+02 0.  0.
        -11    1    3    3    0    0 -0.15792721515E+02  0.42352126082E+02 -0.30019237027E+02  0.54261102350E+02  0.00000000000E+00 0. -1.
         11    1    3    3    0    0  0.15792721515E+02 -0.42352126082E+02 -0.39461102476E+02  0.60002426994E+02  0.00000000000E+00 0.  1.
<mgrwt>
<rscale>  0 0.90711833E+02</rscale>
<asrwt>0</asrwt>
<pdfrwt beam="1">  1        4 0.34448608E-02 0.90711833E+02</pdfrwt>
<pdfrwt beam="2">  1       -4 0.14134144E-01 0.90711833E+02</pdfrwt>
<totfact> 0.25958169E+04</totfact>
</mgrwt>
</event>
<event>
 5    1  0.6125604E+000  0.9268901E+02  0.7546771E-02  0.1296467E+00
         -3   -1    0    0    0  501 -0.00000000000E+00  0.00000000000E+00  0.38157809601E+02  0.38157809601E+02  0.00000000000E+00 0.  1.
          3   -1    0    0  501    0  0.00000000000E+00 -0.00000000000E+00 -0.56287641066E+02  0.56287641066E+02  0.00000000000E+00 0. -1.
         23    2    1    2    0    0  0.00000000000E+00  0.00000000000E+00 -0.18129831465E+02  0.94445450667E+02  0.92689008856E+02 0.  0.
        -11    1    3    3    0    0  0.13497380756E+02 -0.33876739904E+02 -0.38207598965E+02  0.52816980342E+02  0.00000000000E+00 0. -1.
         11    1    3    3    0    0 -0.13497380756E+02  0.33876739904E+02  0.20077767500E+02  0.41628470325E+02  0.00000000000E+00 0.  1.
<mgrwt>
<rscale>  0 0.92689009E+02</rscale>
<asrwt>0</asrwt>
<pdfrwt beam="2">  1        3 0.86596371E-02 0.92689009E+02</pdfrwt>
<pdfrwt beam="1">  1       -3 0.58704323E-02 0.92689009E+02</pdfrwt>
<totfact> 0.33547948E+04</totfact>
</mgrwt>
</event>
<event>
 5    1  0.6125604E+000  0.9159607E+02  0.7546771E-02  0.1299032E+00
         -2   -1    0    0    0  501 -0.00000000000E+00  0.00000000000E+00  0.10577379450E+02  0.10577379450E+02  0.00000000000E+00 0.  1.
          2   -1    0    0  501    0  0.00000000000E+00 -0.00000000000E+00 -0.19829674553E+03  0.19829674553E+03  0.00000000000E+00 0. -1.
         23    2    1    2    0    0  0.00000000000E+00  0.00000000000E+00 -0.18771936608E+03  0.20887412498E+03  0.91596068063E+02 0.  0.
        -11    1    3    3    0    0  0.26588776668E+01  0.30913328005E+02 -0.17067700118E+03  0.17347432724E+03  0.00000000000E+00 0. -1.
         11    1    3    3    0    0 -0.26588776668E+01 -0.30913328005E+02 -0.17042364900E+02  0.35399797742E+02  0.00000000000E+00 0.  1.
<mgrwt>
<rscale>  0 0.91596068E+02</rscale>
<asrwt>0</asrwt>
<pdfrwt beam="2">  1        2 0.30507191E-01 0.91596068E+02</pdfrwt>
<pdfrwt beam="1">  1       -2 0.16272892E-02 0.91596068E+02</pdfrwt>
<totfact> 0.15230703E+05</totfact>
</mgrwt>
</event>
<event>
 5    1  0.6125604E+000  0.1028875E+03  0.7546771E-02  0.1274339E+00
         -4   -1    0    0    0  501 -0.00000000000E+00  0.00000000000E+00  0.16471501874E+03  0.16471501874E+03  0.00000000000E+00 0.  1.
          4   -1    0    0  501    0  0.00000000000E+00 -0.00000000000E+00 -0.16066893339E+02  0.16066893339E+02  0.00000000000E+00 0. -1.
         23    2    1    2    0    0  0.00000000000E+00  0.00000000000E+00  0.14864812540E+03  0.18078191208E+03  0.10288748490E+03 0.  0.
        -11    1    3    3    0    0 -0.42542475461E+02 -0.28448803535E+02  0.83498327136E+02  0.97934505030E+02  0.00000000000E+00 0.  1.
         11    1    3    3    0    0  0.42542475461E+02  0.28448803535E+02  0.65149798262E+02  0.82847407047E+02  0.00000000000E+00 0. -1.
<mgrwt>
<rscale>  0 0.10288748E+03</rscale>
<asrwt>0</asrwt>
<pdfrwt beam="2">  1        4 0.24718299E-02 0.10288748E+03</pdfrwt>
<pdfrwt beam="1">  1       -4 0.25340771E-01 0.10288748E+03</pdfrwt>
<totfact> 0.16017985E+04</totfact>
</mgrwt>
</event>
<event>
 5    1  0.6125604E+000  0.9106083E+02  0.7546771E-02  0.1300303E+00
          2   -1    0    0  501    0  0.00000000000E+00  0.00000000000E+00  0.70118331484E+02  0.70118331484E+02  0.00000000000E+00 0. -1.
         -2   -1    0    0    0  501 -0.00000000000E+00 -0.00000000000E+00 -0.29564575560E+02  0.29564575560E+02  0.00000000000E+00 0.  1.
         23    2    1    2    0    0  0.00000000000E+00  0.00000000000E+00  0.40553755925E+02  0.99682907044E+02  0.91060830422E+02 0.  0.
        -11    1    3    3    0    0 -0.31262474161E+02  0.33056860988E+02  0.22147591567E+02  0.50602511412E+02  0.00000000000E+00 0.  1.
         11    1    3    3    0    0  0.31262474161E+02 -0.33056860988E+02  0.18406164358E+02  0.49080395632E+02  0.00000000000E+00 0. -1.
<mgrwt>
<rscale>  0 0.91060830E+02</rscale>
<asrwt>0</asrwt>
<pdfrwt beam="1">  1        2 0.10787436E-01 0.91060830E+02</pdfrwt>
<pdfrwt beam="2">  1       -2 0.45483963E-02 0.91060830E+02</pdfrwt>
<totfact> 0.11106650E+05</totfact>
</mgrwt>
</event>
<event>
 5    1  0.6125604E+000  0.9223073E+02  0.7546771E-02  0.1297538E+00
         -1   -1    0    0    0  501 -0.00000000000E+00  0.00000000000E+00  0.34635124407E+02  0.34635124407E+02  0.00000000000E+00 0.  1.
          1   -1    0    0  501    0  0.00000000000E+00 -0.00000000000E+00 -0.61400879171E+02  0.61400879171E+02  0.00000000000E+00 0. -1.
         23    2    1    2    0    0  0.00000000000E+00  0.00000000000E+00 -0.26765754764E+02  0.96036003578E+02  0.92230734331E+02 0.  0.
        -11    1    3    3    0    0 -0.20959247983E+02  0.24131358958E+02 -0.47996129564E+02  0.57664902795E+02  0.00000000000E+00 0. -1.
         11    1    3    3    0    0  0.20959247983E+02 -0.24131358958E+02  0.21230374800E+02  0.38371100784E+02  0.00000000000E+00 0.  1.
<mgrwt>
<rscale>  0 0.92230734E+02</rscale>
<asrwt>0</asrwt>
<pdfrwt beam="2">  1        1 0.94462891E-02 0.92230734E+02</pdfrwt>
<pdfrwt beam="1">  1       -1 0.53284807E-02 0.92230734E+02</pdfrwt>
<totfact> 0.93671812E+04</totfact>
</mgrwt>
</event>
<event>
 4    1  0.6125604E+000  0.4639306E+02  0.7546771E-02  0.1465828E+00
          2   -1    0    0  501    0  0.00000000000E+00  0.00000000000E+00  0.14740770959E+03  0.14740770959E+03  0.00000000000E+00 0.  1.
         -2   -1    0    0    0  501 -0.00000000000E+00 -0.00000000000E+00 -0.36502767871E+01  0.36502767871E+01  0.00000000000E+00 0. -1.
        -11    1    1    2    0    0  0.18998388077E+02  0.10920946842E+02  0.96648893560E+02  0.99102040624E+02  0.00000000000E+00 0.  1.
         11    1    1    2    0    0 -0.18998388077E+02 -0.10920946842E+02  0.47108539239E+02  0.51955945749E+02  0.00000000000E+00 0. -1.
<mgrwt>
<rscale>  0 0.46393057E+02</rscale>
<asrwt>0</asrwt>
<pdfrwt beam="1">  1        2 0.22678105E-01 0.46393057E+02</pdfrwt>
<pdfrwt beam="2">  1       -2 0.56158116E-03 0.46393057E+02</pdfrwt>
<totfact> 0.80572049E+05</totfact>
</mgrwt>
</event>
<event>
 5    1  0.6125604E+000  0.8879412E+02  0.7546771E-02  0.1305798E+00
         -2   -1    0    0    0  501 -0.00000000000E+00  0.00000000000E+00  0.11517140826E+02  0.11517140826E+02  0.00000000000E+00 0.  1.
          2   -1    0    0  501    0  0.00000000000E+00 -0.00000000000E+00 -0.17114482937E+03  0.17114482937E+03  0.00000000000E+00 0. -1.
         23    2    1    2    0    0  0.00000000000E+00  0.00000000000E+00 -0.15962768855E+03  0.18266197020E+03  0.88794123714E+02 0.  0.
        -11    1    3    3    0    0  0.11361388689E+01 -0.36706115603E+02 -0.28489559735E+02  0.46478863455E+02  0.00000000000E+00 0.  1.
         11    1    3    3    0    0 -0.11361388689E+01  0.36706115603E+02 -0.13113812881E+03  0.13618310674E+03  0.00000000000E+00 0. -1.
<mgrwt>
<rscale>  0 0.88794124E+02</rscale>
<asrwt>0</asrwt>
<pdfrwt beam="2">  1        2 0.26329972E-01 0.88794124E+02</pdfrwt>
<pdfrwt beam="1">  1       -2 0.17718680E-02 0.88794124E+02</pdfrwt>
<totfact> 0.15715436E+05</totfact>
</mgrwt>
</event>
<event>
 5    1  0.6125604E+000  0.8833250E+02  0.7546771E-02  0.1306941E+00
          2   -1    0    0  501    0  0.00000000000E+00  0.00000000000E+00  0.19030447176E+02  0.19030447176E+02  0.00000000000E+00 0. -1.
         -2   -1    0    0    0  501 -0.00000000000E+00 -0.00000000000E+00 -0.10250193592E+03  0.10250193592E+03  0.00000000000E+00 0.  1.
         23    2    1    2    0    0  0.00000000000E+00  0.00000000000E+00 -0.83471488747E+02  0.12153238310E+03  0.88332500859E+02 0.  0.
        -11    1    3    3    0    0  0.20090963424E+02 -0.19161359327E+02  0.55233581985E+01  0.28307454643E+02  0.00000000000E+00 0. -1.
         11    1    3    3    0    0 -0.20090963424E+02  0.19161359327E+02 -0.88994846946E+02  0.93224928455E+02  0.00000000000E+00 0.  1.
<mgrwt>
<rscale>  0 0.88332501E+02</rscale>
<asrwt>0</asrwt>
<pdfrwt beam="1">  1        2 0.29277611E-02 0.88332501E+02</pdfrwt>
<pdfrwt beam="2">  1       -2 0.15769528E-01 0.88332501E+02</pdfrwt>
<totfact> 0.85721487E+04</totfact>
</mgrwt>
</event>
<event>
 5    1  0.6125604E+000  0.8704092E+02  0.7546771E-02  0.1310180E+00
         -1   -1    0    0    0  501 -0.00000000000E+00  0.00000000000E+00  0.22535914383E+02  0.22535914383E+02  0.00000000000E+00 0.  1.
          1   -1    0    0  501    0  0.00000000000E+00 -0.00000000000E+00 -0.84044972309E+02  0.84044972309E+02  0.00000000000E+00 0. -1.
         23    2    1    2    0    0  0.00000000000E+00  0.00000000000E+00 -0.61509057926E+02  0.10658088669E+03  0.87040916820E+02 0.  0.
        -11    1    3    3    0    0  0.34396994201E+02 -0.25850982056E+02 -0.38746982623E+02  0.57902980456E+02  0.00000000000E+00 0.  1.
         11    1    3    3    0    0 -0.34396994201E+02  0.25850982056E+02 -0.22762075303E+02  0.48677906235E+02  0.00000000000E+00 0. -1.
<mgrwt>
<rscale>  0 0.87040917E+02</rscale>
<asrwt>0</asrwt>
<pdfrwt beam="2">  1        1 0.12929996E-01 0.87040917E+02</pdfrwt>
<pdfrwt beam="1">  1       -1 0.34670638E-02 0.87040917E+02</pdfrwt>
<totfact> 0.11525258E+05</totfact>
</mgrwt>
</event>
<event>
 5    1  0.6125604E+000  0.9088099E+02  0.7546771E-02  0.1300732E+00
          1   -1    0    0  501    0  0.00000000000E+00  0.00000000000E+00  0.48409776697E+02  0.48409776697E+02  0.00000000000E+00 0. -1.
         -1   -1    0    0    0  501 -0.00000000000E+00 -0.00000000000E+00 -0.42653340431E+02  0.42653340431E+02  0.00000000000E+00 0.  1.
         23    2    1    2    0    0  0.00000000000E+00  0.00000000000E+00  0.57564362654E+01  0.91063117128E+02  0.90880992197E+02 0.  0.
        -11    1    3    3    0    0 -0.23012945967E+01 -0.45364331454E+02  0.16028120611E+01  0.45450935432E+02  0.00000000000E+00 0.  1.
         11    1    3    3    0    0  0.23012945967E+01  0.45364331454E+02  0.41536242043E+01  0.45612181697E+02  0.00000000000E+00 0. -1.
<mgrwt>
<rscale>  0 0.90880992E+02</rscale>
<asrwt>0</asrwt>
<pdfrwt beam="1">  1        1 0.74476580E-02 0.90880992E+02</pdfrwt>
<pdfrwt beam="2">  1       -1 0.65620524E-02 0.90880992E+02</pdfrwt>
<totfact> 0.94162676E+04</totfact>
</mgrwt>
</event>
<event>
 5    1  0.6125604E+000  0.9138683E+02  0.7546771E-02  0.1299528E+00
         -2   -1    0    0    0  501 -0.00000000000E+00  0.00000000000E+00  0.10229897740E+03  0.10229897740E+03  0.00000000000E+00 0.  1.
          2   -1    0    0  501    0  0.00000000000E+00 -0.00000000000E+00 -0.20409666423E+02  0.20409666423E+02  0.00000000000E+00 0. -1.
         23    2    1    2    0    0  0.00000000000E+00  0.00000000000E+00  0.81889310979E+02  0.12270864383E+03  0.91386826277E+02 0.  0.
        -11    1    3    3    0    0 -0.41077975597E+02 -0.19669369849E+02  0.35992184773E+02  0.58049302788E+02  0.00000000000E+00 0. -1.
         11    1    3    3    0    0  0.41077975597E+02  0.19669369849E+02  0.45897126206E+02  0.64659341038E+02  0.00000000000E+00 0.  1.
<mgrwt>
<rscale>  0 0.91386826E+02</rscale>
<asrwt>0</asrwt>
<pdfrwt beam="2">  1        2 0.31399487E-02 0.91386826E+02</pdfrwt>
<pdfrwt beam="1">  1       -2 0.15738304E-01 0.91386826E+02</pdfrwt>
<totfact> 0.78810976E+04</totfact>
</mgrwt>
</event>
<event>
 5    1  0.6125604E+000  0.9199958E+02  0.7546771E-02  0.1298080E+00
          1   -1    0    0  501    0  0.00000000000E+00  0.00000000000E+00  0.48059566635E+02  0.48059566635E+02  0.00000000000E+00 0. -1.
         -1   -1    0    0    0  501 -0.00000000000E+00 -0.00000000000E+00 -0.44028294417E+02  0.44028294417E+02  0.00000000000E+00 0.  1.
         23    2    1    2    0    0  0.00000000000E+00  0.00000000000E+00  0.40312722184E+01  0.92087861052E+02  0.91999581507E+02 0.  0.
        -11    1    3    3    0    0  0.10029424575E+02 -0.15133096641E+02  0.44321790728E+02  0.47895940377E+02  0.00000000000E+00 0. -1.
         11    1    3    3    0    0 -0.10029424575E+02  0.15133096641E+02 -0.40290518509E+02  0.44191920676E+02  0.00000000000E+00 0.  1.
<mgrwt>
<rscale>  0 0.91999582E+02</rscale>
<asrwt>0</asrwt>
<pdfrwt beam="1">  1        1 0.73937795E-02 0.91999582E+02</pdfrwt>
<pdfrwt beam="2">  1       -1 0.67735838E-02 0.91999582E+02</pdfrwt>
<totfact> 0.90889241E+04</totfact>
</mgrwt>
</event>
<event>
 5    1  0.6125604E+000  0.8905965E+02  0.7546771E-02  0.1305145E+00
          2   -1    0    0  501    0  0.00000000000E+00  0.00000000000E+00  0.87406362849E+01  0.87406362849E+01  0.00000000000E+00 0. -1.
         -2   -1    0    0    0  501 -0.00000000000E+00 -0.00000000000E+00 -0.22686050807E+03  0.22686050807E+03  0.00000000000E+00 0.  1.
         23    2    1    2    0    0  0.00000000000E+00  0.00000000000E+00 -0.21811987178E+03  0.23560114435E+03  0.89059647168E+02 0.  0.
        -11    1    3    3    0    0  0.30231693283E+02 -0.12328465479E+02 -0.28952773488E+02  0.43637248223E+02  0.00000000000E+00 0. -1.
         11    1    3    3    0    0 -0.30231693283E+02  0.12328465479E+02 -0.18916709829E+03  0.19196389613E+03  0.00000000000E+00 0.  1.
<mgrwt>
<rscale>  0 0.89059647E+02</rscale>
<asrwt>0</asrwt>
<pdfrwt beam="1">  1        2 0.13447134E-02 0.89059647E+02</pdfrwt>
<pdfrwt beam="2">  1       -2 0.34901612E-01 0.89059647E+02</pdfrwt>
<totfact> 0.62527136E+04</totfact>
</mgrwt>
</event>
<event>
 5    1  0.6125604E+000  0.9126965E+02  0.7546771E-02  0.1299806E+00
         -1   -1    0    0    0  501 -0.00000000000E+00  0.00000000000E+00  0.19588941255E+02  0.19588941255E+02  0.00000000000E+00 0.  1.
          1   -1    0    0  501    0  0.00000000000E+00 -0.00000000000E+00 -0.10631187922E+03  0.10631187922E+03  0.00000000000E+00 0. -1.
         23    2    1    2    0    0  0.00000000000E+00  0.00000000000E+00 -0.86722937967E+02  0.12590082048E+03  0.91269647898E+02 0.  0.
        -11    1    3    3    0    0 -0.19380024558E+02  0.85015183806E+01 -0.99133701228E+02  0.10136741037E+03  0.00000000000E+00 0. -1.
         11    1    3    3    0    0  0.19380024558E+02 -0.85015183806E+01  0.12410763260E+02  0.24533410105E+02  0.00000000000E+00 0.  1.
<mgrwt>
<rscale>  0 0.91269648E+02</rscale>
<asrwt>0</asrwt>
<pdfrwt beam="2">  1        1 0.16355674E-01 0.91269648E+02</pdfrwt>
<pdfrwt beam="1">  1       -1 0.30136832E-02 0.91269648E+02</pdfrwt>
<totfact> 0.10523608E+05</totfact>
</mgrwt>
</event>
<event>
 5    1  0.6125604E+000  0.8655480E+02  0.7546771E-02  0.1311416E+00
          1   -1    0    0  501    0  0.00000000000E+00  0.00000000000E+00  0.15487675371E+03  0.15487675371E+03  0.00000000000E+00 0. -1.
         -1   -1    0    0    0  501 -0.00000000000E+00 -0.00000000000E+00 -0.12093056179E+02  0.12093056179E+02  0.00000000000E+00 0.  1.
         23    2    1    2    0    0  0.00000000000E+00  0.00000000000E+00  0.14278369753E+03  0.16696980989E+03  0.86554798444E+02 0.  0.
        -11    1    3    3    0    0 -0.38454563113E+02  0.13348868026E+02  0.43041317987E+02  0.59241039456E+02  0.00000000000E+00 0.  1.
         11    1    3    3    0    0  0.38454563113E+02 -0.13348868026E+02  0.99742379545E+02  0.10772877043E+03  0.00000000000E+00 0. -1.
<mgrwt>
<rscale>  0 0.86554798E+02</rscale>
<asrwt>0</asrwt>
<pdfrwt beam="1">  1        1 0.23827191E-01 0.86554798E+02</pdfrwt>
<pdfrwt beam="2">  1       -1 0.18604703E-02 0.86554798E+02</pdfrwt>
<totfact> 0.12970978E+05</totfact>
</mgrwt>
</event>
<event>
 5    1  0.6125604E+000  0.9522098E+02  0.7546771E-02  0.1290679E+00
         -4   -1    0    0    0  501 -0.00000000000E+00  0.00000000000E+00  0.30619042598E+03  0.30619042598E+03  0.00000000000E+00 0.  1.
          4   -1    0    0  501    0  0.00000000000E+00 -0.00000000000E+00 -0.74031018018E+01  0.74031018018E+01  0.00000000000E+00 0. -1.
         23    2    1    2    0    0  0.00000000000E+00  0.00000000000E+00  0.29878732417E+03  0.31359352778E+03  0.95220982861E+02 0.  0.
        -11    1    3    3    0    0  0.28179574022E+02  0.33749260433E+02  0.89236803181E+02  0.99480189052E+02  0.00000000000E+00 0. -1.
         11    1    3    3    0    0 -0.28179574022E+02 -0.33749260433E+02  0.20955052099E+03  0.21411333873E+03  0.00000000000E+00 0.  1.
<mgrwt>
<rscale>  0 0.95220983E+02</rscale>
<asrwt>0</asrwt>
<pdfrwt beam="2">  1        4 0.11389390E-02 0.95220983E+02</pdfrwt>
<pdfrwt beam="1">  1       -4 0.47106210E-01 0.95220983E+02</pdfrwt>
<totfact> 0.15509560E+04</totfact>
</mgrwt>
</event>
<event>
 5    1  0.6125604E+000  0.9105989E+02  0.7546771E-02  0.1300305E+00
         -4   -1    0    0    0  501 -0.00000000000E+00  0.00000000000E+00  0.67032528164E+02  0.67032528164E+02  0.00000000000E+00 0. -1.
          4   -1    0    0  501    0  0.00000000000E+00 -0.00000000000E+00 -0.30924927752E+02  0.30924927752E+02  0.00000000000E+00 0.  1.
         23    2    1    2    0    0  0.00000000000E+00  0.00000000000E+00  0.36107600412E+02  0.97957455915E+02  0.91059894366E+02 0.  0.
        -11    1    3    3    0    0 -0.39753491542E+01 -0.44828512154E+02  0.10633700542E+02  0.46243642699E+02  0.00000000000E+00 0.  1.
         11    1    3    3    0    0  0.39753491542E+01  0.44828512154E+02  0.25473899870E+02  0.51713813217E+02  0.00000000000E+00 0. -1.
<mgrwt>
<rscale>  0 0.91059894E+02</rscale>
<asrwt>0</asrwt>
<pdfrwt beam="2">  1        4 0.47576812E-02 0.91059894E+02</pdfrwt>
<pdfrwt beam="1">  1       -4 0.10312697E-01 0.91059894E+02</pdfrwt>
<totfact> 0.26678136E+04</totfact>
</mgrwt>
</event>
<event>
 5    1  0.6125604E+000  0.9180229E+02  0.7546771E-02  0.1298545E+00
         -2   -1    0    0    0  501 -0.00000000000E+00  0.00000000000E+00  0.28434895987E+02  0.28434895987E+02  0.00000000000E+00 0.  1.
          2   -1    0    0  501    0  0.00000000000E+00 -0.00000000000E+00 -0.74096114561E+02  0.74096114561E+02  0.00000000000E+00 0. -1.
         23    2    1    2    0    0  0.00000000000E+00  0.00000000000E+00 -0.45661218575E+02  0.10253101055E+03  0.91802294319E+02 0.  0.
        -11    1    3    3    0    0 -0.26773166781E+02  0.29977683159E+01  0.18676108317E+02  0.32780880040E+02  0.00000000000E+00 0.  1.
         11    1    3    3    0    0  0.26773166781E+02 -0.29977683159E+01 -0.64337326891E+02  0.69750130508E+02  0.00000000000E+00 0. -1.
<mgrwt>
<rscale>  0 0.91802294E+02</rscale>
<asrwt>0</asrwt>
<pdfrwt beam="2">  1        2 0.11399402E-01 0.91802294E+02</pdfrwt>
<pdfrwt beam="1">  1       -2 0.43745993E-02 0.91802294E+02</pdfrwt>
<totfact> 0.11026154E+05</totfact>
</mgrwt>
</event>
<event>
 5    1  0.6125604E+000  0.9252929E+02  0.7546771E-02  0.1296840E+00
          2   -1    0    0  501    0  0.00000000000E+00  0.00000000000E+00  0.14082991981E+03  0.14082991981E+03  0.00000000000E+00 0. -1.
         -2   -1    0    0    0  501 -0.00000000000E+00 -0.00000000000E+00 -0.15198597079E+02  0.15198597079E+02  0.00000000000E+00 0.  1.
         23    2    1    2    0    0  0.00000000000E+00  0.00000000000E+00  0.12563132273E+03  0.15602851689E+03  0.92529286346E+02 0.  0.
        -11    1    3    3    0    0 -0.32259458071E+02  0.13089755074E+02  0.11435790494E+02  0.36644121318E+02  0.00000000000E+00 0.  1.
         11    1    3    3    0    0  0.32259458071E+02 -0.13089755074E+02  0.11419553224E+03  0.11938439557E+03  0.00000000000E+00 0. -1.
<mgrwt>
<rscale>  0 0.92529286E+02</rscale>
<asrwt>0</asrwt>
<pdfrwt beam="1">  1        2 0.21666141E-01 0.92529286E+02</pdfrwt>
<pdfrwt beam="2">  1       -2 0.23382458E-02 0.92529286E+02</pdfrwt>
<totfact> 0.13148225E+05</totfact>
</mgrwt>
</event>
<event>
 5    1  0.6125604E+000  0.8997655E+02  0.7546771E-02  0.1302908E+00
          4   -1    0    0  501    0  0.00000000000E+00  0.00000000000E+00  0.37215027567E+02  0.37215027567E+02  0.00000000000E+00 0. -1.
         -4   -1    0    0    0  501 -0.00000000000E+00 -0.00000000000E+00 -0.54385154745E+02  0.54385154745E+02  0.00000000000E+00 0.  1.
         23    2    1    2    0    0  0.00000000000E+00  0.00000000000E+00 -0.17170127178E+02  0.91600182312E+02  0.89976553236E+02 0.  0.
        -11    1    3    3    0    0  0.14436107633E+02 -0.42531198511E+02 -0.59615509621E+01  0.45308323080E+02  0.00000000000E+00 0. -1.
         11    1    3    3    0    0 -0.14436107633E+02  0.42531198511E+02 -0.11208576216E+02  0.46291859233E+02  0.00000000000E+00 0.  1.
<mgrwt>
<rscale>  0 0.89976553E+02</rscale>
<asrwt>0</asrwt>
<pdfrwt beam="1">  1        4 0.57253889E-02 0.89976553E+02</pdfrwt>
<pdfrwt beam="2">  1       -4 0.83669469E-02 0.89976553E+02</pdfrwt>
<totfact> 0.27975095E+04</totfact>
</mgrwt>
</event>
<event>
 5    1  0.6125604E+000  0.9557034E+02  0.7546771E-02  0.1289897E+00
         -2   -1    0    0    0  501 -0.00000000000E+00  0.00000000000E+00  0.30819766895E+03  0.30819766895E+03  0.00000000000E+00 0.  1.
          2   -1    0    0  501    0  0.00000000000E+00 -0.00000000000E+00 -0.74089550606E+01  0.74089550606E+01  0.00000000000E+00 0. -1.
         23    2    1    2    0    0  0.00000000000E+00  0.00000000000E+00  0.30078871389E+03  0.31560662401E+03  0.95570344333E+02 0.  0.
        -11    1    3    3    0    0 -0.20289417854E+02 -0.37407279809E+02  0.78614202634E+02  0.89393276678E+02  0.00000000000E+00 0. -1.
         11    1    3    3    0    0  0.20289417854E+02  0.37407279809E+02  0.22217451125E+03  0.22621334733E+03  0.00000000000E+00 0.  1.
<mgrwt>
<rscale>  0 0.95570344E+02</rscale>
<asrwt>0</asrwt>
<pdfrwt beam="2">  1        2 0.11398395E-02 0.95570344E+02</pdfrwt>
<pdfrwt beam="1">  1       -2 0.47415016E-01 0.95570344E+02</pdfrwt>
<totfact> 0.44482985E+04</totfact>
</mgrwt>
</event>
<event>
 5    1  0.6125604E+000  0.9025645E+02  0.7546771E-02  0.1302232E+00
          1   -1    0    0  501    0  0.00000000000E+00  0.00000000000E+00  0.14250460950E+03  0.14250460950E+03  0.00000000000E+00 0. -1.
         -1   -1    0    0    0  501 -0.00000000000E+00 -0.00000000000E+00 -0.14291164766E+02  0.14291164766E+02  0.00000000000E+00 0.  1.
         23    2    1    2    0    0  0.00000000000E+00  0.00000000000E+00  0.12821344474E+03  0.15679577427E+03  0.90256453604E+02 0.  0.
        -11    1    3    3    0    0 -0.43578545380E+01 -0.41018863556E+02  0.32309391036E+02  0.52396896976E+02  0.00000000000E+00 0. -1.
         11    1    3    3    0    0  0.43578545380E+01  0.41018863556E+02  0.95904053700E+02  0.10439887729E+03  0.00000000000E+00 0.  1.
<mgrwt>
<rscale>  0 0.90256454E+02</rscale>
<asrwt>0</asrwt>
<pdfrwt beam="1">  1        1 0.21923785E-01 0.90256454E+02</pdfrwt>
<pdfrwt beam="2">  1       -1 0.21986408E-02 0.90256454E+02</pdfrwt>
<totfact> 0.11416917E+05</totfact>
</mgrwt>
</event>
<event>
 5    1  0.6125604E+000  0.9188644E+02  0.7546771E-02  0.1298347E+00
          3   -1    0    0  501    0  0.00000000000E+00  0.00000000000E+00  0.27313823030E+03  0.27313823030E+03  0.00000000000E+00 0. -1.
         -3   -1    0    0    0  501 -0.00000000000E+00 -0.00000000000E+00 -0.77278807149E+01  0.77278807149E+01  0.00000000000E+00 0.  1.
         23    2    1    2    0    0  0.00000000000E+00  0.00000000000E+00  0.26541034959E+03  0.28086611102E+03  0.91886444321E+02 0.  0.
        -11    1    3    3    0    0  0.42067569222E+02  0.18451670674E+02  0.13026916108E+03  0.13813109302E+03  0.00000000000E+00 0.  1.
         11    1    3    3    0    0 -0.42067569222E+02 -0.18451670674E+02  0.13514118851E+03  0.14273501799E+03  0.00000000000E+00 0. -1.
<mgrwt>
<rscale>  0 0.91886444E+02</rscale>
<asrwt>0</asrwt>
<pdfrwt beam="1">  1        3 0.42021259E-01 0.91886444E+02</pdfrwt>
<pdfrwt beam="2">  1       -3 0.11889049E-02 0.91886444E+02</pdfrwt>
<totfact> 0.24279026E+04</totfact>
</mgrwt>
</event>
<event>
 5    1  0.6125604E+000  0.8721352E+02  0.7546771E-02  0.1309743E+00
          3   -1    0    0  501    0  0.00000000000E+00  0.00000000000E+00  0.77014478679E+01  0.77014478679E+01  0.00000000000E+00 0. -1.
         -3   -1    0    0    0  501 -0.00000000000E+00 -0.00000000000E+00 -0.24690805939E+03  0.24690805939E+03  0.00000000000E+00 0.  1.
         23    2    1    2    0    0  0.00000000000E+00  0.00000000000E+00 -0.23920661153E+03  0.25460950726E+03  0.87213520685E+02 0.  0.
        -11    1    3    3    0    0  0.31242010222E+02 -0.18146053598E+02 -0.48319748598E+02  0.60333577455E+02  0.00000000000E+00 0. -1.
         11    1    3    3    0    0 -0.31242010222E+02  0.18146053598E+02 -0.19088686293E+03  0.19427592981E+03  0.00000000000E+00 0.  1.
<mgrwt>
<rscale>  0 0.87213521E+02</rscale>
<asrwt>0</asrwt>
<pdfrwt beam="1">  1        3 0.11848382E-02 0.87213521E+02</pdfrwt>
<pdfrwt beam="2">  1       -3 0.37985854E-01 0.87213521E+02</pdfrwt>
<totfact> 0.29170054E+04</totfact>
</mgrwt>
</event>
<event>
 5    1  0.6125604E+000  0.8647490E+02  0.7546771E-02  0.1311620E+00
         -1   -1    0    0    0  501 -0.00000000000E+00  0.00000000000E+00  0.63778318560E+02  0.63778318560E+02  0.00000000000E+00 0.  1.
          1   -1    0    0  501    0  0.00000000000E+00 -0.00000000000E+00 -0.29312112408E+02  0.29312112408E+02  0.00000000000E+00 0. -1.
         23    2    1    2    0    0  0.00000000000E+00  0.00000000000E+00  0.34466206152E+02  0.93090430968E+02  0.86474903708E+02 0.  0.
        -11    1    3    3    0    0  0.13781180363E+02  0.35908733751E+02 -0.40293608131E+01  0.38672908352E+02  0.00000000000E+00 0.  1.
         11    1    3    3    0    0 -0.13781180363E+02 -0.35908733751E+02  0.38495566965E+02  0.54417522617E+02  0.00000000000E+00 0. -1.
<mgrwt>
<rscale>  0 0.86474904E+02</rscale>
<asrwt>0</asrwt>
<pdfrwt beam="2">  1        1 0.45095558E-02 0.86474904E+02</pdfrwt>
<pdfrwt beam="1">  1       -1 0.98120490E-02 0.86474904E+02</pdfrwt>
<totfact> 0.10046942E+05</totfact>
</mgrwt>
</event>
<event>
 5    1  0.6125604E+000  0.8934293E+02  0.7546771E-02  0.1304451E+00
         -1   -1    0    0    0  501 -0.00000000000E+00  0.00000000000E+00  0.11230391810E+02  0.11230391810E+02  0.00000000000E+00 0.  1.
          1   -1    0    0  501    0  0.00000000000E+00 -0.00000000000E+00 -0.17769102064E+03  0.17769102064E+03  0.00000000000E+00 0. -1.
         23    2    1    2    0    0  0.00000000000E+00  0.00000000000E+00 -0.16646062883E+03  0.18892141245E+03  0.89342929946E+02 0.  0.
        -11    1    3    3    0    0  0.21131279854E+02 -0.32237463194E+02 -0.35488201171E+02  0.52394631823E+02  0.00000000000E+00 0.  1.
         11    1    3    3    0    0 -0.21131279854E+02  0.32237463194E+02 -0.13097242766E+03  0.13652678062E+03  0.00000000000E+00 0. -1.
<mgrwt>
<rscale>  0 0.89342930E+02</rscale>
<asrwt>0</asrwt>
<pdfrwt beam="2">  1        1 0.27337078E-01 0.89342930E+02</pdfrwt>
<pdfrwt beam="1">  1       -1 0.17277527E-02 0.89342930E+02</pdfrwt>
<totfact> 0.12222496E+05</totfact>
</mgrwt>
</event>
<event>
 5    1  0.6125604E+000  0.9135935E+02  0.7546771E-02  0.1299593E+00
         -2   -1    0    0    0  501 -0.00000000000E+00  0.00000000000E+00  0.17815074157E+02  0.17815074157E+02  0.00000000000E+00 0.  1.
          2   -1    0    0  501    0  0.00000000000E+00 -0.00000000000E+00 -0.11712735629E+03  0.11712735629E+03  0.00000000000E+00 0. -1.
         23    2    1    2    0    0  0.00000000000E+00  0.00000000000E+00 -0.99312282136E+02  0.13494243045E+03  0.91359346281E+02 0.  0.
        -11    1    3    3    0    0 -0.44289096675E+02  0.11176391602E+02 -0.50311267275E+02  0.67953362156E+02  0.00000000000E+00 0. -1.
         11    1    3    3    0    0  0.44289096675E+02 -0.11176391602E+02 -0.49001014861E+02  0.66989068294E+02  0.00000000000E+00 0.  1.
<mgrwt>
<rscale>  0 0.91359346E+02</rscale>
<asrwt>0</asrwt>
<pdfrwt beam="2">  1        2 0.18019594E-01 0.91359346E+02</pdfrwt>
<pdfrwt beam="1">  1       -2 0.27407806E-02 0.91359346E+02</pdfrwt>
<totfact> 0.12815987E+05</totfact>
</mgrwt>
</event>
<event>
 5    1  0.6125604E+000  0.9004120E+02  0.7546771E-02  0.1302752E+00
          1   -1    0    0  501    0  0.00000000000E+00  0.00000000000E+00  0.40819824040E+02  0.40819824040E+02  0.00000000000E+00 0. -1.
         -1   -1    0    0    0  501 -0.00000000000E+00 -0.00000000000E+00 -0.49653676808E+02  0.49653676808E+02  0.00000000000E+00 0.  1.
         23    2    1    2    0    0  0.00000000000E+00  0.00000000000E+00 -0.88338527681E+01  0.90473500847E+02  0.90041198353E+02 0.  0.
        -11    1    3    3    0    0 -0.40759572386E+01 -0.43697114131E+02 -0.14505207096E+02  0.46221772399E+02  0.00000000000E+00 0.  1.
         11    1    3    3    0    0  0.40759572386E+01  0.43697114131E+02  0.56713543284E+01  0.44251728449E+02  0.00000000000E+00 0. -1.
<mgrwt>
<rscale>  0 0.90041198E+02</rscale>
<asrwt>0</asrwt>
<pdfrwt beam="1">  1        1 0.62799729E-02 0.90041198E+02</pdfrwt>
<pdfrwt beam="2">  1       -1 0.76390272E-02 0.90041198E+02</pdfrwt>
<totfact> 0.94211363E+04</totfact>
</mgrwt>
</event>
<event>
 5    1  0.6125604E+000  0.7584303E+02  0.7546771E-02  0.1341280E+00
         -3   -1    0    0    0  501 -0.00000000000E+00  0.00000000000E+00  0.19223665967E+02  0.19223665967E+02  0.00000000000E+00 0.  1.
          3   -1    0    0  501    0  0.00000000000E+00 -0.00000000000E+00 -0.74805786039E+02  0.74805786039E+02  0.00000000000E+00 0. -1.
         23    2    1    2    0    0  0.00000000000E+00  0.00000000000E+00 -0.55582120072E+02  0.94029452006E+02  0.75843033779E+02 0.  0.
        -11    1    3    3    0    0  0.18624363833E+01  0.37870069657E+02 -0.28604610050E+02  0.47495626759E+02  0.00000000000E+00 0.  1.
         11    1    3    3    0    0 -0.18624363833E+01 -0.37870069657E+02 -0.26977510022E+02  0.46533825247E+02  0.00000000000E+00 0. -1.
<mgrwt>
<rscale>  0 0.75843034E+02</rscale>
<asrwt>0</asrwt>
<pdfrwt beam="2">  1        3 0.11508582E-01 0.75843034E+02</pdfrwt>
<pdfrwt beam="1">  1       -3 0.29574871E-02 0.75843034E+02</pdfrwt>
<totfact> 0.57648330E+04</totfact>
</mgrwt>
</event>
<event>
 5    1  0.6125604E+000  0.8978639E+02  0.7546771E-02  0.1303370E+00
         -2   -1    0    0    0  501 -0.00000000000E+00  0.00000000000E+00  0.15665170866E+02  0.15665170866E+02  0.00000000000E+00 0.  1.
          2   -1    0    0  501    0  0.00000000000E+00 -0.00000000000E+00 -0.12865477425E+03  0.12865477425E+03  0.00000000000E+00 0. -1.
         23    2    1    2    0    0  0.00000000000E+00  0.00000000000E+00 -0.11298960339E+03  0.14431994512E+03  0.89786391428E+02 0.  0.
        -11    1    3    3    0    0  0.21572146548E+02  0.39369328811E+02 -0.56996609367E+02  0.72552843067E+02  0.00000000000E+00 0.  1.
         11    1    3    3    0    0 -0.21572146548E+02 -0.39369328811E+02 -0.55992994018E+02  0.71767102051E+02  0.00000000000E+00 0. -1.
<mgrwt>
<rscale>  0 0.89786391E+02</rscale>
<asrwt>0</asrwt>
<pdfrwt beam="2">  1        2 0.19793042E-01 0.89786391E+02</pdfrwt>
<pdfrwt beam="1">  1       -2 0.24100263E-02 0.89786391E+02</pdfrwt>
<totfact> 0.13850273E+05</totfact>
</mgrwt>
</event>
<event>
 5    1  0.6125604E+000  0.8863359E+02  0.7546771E-02  0.1306195E+00
         -1   -1    0    0    0  501 -0.00000000000E+00  0.00000000000E+00  0.56113128524E+02  0.56113128524E+02  0.00000000000E+00 0.  1.
          1   -1    0    0  501    0  0.00000000000E+00 -0.00000000000E+00 -0.35000338476E+02  0.35000338476E+02  0.00000000000E+00 0. -1.
         23    2    1    2    0    0  0.00000000000E+00  0.00000000000E+00  0.21112790047E+02  0.91113467000E+02  0.88633593886E+02 0.  0.
        -11    1    3    3    0    0  0.25612132782E+02  0.36165571494E+02  0.10782980231E+02  0.45609237768E+02  0.00000000000E+00 0. -1.
         11    1    3    3    0    0 -0.25612132782E+02 -0.36165571494E+02  0.10329809816E+02  0.45504229232E+02  0.00000000000E+00 0.  1.
<mgrwt>
<rscale>  0 0.88633594E+02</rscale>
<asrwt>0</asrwt>
<pdfrwt beam="2">  1        1 0.53846675E-02 0.88633594E+02</pdfrwt>
<pdfrwt beam="1">  1       -1 0.86327890E-02 0.88633594E+02</pdfrwt>
<totfact> 0.96242383E+04</totfact>
</mgrwt>
</event>
<event>
 5    1  0.6125604E+000  0.9112941E+02  0.7546771E-02  0.1300139E+00
          2   -1    0    0  501    0  0.00000000000E+00  0.00000000000E+00  0.22250121850E+03  0.22250121850E+03  0.00000000000E+00 0. -1.
         -2   -1    0    0    0  501 -0.00000000000E+00 -0.00000000000E+00 -0.93309260900E+01  0.93309260900E+01  0.00000000000E+00 0.  1.
         23    2    1    2    0    0  0.00000000000E+00  0.00000000000E+00  0.21317029241E+03  0.23183214459E+03  0.91129411821E+02 0.  0.
        -11    1    3    3    0    0  0.23814561228E+02  0.26453494052E+02  0.34216764807E+02  0.49373147235E+02  0.00000000000E+00 0.  1.
         11    1    3    3    0    0 -0.23814561228E+02 -0.26453494052E+02  0.17895352760E+03  0.18245899735E+03  0.00000000000E+00 0. -1.
<mgrwt>
<rscale>  0 0.91129412E+02</rscale>
<asrwt>0</asrwt>
<pdfrwt beam="1">  1        2 0.34230953E-01 0.91129412E+02</pdfrwt>
<pdfrwt beam="2">  1       -2 0.14355273E-02 0.91129412E+02</pdfrwt>
<totfact> 0.16102997E+05</totfact>
</mgrwt>
</event>
<event>
 5    1  0.6125604E+000  0.8923095E+02  0.7546771E-02  0.1304725E+00
          4   -1    0    0  501    0  0.00000000000E+00  0.00000000000E+00  0.14776206474E+02  0.14776206474E+02  0.00000000000E+00 0. -1.
         -4   -1    0    0    0  501 -0.00000000000E+00 -0.00000000000E+00 -0.13471255841E+03  0.13471255841E+03  0.00000000000E+00 0.  1.
         23    2    1    2    0    0  0.00000000000E+00  0.00000000000E+00 -0.11993635194E+03  0.14948876489E+03  0.89230949288E+02 0.  0.
        -11    1    3    3    0    0  0.39477249306E+02  0.18919974485E+02 -0.74391534565E+02  0.86316389302E+02  0.00000000000E+00 0.  1.
         11    1    3    3    0    0 -0.39477249306E+02 -0.18919974485E+02 -0.45544817377E+02  0.63172375586E+02  0.00000000000E+00 0. -1.
<mgrwt>
<rscale>  0 0.89230949E+02</rscale>
<asrwt>0</asrwt>
<pdfrwt beam="1">  1        4 0.22732625E-02 0.89230949E+02</pdfrwt>
<pdfrwt beam="2">  1       -4 0.20725010E-01 0.89230949E+02</pdfrwt>
<totfact> 0.25110675E+04</totfact>
</mgrwt>
</event>
<event>
 5    1  0.6125604E+000  0.9076824E+02  0.7546771E-02  0.1301002E+00
          1   -1    0    0  501    0  0.00000000000E+00  0.00000000000E+00  0.12014708191E+02  0.12014708191E+02  0.00000000000E+00 0. -1.
         -1   -1    0    0    0  501 -0.00000000000E+00 -0.00000000000E+00 -0.17143308183E+03  0.17143308183E+03  0.00000000000E+00 0.  1.
         23    2    1    2    0    0  0.00000000000E+00  0.00000000000E+00 -0.15941837364E+03  0.18344779002E+03  0.90768242300E+02 0.  0.
        -11    1    3    3    0    0 -0.98098687906E+01 -0.40149508023E+02 -0.11760074084E+03  0.12465211898E+03  0.00000000000E+00 0. -1.
         11    1    3    3    0    0  0.98098687906E+01  0.40149508023E+02 -0.41817632795E+02  0.58795671037E+02  0.00000000000E+00 0.  1.
<mgrwt>
<rscale>  0 0.90768242E+02</rscale>
<asrwt>0</asrwt>
<pdfrwt beam="1">  1        1 0.18484168E-02 0.90768242E+02</pdfrwt>
<pdfrwt beam="2">  1       -1 0.26374317E-01 0.90768242E+02</pdfrwt>
<totfact> 0.73233109E+04</totfact>
</mgrwt>
</event>
<event>
 5    1  0.6125604E+000  0.9018810E+02  0.7546771E-02  0.1302397E+00
          1   -1    0    0  501    0  0.00000000000E+00  0.00000000000E+00  0.25809478141E+03  0.25809478141E+03  0.00000000000E+00 0. -1.
         -1   -1    0    0    0  501 -0.00000000000E+00 -0.00000000000E+00 -0.78787855181E+01  0.78787855181E+01  0.00000000000E+00 0.  1.
         23    2    1    2    0    0  0.00000000000E+00  0.00000000000E+00  0.25021599589E+03  0.26597356693E+03  0.90188101789E+02 0.  0.
        -11    1    3    3    0    0 -0.38814007827E+02 -0.20331068092E+02  0.93676381048E+02  0.10341732882E+03  0.00000000000E+00 0.  1.
         11    1    3    3    0    0  0.38814007827E+02  0.20331068092E+02  0.15653961484E+03  0.16255623811E+03  0.00000000000E+00 0. -1.
<mgrwt>
<rscale>  0 0.90188102E+02</rscale>
<asrwt>0</asrwt>
<pdfrwt beam="1">  1        1 0.39706883E-01 0.90188102E+02</pdfrwt>
<pdfrwt beam="2">  1       -1 0.12121210E-02 0.90188102E+02</pdfrwt>
<totfact> 0.12811255E+05</totfact>
</mgrwt>
</event>
<event>
 5    1  0.6125604E+000  0.9206951E+02  0.7546771E-02  0.1297916E+00
         -1   -1    0    0    0  501 -0.00000000000E+00  0.00000000000E+00  0.21184277320E+02  0.21184277320E+02  0.00000000000E+00 0.  1.
          1   -1    0    0  501    0  0.00000000000E+00 -0.00000000000E+00 -0.10003639634E+03  0.10003639634E+03  0.00000000000E+00 0. -1.
         23    2    1    2    0    0  0.00000000000E+00  0.00000000000E+00 -0.78852119017E+02  0.12122067366E+03  0.92069512047E+02 0.  0.
        -11    1    3    3    0    0 -0.17087791963E+02 -0.12698524376E+02  0.14313277385E+02  0.25653753428E+02  0.00000000000E+00 0.  1.
         11    1    3    3    0    0  0.17087791963E+02  0.12698524376E+02 -0.93165396402E+02  0.95566920229E+02  0.00000000000E+00 0. -1.
<mgrwt>
<rscale>  0 0.92069512E+02</rscale>
<asrwt>0</asrwt>
<pdfrwt beam="2">  1        1 0.15390215E-01 0.92069512E+02</pdfrwt>
<pdfrwt beam="1">  1       -1 0.32591196E-02 0.92069512E+02</pdfrwt>
<totfact> 0.10171597E+05</totfact>
</mgrwt>
</event>
<event>
 5    1  0.6125604E+000  0.7813204E+02  0.7546771E-02  0.1334438E+00
          1   -1    0    0  501    0  0.00000000000E+00  0.00000000000E+00  0.33860842370E+02  0.33860842370E+02  0.00000000000E+00 0. -1.
         -1   -1    0    0    0  501 -0.00000000000E+00 -0.00000000000E+00 -0.45071355517E+02  0.45071355517E+02  0.00000000000E+00 0.  1.
         23    2    1    2    0    0  0.00000000000E+00  0.00000000000E+00 -0.11210513147E+02  0.78932197887E+02  0.78132043735E+02 0.  0.
        -11    1    3    3    0    0 -0.16299077111E+02  0.11752778714E+02  0.28239572786E+02  0.34659215129E+02  0.00000000000E+00 0. -1.
         11    1    3    3    0    0  0.16299077111E+02 -0.11752778714E+02 -0.39450085933E+02  0.44272982758E+02  0.00000000000E+00 0.  1.
<mgrwt>
<rscale>  0 0.78132044E+02</rscale>
<asrwt>0</asrwt>
<pdfrwt beam="1">  1        1 0.52093604E-02 0.78132044E+02</pdfrwt>
<pdfrwt beam="2">  1       -1 0.69340547E-02 0.78132044E+02</pdfrwt>
<totfact> 0.13636539E+05</totfact>
</mgrwt>
</event>
<event>
 5    1  0.6125604E+000  0.9126576E+02  0.7546771E-02  0.1299815E+00
          2   -1    0    0  501    0  0.00000000000E+00  0.00000000000E+00  0.42921523075E+01  0.42921523075E+01  0.00000000000E+00 0. -1.
         -2   -1    0    0    0  501 -0.00000000000E+00 -0.00000000000E+00 -0.48515512363E+03  0.48515512363E+03  0.00000000000E+00 0.  1.
         23    2    1    2    0    0  0.00000000000E+00  0.00000000000E+00 -0.48086297132E+03  0.48944727594E+03  0.91265758823E+02 0.  0.
        -11    1    3    3    0    0  0.26582943211E+02  0.37084231726E+02 -0.24409465380E+03  0.24832255864E+03  0.00000000000E+00 0.  1.
         11    1    3    3    0    0 -0.26582943211E+02 -0.37084231726E+02 -0.23676831752E+03  0.24112471730E+03  0.00000000000E+00 0. -1.
<mgrwt>
<rscale>  0 0.91265759E+02</rscale>
<asrwt>0</asrwt>
<pdfrwt beam="1">  1        2 0.66033126E-03 0.91265759E+02</pdfrwt>
<pdfrwt beam="2">  1       -2 0.74639234E-01 0.91265759E+02</pdfrwt>
<totfact> 0.37064119E+04</totfact>
</mgrwt>
</event>
<event>
 5    1  0.6125604E+000  0.9018214E+02  0.7546771E-02  0.1302411E+00
          3   -1    0    0  501    0  0.00000000000E+00  0.00000000000E+00  0.15100792354E+03  0.15100792354E+03  0.00000000000E+00 0. -1.
         -3   -1    0    0    0  501 -0.00000000000E+00 -0.00000000000E+00 -0.13464225077E+02  0.13464225077E+02  0.00000000000E+00 0.  1.
         23    2    1    2    0    0  0.00000000000E+00  0.00000000000E+00  0.13754369846E+03  0.16447214861E+03  0.90182141713E+02 0.  0.
        -11    1    3    3    0    0 -0.18084534701E+02 -0.22693723708E+02  0.58277679653E+01  0.29597607514E+02  0.00000000000E+00 0.  1.
         11    1    3    3    0    0  0.18084534701E+02  0.22693723708E+02  0.13171593049E+03  0.13487454110E+03  0.00000000000E+00 0. -1.
<mgrwt>
<rscale>  0 0.90182142E+02</rscale>
<asrwt>0</asrwt>
<pdfrwt beam="1">  1        3 0.23231987E-01 0.90182142E+02</pdfrwt>
<pdfrwt beam="2">  1       -3 0.20714193E-02 0.90182142E+02</pdfrwt>
<totfact> 0.31359673E+04</totfact>
</mgrwt>
</event>
<event>
 5    1  0.6125604E+000  0.8987702E+02  0.7546771E-02  0.1303150E+00
         -3   -1    0    0    0  501 -0.00000000000E+00  0.00000000000E+00  0.18332778312E+02  0.18332778312E+02  0.00000000000E+00 0.  1.
          3   -1    0    0  501    0  0.00000000000E+00 -0.00000000000E+00 -0.11015623665E+03  0.11015623665E+03  0.00000000000E+00 0. -1.
         23    2    1    2    0    0  0.00000000000E+00  0.00000000000E+00 -0.91823458341E+02  0.12848901497E+03  0.89877024122E+02 0.  0.
        -11    1    3    3    0    0  0.61570712621E+01 -0.29318521052E+02 -0.93797973339E+02  0.98465958614E+02  0.00000000000E+00 0. -1.
         11    1    3    3    0    0 -0.61570712621E+01  0.29318521052E+02  0.19745149980E+01  0.30023056352E+02  0.00000000000E+00 0.  1.
<mgrwt>
<rscale>  0 0.89877024E+02</rscale>
<asrwt>0</asrwt>
<pdfrwt beam="2">  1        3 0.16947114E-01 0.89877024E+02</pdfrwt>
<pdfrwt beam="1">  1       -3 0.28204274E-02 0.89877024E+02</pdfrwt>
<totfact> 0.33970701E+04</totfact>
</mgrwt>
</event>
<event>
 5    1  0.6125604E+000  0.9294698E+02  0.7546771E-02  0.1295868E+00
         -1   -1    0    0    0  501 -0.00000000000E+00  0.00000000000E+00  0.45348480309E+02  0.45348480309E+02  0.00000000000E+00 0.  1.
          1   -1    0    0  501    0  0.00000000000E+00 -0.00000000000E+00 -0.47626414028E+02  0.47626414028E+02  0.00000000000E+00 0. -1.
         23    2    1    2    0    0  0.00000000000E+00  0.00000000000E+00 -0.22779337190E+01  0.92974894337E+02  0.92946984862E+02 0.  0.
        -11    1    3    3    0    0 -0.21747492727E+02 -0.22017126827E+01  0.39885352526E+02  0.45482329808E+02  0.00000000000E+00 0.  1.
         11    1    3    3    0    0  0.21747492727E+02  0.22017126827E+01 -0.42163286245E+02  0.47492564530E+02  0.00000000000E+00 0. -1.
<mgrwt>
<rscale>  0 0.92946985E+02</rscale>
<asrwt>0</asrwt>
<pdfrwt beam="2">  1        1 0.73271406E-02 0.92946985E+02</pdfrwt>
<pdfrwt beam="1">  1       -1 0.69766893E-02 0.92946985E+02</pdfrwt>
<totfact> 0.88188786E+04</totfact>
</mgrwt>
</event>
<event>
 5    1  0.6125604E+000  0.9118845E+02  0.7546771E-02  0.1299999E+00
          4   -1    0    0  501    0  0.00000000000E+00  0.00000000000E+00  0.36399325049E+02  0.36399325049E+02  0.00000000000E+00 0. -1.
         -4   -1    0    0    0  501 -0.00000000000E+00 -0.00000000000E+00 -0.57111869402E+02  0.57111869402E+02  0.00000000000E+00 0.  1.
         23    2    1    2    0    0  0.00000000000E+00  0.00000000000E+00 -0.20712544353E+02  0.93511194451E+02  0.91188453184E+02 0.  0.
        -11    1    3    3    0    0 -0.67763788101E+01  0.23398370180E+02 -0.49879273635E+02  0.55509863765E+02  0.00000000000E+00 0.  1.
         11    1    3    3    0    0  0.67763788101E+01 -0.23398370180E+02  0.29166729282E+02  0.38001330686E+02  0.00000000000E+00 0. -1.
<mgrwt>
<rscale>  0 0.91188453E+02</rscale>
<asrwt>0</asrwt>
<pdfrwt beam="1">  1        4 0.55998962E-02 0.91188453E+02</pdfrwt>
<pdfrwt beam="2">  1       -4 0.87864414E-02 0.91188453E+02</pdfrwt>
<totfact> 0.26857524E+04</totfact>
</mgrwt>
</event>
<event>
 5    1  0.6125604E+000  0.9182974E+02  0.7546771E-02  0.1298480E+00
         -2   -1    0    0    0  501 -0.00000000000E+00  0.00000000000E+00  0.13308055649E+02  0.13308055649E+02  0.00000000000E+00 0.  1.
          2   -1    0    0  501    0  0.00000000000E+00 -0.00000000000E+00 -0.15841346629E+03  0.15841346629E+03  0.00000000000E+00 0. -1.
         23    2    1    2    0    0  0.00000000000E+00  0.00000000000E+00 -0.14510541064E+03  0.17172152194E+03  0.91829738647E+02 0.  0.
        -11    1    3    3    0    0  0.29610817794E+02  0.28826944095E+02 -0.35134871073E+02  0.54242533141E+02  0.00000000000E+00 0. -1.
         11    1    3    3    0    0 -0.29610817794E+02 -0.28826944095E+02 -0.10997053957E+03  0.11747898880E+03  0.00000000000E+00 0.  1.
<mgrwt>
<rscale>  0 0.91829739E+02</rscale>
<asrwt>0</asrwt>
<pdfrwt beam="2">  1        2 0.24371304E-01 0.91829739E+02</pdfrwt>
<pdfrwt beam="1">  1       -2 0.20473930E-02 0.91829739E+02</pdfrwt>
<totfact> 0.13971490E+05</totfact>
</mgrwt>
</event>
<event>
 5    1  0.6125604E+000  0.9680217E+02  0.7546771E-02  0.1287168E+00
          3   -1    0    0  501    0  0.00000000000E+00  0.00000000000E+00  0.44182918064E+02  0.44182918064E+02  0.00000000000E+00 0. -1.
         -3   -1    0    0    0  501 -0.00000000000E+00 -0.00000000000E+00 -0.53021965040E+02  0.53021965040E+02  0.00000000000E+00 0.  1.
         23    2    1    2    0    0  0.00000000000E+00  0.00000000000E+00 -0.88390469761E+01  0.97204883103E+02  0.96802172226E+02 0.  0.
        -11    1    3    3    0    0 -0.38271954884E+02 -0.53187638473E+01 -0.33689256222E+02  0.51264000666E+02  0.00000000000E+00 0.  1.
         11    1    3    3    0    0  0.38271954884E+02  0.53187638473E+01  0.24850209246E+02  0.45940882437E+02  0.00000000000E+00 0. -1.
<mgrwt>
<rscale>  0 0.96802172E+02</rscale>
<asrwt>0</asrwt>
<pdfrwt beam="1">  1        3 0.67973721E-02 0.96802172E+02</pdfrwt>
<pdfrwt beam="2">  1       -3 0.81572253E-02 0.96802172E+02</pdfrwt>
<totfact> 0.29610381E+04</totfact>
</mgrwt>
</event>
<event>
 5    1  0.6125604E+000  0.9143862E+02  0.7546771E-02  0.1299405E+00
          2   -1    0    0  501    0  0.00000000000E+00  0.00000000000E+00  0.15145212087E+03  0.15145212087E+03  0.00000000000E+00 0. -1.
         -2   -1    0    0    0  501 -0.00000000000E+00 -0.00000000000E+00 -0.13801425054E+02  0.13801425054E+02  0.00000000000E+00 0.  1.
         23    2    1    2    0    0  0.00000000000E+00  0.00000000000E+00  0.13765069582E+03  0.16525354592E+03  0.91438615377E+02 0.  0.
        -11    1    3    3    0    0 -0.38243248686E+02  0.63755719754E+01  0.25036572413E+02  0.46152182465E+02  0.00000000000E+00 0.  1.
         11    1    3    3    0    0  0.38243248686E+02 -0.63755719754E+01  0.11261412340E+03  0.11910136346E+03  0.00000000000E+00 0. -1.
<mgrwt>
<rscale>  0 0.91438615E+02</rscale>
<asrwt>0</asrwt>
<pdfrwt beam="1">  1        2 0.23300325E-01 0.91438615E+02</pdfrwt>
<pdfrwt beam="2">  1       -2 0.21232963E-02 0.91438615E+02</pdfrwt>
<totfact> 0.13918102E+05</totfact>
</mgrwt>
</event>
<event>
 5    1  0.6125604E+000  0.9165282E+02  0.7546771E-02  0.1298898E+00
          1   -1    0    0  501    0  0.00000000000E+00  0.00000000000E+00  0.27837150517E+02  0.27837150517E+02  0.00000000000E+00 0. -1.
         -1   -1    0    0    0  501 -0.00000000000E+00 -0.00000000000E+00 -0.75440910317E+02  0.75440910317E+02  0.00000000000E+00 0.  1.
         23    2    1    2    0    0  0.00000000000E+00  0.00000000000E+00 -0.47603759800E+02  0.10327806083E+03  0.91652822666E+02 0.  0.
        -11    1    3    3    0    0  0.24037572690E+02  0.38533164393E+02 -0.16905995415E+02  0.48460523521E+02  0.00000000000E+00 0.  1.
         11    1    3    3    0    0 -0.24037572690E+02 -0.38533164393E+02 -0.30697764385E+02  0.54817537314E+02  0.00000000000E+00 0. -1.
<mgrwt>
<rscale>  0 0.91652823E+02</rscale>
<asrwt>0</asrwt>
<pdfrwt beam="1">  1        1 0.42826386E-02 0.91652823E+02</pdfrwt>
<pdfrwt beam="2">  1       -1 0.11606294E-01 0.91652823E+02</pdfrwt>
<totfact> 0.84354712E+04</totfact>
</mgrwt>
</event>
<event>
 5    1  0.6125604E+000  0.9101293E+02  0.7546771E-02  0.1300417E+00
          1   -1    0    0  501    0  0.00000000000E+00  0.00000000000E+00  0.31806090326E+03  0.31806090326E+03  0.00000000000E+00 0. -1.
         -1   -1    0    0    0  501 -0.00000000000E+00 -0.00000000000E+00 -0.65108238569E+01  0.65108238569E+01  0.00000000000E+00 0.  1.
         23    2    1    2    0    0  0.00000000000E+00  0.00000000000E+00  0.31155007940E+03  0.32457172712E+03  0.91012933518E+02 0.  0.
        -11    1    3    3    0    0 -0.57736563371E+01  0.43636287676E+02  0.11458906386E+03  0.12275224750E+03  0.00000000000E+00 0.  1.
         11    1    3    3    0    0  0.57736563371E+01 -0.43636287676E+02  0.19696101555E+03  0.20181947962E+03  0.00000000000E+00 0. -1.
<mgrwt>
<rscale>  0 0.91012934E+02</rscale>
<asrwt>0</asrwt>
<pdfrwt beam="1">  1        1 0.48932435E-01 0.91012934E+02</pdfrwt>
<pdfrwt beam="2">  1       -1 0.10016655E-02 0.91012934E+02</pdfrwt>
<totfact> 0.13016662E+05</totfact>
</mgrwt>
</event>
<event>
 5    1  0.6125604E+000  0.8890108E+02  0.7546771E-02  0.1305535E+00
          1   -1    0    0  501    0  0.00000000000E+00  0.00000000000E+00  0.58284851774E+02  0.58284851774E+02  0.00000000000E+00 0. -1.
         -1   -1    0    0    0  501 -0.00000000000E+00 -0.00000000000E+00 -0.33899897186E+02  0.33899897186E+02  0.00000000000E+00 0.  1.
         23    2    1    2    0    0  0.00000000000E+00  0.00000000000E+00  0.24384954588E+02  0.92184748960E+02  0.88901079468E+02 0.  0.
        -11    1    3    3    0    0  0.30812361059E+02  0.24504907877E+02  0.33593554097E+02  0.51753444146E+02  0.00000000000E+00 0.  1.
         11    1    3    3    0    0 -0.30812361059E+02 -0.24504907877E+02 -0.92085995093E+01  0.40431304814E+02  0.00000000000E+00 0. -1.
<mgrwt>
<rscale>  0 0.88901079E+02</rscale>
<asrwt>0</asrwt>
<pdfrwt beam="1">  1        1 0.89669003E-02 0.88901079E+02</pdfrwt>
<pdfrwt beam="2">  1       -1 0.52153688E-02 0.88901079E+02</pdfrwt>
<totfact> 0.10290682E+05</totfact>
</mgrwt>
</event>
<event>
 5    1  0.6125604E+000  0.9146133E+02  0.7546771E-02  0.1299351E+00
          4   -1    0    0  501    0  0.00000000000E+00  0.00000000000E+00  0.49317540745E+02  0.49317540745E+02  0.00000000000E+00 0. -1.
         -4   -1    0    0    0  501 -0.00000000000E+00 -0.00000000000E+00 -0.42404663636E+02  0.42404663636E+02  0.00000000000E+00 0.  1.
         23    2    1    2    0    0  0.00000000000E+00  0.00000000000E+00  0.69128771087E+01  0.91722204382E+02  0.91461330117E+02 0.  0.
        -11    1    3    3    0    0 -0.72820513176E+01 -0.33206385346E+02  0.34131285790E+02  0.48172990034E+02  0.00000000000E+00 0. -1.
         11    1    3    3    0    0  0.72820513176E+01  0.33206385346E+02 -0.27218408681E+02  0.43549214348E+02  0.00000000000E+00 0.  1.
<mgrwt>
<rscale>  0 0.91461330E+02</rscale>
<asrwt>0</asrwt>
<pdfrwt beam="1">  1        4 0.75873139E-02 0.91461330E+02</pdfrwt>
<pdfrwt beam="2">  1       -4 0.65237944E-02 0.91461330E+02</pdfrwt>
<totfact> 0.26753498E+04</totfact>
</mgrwt>
</event>
<event>
 5    1  0.6125604E+000  0.9141249E+02  0.7546771E-02  0.1299467E+00
          4   -1    0    0  501    0  0.00000000000E+00  0.00000000000E+00  0.75443314554E+02  0.75443314554E+02  0.00000000000E+00 0. -1.
         -4   -1    0    0    0  501 -0.00000000000E+00 -0.00000000000E+00 -0.27690467658E+02  0.27690467658E+02  0.00000000000E+00 0.  1.
         23    2    1    2    0    0  0.00000000000E+00  0.00000000000E+00  0.47752846895E+02  0.10313378221E+03  0.91412486273E+02 0.  0.
        -11    1    3    3    0    0 -0.19777029925E+02 -0.37785793886E+02  0.53321943356E+01  0.42980570362E+02  0.00000000000E+00 0.  1.
         11    1    3    3    0    0  0.19777029925E+02  0.37785793886E+02  0.42420652560E+02  0.60153211850E+02  0.00000000000E+00 0. -1.
<mgrwt>
<rscale>  0 0.91412486E+02</rscale>
<asrwt>0</asrwt>
<pdfrwt beam="1">  1        4 0.11606664E-01 0.91412486E+02</pdfrwt>
<pdfrwt beam="2">  1       -4 0.42600720E-02 0.91412486E+02</pdfrwt>
<totfact> 0.26082351E+04</totfact>
</mgrwt>
</event>
<event>
 5    1  0.6125604E+000  0.8992264E+02  0.7546771E-02  0.1303039E+00
          1   -1    0    0  501    0  0.00000000000E+00  0.00000000000E+00  0.44917977278E+02  0.44917977278E+02  0.00000000000E+00 0. -1.
         -1   -1    0    0    0  501 -0.00000000000E+00 -0.00000000000E+00 -0.45004701992E+02  0.45004701992E+02  0.00000000000E+00 0.  1.
         23    2    1    2    0    0  0.00000000000E+00  0.00000000000E+00 -0.86724714283E-01  0.89922679270E+02  0.89922637450E+02 0.  0.
        -11    1    3    3    0    0  0.34371661397E+02  0.12373048406E+01 -0.29001589703E+02  0.44989268007E+02  0.00000000000E+00 0.  1.
         11    1    3    3    0    0 -0.34371661397E+02 -0.12373048406E+01  0.28914864989E+02  0.44933411264E+02  0.00000000000E+00 0. -1.
<mgrwt>
<rscale>  0 0.89922637E+02</rscale>
<asrwt>0</asrwt>
<pdfrwt beam="1">  1        1 0.69104580E-02 0.89922637E+02</pdfrwt>
<pdfrwt beam="2">  1       -1 0.69238003E-02 0.89922637E+02</pdfrwt>
<totfact> 0.95919764E+04</totfact>
</mgrwt>
</event>
<event>
 5    1  0.6125604E+000  0.9144456E+02  0.7546771E-02  0.1299391E+00
          2   -1    0    0  501    0  0.00000000000E+00  0.00000000000E+00  0.33380904287E+02  0.33380904287E+02  0.00000000000E+00 0. -1.
         -2   -1    0    0    0  501 -0.00000000000E+00 -0.00000000000E+00 -0.62626427248E+02  0.62626427248E+02  0.00000000000E+00 0.  1.
         23    2    1    2    0    0  0.00000000000E+00  0.00000000000E+00 -0.29245522961E+02  0.96007331535E+02  0.91444557494E+02 0.  0.
        -11    1    3    3    0    0  0.22944192791E+01 -0.18083263558E+02  0.29401069906E+02  0.34593231887E+02  0.00000000000E+00 0. -1.
         11    1    3    3    0    0 -0.22944192791E+01  0.18083263558E+02 -0.58646592867E+02  0.61414099648E+02  0.00000000000E+00 0.  1.
<mgrwt>
<rscale>  0 0.91444557E+02</rscale>
<asrwt>0</asrwt>
<pdfrwt beam="1">  1        2 0.51355238E-02 0.91444557E+02</pdfrwt>
<pdfrwt beam="2">  1       -2 0.96348349E-02 0.91444557E+02</pdfrwt>
<totfact> 0.90219829E+04</totfact>
</mgrwt>
</event>
<event>
 5    1  0.6125604E+000  0.9150445E+02  0.7546771E-02  0.1299249E+00
          3   -1    0    0  501    0  0.00000000000E+00  0.00000000000E+00  0.82801539260E+02  0.82801539260E+02  0.00000000000E+00 0. -1.
         -3   -1    0    0    0  501 -0.00000000000E+00 -0.00000000000E+00 -0.25280519799E+02  0.25280519799E+02  0.00000000000E+00 0.  1.
         23    2    1    2    0    0  0.00000000000E+00  0.00000000000E+00  0.57521019461E+02  0.10808205906E+03  0.91504446945E+02 0.  0.
        -11    1    3    3    0    0 -0.59979558017E+01  0.43321033517E+02  0.44632978114E+02  0.62488320141E+02  0.00000000000E+00 0. -1.
         11    1    3    3    0    0  0.59979558017E+01 -0.43321033517E+02  0.12888041347E+02  0.45593738918E+02  0.00000000000E+00 0.  1.
<mgrwt>
<rscale>  0 0.91504447E+02</rscale>
<asrwt>0</asrwt>
<pdfrwt beam="1">  1        3 0.12738698E-01 0.91504447E+02</pdfrwt>
<pdfrwt beam="2">  1       -3 0.38893108E-02 0.91504447E+02</pdfrwt>
<totfact> 0.33750581E+04</totfact>
</mgrwt>
</event>
<event>
 5    1  0.6125604E+000  0.9215668E+02  0.7546771E-02  0.1297711E+00
          4   -1    0    0  501    0  0.00000000000E+00  0.00000000000E+00  0.42738088510E+03  0.42738088510E+03  0.00000000000E+00 0. -1.
         -4   -1    0    0    0  501 -0.00000000000E+00 -0.00000000000E+00 -0.49679649618E+01  0.49679649618E+01  0.00000000000E+00 0.  1.
         23    2    1    2    0    0  0.00000000000E+00  0.00000000000E+00  0.42241292014E+03  0.43234885006E+03  0.92156676644E+02 0.  0.
        -11    1    3    3    0    0  0.43750426439E+02  0.13768064774E+02  0.19046097725E+03  0.19590569995E+03  0.00000000000E+00 0. -1.
         11    1    3    3    0    0 -0.43750426439E+02 -0.13768064774E+02  0.23195194290E+03  0.23644315011E+03  0.00000000000E+00 0.  1.
<mgrwt>
<rscale>  0 0.92156677E+02</rscale>
<asrwt>0</asrwt>
<pdfrwt beam="1">  1        4 0.65750876E-01 0.92156677E+02</pdfrwt>
<pdfrwt beam="2">  1       -4 0.76430264E-03 0.92156677E+02</pdfrwt>
<totfact> 0.14020333E+04</totfact>
</mgrwt>
</event>
<event>
 5    1  0.6125604E+000  0.9008940E+02  0.7546771E-02  0.1302635E+00
         -2   -1    0    0    0  501 -0.00000000000E+00  0.00000000000E+00  0.70948828679E+02  0.70948828679E+02  0.00000000000E+00 0. -1.
          2   -1    0    0  501    0  0.00000000000E+00 -0.00000000000E+00 -0.28598428757E+02  0.28598428757E+02  0.00000000000E+00 0.  1.
         23    2    1    2    0    0  0.00000000000E+00  0.00000000000E+00  0.42350399922E+02  0.99547257436E+02  0.90089400539E+02 0.  0.
        -11    1    3    3    0    0 -0.37809573512E+02  0.15099689151E+02  0.42471882517E+02  0.58833878558E+02  0.00000000000E+00 0. -1.
         11    1    3    3    0    0  0.37809573512E+02 -0.15099689151E+02 -0.12148259485E+00  0.40713378878E+02  0.00000000000E+00 0.  1.
<mgrwt>
<rscale>  0 0.90089401E+02</rscale>
<asrwt>0</asrwt>
<pdfrwt beam="2">  1        2 0.43997583E-02 0.90089401E+02</pdfrwt>
<pdfrwt beam="1">  1       -2 0.10915204E-01 0.90089401E+02</pdfrwt>
<totfact> 0.90510928E+04</totfact>
</mgrwt>
</event>
<event>
 5    1  0.6125604E+000  0.8736710E+02  0.7546771E-02  0.1309356E+00
          2   -1    0    0  501    0  0.00000000000E+00  0.00000000000E+00  0.28749390489E+03  0.28749390489E+03  0.00000000000E+00 0. -1.
         -2   -1    0    0    0  501 -0.00000000000E+00 -0.00000000000E+00 -0.66375412122E+01  0.66375412122E+01  0.00000000000E+00 0.  1.
         23    2    1    2    0    0  0.00000000000E+00  0.00000000000E+00  0.28085636368E+03  0.29413144611E+03  0.87367102321E+02 0.  0.
        -11    1    3    3    0    0 -0.27699797889E+02  0.27460908886E+02  0.20664637959E+03  0.21029528411E+03  0.00000000000E+00 0. -1.
         11    1    3    3    0    0  0.27699797889E+02 -0.27460908886E+02  0.74209984094E+02  0.83836162001E+02  0.00000000000E+00 0.  1.
<mgrwt>
<rscale>  0 0.87367102E+02</rscale>
<asrwt>0</asrwt>
<pdfrwt beam="1">  1        2 0.44229822E-01 0.87367102E+02</pdfrwt>
<pdfrwt beam="2">  1       -2 0.10211604E-02 0.87367102E+02</pdfrwt>
<totfact> 0.19811342E+05</totfact>
</mgrwt>
</event>
<event>
 5    1  0.6125604E+000  0.9323860E+02  0.7546771E-02  0.1295193E+00
          1   -1    0    0  501    0  0.00000000000E+00  0.00000000000E+00  0.13161887387E+02  0.13161887387E+02  0.00000000000E+00 0. -1.
         -1   -1    0    0    0  501 -0.00000000000E+00 -0.00000000000E+00 -0.16512520334E+03  0.16512520334E+03  0.00000000000E+00 0.  1.
         23    2    1    2    0    0  0.00000000000E+00  0.00000000000E+00 -0.15196331595E+03  0.17828709072E+03  0.93238604260E+02 0.  0.
        -11    1    3    3    0    0  0.29985575728E+02  0.99833532774E+00 -0.14421194667E+03  0.14729975217E+03  0.00000000000E+00 0.  1.
         11    1    3    3    0    0 -0.29985575728E+02 -0.99833532774E+00 -0.77513692757E+01  0.30987338556E+02  0.00000000000E+00 0. -1.
<mgrwt>
<rscale>  0 0.93238604E+02</rscale>
<asrwt>0</asrwt>
<pdfrwt beam="1">  1        1 0.20249056E-02 0.93238604E+02</pdfrwt>
<pdfrwt beam="2">  1       -1 0.25403879E-01 0.93238604E+02</pdfrwt>
<totfact> 0.68940761E+04</totfact>
</mgrwt>
</event>
<event>
 5    1  0.6125604E+000  0.8954011E+02  0.7546771E-02  0.1303969E+00
          1   -1    0    0  501    0  0.00000000000E+00  0.00000000000E+00  0.30818952396E+02  0.30818952396E+02  0.00000000000E+00 0. -1.
         -1   -1    0    0    0  501 -0.00000000000E+00 -0.00000000000E+00 -0.65036538124E+02  0.65036538124E+02  0.00000000000E+00 0.  1.
         23    2    1    2    0    0  0.00000000000E+00  0.00000000000E+00 -0.34217585728E+02  0.95855490520E+02  0.89540113300E+02 0.  0.
        -11    1    3    3    0    0 -0.27839394176E+02  0.91888073170E+01 -0.53331558035E+02  0.60858205120E+02  0.00000000000E+00 0.  1.
         11    1    3    3    0    0  0.27839394176E+02 -0.91888073170E+01  0.19113972307E+02  0.34997285400E+02  0.00000000000E+00 0. -1.
<mgrwt>
<rscale>  0 0.89540113E+02</rscale>
<asrwt>0</asrwt>
<pdfrwt beam="1">  1        1 0.47413774E-02 0.89540113E+02</pdfrwt>
<pdfrwt beam="2">  1       -1 0.10005621E-01 0.89540113E+02</pdfrwt>
<totfact> 0.91688107E+04</totfact>
</mgrwt>
</event>
<event>
 5    1  0.6125604E+000  0.9282220E+02  0.7546771E-02  0.1296158E+00
          3   -1    0    0  501    0  0.00000000000E+00  0.00000000000E+00  0.37582375341E+02  0.37582375341E+02  0.00000000000E+00 0. -1.
         -3   -1    0    0    0  501 -0.00000000000E+00 -0.00000000000E+00 -0.57313843357E+02  0.57313843357E+02  0.00000000000E+00 0.  1.
         23    2    1    2    0    0  0.00000000000E+00  0.00000000000E+00 -0.19731468016E+02  0.94896218698E+02  0.92822203664E+02 0.  0.
        -11    1    3    3    0    0  0.17937054028E+02  0.41311121860E+02 -0.21325278398E+02  0.49830855856E+02  0.00000000000E+00 0.  1.
         11    1    3    3    0    0 -0.17937054028E+02 -0.41311121860E+02  0.15938103824E+01  0.45065362842E+02  0.00000000000E+00 0. -1.
<mgrwt>
<rscale>  0 0.92822204E+02</rscale>
<asrwt>0</asrwt>
<pdfrwt beam="1">  1        3 0.57819039E-02 0.92822204E+02</pdfrwt>
<pdfrwt beam="2">  1       -3 0.88175143E-02 0.92822204E+02</pdfrwt>
<totfact> 0.33384743E+04</totfact>
</mgrwt>
</event>
<event>
 5    1  0.6125604E+000  0.9029952E+02  0.7546771E-02  0.1302128E+00
          1   -1    0    0  501    0  0.00000000000E+00  0.00000000000E+00  0.25702361164E+03  0.25702361164E+03  0.00000000000E+00 0.  1.
         -1   -1    0    0    0  501 -0.00000000000E+00 -0.00000000000E+00 -0.79311813823E+01  0.79311813823E+01  0.00000000000E+00 0. -1.
         23    2    1    2    0    0  0.00000000000E+00  0.00000000000E+00  0.24909243025E+03  0.26495479302E+03  0.90299521226E+02 0.  0.
        -11    1    3    3    0    0  0.35563425064E+02  0.15137225310E+02  0.56071792776E+02  0.68102413595E+02  0.00000000000E+00 0. -1.
         11    1    3    3    0    0 -0.35563425064E+02 -0.15137225310E+02  0.19302063748E+03  0.19685237942E+03  0.00000000000E+00 0.  1.
<mgrwt>
<rscale>  0 0.90299521E+02</rscale>
<asrwt>0</asrwt>
<pdfrwt beam="1">  1        1 0.39542088E-01 0.90299521E+02</pdfrwt>
<pdfrwt beam="2">  1       -1 0.12201819E-02 0.90299521E+02</pdfrwt>
<totfact> 0.12758779E+05</totfact>
</mgrwt>
</event>
<event>
 5    1  0.6125604E+000  0.9373508E+02  0.7546771E-02  0.1294051E+00
          4   -1    0    0  501    0  0.00000000000E+00  0.00000000000E+00  0.65996531082E+02  0.65996531082E+02  0.00000000000E+00 0. -1.
         -4   -1    0    0    0  501 -0.00000000000E+00 -0.00000000000E+00 -0.33283060264E+02  0.33283060264E+02  0.00000000000E+00 0.  1.
         23    2    1    2    0    0  0.00000000000E+00  0.00000000000E+00  0.32713470818E+02  0.99279591346E+02  0.93735084600E+02 0.  0.
        -11    1    3    3    0    0 -0.62776037246E+01  0.40498995200E+02  0.40439076803E+02  0.57575132249E+02  0.00000000000E+00 0.  1.
         11    1    3    3    0    0  0.62776037246E+01 -0.40498995200E+02 -0.77256059854E+01  0.41704459097E+02  0.00000000000E+00 0. -1.
<mgrwt>
<rscale>  0 0.93735085E+02</rscale>
<asrwt>0</asrwt>
<pdfrwt beam="1">  1        4 0.10153312E-01 0.93735085E+02</pdfrwt>
<pdfrwt beam="2">  1       -4 0.51204708E-02 0.93735085E+02</pdfrwt>
<totfact> 0.24580753E+04</totfact>
</mgrwt>
</event>
<event>
 5    1  0.6125604E+000  0.9319962E+02  0.7546771E-02  0.1295283E+00
         -3   -1    0    0    0  501 -0.00000000000E+00  0.00000000000E+00  0.83448928750E+02  0.83448928750E+02  0.00000000000E+00 0.  1.
          3   -1    0    0  501    0  0.00000000000E+00 -0.00000000000E+00 -0.26022410086E+02  0.26022410086E+02  0.00000000000E+00 0. -1.
         23    2    1    2    0    0  0.00000000000E+00  0.00000000000E+00  0.57426518664E+02  0.10947133884E+03  0.93199618994E+02 0.  0.
        -11    1    3    3    0    0  0.19274618277E+02  0.92607138446E+01  0.77345689323E+02  0.80247288973E+02  0.00000000000E+00 0.  1.
         11    1    3    3    0    0 -0.19274618277E+02 -0.92607138446E+01 -0.19919170659E+02  0.29224049863E+02  0.00000000000E+00 0. -1.
<mgrwt>
<rscale>  0 0.93199619E+02</rscale>
<asrwt>0</asrwt>
<pdfrwt beam="2">  1        3 0.40034478E-02 0.93199619E+02</pdfrwt>
<pdfrwt beam="1">  1       -3 0.12838297E-01 0.93199619E+02</pdfrwt>
<totfact> 0.32010730E+04</totfact>
</mgrwt>
</event>
<event>
 5    1  0.6125604E+000  0.8924687E+02  0.7546771E-02  0.1304686E+00
         -2   -1    0    0    0  501 -0.00000000000E+00  0.00000000000E+00  0.18450887336E+03  0.18450887336E+03  0.00000000000E+00 0.  1.
          2   -1    0    0  501    0  0.00000000000E+00 -0.00000000000E+00 -0.10792169569E+02  0.10792169569E+02  0.00000000000E+00 0. -1.
         23    2    1    2    0    0  0.00000000000E+00  0.00000000000E+00  0.17371670379E+03  0.19530104293E+03  0.89246872177E+02 0.  0.
        -11    1    3    3    0    0  0.32799514071E+02 -0.13614213839E+02  0.14598749351E+03  0.15024481090E+03  0.00000000000E+00 0.  1.
         11    1    3    3    0    0 -0.32799514071E+02  0.13614213839E+02  0.27729210282E+02  0.45056232028E+02  0.00000000000E+00 0. -1.
<mgrwt>
<rscale>  0 0.89246872E+02</rscale>
<asrwt>0</asrwt>
<pdfrwt beam="2">  1        2 0.16603339E-02 0.89246872E+02</pdfrwt>
<pdfrwt beam="1">  1       -2 0.28385978E-01 0.89246872E+02</pdfrwt>
<totfact> 0.68086560E+04</totfact>
</mgrwt>
</event>
<event>
 5    1  0.6125604E+000  0.9030542E+02  0.7546771E-02  0.1302114E+00
          2   -1    0    0  501    0  0.00000000000E+00  0.00000000000E+00  0.41545911904E+02  0.41545911904E+02  0.00000000000E+00 0.  1.
         -2   -1    0    0    0  501 -0.00000000000E+00 -0.00000000000E+00 -0.49072626003E+02  0.49072626003E+02  0.00000000000E+00 0. -1.
         23    2    1    2    0    0  0.00000000000E+00  0.00000000000E+00 -0.75267140985E+01  0.90618537907E+02  0.90305415050E+02 0.  0.
        -11    1    3    3    0    0  0.22907974184E+02  0.20638853137E+02 -0.36863020990E+02  0.48058504518E+02  0.00000000000E+00 0. -1.
         11    1    3    3    0    0 -0.22907974184E+02 -0.20638853137E+02  0.29336306892E+02  0.42560033389E+02  0.00000000000E+00 0.  1.
<mgrwt>
<rscale>  0 0.90305415E+02</rscale>
<asrwt>0</asrwt>
<pdfrwt beam="1">  1        2 0.63916788E-02 0.90305415E+02</pdfrwt>
<pdfrwt beam="2">  1       -2 0.75496347E-02 0.90305415E+02</pdfrwt>
<totfact> 0.99034146E+04</totfact>
</mgrwt>
</event>
<event>
 5    1  0.6125604E+000  0.9161475E+02  0.7546771E-02  0.1298988E+00
          1   -1    0    0  501    0  0.00000000000E+00  0.00000000000E+00  0.23506984717E+03  0.23506984717E+03  0.00000000000E+00 0. -1.
         -1   -1    0    0    0  501 -0.00000000000E+00 -0.00000000000E+00 -0.89263486132E+01  0.89263486132E+01  0.00000000000E+00 0.  1.
         23    2    1    2    0    0  0.00000000000E+00  0.00000000000E+00  0.22614349855E+03  0.24399619578E+03  0.91614745631E+02 0.  0.
        -11    1    3    3    0    0  0.34877744684E+02 -0.29663507886E+02  0.11677613862E+03  0.12543144472E+03  0.00000000000E+00 0.  1.
         11    1    3    3    0    0 -0.34877744684E+02  0.29663507886E+02  0.10936735993E+03  0.11856475106E+03  0.00000000000E+00 0. -1.
<mgrwt>
<rscale>  0 0.91614746E+02</rscale>
<asrwt>0</asrwt>
<pdfrwt beam="1">  1        1 0.36164587E-01 0.91614746E+02</pdfrwt>
<pdfrwt beam="2">  1       -1 0.13732846E-02 0.91614746E+02</pdfrwt>
<totfact> 0.12063677E+05</totfact>
</mgrwt>
</event>
<event>
 5    1  0.6125604E+000  0.9772546E+02  0.7546771E-02  0.1285153E+00
          1   -1    0    0  501    0  0.00000000000E+00  0.00000000000E+00  0.15117551479E+03  0.15117551479E+03  0.00000000000E+00 0. -1.
         -1   -1    0    0    0  501 -0.00000000000E+00 -0.00000000000E+00 -0.15793341947E+02  0.15793341947E+02  0.00000000000E+00 0.  1.
         23    2    1    2    0    0  0.00000000000E+00  0.00000000000E+00  0.13538217284E+03  0.16696885674E+03  0.97725464421E+02 0.  0.
        -11    1    3    3    0    0  0.42156470859E+02 -0.73058700635E+01  0.10801514406E+03  0.11618009777E+03  0.00000000000E+00 0. -1.
         11    1    3    3    0    0 -0.42156470859E+02  0.73058700635E+01  0.27367028786E+02  0.50788758966E+02  0.00000000000E+00 0.  1.
<mgrwt>
<rscale>  0 0.97725464E+02</rscale>
<asrwt>0</asrwt>
<pdfrwt beam="1">  1        1 0.23257771E-01 0.97725464E+02</pdfrwt>
<pdfrwt beam="2">  1       -1 0.24297450E-02 0.97725464E+02</pdfrwt>
<totfact> 0.93050197E+04</totfact>
</mgrwt>
</event>
<event>
 5    1  0.6125604E+000  0.8347286E+02  0.7546771E-02  0.1319475E+00
         -3   -1    0    0    0  501 -0.00000000000E+00  0.00000000000E+00  0.49317572707E+02  0.49317572707E+02  0.00000000000E+00 0.  1.
          3   -1    0    0  501    0  0.00000000000E+00 -0.00000000000E+00 -0.35320668986E+02  0.35320668986E+02  0.00000000000E+00 0. -1.
         23    2    1    2    0    0  0.00000000000E+00  0.00000000000E+00  0.13996903721E+02  0.84638241693E+02  0.83472861716E+02 0.  0.
        -11    1    3    3    0    0 -0.29804592417E+02 -0.26311410670E+02  0.19877179969E+02  0.44448918368E+02  0.00000000000E+00 0.  1.
         11    1    3    3    0    0  0.29804592417E+02  0.26311410670E+02 -0.58802762485E+01  0.40189323325E+02  0.00000000000E+00 0. -1.
<mgrwt>
<rscale>  0 0.83472862E+02</rscale>
<asrwt>0</asrwt>
<pdfrwt beam="2">  1        3 0.54339491E-02 0.83472862E+02</pdfrwt>
<pdfrwt beam="1">  1       -3 0.75873189E-02 0.83472862E+02</pdfrwt>
<totfact> 0.45534863E+04</totfact>
</mgrwt>
</event>
<event>
 5    1  0.6125604E+000  0.9201437E+02  0.7546771E-02  0.1298046E+00
          1   -1    0    0  501    0  0.00000000000E+00  0.00000000000E+00  0.78313093707E+02  0.78313093707E+02  0.00000000000E+00 0. -1.
         -1   -1    0    0    0  501 -0.00000000000E+00 -0.00000000000E+00 -0.27028187719E+02  0.27028187719E+02  0.00000000000E+00 0.  1.
         23    2    1    2    0    0  0.00000000000E+00  0.00000000000E+00  0.51284905988E+02  0.10534128143E+03  0.92014368390E+02 0.  0.
        -11    1    3    3    0    0 -0.21047856380E+02  0.39022630532E+02  0.39704973501E+02  0.59516912492E+02  0.00000000000E+00 0.  1.
         11    1    3    3    0    0  0.21047856380E+02 -0.39022630532E+02  0.11579932487E+02  0.45824368934E+02  0.00000000000E+00 0. -1.
<mgrwt>
<rscale>  0 0.92014368E+02</rscale>
<asrwt>0</asrwt>
<pdfrwt beam="1">  1        1 0.12048168E-01 0.92014368E+02</pdfrwt>
<pdfrwt beam="2">  1       -1 0.41581828E-02 0.92014368E+02</pdfrwt>
<totfact> 0.97912265E+04</totfact>
</mgrwt>
</event>
<event>
 5    1  0.6125604E+000  0.9257672E+02  0.7546771E-02  0.1296729E+00
          4   -1    0    0  501    0  0.00000000000E+00  0.00000000000E+00  0.17116456834E+03  0.17116456834E+03  0.00000000000E+00 0. -1.
         -4   -1    0    0    0  501 -0.00000000000E+00 -0.00000000000E+00 -0.12517850032E+02  0.12517850032E+02  0.00000000000E+00 0.  1.
         23    2    1    2    0    0  0.00000000000E+00  0.00000000000E+00  0.15864671830E+03  0.18368241837E+03  0.92576722716E+02 0.  0.
        -11    1    3    3    0    0 -0.56242818145E+01  0.29367138070E+02  0.92151394578E+01  0.31288658322E+02  0.00000000000E+00 0.  1.
         11    1    3    3    0    0  0.56242818145E+01 -0.29367138070E+02  0.14943157885E+03  0.15239376005E+03  0.00000000000E+00 0. -1.
<mgrwt>
<rscale>  0 0.92576723E+02</rscale>
<asrwt>0</asrwt>
<pdfrwt beam="1">  1        4 0.26333009E-01 0.92576723E+02</pdfrwt>
<pdfrwt beam="2">  1       -4 0.19258232E-02 0.92576723E+02</pdfrwt>
<totfact> 0.21200945E+04</totfact>
</mgrwt>
</event>
<event>
 5    1  0.6125604E+000  0.8642659E+02  0.7546771E-02  0.1311743E+00
          1   -1    0    0  501    0  0.00000000000E+00  0.00000000000E+00  0.10325756686E+02  0.10325756686E+02  0.00000000000E+00 0. -1.
         -1   -1    0    0    0  501 -0.00000000000E+00 -0.00000000000E+00 -0.18084766857E+03  0.18084766857E+03  0.00000000000E+00 0.  1.
         23    2    1    2    0    0  0.00000000000E+00  0.00000000000E+00 -0.17052191189E+03  0.19117342526E+03  0.86426593659E+02 0.  0.
        -11    1    3    3    0    0 -0.45417733674E+01  0.32716718758E+02 -0.23627484145E+02  0.40611197946E+02  0.00000000000E+00 0. -1.
         11    1    3    3    0    0  0.45417733674E+01 -0.32716718758E+02 -0.14689442774E+03  0.15056222731E+03  0.00000000000E+00 0.  1.
<mgrwt>
<rscale>  0 0.86426594E+02</rscale>
<asrwt>0</asrwt>
<pdfrwt beam="1">  1        1 0.15885779E-02 0.86426594E+02</pdfrwt>
<pdfrwt beam="2">  1       -1 0.27822720E-01 0.86426594E+02</pdfrwt>
<totfact> 0.82018379E+04</totfact>
</mgrwt>
</event>
<event>
 5    1  0.6125604E+000  0.9136488E+02  0.7546771E-02  0.1299580E+00
          2   -1    0    0  501    0  0.00000000000E+00  0.00000000000E+00  0.53399606138E+01  0.53399606138E+01  0.00000000000E+00 0. -1.
         -2   -1    0    0    0  501 -0.00000000000E+00 -0.00000000000E+00 -0.39080536683E+03  0.39080536683E+03  0.00000000000E+00 0.  1.
         23    2    1    2    0    0  0.00000000000E+00  0.00000000000E+00 -0.38546540621E+03  0.39614532744E+03  0.91364878734E+02 0.  0.
        -11    1    3    3    0    0 -0.22197434584E+02 -0.38750674325E+02 -0.23444367760E+03  0.23865912685E+03  0.00000000000E+00 0. -1.
         11    1    3    3    0    0  0.22197434584E+02  0.38750674325E+02 -0.15102172861E+03  0.15748620059E+03  0.00000000000E+00 0.  1.
<mgrwt>
<rscale>  0 0.91364879E+02</rscale>
<asrwt>0</asrwt>
<pdfrwt beam="1">  1        2 0.82153219E-03 0.91364879E+02</pdfrwt>
<pdfrwt beam="2">  1       -2 0.60123918E-01 0.91364879E+02</pdfrwt>
<totfact> 0.43133837E+04</totfact>
</mgrwt>
</event>
<event>
 5    1  0.6125604E+000  0.9383162E+02  0.7546771E-02  0.1293829E+00
          2   -1    0    0  501    0  0.00000000000E+00  0.00000000000E+00  0.17393981213E+02  0.17393981213E+02  0.00000000000E+00 0. -1.
         -2   -1    0    0    0  501 -0.00000000000E+00 -0.00000000000E+00 -0.12654338773E+03  0.12654338773E+03  0.00000000000E+00 0.  1.
         23    2    1    2    0    0  0.00000000000E+00  0.00000000000E+00 -0.10914940652E+03  0.14393736894E+03  0.93831621722E+02 0.  0.
        -11    1    3    3    0    0  0.25129348246E+02 -0.95375342796E+01 -0.11356169374E+03  0.11669921589E+03  0.00000000000E+00 0.  1.
         11    1    3    3    0    0 -0.25129348246E+02  0.95375342796E+01  0.44122872220E+01  0.27238153057E+02  0.00000000000E+00 0. -1.
<mgrwt>
<rscale>  0 0.93831622E+02</rscale>
<asrwt>0</asrwt>
<pdfrwt beam="1">  1        2 0.26759971E-02 0.93831622E+02</pdfrwt>
<pdfrwt beam="2">  1       -2 0.19468214E-01 0.93831622E+02</pdfrwt>
<totfact> 0.68947989E+04</totfact>
</mgrwt>
</event>
<event>
 5    1  0.6125604E+000  0.1053286E+03  0.7546771E-02  0.1269474E+00
         -1   -1    0    0    0  501 -0.00000000000E+00  0.00000000000E+00  0.44657823601E+02  0.44657823601E+02  0.00000000000E+00 0.  1.
          1   -1    0    0  501    0  0.00000000000E+00 -0.00000000000E+00 -0.62106199963E+02  0.62106199963E+02  0.00000000000E+00 0. -1.
         23    2    1    2    0    0  0.00000000000E+00  0.00000000000E+00 -0.17448376362E+02  0.10676402356E+03  0.10532858534E+03 0.  0.
        -11    1    3    3    0    0 -0.41178660370E+01  0.40967968517E+02  0.24559207765E+02  0.47942527584E+02  0.00000000000E+00 0.  1.
         11    1    3    3    0    0  0.41178660370E+01 -0.40967968517E+02 -0.42007584127E+02  0.58821495980E+02  0.00000000000E+00 0. -1.
<mgrwt>
<rscale>  0 0.10532859E+03</rscale>
<asrwt>0</asrwt>
<pdfrwt beam="2">  1        1 0.95548000E-02 0.10532859E+03</pdfrwt>
<pdfrwt beam="1">  1       -1 0.68704344E-02 0.10532859E+03</pdfrwt>
<totfact> 0.64659211E+04</totfact>
</mgrwt>
</event>
<event>
 5    1  0.6125604E+000  0.8932817E+02  0.7546771E-02  0.1304487E+00
          1   -1    0    0  501    0  0.00000000000E+00  0.00000000000E+00  0.20978184288E+02  0.20978184288E+02  0.00000000000E+00 0. -1.
         -1   -1    0    0    0  501 -0.00000000000E+00 -0.00000000000E+00 -0.95093087656E+02  0.95093087656E+02  0.00000000000E+00 0.  1.
         23    2    1    2    0    0  0.00000000000E+00  0.00000000000E+00 -0.74114903367E+02  0.11607127194E+03  0.89328166160E+02 0.  0.
        -11    1    3    3    0    0 -0.11415914988E+02 -0.42955616535E+02 -0.31338375066E+02  0.54383838212E+02  0.00000000000E+00 0. -1.
         11    1    3    3    0    0  0.11415914988E+02  0.42955616535E+02 -0.42776528302E+02  0.61687433732E+02  0.00000000000E+00 0.  1.
<mgrwt>
<rscale>  0 0.89328166E+02</rscale>
<asrwt>0</asrwt>
<pdfrwt beam="1">  1        1 0.32274129E-02 0.89328166E+02</pdfrwt>
<pdfrwt beam="2">  1       -1 0.14629706E-01 0.89328166E+02</pdfrwt>
<totfact> 0.86564028E+04</totfact>
</mgrwt>
</event>
<event>
 5    1  0.6125604E+000  0.9120522E+02  0.7546771E-02  0.1299959E+00
          2   -1    0    0  501    0  0.00000000000E+00  0.00000000000E+00  0.26003474768E+02  0.26003474768E+02  0.00000000000E+00 0. -1.
         -2   -1    0    0    0  501 -0.00000000000E+00 -0.00000000000E+00 -0.79973858062E+02  0.79973858062E+02  0.00000000000E+00 0.  1.
         23    2    1    2    0    0  0.00000000000E+00  0.00000000000E+00 -0.53970383293E+02  0.10597733283E+03  0.91205223540E+02 0.  0.
        -11    1    3    3    0    0  0.12056601548E+02 -0.14357234317E+02 -0.75288681634E+02  0.77587868899E+02  0.00000000000E+00 0.  1.
         11    1    3    3    0    0 -0.12056601548E+02  0.14357234317E+02  0.21318298341E+02  0.28389463931E+02  0.00000000000E+00 0. -1.
<mgrwt>
<rscale>  0 0.91205224E+02</rscale>
<asrwt>0</asrwt>
<pdfrwt beam="1">  1        2 0.40005345E-02 0.91205224E+02</pdfrwt>
<pdfrwt beam="2">  1       -2 0.12303671E-01 0.91205224E+02</pdfrwt>
<totfact> 0.85021272E+04</totfact>
</mgrwt>
</event>
<event>
 5    1  0.6125604E+000  0.9036570E+02  0.7546771E-02  0.1301969E+00
         -2   -1    0    0    0  501 -0.00000000000E+00  0.00000000000E+00  0.11066504137E+02  0.11066504137E+02  0.00000000000E+00 0.  1.
          2   -1    0    0  501    0  0.00000000000E+00 -0.00000000000E+00 -0.18447467132E+03  0.18447467132E+03  0.00000000000E+00 0. -1.
         23    2    1    2    0    0  0.00000000000E+00  0.00000000000E+00 -0.17340816719E+03  0.19554117546E+03  0.90365695113E+02 0.  0.
        -11    1    3    3    0    0  0.23810776055E+02 -0.37991333072E+02 -0.74618183746E+02  0.87052672506E+02  0.00000000000E+00 0. -1.
         11    1    3    3    0    0 -0.23810776055E+02  0.37991333072E+02 -0.98789983440E+02  0.10848850295E+03  0.00000000000E+00 0.  1.
<mgrwt>
<rscale>  0 0.90365695E+02</rscale>
<asrwt>0</asrwt>
<pdfrwt beam="2">  1        2 0.28380718E-01 0.90365695E+02</pdfrwt>
<pdfrwt beam="1">  1       -2 0.17025391E-02 0.90365695E+02</pdfrwt>
<totfact> 0.15391655E+05</totfact>
</mgrwt>
</event>
<event>
 5    1  0.6125604E+000  0.9333456E+02  0.7546771E-02  0.1294972E+00
         -1   -1    0    0    0  501 -0.00000000000E+00  0.00000000000E+00  0.71016247180E+01  0.71016247180E+01  0.00000000000E+00 0.  1.
          1   -1    0    0  501    0  0.00000000000E+00 -0.00000000000E+00 -0.30666715920E+03  0.30666715920E+03  0.00000000000E+00 0. -1.
         23    2    1    2    0    0  0.00000000000E+00  0.00000000000E+00 -0.29956553448E+03  0.31376878392E+03  0.93334561187E+02 0.  0.
        -11    1    3    3    0    0 -0.29047218209E+02 -0.34292815733E+02 -0.19205245440E+03  0.19724067364E+03  0.00000000000E+00 0.  1.
         11    1    3    3    0    0  0.29047218209E+02  0.34292815733E+02 -0.10751308009E+03  0.11652811028E+03  0.00000000000E+00 0. -1.
<mgrwt>
<rscale>  0 0.93334561E+02</rscale>
<asrwt>0</asrwt>
<pdfrwt beam="2">  1        1 0.47179568E-01 0.93334561E+02</pdfrwt>
<pdfrwt beam="1">  1       -1 0.10925575E-02 0.93334561E+02</pdfrwt>
<totfact> 0.12087325E+05</totfact>
</mgrwt>
</event>
<event>
 5    1  0.6125604E+000  0.9192008E+02  0.7546771E-02  0.1298267E+00
         -3   -1    0    0    0  501 -0.00000000000E+00  0.00000000000E+00  0.69276915847E+02  0.69276915847E+02  0.00000000000E+00 0.  1.
          3   -1    0    0  501    0  0.00000000000E+00 -0.00000000000E+00 -0.30491037917E+02  0.30491037917E+02  0.00000000000E+00 0. -1.
         23    2    1    2    0    0  0.00000000000E+00  0.00000000000E+00  0.38785877929E+02  0.99767953764E+02  0.91920075454E+02 0.  0.
        -11    1    3    3    0    0 -0.21480795563E+02  0.27022965011E+02 -0.13539985284E+02  0.37080944129E+02  0.00000000000E+00 0. -1.
         11    1    3    3    0    0  0.21480795563E+02 -0.27022965011E+02  0.52325863213E+02  0.62687009635E+02  0.00000000000E+00 0.  1.
<mgrwt>
<rscale>  0 0.91920075E+02</rscale>
<asrwt>0</asrwt>
<pdfrwt beam="2">  1        3 0.46909289E-02 0.91920075E+02</pdfrwt>
<pdfrwt beam="1">  1       -3 0.10657987E-01 0.91920075E+02</pdfrwt>
<totfact> 0.33929692E+04</totfact>
</mgrwt>
</event>
<event>
 5    1  0.6125604E+000  0.9114397E+02  0.7546771E-02  0.1300105E+00
          4   -1    0    0  501    0  0.00000000000E+00  0.00000000000E+00  0.14066455166E+02  0.14066455166E+02  0.00000000000E+00 0. -1.
         -4   -1    0    0    0  501 -0.00000000000E+00 -0.00000000000E+00 -0.14764245565E+03  0.14764245565E+03  0.00000000000E+00 0.  1.
         23    2    1    2    0    0  0.00000000000E+00  0.00000000000E+00 -0.13357600049E+03  0.16170891082E+03  0.91143973648E+02 0.  0.
        -11    1    3    3    0    0  0.19957268673E+02 -0.12636840533E+02 -0.13593282364E+03  0.13796997810E+03  0.00000000000E+00 0.  1.
         11    1    3    3    0    0 -0.19957268673E+02  0.12636840533E+02  0.23568231567E+01  0.23738932725E+02  0.00000000000E+00 0. -1.
<mgrwt>
<rscale>  0 0.91143974E+02</rscale>
<asrwt>0</asrwt>
<pdfrwt beam="1">  1        4 0.21640699E-02 0.91143974E+02</pdfrwt>
<pdfrwt beam="2">  1       -4 0.22714226E-01 0.91143974E+02</pdfrwt>
<totfact> 0.23121246E+04</totfact>
</mgrwt>
</event>
<event>
 5    1  0.6125604E+000  0.8738802E+02  0.7546771E-02  0.1309303E+00
         -1   -1    0    0    0  501 -0.00000000000E+00  0.00000000000E+00  0.51650379069E+02  0.51650379069E+02  0.00000000000E+00 0.  1.
          1   -1    0    0  501    0  0.00000000000E+00 -0.00000000000E+00 -0.36963262893E+02  0.36963262893E+02  0.00000000000E+00 0. -1.
         23    2    1    2    0    0  0.00000000000E+00  0.00000000000E+00  0.14687116176E+02  0.88613641961E+02  0.87388020690E+02 0.  0.
        -11    1    3    3    0    0 -0.19675761989E+02  0.27934211019E+02 -0.20272772970E+02  0.39729599532E+02  0.00000000000E+00 0. -1.
         11    1    3    3    0    0  0.19675761989E+02 -0.27934211019E+02  0.34959889145E+02  0.48884042429E+02  0.00000000000E+00 0.  1.
<mgrwt>
<rscale>  0 0.87388021E+02</rscale>
<asrwt>0</asrwt>
<pdfrwt beam="2">  1        1 0.56866558E-02 0.87388021E+02</pdfrwt>
<pdfrwt beam="1">  1       -1 0.79462122E-02 0.87388021E+02</pdfrwt>
<totfact> 0.10098028E+05</totfact>
</mgrwt>
</event>
<event>
 5    1  0.6125604E+000  0.1039700E+03  0.7546771E-02  0.1272162E+00
         -4   -1    0    0    0  501 -0.00000000000E+00  0.00000000000E+00  0.37553778579E+02  0.37553778579E+02  0.00000000000E+00 0. -1.
          4   -1    0    0  501    0  0.00000000000E+00 -0.00000000000E+00 -0.71961841599E+02  0.71961841599E+02  0.00000000000E+00 0.  1.
         23    2    1    2    0    0  0.00000000000E+00  0.00000000000E+00 -0.34408063020E+02  0.10951562018E+03  0.10396997770E+03 0.  0.
        -11    1    3    3    0    0  0.21990918413E+02  0.37446049450E+02  0.12896994613E+02  0.45300547261E+02  0.00000000000E+00 0. -1.
         11    1    3    3    0    0 -0.21990918413E+02 -0.37446049450E+02 -0.47305057633E+02  0.64215072917E+02  0.00000000000E+00 0.  1.
<mgrwt>
<rscale>  0 0.10396998E+03</rscale>
<asrwt>0</asrwt>
<pdfrwt beam="2">  1        4 0.11071053E-01 0.10396998E+03</pdfrwt>
<pdfrwt beam="1">  1       -4 0.57775044E-02 0.10396998E+03</pdfrwt>
<totfact> 0.18076037E+04</totfact>
</mgrwt>
</event>
<event>
 4    1  0.6125604E+000  0.3089850E+02  0.7546771E-02  0.1588364E+00
          1   -1    0    0  501    0  0.00000000000E+00  0.00000000000E+00  0.42483661548E+02  0.42483661548E+02  0.00000000000E+00 0. -1.
         -1   -1    0    0    0  501 -0.00000000000E+00 -0.00000000000E+00 -0.56181434615E+01  0.56181434615E+01  0.00000000000E+00 0.  1.
        -11    1    1    2    0    0  0.11192660514E+02 -0.97600523318E+01  0.11801394639E+02  0.18968584194E+02  0.00000000000E+00 0.  1.
         11    1    1    2    0    0 -0.11192660514E+02  0.97600523318E+01  0.25064123448E+02  0.29133220816E+02  0.00000000000E+00 0. -1.
<mgrwt>
<rscale>  0 0.30898499E+02</rscale>
<asrwt>0</asrwt>
<pdfrwt beam="1">  1        1 0.65359477E-02 0.30898499E+02</pdfrwt>
<pdfrwt beam="2">  1       -1 0.86432979E-03 0.30898499E+02</pdfrwt>
<totfact> 0.15109902E+06</totfact>
</mgrwt>
</event>
<event>
 5    1  0.6125604E+000  0.9534529E+02  0.7546771E-02  0.1290400E+00
         -4   -1    0    0    0  501 -0.00000000000E+00  0.00000000000E+00  0.22936620571E+03  0.22936620571E+03  0.00000000000E+00 0.  1.
          4   -1    0    0  501    0  0.00000000000E+00 -0.00000000000E+00 -0.99085265707E+01  0.99085265707E+01  0.00000000000E+00 0. -1.
         23    2    1    2    0    0  0.00000000000E+00  0.00000000000E+00  0.21945767914E+03  0.23927473228E+03  0.95345291310E+02 0.  0.
        -11    1    3    3    0    0 -0.16014681111E+02 -0.35817677645E+02  0.17768673830E+03  0.18196690087E+03  0.00000000000E+00 0.  1.
         11    1    3    3    0    0  0.16014681111E+02  0.35817677645E+02  0.41770940841E+02  0.57307831417E+02  0.00000000000E+00 0. -1.
<mgrwt>
<rscale>  0 0.95345291E+02</rscale>
<asrwt>0</asrwt>
<pdfrwt beam="2">  1        4 0.15243889E-02 0.95345291E+02</pdfrwt>
<pdfrwt beam="1">  1       -4 0.35287105E-01 0.95345291E+02</pdfrwt>
<totfact> 0.17608191E+04</totfact>
</mgrwt>
</event>
<event>
 5    1  0.6125604E+000  0.8672040E+02  0.7546771E-02  0.1310994E+00
          2   -1    0    0  501    0  0.00000000000E+00  0.00000000000E+00  0.46975278491E+02  0.46975278491E+02  0.00000000000E+00 0. -1.
         -2   -1    0    0    0  501 -0.00000000000E+00 -0.00000000000E+00 -0.40023326659E+02  0.40023326659E+02  0.00000000000E+00 0.  1.
         23    2    1    2    0    0  0.00000000000E+00  0.00000000000E+00  0.69519518326E+01  0.86998605150E+02  0.86720399352E+02 0.  0.
        -11    1    3    3    0    0 -0.36079584406E+02 -0.22641321735E+02  0.11610073075E+02  0.44149288302E+02  0.00000000000E+00 0. -1.
         11    1    3    3    0    0  0.36079584406E+02  0.22641321735E+02 -0.46581212424E+01  0.42849316848E+02  0.00000000000E+00 0.  1.
<mgrwt>
<rscale>  0 0.86720399E+02</rscale>
<asrwt>0</asrwt>
<pdfrwt beam="1">  1        2 0.72269660E-02 0.86720399E+02</pdfrwt>
<pdfrwt beam="2">  1       -2 0.61574348E-02 0.86720399E+02</pdfrwt>
<totfact> 0.11469792E+05</totfact>
</mgrwt>
</event>
<event>
 5    1  0.6125604E+000  0.9097768E+02  0.7546771E-02  0.1300501E+00
         -2   -1    0    0    0  501 -0.00000000000E+00  0.00000000000E+00  0.81666732079E+02  0.81666732079E+02  0.00000000000E+00 0. -1.
          2   -1    0    0  501    0  0.00000000000E+00 -0.00000000000E+00 -0.25337544178E+02  0.25337544178E+02  0.00000000000E+00 0.  1.
         23    2    1    2    0    0  0.00000000000E+00  0.00000000000E+00  0.56329187901E+02  0.10700427626E+03  0.90977677085E+02 0.  0.
        -11    1    3    3    0    0 -0.27732799100E+02 -0.39020630302E+01 -0.13995443379E+02  0.31308252541E+02  0.00000000000E+00 0.  1.
         11    1    3    3    0    0  0.27732799100E+02  0.39020630302E+01  0.70324631280E+02  0.75696023716E+02  0.00000000000E+00 0. -1.
<mgrwt>
<rscale>  0 0.90977677E+02</rscale>
<asrwt>0</asrwt>
<pdfrwt beam="2">  1        2 0.38980838E-02 0.90977677E+02</pdfrwt>
<pdfrwt beam="1">  1       -2 0.12564112E-01 0.90977677E+02</pdfrwt>
<totfact> 0.85050718E+04</totfact>
</mgrwt>
</event>
<event>
 5    1  0.6125604E+000  0.9091122E+02  0.7546771E-02  0.1300660E+00
          2   -1    0    0  501    0  0.00000000000E+00  0.00000000000E+00  0.18354251271E+03  0.18354251271E+03  0.00000000000E+00 0. -1.
         -2   -1    0    0    0  501 -0.00000000000E+00 -0.00000000000E+00 -0.11257404846E+02  0.11257404846E+02  0.00000000000E+00 0.  1.
         23    2    1    2    0    0  0.00000000000E+00  0.00000000000E+00  0.17228510786E+03  0.19479991755E+03  0.90911217615E+02 0.  0.
        -11    1    3    3    0    0  0.22511729866E+02 -0.33347335062E+02  0.40820012647E+02  0.57315758477E+02  0.00000000000E+00 0.  1.
         11    1    3    3    0    0 -0.22511729866E+02  0.33347335062E+02  0.13146509521E+03  0.13748415908E+03  0.00000000000E+00 0. -1.
<mgrwt>
<rscale>  0 0.90911218E+02</rscale>
<asrwt>0</asrwt>
<pdfrwt beam="1">  1        2 0.28237308E-01 0.90911218E+02</pdfrwt>
<pdfrwt beam="2">  1       -2 0.17319086E-02 0.90911218E+02</pdfrwt>
<totfact> 0.15116807E+05</totfact>
</mgrwt>
</event>
<event>
 5    1  0.6125604E+000  0.9109025E+02  0.7546771E-02  0.1300233E+00
         -1   -1    0    0    0  501 -0.00000000000E+00  0.00000000000E+00  0.22811102656E+02  0.22811102656E+02  0.00000000000E+00 0.  1.
          1   -1    0    0  501    0  0.00000000000E+00 -0.00000000000E+00 -0.90936359286E+02  0.90936359286E+02  0.00000000000E+00 0. -1.
         23    2    1    2    0    0  0.00000000000E+00  0.00000000000E+00 -0.68125256630E+02  0.11374746194E+03  0.91090254732E+02 0.  0.
        -11    1    3    3    0    0 -0.26258138011E+02  0.17430363265E+02 -0.75120169798E+02  0.81463778980E+02  0.00000000000E+00 0. -1.
         11    1    3    3    0    0  0.26258138011E+02 -0.17430363265E+02  0.69949131671E+01  0.32283682961E+02  0.00000000000E+00 0.  1.
<mgrwt>
<rscale>  0 0.91090255E+02</rscale>
<asrwt>0</asrwt>
<pdfrwt beam="2">  1        1 0.13990209E-01 0.91090255E+02</pdfrwt>
<pdfrwt beam="1">  1       -1 0.35094005E-02 0.91090255E+02</pdfrwt>
<totfact> 0.10310072E+05</totfact>
</mgrwt>
</event>
<event>
 5    1  0.6125604E+000  0.8904032E+02  0.7546771E-02  0.1305192E+00
         -1   -1    0    0    0  501 -0.00000000000E+00  0.00000000000E+00  0.12948485313E+03  0.12948485313E+03  0.00000000000E+00 0.  1.
          1   -1    0    0  501    0  0.00000000000E+00 -0.00000000000E+00 -0.15307155821E+02  0.15307155821E+02  0.00000000000E+00 0. -1.
         23    2    1    2    0    0  0.00000000000E+00  0.00000000000E+00  0.11417769731E+03  0.14479200896E+03  0.89040323976E+02 0.  0.
        -11    1    3    3    0    0  0.24371774382E+02  0.72914814461E+01  0.11650185590E+03  0.11924693504E+03  0.00000000000E+00 0.  1.
         11    1    3    3    0    0 -0.24371774382E+02 -0.72914814461E+01 -0.23241585884E+01  0.25545073915E+02  0.00000000000E+00 0. -1.
<mgrwt>
<rscale>  0 0.89040324E+02</rscale>
<asrwt>0</asrwt>
<pdfrwt beam="2">  1        1 0.23549471E-02 0.89040324E+02</pdfrwt>
<pdfrwt beam="1">  1       -1 0.19920746E-01 0.89040324E+02</pdfrwt>
<totfact> 0.82177146E+04</totfact>
</mgrwt>
</event>
<event>
 5    1  0.6125604E+000  0.8712826E+02  0.7546771E-02  0.1309959E+00
          1   -1    0    0  501    0  0.00000000000E+00  0.00000000000E+00  0.48531216659E+02  0.48531216659E+02  0.00000000000E+00 0. -1.
         -1   -1    0    0    0  501 -0.00000000000E+00 -0.00000000000E+00 -0.39105413183E+02  0.39105413183E+02  0.00000000000E+00 0.  1.
         23    2    1    2    0    0  0.00000000000E+00  0.00000000000E+00  0.94258034755E+01  0.87636629842E+02  0.87128256719E+02 0.  0.
        -11    1    3    3    0    0  0.13363548144E+02  0.22179386543E+02 -0.30524688327E+02  0.40028317525E+02  0.00000000000E+00 0.  1.
         11    1    3    3    0    0 -0.13363548144E+02 -0.22179386543E+02  0.39950491802E+02  0.47608312317E+02  0.00000000000E+00 0. -1.
<mgrwt>
<rscale>  0 0.87128257E+02</rscale>
<asrwt>0</asrwt>
<pdfrwt beam="1">  1        1 0.74663410E-02 0.87128257E+02</pdfrwt>
<pdfrwt beam="2">  1       -1 0.60162174E-02 0.87128257E+02</pdfrwt>
<totfact> 0.10593865E+05</totfact>
</mgrwt>
</event>
<event>
 5    1  0.6125604E+000  0.9149821E+02  0.7546771E-02  0.1299264E+00
          3   -1    0    0  501    0  0.00000000000E+00  0.00000000000E+00  0.10806301679E+03  0.10806301679E+03  0.00000000000E+00 0. -1.
         -3   -1    0    0    0  501 -0.00000000000E+00 -0.00000000000E+00 -0.19368148608E+02  0.19368148608E+02  0.00000000000E+00 0.  1.
         23    2    1    2    0    0  0.00000000000E+00  0.00000000000E+00  0.88694868180E+02  0.12743116540E+03  0.91498209124E+02 0.  0.
        -11    1    3    3    0    0 -0.24689218671E+02 -0.37064479304E+02  0.29763916935E+02  0.53565136945E+02  0.00000000000E+00 0.  1.
         11    1    3    3    0    0  0.24689218671E+02  0.37064479304E+02  0.58930951245E+02  0.73866028452E+02  0.00000000000E+00 0. -1.
<mgrwt>
<rscale>  0 0.91498209E+02</rscale>
<asrwt>0</asrwt>
<pdfrwt beam="1">  1        3 0.16625079E-01 0.91498209E+02</pdfrwt>
<pdfrwt beam="2">  1       -3 0.29797152E-02 0.91498209E+02</pdfrwt>
<totfact> 0.32433849E+04</totfact>
</mgrwt>
</event>
<event>
 5    1  0.6125604E+000  0.9168518E+02  0.7546771E-02  0.1298821E+00
          2   -1    0    0  501    0  0.00000000000E+00  0.00000000000E+00  0.93895893269E+02  0.93895893269E+02  0.00000000000E+00 0. -1.
         -2   -1    0    0    0  501 -0.00000000000E+00 -0.00000000000E+00 -0.22381629502E+02  0.22381629502E+02  0.00000000000E+00 0.  1.
         23    2    1    2    0    0  0.00000000000E+00  0.00000000000E+00  0.71514263767E+02  0.11627752277E+03  0.91685180807E+02 0.  0.
        -11    1    3    3    0    0  0.17612800102E+02  0.33117411336E+02  0.23334369562E+01  0.37582157855E+02  0.00000000000E+00 0. -1.
         11    1    3    3    0    0 -0.17612800102E+02 -0.33117411336E+02  0.69180826810E+02  0.78695364916E+02  0.00000000000E+00 0.  1.
<mgrwt>
<rscale>  0 0.91685181E+02</rscale>
<asrwt>0</asrwt>
<pdfrwt beam="1">  1        2 0.14445522E-01 0.91685181E+02</pdfrwt>
<pdfrwt beam="2">  1       -2 0.34433277E-02 0.91685181E+02</pdfrwt>
<totfact> 0.11853062E+05</totfact>
</mgrwt>
</event>
<event>
 5    1  0.6125604E+000  0.9131694E+02  0.7546771E-02  0.1299694E+00
         -2   -1    0    0    0  501 -0.00000000000E+00  0.00000000000E+00  0.65141902031E+02  0.65141902031E+02  0.00000000000E+00 0.  1.
          2   -1    0    0  501    0  0.00000000000E+00 -0.00000000000E+00 -0.32002381356E+02  0.32002381356E+02  0.00000000000E+00 0. -1.
         23    2    1    2    0    0  0.00000000000E+00  0.00000000000E+00  0.33139520674E+02  0.97144283387E+02  0.91316942373E+02 0.  0.
        -11    1    3    3    0    0  0.41114781340E+02  0.15444148972E+02  0.29846105463E+02  0.53101195782E+02  0.00000000000E+00 0.  1.
         11    1    3    3    0    0 -0.41114781340E+02 -0.15444148972E+02  0.32934152112E+01  0.44043087606E+02  0.00000000000E+00 0. -1.
<mgrwt>
<rscale>  0 0.91316942E+02</rscale>
<asrwt>0</asrwt>
<pdfrwt beam="2">  1        2 0.49234433E-02 0.91316942E+02</pdfrwt>
<pdfrwt beam="1">  1       -2 0.10021831E-01 0.91316942E+02</pdfrwt>
<totfact> 0.89589522E+04</totfact>
</mgrwt>
</event>
<event>
 5    1  0.6125604E+000  0.9528960E+02  0.7546771E-02  0.1290525E+00
          2   -1    0    0  501    0  0.00000000000E+00  0.00000000000E+00  0.73991085168E+02  0.73991085168E+02  0.00000000000E+00 0. -1.
         -2   -1    0    0    0  501 -0.00000000000E+00 -0.00000000000E+00 -0.30679734543E+02  0.30679734543E+02  0.00000000000E+00 0.  1.
         23    2    1    2    0    0  0.00000000000E+00  0.00000000000E+00  0.43311350625E+02  0.10467081971E+03  0.95289597576E+02 0.  0.
        -11    1    3    3    0    0 -0.14308464382E+01  0.27571749861E+02 -0.20997253087E+02  0.34686212666E+02  0.00000000000E+00 0.  1.
         11    1    3    3    0    0  0.14308464382E+01 -0.27571749861E+02  0.64308603712E+02  0.69984607045E+02  0.00000000000E+00 0. -1.
<mgrwt>
<rscale>  0 0.95289598E+02</rscale>
<asrwt>0</asrwt>
<pdfrwt beam="1">  1        2 0.11383244E-01 0.95289598E+02</pdfrwt>
<pdfrwt beam="2">  1       -2 0.47199592E-02 0.95289598E+02</pdfrwt>
<totfact> 0.99276329E+04</totfact>
</mgrwt>
</event>
<event>
 5    1  0.6125604E+000  0.8783390E+02  0.7546771E-02  0.1308184E+00
         -2   -1    0    0    0  501 -0.00000000000E+00  0.00000000000E+00  0.51741207563E+02  0.51741207563E+02  0.00000000000E+00 0.  1.
          2   -1    0    0  501    0  0.00000000000E+00 -0.00000000000E+00 -0.37275866417E+02  0.37275866417E+02  0.00000000000E+00 0. -1.
         23    2    1    2    0    0  0.00000000000E+00  0.00000000000E+00  0.14465341146E+02  0.89017073980E+02  0.87833896449E+02 0.  0.
        -11    1    3    3    0    0 -0.16688719561E+02 -0.20293544561E+02 -0.28431662130E+02  0.38713056233E+02  0.00000000000E+00 0. -1.
         11    1    3    3    0    0  0.16688719561E+02  0.20293544561E+02  0.42897003276E+02  0.50304017747E+02  0.00000000000E+00 0.  1.
<mgrwt>
<rscale>  0 0.87833896E+02</rscale>
<asrwt>0</asrwt>
<pdfrwt beam="2">  1        2 0.57347487E-02 0.87833896E+02</pdfrwt>
<pdfrwt beam="1">  1       -2 0.79601858E-02 0.87833896E+02</pdfrwt>
<totfact> 0.10436863E+05</totfact>
</mgrwt>
</event>
<event>
 5    1  0.6125604E+000  0.9334051E+02  0.7546771E-02  0.1294958E+00
          2   -1    0    0  501    0  0.00000000000E+00  0.00000000000E+00  0.28903715557E+02  0.28903715557E+02  0.00000000000E+00 0. -1.
         -2   -1    0    0    0  501 -0.00000000000E+00 -0.00000000000E+00 -0.75357538700E+02  0.75357538700E+02  0.00000000000E+00 0.  1.
         23    2    1    2    0    0  0.00000000000E+00  0.00000000000E+00 -0.46453823143E+02  0.10426125426E+03  0.93340513469E+02 0.  0.
        -11    1    3    3    0    0  0.11256895671E+02 -0.39918141873E+02  0.67626834729E+00  0.41480514578E+02  0.00000000000E+00 0. -1.
         11    1    3    3    0    0 -0.11256895671E+02  0.39918141873E+02 -0.47130091490E+02  0.62780739679E+02  0.00000000000E+00 0.  1.
<mgrwt>
<rscale>  0 0.93340513E+02</rscale>
<asrwt>0</asrwt>
<pdfrwt beam="1">  1        2 0.44467255E-02 0.93340513E+02</pdfrwt>
<pdfrwt beam="2">  1       -2 0.11593467E-01 0.93340513E+02</pdfrwt>
<totfact> 0.81656912E+04</totfact>
</mgrwt>
</event>
<event>
 5    1  0.6125604E+000  0.8501994E+02  0.7546771E-02  0.1315380E+00
          1   -1    0    0  501    0  0.00000000000E+00  0.00000000000E+00  0.69248937269E+02  0.69248937269E+02  0.00000000000E+00 0. -1.
         -1   -1    0    0    0  501 -0.00000000000E+00 -0.00000000000E+00 -0.26095672086E+02  0.26095672086E+02  0.00000000000E+00 0.  1.
         23    2    1    2    0    0  0.00000000000E+00  0.00000000000E+00  0.43153265183E+02  0.95344609354E+02  0.85019940232E+02 0.  0.
        -11    1    3    3    0    0 -0.38445181609E+02 -0.18003947523E+02  0.19088291873E+02  0.46546073969E+02  0.00000000000E+00 0. -1.
         11    1    3    3    0    0  0.38445181609E+02  0.18003947523E+02  0.24064973310E+02  0.48798535385E+02  0.00000000000E+00 0.  1.
<mgrwt>
<rscale>  0 0.85019940E+02</rscale>
<asrwt>0</asrwt>
<pdfrwt beam="1">  1        1 0.10653683E-01 0.85019940E+02</pdfrwt>
<pdfrwt beam="2">  1       -1 0.40147188E-02 0.85019940E+02</pdfrwt>
<totfact> 0.11932601E+05</totfact>
</mgrwt>
</event>
<event>
 5    1  0.6125604E+000  0.8942416E+02  0.7546771E-02  0.1304252E+00
          1   -1    0    0  501    0  0.00000000000E+00  0.00000000000E+00  0.75603174082E+01  0.75603174082E+01  0.00000000000E+00 0. -1.
         -1   -1    0    0    0  501 -0.00000000000E+00 -0.00000000000E+00 -0.26442939042E+03  0.26442939042E+03  0.00000000000E+00 0.  1.
         23    2    1    2    0    0  0.00000000000E+00  0.00000000000E+00 -0.25686907301E+03  0.27198970782E+03  0.89424160574E+02 0.  0.
        -11    1    3    3    0    0  0.25467753260E+02 -0.31291843650E+02 -0.69819464431E+02  0.80638350359E+02  0.00000000000E+00 0. -1.
         11    1    3    3    0    0 -0.25467753260E+02  0.31291843650E+02 -0.18704960858E+03  0.19135135746E+03  0.00000000000E+00 0.  1.
<mgrwt>
<rscale>  0 0.89424161E+02</rscale>
<asrwt>0</asrwt>
<pdfrwt beam="1">  1        1 0.11631262E-02 0.89424161E+02</pdfrwt>
<pdfrwt beam="2">  1       -1 0.40681431E-01 0.89424161E+02</pdfrwt>
<totfact> 0.66815495E+04</totfact>
</mgrwt>
</event>
<event>
 5    1  0.6125604E+000  0.9160984E+02  0.7546771E-02  0.1298999E+00
          1   -1    0    0  501    0  0.00000000000E+00  0.00000000000E+00  0.27918039065E+02  0.27918039065E+02  0.00000000000E+00 0. -1.
         -1   -1    0    0    0  501 -0.00000000000E+00 -0.00000000000E+00 -0.75151789822E+02  0.75151789822E+02  0.00000000000E+00 0.  1.
         23    2    1    2    0    0  0.00000000000E+00  0.00000000000E+00 -0.47233750757E+02  0.10306982889E+03  0.91609837988E+02 0.  0.
        -11    1    3    3    0    0  0.33967972111E+02  0.20110190932E+02  0.25242972941E+01  0.39555214391E+02  0.00000000000E+00 0. -1.
         11    1    3    3    0    0 -0.33967972111E+02 -0.20110190932E+02 -0.49758048051E+02  0.63514614496E+02  0.00000000000E+00 0.  1.
<mgrwt>
<rscale>  0 0.91609838E+02</rscale>
<asrwt>0</asrwt>
<pdfrwt beam="1">  1        1 0.42950830E-02 0.91609838E+02</pdfrwt>
<pdfrwt beam="2">  1       -1 0.11561814E-01 0.91609838E+02</pdfrwt>
<totfact> 0.84509807E+04</totfact>
</mgrwt>
</event>
<event>
 5    1  0.6125604E+000  0.1238786E+03  0.7546771E-02  0.1236832E+00
          2   -1    0    0  501    0  0.00000000000E+00  0.00000000000E+00  0.10942432595E+03  0.10942432595E+03  0.00000000000E+00 0. -1.
         -2   -1    0    0    0  501 -0.00000000000E+00 -0.00000000000E+00 -0.35060558836E+02  0.35060558836E+02  0.00000000000E+00 0.  1.
         23    2    1    2    0    0  0.00000000000E+00  0.00000000000E+00  0.74363767117E+02  0.14448488479E+03  0.12387861830E+03 0.  0.
        -11    1    3    3    0    0  0.19874892017E+02 -0.82180315348E+01 -0.30565751369E+02  0.37373955260E+02  0.00000000000E+00 0.  1.
         11    1    3    3    0    0 -0.19874892017E+02  0.82180315348E+01  0.10492951849E+03  0.10711092953E+03  0.00000000000E+00 0. -1.
<mgrwt>
<rscale>  0 0.12387862E+03</rscale>
<asrwt>0</asrwt>
<pdfrwt beam="1">  1        2 0.16834512E-01 0.12387862E+03</pdfrwt>
<pdfrwt beam="2">  1       -2 0.53939322E-02 0.12387862E+03</pdfrwt>
<totfact> 0.53303693E+04</totfact>
</mgrwt>
</event>
<event>
 5    1  0.6125604E+000  0.9869211E+02  0.7546771E-02  0.1283071E+00
          1   -1    0    0  501    0  0.00000000000E+00  0.00000000000E+00  0.24035979752E+02  0.24035979752E+02  0.00000000000E+00 0. -1.
         -1   -1    0    0    0  501 -0.00000000000E+00 -0.00000000000E+00 -0.10130783130E+03  0.10130783130E+03  0.00000000000E+00 0.  1.
         23    2    1    2    0    0  0.00000000000E+00  0.00000000000E+00 -0.77271851548E+02  0.12534381105E+03  0.98692106714E+02 0.  0.
        -11    1    3    3    0    0 -0.15162208101E+02 -0.17718696074E+02  0.16595703481E+02  0.28622755268E+02  0.00000000000E+00 0. -1.
         11    1    3    3    0    0  0.15162208101E+02  0.17718696074E+02 -0.93867555029E+02  0.96721055785E+02  0.00000000000E+00 0.  1.
<mgrwt>
<rscale>  0 0.98692107E+02</rscale>
<asrwt>0</asrwt>
<pdfrwt beam="1">  1        1 0.36978430E-02 0.98692107E+02</pdfrwt>
<pdfrwt beam="2">  1       -1 0.15585820E-01 0.98692107E+02</pdfrwt>
<totfact> 0.66166475E+04</totfact>
</mgrwt>
</event>
<event>
 5    1  0.6125604E+000  0.9082737E+02  0.7546771E-02  0.1300860E+00
          2   -1    0    0  501    0  0.00000000000E+00  0.00000000000E+00  0.41254115603E+02  0.41254115603E+02  0.00000000000E+00 0. -1.
         -2   -1    0    0    0  501 -0.00000000000E+00 -0.00000000000E+00 -0.49992652179E+02  0.49992652179E+02  0.00000000000E+00 0.  1.
         23    2    1    2    0    0  0.00000000000E+00  0.00000000000E+00 -0.87385365759E+01  0.91246767781E+02  0.90827367071E+02 0.  0.
        -11    1    3    3    0    0  0.39047835343E+02 -0.23608463882E+00  0.18924290005E+02  0.43392602285E+02  0.00000000000E+00 0. -1.
         11    1    3    3    0    0 -0.39047835343E+02  0.23608463882E+00 -0.27662826581E+02  0.47854165496E+02  0.00000000000E+00 0.  1.
<mgrwt>
<rscale>  0 0.90827367E+02</rscale>
<asrwt>0</asrwt>
<pdfrwt beam="1">  1        2 0.63467870E-02 0.90827367E+02</pdfrwt>
<pdfrwt beam="2">  1       -2 0.76911773E-02 0.90827367E+02</pdfrwt>
<totfact> 0.97226085E+04</totfact>
</mgrwt>
</event>
<event>
 5    1  0.6125604E+000  0.9136098E+02  0.7546771E-02  0.1299589E+00
          4   -1    0    0  501    0  0.00000000000E+00  0.00000000000E+00  0.21386432321E+02  0.21386432321E+02  0.00000000000E+00 0. -1.
         -4   -1    0    0    0  501 -0.00000000000E+00 -0.00000000000E+00 -0.97571551170E+02  0.97571551170E+02  0.00000000000E+00 0.  1.
         23    2    1    2    0    0  0.00000000000E+00  0.00000000000E+00 -0.76185118849E+02  0.11895798349E+03  0.91360984572E+02 0.  0.
        -11    1    3    3    0    0 -0.33529896565E+02  0.12446309753E+02 -0.75093741034E+02  0.83175925198E+02  0.00000000000E+00 0.  1.
         11    1    3    3    0    0  0.33529896565E+02 -0.12446309753E+02 -0.10913778154E+01  0.35782058292E+02  0.00000000000E+00 0. -1.
<mgrwt>
<rscale>  0 0.91360985E+02</rscale>
<asrwt>0</asrwt>
<pdfrwt beam="1">  1        4 0.32902204E-02 0.91360985E+02</pdfrwt>
<pdfrwt beam="2">  1       -4 0.15011008E-01 0.91360985E+02</pdfrwt>
<totfact> 0.25193904E+04</totfact>
</mgrwt>
</event>
<event>
 5    1  0.6125604E+000  0.9143243E+02  0.7546771E-02  0.1299419E+00
         -1   -1    0    0    0  501 -0.00000000000E+00  0.00000000000E+00  0.12182888145E+02  0.12182888145E+02  0.00000000000E+00 0.  1.
          1   -1    0    0  501    0  0.00000000000E+00 -0.00000000000E+00 -0.17154983442E+03  0.17154983442E+03  0.00000000000E+00 0. -1.
         23    2    1    2    0    0  0.00000000000E+00  0.00000000000E+00 -0.15936694628E+03  0.18373272257E+03  0.91432432847E+02 0.  0.
        -11    1    3    3    0    0 -0.24885127176E+02  0.32194024178E+02 -0.12155849016E+03  0.12818810896E+03  0.00000000000E+00 0. -1.
         11    1    3    3    0    0  0.24885127176E+02 -0.32194024178E+02 -0.37808456117E+02  0.55544613612E+02  0.00000000000E+00 0.  1.
<mgrwt>
<rscale>  0 0.91432433E+02</rscale>
<asrwt>0</asrwt>
<pdfrwt beam="2">  1        1 0.26392281E-01 0.91432433E+02</pdfrwt>
<pdfrwt beam="1">  1       -1 0.18742905E-02 0.91432433E+02</pdfrwt>
<totfact> 0.11410869E+05</totfact>
</mgrwt>
</event>
<event>
 5    1  0.6125604E+000  0.9435267E+02  0.7546771E-02  0.1292641E+00
          4   -1    0    0  501    0  0.00000000000E+00  0.00000000000E+00  0.52930765445E+02  0.52930765445E+02  0.00000000000E+00 0. -1.
         -4   -1    0    0    0  501 -0.00000000000E+00 -0.00000000000E+00 -0.42047507290E+02  0.42047507290E+02  0.00000000000E+00 0.  1.
         23    2    1    2    0    0  0.00000000000E+00  0.00000000000E+00  0.10883258155E+02  0.94978272735E+02  0.94352673431E+02 0.  0.
        -11    1    3    3    0    0 -0.42426961769E+02 -0.16407829871E+02 -0.71449866113E+01  0.46046876113E+02  0.00000000000E+00 0.  1.
         11    1    3    3    0    0  0.42426961769E+02  0.16407829871E+02  0.18028244767E+02  0.48931396622E+02  0.00000000000E+00 0. -1.
<mgrwt>
<rscale>  0 0.94352673E+02</rscale>
<asrwt>0</asrwt>
<pdfrwt beam="1">  1        4 0.81431947E-02 0.94352673E+02</pdfrwt>
<pdfrwt beam="2">  1       -4 0.64688473E-02 0.94352673E+02</pdfrwt>
<totfact> 0.24389220E+04</totfact>
</mgrwt>
</event>
<event>
 5    1  0.6125604E+000  0.7212650E+02  0.7546771E-02  0.1353008E+00
         -2   -1    0    0    0  501 -0.00000000000E+00  0.00000000000E+00  0.11732733335E+02  0.11732733335E+02  0.00000000000E+00 0.  1.
          2   -1    0    0  501    0  0.00000000000E+00 -0.00000000000E+00 -0.11084867544E+03  0.11084867544E+03  0.00000000000E+00 0. -1.
         23    2    1    2    0    0  0.00000000000E+00  0.00000000000E+00 -0.99115942106E+02  0.12258140878E+03  0.72126498583E+02 0.  0.
        -11    1    3    3    0    0  0.11053429634E+02 -0.25808048136E+02 -0.11089738419E+02  0.30186353763E+02  0.00000000000E+00 0.  1.
         11    1    3    3    0    0 -0.11053429634E+02  0.25808048136E+02 -0.88026203687E+02  0.92395055013E+02  0.00000000000E+00 0. -1.
<mgrwt>
<rscale>  0 0.72126499E+02</rscale>
<asrwt>0</asrwt>
<pdfrwt beam="2">  1        2 0.17053642E-01 0.72126499E+02</pdfrwt>
<pdfrwt beam="1">  1       -2 0.18050359E-02 0.72126499E+02</pdfrwt>
<totfact> 0.23825318E+05</totfact>
</mgrwt>
</event>
<event>
 5    1  0.6125604E+000  0.9170841E+02  0.7546771E-02  0.1298766E+00
         -2   -1    0    0    0  501 -0.00000000000E+00  0.00000000000E+00  0.62629719813E+02  0.62629719813E+02  0.00000000000E+00 0.  1.
          2   -1    0    0  501    0  0.00000000000E+00 -0.00000000000E+00 -0.33572050281E+02  0.33572050281E+02  0.00000000000E+00 0. -1.
         23    2    1    2    0    0  0.00000000000E+00  0.00000000000E+00  0.29057669532E+02  0.96201770094E+02  0.91708409705E+02 0.  0.
        -11    1    3    3    0    0 -0.34610546601E+02  0.27107128677E+02  0.28202922933E+02  0.52231132700E+02  0.00000000000E+00 0.  1.
         11    1    3    3    0    0  0.34610546601E+02 -0.27107128677E+02  0.85474659867E+00  0.43970637394E+02  0.00000000000E+00 0. -1.
<mgrwt>
<rscale>  0 0.91708410E+02</rscale>
<asrwt>0</asrwt>
<pdfrwt beam="2">  1        2 0.51649308E-02 0.91708410E+02</pdfrwt>
<pdfrwt beam="1">  1       -2 0.96353415E-02 0.91708410E+02</pdfrwt>
<totfact> 0.89592296E+04</totfact>
</mgrwt>
</event>
<event>
 5    1  0.6125604E+000  0.9270683E+02  0.7546771E-02  0.1296426E+00
         -4   -1    0    0    0  501 -0.00000000000E+00  0.00000000000E+00  0.19534273426E+02  0.19534273426E+02  0.00000000000E+00 0.  1.
          4   -1    0    0  501    0  0.00000000000E+00 -0.00000000000E+00 -0.10999329233E+03  0.10999329233E+03  0.00000000000E+00 0. -1.
         23    2    1    2    0    0  0.00000000000E+00  0.00000000000E+00 -0.90459018905E+02  0.12952756576E+03  0.92706829250E+02 0.  0.
        -11    1    3    3    0    0 -0.87521621760E+01  0.40362588796E+02 -0.15825714859E+02  0.44228861254E+02  0.00000000000E+00 0.  1.
         11    1    3    3    0    0  0.87521621760E+01 -0.40362588796E+02 -0.74633304046E+02  0.85298704503E+02  0.00000000000E+00 0. -1.
<mgrwt>
<rscale>  0 0.92706829E+02</rscale>
<asrwt>0</asrwt>
<pdfrwt beam="2">  1        4 0.16922045E-01 0.92706829E+02</pdfrwt>
<pdfrwt beam="1">  1       -4 0.30052728E-02 0.92706829E+02</pdfrwt>
<totfact> 0.23653921E+04</totfact>
</mgrwt>
</event>
<event>
 5    1  0.6125604E+000  0.9369899E+02  0.7546771E-02  0.1294133E+00
          1   -1    0    0  501    0  0.00000000000E+00  0.00000000000E+00  0.40330220054E+02  0.40330220054E+02  0.00000000000E+00 0. -1.
         -1   -1    0    0    0  501 -0.00000000000E+00 -0.00000000000E+00 -0.54422589942E+02  0.54422589942E+02  0.00000000000E+00 0.  1.
         23    2    1    2    0    0  0.00000000000E+00  0.00000000000E+00 -0.14092369888E+02  0.94752809996E+02  0.93698986724E+02 0.  0.
        -11    1    3    3    0    0  0.53991842002E+01 -0.25518798917E+02 -0.46400644811E+02  0.53229504291E+02  0.00000000000E+00 0.  1.
         11    1    3    3    0    0 -0.53991842002E+01  0.25518798917E+02  0.32308274923E+02  0.41523305705E+02  0.00000000000E+00 0. -1.
<mgrwt>
<rscale>  0 0.93698987E+02</rscale>
<asrwt>0</asrwt>
<pdfrwt beam="1">  1        1 0.62046493E-02 0.93698987E+02</pdfrwt>
<pdfrwt beam="2">  1       -1 0.83727061E-02 0.93698987E+02</pdfrwt>
<totfact> 0.84024457E+04</totfact>
</mgrwt>
</event>
<event>
 5    1  0.6125604E+000  0.8847345E+02  0.7546771E-02  0.1306591E+00
          2   -1    0    0  501    0  0.00000000000E+00  0.00000000000E+00  0.24552236388E+02  0.24552236388E+02  0.00000000000E+00 0. -1.
         -2   -1    0    0    0  501 -0.00000000000E+00 -0.00000000000E+00 -0.79703034047E+02  0.79703034047E+02  0.00000000000E+00 0.  1.
         23    2    1    2    0    0  0.00000000000E+00  0.00000000000E+00 -0.55150797659E+02  0.10425527044E+03  0.88473447606E+02 0.  0.
        -11    1    3    3    0    0 -0.24874810165E+02 -0.25552039560E+02 -0.58421594763E+02  0.68445201739E+02  0.00000000000E+00 0.  1.
         11    1    3    3    0    0  0.24874810165E+02  0.25552039560E+02  0.32707971043E+01  0.35810068697E+02  0.00000000000E+00 0. -1.
<mgrwt>
<rscale>  0 0.88473448E+02</rscale>
<asrwt>0</asrwt>
<pdfrwt beam="1">  1        2 0.37772671E-02 0.88473448E+02</pdfrwt>
<pdfrwt beam="2">  1       -2 0.12262005E-01 0.88473448E+02</pdfrwt>
<totfact> 0.91698859E+04</totfact>
</mgrwt>
</event>
<event>
 5    1  0.6125604E+000  0.8666069E+02  0.7546771E-02  0.1311146E+00
         -1   -1    0    0    0  501 -0.00000000000E+00  0.00000000000E+00  0.81021397853E+01  0.81021397853E+01  0.00000000000E+00 0.  1.
          1   -1    0    0  501    0  0.00000000000E+00 -0.00000000000E+00 -0.23173123750E+03  0.23173123750E+03  0.00000000000E+00 0. -1.
         23    2    1    2    0    0  0.00000000000E+00  0.00000000000E+00 -0.22362909771E+03  0.23983337728E+03  0.86660691869E+02 0.  0.
        -11    1    3    3    0    0  0.32481271284E+02 -0.14383827622E+02 -0.18047928290E+03  0.18394210785E+03  0.00000000000E+00 0. -1.
         11    1    3    3    0    0 -0.32481271284E+02  0.14383827622E+02 -0.43149814809E+02  0.55891269437E+02  0.00000000000E+00 0.  1.
<mgrwt>
<rscale>  0 0.86660692E+02</rscale>
<asrwt>0</asrwt>
<pdfrwt beam="2">  1        1 0.35650960E-01 0.86660692E+02</pdfrwt>
<pdfrwt beam="1">  1       -1 0.12464830E-02 0.86660692E+02</pdfrwt>
<totfact> 0.13952523E+05</totfact>
</mgrwt>
</event>
<event>
 5    1  0.6125604E+000  0.8992918E+02  0.7546771E-02  0.1303023E+00
          4   -1    0    0  501    0  0.00000000000E+00  0.00000000000E+00  0.15868506938E+02  0.15868506938E+02  0.00000000000E+00 0. -1.
         -4   -1    0    0    0  501 -0.00000000000E+00 -0.00000000000E+00 -0.12741050014E+03  0.12741050014E+03  0.00000000000E+00 0.  1.
         23    2    1    2    0    0  0.00000000000E+00  0.00000000000E+00 -0.11154199320E+03  0.14327900708E+03  0.89929181147E+02 0.  0.
        -11    1    3    3    0    0 -0.22534695799E+02  0.29696079162E+02 -0.95829083094E+02  0.10282452431E+03  0.00000000000E+00 0.  1.
         11    1    3    3    0    0  0.22534695799E+02 -0.29696079162E+02 -0.15712910111E+02  0.40454482773E+02  0.00000000000E+00 0. -1.
<mgrwt>
<rscale>  0 0.89929181E+02</rscale>
<asrwt>0</asrwt>
<pdfrwt beam="1">  1        4 0.24413088E-02 0.89929181E+02</pdfrwt>
<pdfrwt beam="2">  1       -4 0.19601615E-01 0.89929181E+02</pdfrwt>
<totfact> 0.24920499E+04</totfact>
</mgrwt>
</event>
<event>
 5    1  0.6125604E+000  0.9286351E+02  0.7546771E-02  0.1296062E+00
         -1   -1    0    0    0  501 -0.00000000000E+00  0.00000000000E+00  0.97726331915E+02  0.97726331915E+02  0.00000000000E+00 0.  1.
          1   -1    0    0  501    0  0.00000000000E+00 -0.00000000000E+00 -0.22060663757E+02  0.22060663757E+02  0.00000000000E+00 0. -1.
         23    2    1    2    0    0  0.00000000000E+00  0.00000000000E+00  0.75665668157E+02  0.11978699567E+03  0.92863507334E+02 0.  0.
        -11    1    3    3    0    0 -0.32612456498E+02 -0.11814694787E+02 -0.19828065816E+01  0.34743213059E+02  0.00000000000E+00 0. -1.
         11    1    3    3    0    0  0.32612456498E+02  0.11814694787E+02  0.77648474739E+02  0.85043782612E+02  0.00000000000E+00 0.  1.
<mgrwt>
<rscale>  0 0.92863507E+02</rscale>
<asrwt>0</asrwt>
<pdfrwt beam="2">  1        1 0.33939483E-02 0.92863507E+02</pdfrwt>
<pdfrwt beam="1">  1       -1 0.15034820E-01 0.92863507E+02</pdfrwt>
<totfact> 0.77947243E+04</totfact>
</mgrwt>
</event>
<event>
 5    1  0.6125604E+000  0.8962995E+02  0.7546771E-02  0.1303750E+00
         -4   -1    0    0    0  501 -0.00000000000E+00  0.00000000000E+00  0.81338146864E+02  0.81338146864E+02  0.00000000000E+00 0.  1.
          4   -1    0    0  501    0  0.00000000000E+00 -0.00000000000E+00 -0.24691757993E+02  0.24691757993E+02  0.00000000000E+00 0. -1.
         23    2    1    2    0    0  0.00000000000E+00  0.00000000000E+00  0.56646388870E+02  0.10602990486E+03  0.89629946736E+02 0.  0.
        -11    1    3    3    0    0  0.22949697511E+02  0.25337628303E+02  0.62602873294E+02  0.71328842473E+02  0.00000000000E+00 0.  1.
         11    1    3    3    0    0 -0.22949697511E+02 -0.25337628303E+02 -0.59564844233E+01  0.34701062384E+02  0.00000000000E+00 0. -1.
<mgrwt>
<rscale>  0 0.89629947E+02</rscale>
<asrwt>0</asrwt>
<pdfrwt beam="2">  1        4 0.37987320E-02 0.89629947E+02</pdfrwt>
<pdfrwt beam="1">  1       -4 0.12513561E-01 0.89629947E+02</pdfrwt>
<totfact> 0.27323421E+04</totfact>
</mgrwt>
</event>
<event>
 5    1  0.6125604E+000  0.8809595E+02  0.7546771E-02  0.1307529E+00
         -2   -1    0    0    0  501 -0.00000000000E+00  0.00000000000E+00  0.30914837175E+02  0.30914837175E+02  0.00000000000E+00 0.  1.
          2   -1    0    0  501    0  0.00000000000E+00 -0.00000000000E+00 -0.62760284315E+02  0.62760284315E+02  0.00000000000E+00 0. -1.
         23    2    1    2    0    0  0.00000000000E+00  0.00000000000E+00 -0.31845447140E+02  0.93675121490E+02  0.88095947027E+02 0.  0.
        -11    1    3    3    0    0  0.10243486877E+02  0.14635921692E+02 -0.58735283395E+02  0.61391959919E+02  0.00000000000E+00 0. -1.
         11    1    3    3    0    0 -0.10243486877E+02 -0.14635921692E+02  0.26889836255E+02  0.32283161571E+02  0.00000000000E+00 0.  1.
<mgrwt>
<rscale>  0 0.88095947E+02</rscale>
<asrwt>0</asrwt>
<pdfrwt beam="2">  1        2 0.96554282E-02 0.88095947E+02</pdfrwt>
<pdfrwt beam="1">  1       -2 0.47561289E-02 0.88095947E+02</pdfrwt>
<totfact> 0.11822146E+05</totfact>
</mgrwt>
</event>
<event>
 5    1  0.6125604E+000  0.9068286E+02  0.7546771E-02  0.1301206E+00
          1   -1    0    0  501    0  0.00000000000E+00  0.00000000000E+00  0.71724575718E+01  0.71724575718E+01  0.00000000000E+00 0. -1.
         -1   -1    0    0    0  501 -0.00000000000E+00 -0.00000000000E+00 -0.28663050547E+03  0.28663050547E+03  0.00000000000E+00 0.  1.
         23    2    1    2    0    0  0.00000000000E+00  0.00000000000E+00 -0.27945804790E+03  0.29380296304E+03  0.90682857019E+02 0.  0.
        -11    1    3    3    0    0  0.33097721261E+02 -0.23285019399E+02 -0.73473849450E+02  0.83881212641E+02  0.00000000000E+00 0. -1.
         11    1    3    3    0    0 -0.33097721261E+02  0.23285019399E+02 -0.20598419845E+03  0.20992175040E+03  0.00000000000E+00 0.  1.
<mgrwt>
<rscale>  0 0.90682857E+02</rscale>
<asrwt>0</asrwt>
<pdfrwt beam="1">  1        1 0.11034549E-02 0.90682857E+02</pdfrwt>
<pdfrwt beam="2">  1       -1 0.44097006E-01 0.90682857E+02</pdfrwt>
<totfact> 0.62544755E+04</totfact>
</mgrwt>
</event>
<event>
 5    1  0.6125604E+000  0.9160407E+02  0.7546771E-02  0.1299013E+00
          3   -1    0    0  501    0  0.00000000000E+00  0.00000000000E+00  0.43589902541E+02  0.43589902541E+02  0.00000000000E+00 0. -1.
         -3   -1    0    0    0  501 -0.00000000000E+00 -0.00000000000E+00 -0.48126427136E+02  0.48126427136E+02  0.00000000000E+00 0.  1.
         23    2    1    2    0    0  0.00000000000E+00  0.00000000000E+00 -0.45365245956E+01  0.91716329677E+02  0.91604066907E+02 0.  0.
        -11    1    3    3    0    0  0.24083005716E+02  0.11788768064E+02 -0.39446774484E+02  0.47697109283E+02  0.00000000000E+00 0.  1.
         11    1    3    3    0    0 -0.24083005716E+02 -0.11788768064E+02  0.34910249888E+02  0.44019220393E+02  0.00000000000E+00 0. -1.
<mgrwt>
<rscale>  0 0.91604067E+02</rscale>
<asrwt>0</asrwt>
<pdfrwt beam="1">  1        3 0.67061389E-02 0.91604067E+02</pdfrwt>
<pdfrwt beam="2">  1       -3 0.74040656E-02 0.91604067E+02</pdfrwt>
<totfact> 0.34849643E+04</totfact>
</mgrwt>
</event>
<event>
 5    1  0.6125604E+000  0.9226664E+02  0.7546771E-02  0.1297454E+00
         -2   -1    0    0    0  501 -0.00000000000E+00  0.00000000000E+00  0.21577786822E+02  0.21577786822E+02  0.00000000000E+00 0.  1.
          2   -1    0    0  501    0  0.00000000000E+00 -0.00000000000E+00 -0.98633073389E+02  0.98633073389E+02  0.00000000000E+00 0. -1.
         23    2    1    2    0    0  0.00000000000E+00  0.00000000000E+00 -0.77055286567E+02  0.12021086021E+03  0.92266644702E+02 0.  0.
        -11    1    3    3    0    0 -0.10426097348E+02  0.31775239130E+02  0.28762514566E+01  0.33565490464E+02  0.00000000000E+00 0.  1.
         11    1    3    3    0    0  0.10426097348E+02 -0.31775239130E+02 -0.79931538024E+02  0.86645369746E+02  0.00000000000E+00 0. -1.
<mgrwt>
<rscale>  0 0.92266645E+02</rscale>
<asrwt>0</asrwt>
<pdfrwt beam="2">  1        2 0.15174319E-01 0.92266645E+02</pdfrwt>
<pdfrwt beam="1">  1       -2 0.33196596E-02 0.92266645E+02</pdfrwt>
<totfact> 0.11822365E+05</totfact>
</mgrwt>
</event>
<event>
 5    1  0.6125604E+000  0.8956548E+02  0.7546771E-02  0.1303907E+00
         -3   -1    0    0    0  501 -0.00000000000E+00  0.00000000000E+00  0.11043945712E+03  0.11043945712E+03  0.00000000000E+00 0.  1.
          3   -1    0    0  501    0  0.00000000000E+00 -0.00000000000E+00 -0.18159214938E+02  0.18159214938E+02  0.00000000000E+00 0. -1.
         23    2    1    2    0    0  0.00000000000E+00  0.00000000000E+00  0.92280242186E+02  0.12859867206E+03  0.89565480842E+02 0.  0.
        -11    1    3    3    0    0 -0.32727434898E+02  0.10617050312E+02  0.87297627387E+02  0.93833269684E+02  0.00000000000E+00 0.  1.
         11    1    3    3    0    0  0.32727434898E+02 -0.10617050312E+02  0.49826147997E+01  0.34765402379E+02  0.00000000000E+00 0. -1.
<mgrwt>
<rscale>  0 0.89565481E+02</rscale>
<asrwt>0</asrwt>
<pdfrwt beam="2">  1        3 0.27937254E-02 0.89565481E+02</pdfrwt>
<pdfrwt beam="1">  1       -3 0.16990685E-01 0.89565481E+02</pdfrwt>
<totfact> 0.34285268E+04</totfact>
</mgrwt>
</event>
<event>
 5    1  0.6125604E+000  0.9085691E+02  0.7546771E-02  0.1300790E+00
          2   -1    0    0  501    0  0.00000000000E+00  0.00000000000E+00  0.27593316007E+02  0.27593316007E+02  0.00000000000E+00 0. -1.
         -2   -1    0    0    0  501 -0.00000000000E+00 -0.00000000000E+00 -0.74791466076E+02  0.74791466076E+02  0.00000000000E+00 0.  1.
         23    2    1    2    0    0  0.00000000000E+00  0.00000000000E+00 -0.47198150069E+02  0.10238478208E+03  0.90856910757E+02 0.  0.
        -11    1    3    3    0    0  0.19751363166E+02  0.36566267790E+02 -0.29265568216E+01  0.41662609398E+02  0.00000000000E+00 0. -1.
         11    1    3    3    0    0 -0.19751363166E+02 -0.36566267790E+02 -0.44271593247E+02  0.60722172685E+02  0.00000000000E+00 0.  1.
<mgrwt>
<rscale>  0 0.90856911E+02</rscale>
<asrwt>0</asrwt>
<pdfrwt beam="1">  1        2 0.42451256E-02 0.90856911E+02</pdfrwt>
<pdfrwt beam="2">  1       -2 0.11506379E-01 0.90856911E+02</pdfrwt>
<totfact> 0.87409719E+04</totfact>
</mgrwt>
</event>
<event>
 5    1  0.6125604E+000  0.9032594E+02  0.7546771E-02  0.1302064E+00
         -2   -1    0    0    0  501 -0.00000000000E+00  0.00000000000E+00  0.88910443374E+02  0.88910443374E+02  0.00000000000E+00 0.  1.
          2   -1    0    0  501    0  0.00000000000E+00 -0.00000000000E+00 -0.22940991139E+02  0.22940991139E+02  0.00000000000E+00 0. -1.
         23    2    1    2    0    0  0.00000000000E+00  0.00000000000E+00  0.65969452235E+02  0.11185143451E+03  0.90325936332E+02 0.  0.
        -11    1    3    3    0    0  0.26135706458E+02 -0.60124914336E+01  0.77982715300E+02  0.82465320534E+02  0.00000000000E+00 0.  1.
         11    1    3    3    0    0 -0.26135706458E+02  0.60124914336E+01 -0.12013263064E+02  0.29386113979E+02  0.00000000000E+00 0. -1.
<mgrwt>
<rscale>  0 0.90325936E+02</rscale>
<asrwt>0</asrwt>
<pdfrwt beam="2">  1        2 0.35293833E-02 0.90325936E+02</pdfrwt>
<pdfrwt beam="1">  1       -2 0.13678530E-01 0.90325936E+02</pdfrwt>
<totfact> 0.84528014E+04</totfact>
</mgrwt>
</event>
<event>
 5    1  0.6125604E+000  0.8981843E+02  0.7546771E-02  0.1303292E+00
         -2   -1    0    0    0  501 -0.00000000000E+00  0.00000000000E+00  0.18898515287E+02  0.18898515287E+02  0.00000000000E+00 0.  1.
          2   -1    0    0  501    0  0.00000000000E+00 -0.00000000000E+00 -0.10671936768E+03  0.10671936768E+03  0.00000000000E+00 0. -1.
         23    2    1    2    0    0  0.00000000000E+00  0.00000000000E+00 -0.87820852389E+02  0.12561788296E+03  0.89818430213E+02 0.  0.
        -11    1    3    3    0    0  0.39907048615E+02  0.35506879199E+01 -0.72286618885E+02  0.82647051875E+02  0.00000000000E+00 0.  1.
         11    1    3    3    0    0 -0.39907048615E+02 -0.35506879199E+01 -0.15534233504E+02  0.42970831088E+02  0.00000000000E+00 0. -1.
<mgrwt>
<rscale>  0 0.89818430E+02</rscale>
<asrwt>0</asrwt>
<pdfrwt beam="2">  1        2 0.16418364E-01 0.89818430E+02</pdfrwt>
<pdfrwt beam="1">  1       -2 0.29074639E-02 0.89818430E+02</pdfrwt>
<totfact> 0.13040930E+05</totfact>
</mgrwt>
</event>
<event>
 5    1  0.6125604E+000  0.9066928E+02  0.7546771E-02  0.1301239E+00
          1   -1    0    0  501    0  0.00000000000E+00  0.00000000000E+00  0.34832633366E+03  0.34832633366E+03  0.00000000000E+00 0. -1.
         -1   -1    0    0    0  501 -0.00000000000E+00 -0.00000000000E+00 -0.59002989768E+01  0.59002989768E+01  0.00000000000E+00 0.  1.
         23    2    1    2    0    0  0.00000000000E+00  0.00000000000E+00  0.34242603468E+03  0.35422663264E+03  0.90669278371E+02 0.  0.
        -11    1    3    3    0    0  0.14053013839E+02  0.41593348252E+02  0.21536774253E+03  0.21979708447E+03  0.00000000000E+00 0. -1.
         11    1    3    3    0    0 -0.14053013839E+02 -0.41593348252E+02  0.12705829215E+03  0.13442954817E+03  0.00000000000E+00 0.  1.
<mgrwt>
<rscale>  0 0.90669278E+02</rscale>
<asrwt>0</asrwt>
<pdfrwt beam="1">  1        1 0.53588650E-01 0.90669278E+02</pdfrwt>
<pdfrwt beam="2">  1       -1 0.90773858E-03 0.90669278E+02</pdfrwt>
<totfact> 0.13368847E+05</totfact>
</mgrwt>
</event>
<event>
 5    1  0.6125604E+000  0.8971152E+02  0.7546771E-02  0.1303552E+00
         -2   -1    0    0    0  501 -0.00000000000E+00  0.00000000000E+00  0.17045013757E+02  0.17045013757E+02  0.00000000000E+00 0.  1.
          2   -1    0    0  501    0  0.00000000000E+00 -0.00000000000E+00 -0.11804269787E+03  0.11804269787E+03  0.00000000000E+00 0. -1.
         23    2    1    2    0    0  0.00000000000E+00  0.00000000000E+00 -0.10099768412E+03  0.13508771163E+03  0.89711524548E+02 0.  0.
        -11    1    3    3    0    0 -0.21263931898E+02  0.22579670799E+02 -0.99293375024E+02  0.10402485596E+03  0.00000000000E+00 0. -1.
         11    1    3    3    0    0  0.21263931898E+02 -0.22579670799E+02 -0.17043090934E+01  0.31062855675E+02  0.00000000000E+00 0.  1.
<mgrwt>
<rscale>  0 0.89711525E+02</rscale>
<asrwt>0</asrwt>
<pdfrwt beam="2">  1        2 0.18160415E-01 0.89711525E+02</pdfrwt>
<pdfrwt beam="1">  1       -2 0.26223099E-02 0.89711525E+02</pdfrwt>
<totfact> 0.13502677E+05</totfact>
</mgrwt>
</event>
<event>
 5    1  0.6125604E+000  0.1089986E+03  0.7546771E-02  0.1262436E+00
          2   -1    0    0  501    0  0.00000000000E+00  0.00000000000E+00  0.38805904749E+03  0.38805904749E+03  0.00000000000E+00 0. -1.
         -2   -1    0    0    0  501 -0.00000000000E+00 -0.00000000000E+00 -0.76539156200E+01  0.76539156200E+01  0.00000000000E+00 0.  1.
         23    2    1    2    0    0  0.00000000000E+00  0.00000000000E+00  0.38040513187E+03  0.39571296311E+03  0.10899855421E+03 0.  0.
        -11    1    3    3    0    0 -0.21108177239E+02  0.45428181489E+02  0.11226242421E+03  0.12293139025E+03  0.00000000000E+00 0.  1.
         11    1    3    3    0    0  0.21108177239E+02 -0.45428181489E+02  0.26814270766E+03  0.27278157286E+03  0.00000000000E+00 0. -1.
<mgrwt>
<rscale>  0 0.10899855E+03</rscale>
<asrwt>0</asrwt>
<pdfrwt beam="1">  1        2 0.59701376E-01 0.10899855E+03</pdfrwt>
<pdfrwt beam="2">  1       -2 0.11775258E-02 0.10899855E+03</pdfrwt>
<totfact> 0.12232807E+05</totfact>
</mgrwt>
</event>
<event>
 5    1  0.6125604E+000  0.9342009E+02  0.7546771E-02  0.1294775E+00
          2   -1    0    0  501    0  0.00000000000E+00  0.00000000000E+00  0.77815242397E+02  0.77815242397E+02  0.00000000000E+00 0. -1.
         -2   -1    0    0    0  501 -0.00000000000E+00 -0.00000000000E+00 -0.28038572026E+02  0.28038572026E+02  0.00000000000E+00 0.  1.
         23    2    1    2    0    0  0.00000000000E+00  0.00000000000E+00  0.49776670371E+02  0.10585381442E+03  0.93420089460E+02 0.  0.
        -11    1    3    3    0    0 -0.17100537518E+02  0.29009490828E+02 -0.11790510114E+02  0.35679056465E+02  0.00000000000E+00 0.  1.
         11    1    3    3    0    0  0.17100537518E+02 -0.29009490828E+02  0.61567180486E+02  0.70174757958E+02  0.00000000000E+00 0. -1.
<mgrwt>
<rscale>  0 0.93420089E+02</rscale>
<asrwt>0</asrwt>
<pdfrwt beam="1">  1        2 0.11971576E-01 0.93420089E+02</pdfrwt>
<pdfrwt beam="2">  1       -2 0.43136265E-02 0.93420089E+02</pdfrwt>
<totfact> 0.10647899E+05</totfact>
</mgrwt>
</event>
<event>
 5    1  0.6125604E+000  0.9102174E+02  0.7546771E-02  0.1300396E+00
         -3   -1    0    0    0  501 -0.00000000000E+00  0.00000000000E+00  0.86386867338E+02  0.86386867338E+02  0.00000000000E+00 0.  1.
          3   -1    0    0  501    0  0.00000000000E+00 -0.00000000000E+00 -0.23976322760E+02  0.23976322760E+02  0.00000000000E+00 0. -1.
         23    2    1    2    0    0  0.00000000000E+00  0.00000000000E+00  0.62410544578E+02  0.11036319010E+03  0.91021742755E+02 0.  0.
        -11    1    3    3    0    0  0.13790851031E+02 -0.72428275170E+01  0.83053946998E+02  0.84502096036E+02  0.00000000000E+00 0.  1.
         11    1    3    3    0    0 -0.13790851031E+02  0.72428275170E+01 -0.20643402420E+02  0.25861094062E+02  0.00000000000E+00 0. -1.
<mgrwt>
<rscale>  0 0.91021743E+02</rscale>
<asrwt>0</asrwt>
<pdfrwt beam="2">  1        3 0.36886651E-02 0.91021743E+02</pdfrwt>
<pdfrwt beam="1">  1       -3 0.13290287E-01 0.91021743E+02</pdfrwt>
<totfact> 0.34078090E+04</totfact>
</mgrwt>
</event>
<event>
 5    1  0.6125604E+000  0.9166518E+02  0.7546771E-02  0.1298869E+00
          2   -1    0    0  501    0  0.00000000000E+00  0.00000000000E+00  0.16175112532E+02  0.16175112532E+02  0.00000000000E+00 0. -1.
         -2   -1    0    0    0  501 -0.00000000000E+00 -0.00000000000E+00 -0.12986780553E+03  0.12986780553E+03  0.00000000000E+00 0.  1.
         23    2    1    2    0    0  0.00000000000E+00  0.00000000000E+00 -0.11369269300E+03  0.14604291806E+03  0.91665181366E+02 0.  0.
        -11    1    3    3    0    0  0.23146597180E+02 -0.23078915499E+02 -0.10803377360E+03  0.11287026863E+03  0.00000000000E+00 0.  1.
         11    1    3    3    0    0 -0.23146597180E+02  0.23078915499E+02 -0.56589193953E+01  0.33172649432E+02  0.00000000000E+00 0. -1.
<mgrwt>
<rscale>  0 0.91665181E+02</rscale>
<asrwt>0</asrwt>
<pdfrwt beam="1">  1        2 0.24884787E-02 0.91665181E+02</pdfrwt>
<pdfrwt beam="2">  1       -2 0.19979663E-01 0.91665181E+02</pdfrwt>
<totfact> 0.72490517E+04</totfact>
</mgrwt>
</event>
<event>
 5    1  0.6125604E+000  0.9019210E+02  0.7546771E-02  0.1302387E+00
          1   -1    0    0  501    0  0.00000000000E+00  0.00000000000E+00  0.17678634389E+02  0.17678634389E+02  0.00000000000E+00 0. -1.
         -1   -1    0    0    0  501 -0.00000000000E+00 -0.00000000000E+00 -0.11503455939E+03  0.11503455939E+03  0.00000000000E+00 0.  1.
         23    2    1    2    0    0  0.00000000000E+00  0.00000000000E+00 -0.97355925002E+02  0.13271319378E+03  0.90192104258E+02 0.  0.
        -11    1    3    3    0    0 -0.33154804864E+02 -0.11149298061E+02 -0.67970147050E+01  0.35633514305E+02  0.00000000000E+00 0. -1.
         11    1    3    3    0    0  0.33154804864E+02  0.11149298061E+02 -0.90558910298E+02  0.97079679476E+02  0.00000000000E+00 0.  1.
<mgrwt>
<rscale>  0 0.90192104E+02</rscale>
<asrwt>0</asrwt>
<pdfrwt beam="1">  1        1 0.27197900E-02 0.90192104E+02</pdfrwt>
<pdfrwt beam="2">  1       -1 0.17697624E-01 0.90192104E+02</pdfrwt>
<totfact> 0.81455223E+04</totfact>
</mgrwt>
</event>
<event>
 5    1  0.6125604E+000  0.9001528E+02  0.7546771E-02  0.1302815E+00
          2   -1    0    0  501    0  0.00000000000E+00  0.00000000000E+00  0.19868926439E+03  0.19868926439E+03  0.00000000000E+00 0. -1.
         -2   -1    0    0    0  501 -0.00000000000E+00 -0.00000000000E+00 -0.10195255754E+02  0.10195255754E+02  0.00000000000E+00 0.  1.
         23    2    1    2    0    0  0.00000000000E+00  0.00000000000E+00  0.18849400863E+03  0.20888452014E+03  0.90015284613E+02 0.  0.
        -11    1    3    3    0    0 -0.19368510753E+01  0.39107449712E+02  0.14574762327E+03  0.15091558469E+03  0.00000000000E+00 0. -1.
         11    1    3    3    0    0  0.19368510753E+01 -0.39107449712E+02  0.42746385363E+02  0.57968935446E+02  0.00000000000E+00 0.  1.
<mgrwt>
<rscale>  0 0.90015285E+02</rscale>
<asrwt>0</asrwt>
<pdfrwt beam="1">  1        2 0.30567576E-01 0.90015285E+02</pdfrwt>
<pdfrwt beam="2">  1       -2 0.15685010E-02 0.90015285E+02</pdfrwt>
<totfact> 0.15972572E+05</totfact>
</mgrwt>
</event>
<event>
 5    1  0.6125604E+000  0.9146016E+02  0.7546771E-02  0.1299354E+00
          4   -1    0    0  501    0  0.00000000000E+00  0.00000000000E+00  0.17859502908E+02  0.17859502908E+02  0.00000000000E+00 0.  1.
         -4   -1    0    0    0  501 -0.00000000000E+00 -0.00000000000E+00 -0.11709397125E+03  0.11709397125E+03  0.00000000000E+00 0. -1.
         23    2    1    2    0    0  0.00000000000E+00  0.00000000000E+00 -0.99234468345E+02  0.13495347416E+03  0.91460157887E+02 0.  0.
        -11    1    3    3    0    0 -0.41645882136E+02  0.18475459075E+02 -0.55429834497E+02  0.71750879014E+02  0.00000000000E+00 0.  1.
         11    1    3    3    0    0  0.41645882136E+02 -0.18475459075E+02 -0.43804633849E+02  0.63202595149E+02  0.00000000000E+00 0. -1.
<mgrwt>
<rscale>  0 0.91460158E+02</rscale>
<asrwt>0</asrwt>
<pdfrwt beam="1">  1        4 0.27476159E-02 0.91460158E+02</pdfrwt>
<pdfrwt beam="2">  1       -4 0.18014457E-01 0.91460158E+02</pdfrwt>
<totfact> 0.24247229E+04</totfact>
</mgrwt>
</event>
<event>
 5    1  0.6125604E+000  0.9052496E+02  0.7546771E-02  0.1301585E+00
          1   -1    0    0  501    0  0.00000000000E+00  0.00000000000E+00  0.10742157468E+03  0.10742157468E+03  0.00000000000E+00 0. -1.
         -1   -1    0    0    0  501 -0.00000000000E+00 -0.00000000000E+00 -0.19071515216E+02  0.19071515216E+02  0.00000000000E+00 0.  1.
         23    2    1    2    0    0  0.00000000000E+00  0.00000000000E+00  0.88350059467E+02  0.12649308990E+03  0.90524962218E+02 0.  0.
        -11    1    3    3    0    0 -0.41887177115E+02 -0.14300108332E+02  0.30943615332E+02  0.54004963057E+02  0.00000000000E+00 0. -1.
         11    1    3    3    0    0  0.41887177115E+02  0.14300108332E+02  0.57406444135E+02  0.72488126843E+02  0.00000000000E+00 0.  1.
<mgrwt>
<rscale>  0 0.90524962E+02</rscale>
<asrwt>0</asrwt>
<pdfrwt beam="1">  1        1 0.16526396E-01 0.90524962E+02</pdfrwt>
<pdfrwt beam="2">  1       -1 0.29340793E-02 0.90524962E+02</pdfrwt>
<totfact> 0.10779528E+05</totfact>
</mgrwt>
</event>
<event>
 5    1  0.6125604E+000  0.9453587E+02  0.7546771E-02  0.1292225E+00
         -1   -1    0    0    0  501 -0.00000000000E+00  0.00000000000E+00  0.15307577358E+02  0.15307577358E+02  0.00000000000E+00 0.  1.
          1   -1    0    0  501    0  0.00000000000E+00 -0.00000000000E+00 -0.14595764298E+03  0.14595764298E+03  0.00000000000E+00 0. -1.
         23    2    1    2    0    0  0.00000000000E+00  0.00000000000E+00 -0.13065006562E+03  0.16126522034E+03  0.94535874901E+02 0.  0.
        -11    1    3    3    0    0 -0.45682834710E+02  0.11993430030E+02 -0.68513745939E+02  0.83215966819E+02  0.00000000000E+00 0.  1.
         11    1    3    3    0    0  0.45682834710E+02 -0.11993430030E+02 -0.62136319681E+02  0.78049253516E+02  0.00000000000E+00 0. -1.
<mgrwt>
<rscale>  0 0.94535875E+02</rscale>
<asrwt>0</asrwt>
<pdfrwt beam="2">  1        1 0.22455024E-01 0.94535875E+02</pdfrwt>
<pdfrwt beam="1">  1       -1 0.23550117E-02 0.94535875E+02</pdfrwt>
<totfact> 0.10116255E+05</totfact>
</mgrwt>
</event>
<event>
 5    1  0.6125604E+000  0.9306807E+02  0.7546771E-02  0.1295588E+00
         -2   -1    0    0    0  501 -0.00000000000E+00  0.00000000000E+00  0.48947192877E+02  0.48947192877E+02  0.00000000000E+00 0.  1.
          2   -1    0    0  501    0  0.00000000000E+00 -0.00000000000E+00 -0.44239849049E+02  0.44239849049E+02  0.00000000000E+00 0. -1.
         23    2    1    2    0    0  0.00000000000E+00  0.00000000000E+00  0.47073438289E+01  0.93187041926E+02  0.93068070234E+02 0.  0.
        -11    1    3    3    0    0 -0.39675069110E+02  0.23550847809E+02 -0.37090566177E+01  0.46287262205E+02  0.00000000000E+00 0. -1.
         11    1    3    3    0    0  0.39675069110E+02 -0.23550847809E+02  0.84164004466E+01  0.46899779721E+02  0.00000000000E+00 0.  1.
<mgrwt>
<rscale>  0 0.93068070E+02</rscale>
<asrwt>0</asrwt>
<pdfrwt beam="2">  1        2 0.68061306E-02 0.93068070E+02</pdfrwt>
<pdfrwt beam="1">  1       -2 0.75303374E-02 0.93068070E+02</pdfrwt>
<totfact> 0.92279323E+04</totfact>
</mgrwt>
</event>
<event>
 5    1  0.6125604E+000  0.9101006E+02  0.7546771E-02  0.1300424E+00
         -2   -1    0    0    0  501 -0.00000000000E+00  0.00000000000E+00  0.80215800837E+02  0.80215800837E+02  0.00000000000E+00 0.  1.
          2   -1    0    0  501    0  0.00000000000E+00 -0.00000000000E+00 -0.25814215064E+02  0.25814215064E+02  0.00000000000E+00 0. -1.
         23    2    1    2    0    0  0.00000000000E+00  0.00000000000E+00  0.54401585773E+02  0.10603001590E+03  0.91010063934E+02 0.  0.
        -11    1    3    3    0    0  0.32582299576E+02  0.21118972543E+02 -0.44497004335E+00  0.38830596767E+02  0.00000000000E+00 0. -1.
         11    1    3    3    0    0 -0.32582299576E+02 -0.21118972543E+02  0.54846555816E+02  0.67199419133E+02  0.00000000000E+00 0.  1.
<mgrwt>
<rscale>  0 0.91010064E+02</rscale>
<asrwt>0</asrwt>
<pdfrwt beam="2">  1        2 0.39714177E-02 0.91010064E+02</pdfrwt>
<pdfrwt beam="1">  1       -2 0.12340892E-01 0.91010064E+02</pdfrwt>
<totfact> 0.85399084E+04</totfact>
</mgrwt>
</event>
<event>
 5    1  0.6125604E+000  0.9265683E+02  0.7546771E-02  0.1296542E+00
          2   -1    0    0  501    0  0.00000000000E+00  0.00000000000E+00  0.35664327307E+03  0.35664327307E+03  0.00000000000E+00 0. -1.
         -2   -1    0    0    0  501 -0.00000000000E+00 -0.00000000000E+00 -0.60181203668E+01  0.60181203668E+01  0.00000000000E+00 0.  1.
         23    2    1    2    0    0  0.00000000000E+00  0.00000000000E+00  0.35062515271E+03  0.36266139344E+03  0.92656832352E+02 0.  0.
        -11    1    3    3    0    0 -0.31886190455E+01 -0.45710669350E+02  0.14856811996E+03  0.15547385263E+03  0.00000000000E+00 0.  1.
         11    1    3    3    0    0  0.31886190455E+01  0.45710669350E+02  0.20205703275E+03  0.20718754081E+03  0.00000000000E+00 0. -1.
<mgrwt>
<rscale>  0 0.92656832E+02</rscale>
<asrwt>0</asrwt>
<pdfrwt beam="1">  1        2 0.54868179E-01 0.92656832E+02</pdfrwt>
<pdfrwt beam="2">  1       -2 0.92586495E-03 0.92656832E+02</pdfrwt>
<totfact> 0.18346849E+05</totfact>
</mgrwt>
</event>
<event>
 5    1  0.6125604E+000  0.8727655E+02  0.7546771E-02  0.1309584E+00
         -3   -1    0    0    0  501 -0.00000000000E+00  0.00000000000E+00  0.62554912806E+01  0.62554912806E+01  0.00000000000E+00 0.  1.
          3   -1    0    0  501    0  0.00000000000E+00 -0.00000000000E+00 -0.30442039101E+03  0.30442039101E+03  0.00000000000E+00 0. -1.
         23    2    1    2    0    0  0.00000000000E+00  0.00000000000E+00 -0.29816489973E+03  0.31067588229E+03  0.87276551298E+02 0.  0.
        -11    1    3    3    0    0 -0.33921344319E+01  0.43371522536E+02 -0.16126025244E+03  0.16702534107E+03  0.00000000000E+00 0. -1.
         11    1    3    3    0    0  0.33921344319E+01 -0.43371522536E+02 -0.13690464729E+03  0.14365054122E+03  0.00000000000E+00 0.  1.
<mgrwt>
<rscale>  0 0.87276551E+02</rscale>
<asrwt>0</asrwt>
<pdfrwt beam="2">  1        3 0.46833899E-01 0.87276551E+02</pdfrwt>
<pdfrwt beam="1">  1       -3 0.96238341E-03 0.87276551E+02</pdfrwt>
<totfact> 0.26552362E+04</totfact>
</mgrwt>
</event>
<event>
 5    1  0.6125604E+000  0.1178691E+03  0.7546771E-02  0.1246654E+00
          2   -1    0    0  501    0  0.00000000000E+00  0.00000000000E+00  0.16583054879E+03  0.16583054879E+03  0.00000000000E+00 0.  1.
         -2   -1    0    0    0  501 -0.00000000000E+00 -0.00000000000E+00 -0.20944750509E+02  0.20944750509E+02  0.00000000000E+00 0. -1.
         23    2    1    2    0    0  0.00000000000E+00  0.00000000000E+00  0.14488579828E+03  0.18677529930E+03  0.11786907094E+03 0.  0.
        -11    1    3    3    0    0 -0.12359451263E+02 -0.46005583059E+02  0.17459120191E+02  0.50735496311E+02  0.00000000000E+00 0. -1.
         11    1    3    3    0    0  0.12359451263E+02  0.46005583059E+02  0.12742667809E+03  0.13603980299E+03  0.00000000000E+00 0.  1.
<mgrwt>
<rscale>  0 0.11786907E+03</rscale>
<asrwt>0</asrwt>
<pdfrwt beam="1">  1        2 0.25512391E-01 0.11786907E+03</pdfrwt>
<pdfrwt beam="2">  1       -2 0.32222694E-02 0.11786907E+03</pdfrwt>
<totfact> 0.71362957E+04</totfact>
</mgrwt>
</event>
<event>
 5    1  0.6125604E+000  0.8975737E+02  0.7546771E-02  0.1303440E+00
          1   -1    0    0  501    0  0.00000000000E+00  0.00000000000E+00  0.42249558454E+03  0.42249558454E+03  0.00000000000E+00 0. -1.
         -1   -1    0    0    0  501 -0.00000000000E+00 -0.00000000000E+00 -0.47671416565E+01  0.47671416565E+01  0.00000000000E+00 0.  1.
         23    2    1    2    0    0  0.00000000000E+00  0.00000000000E+00  0.41772844288E+03  0.42726272620E+03  0.89757368517E+02 0.  0.
        -11    1    3    3    0    0  0.19138675809E+02  0.40499722325E+02  0.22196979642E+03  0.22644448976E+03  0.00000000000E+00 0.  1.
         11    1    3    3    0    0 -0.19138675809E+02 -0.40499722325E+02  0.19575864646E+03  0.20081823643E+03  0.00000000000E+00 0. -1.
<mgrwt>
<rscale>  0 0.89757369E+02</rscale>
<asrwt>0</asrwt>
<pdfrwt beam="1">  1        1 0.64999291E-01 0.89757369E+02</pdfrwt>
<pdfrwt beam="2">  1       -1 0.73340674E-03 0.89757369E+02</pdfrwt>
<totfact> 0.14185220E+05</totfact>
</mgrwt>
</event>
<event>
 5    1  0.6125604E+000  0.9144166E+02  0.7546771E-02  0.1299398E+00
         -2   -1    0    0    0  501 -0.00000000000E+00  0.00000000000E+00  0.12962109324E+03  0.12962109324E+03  0.00000000000E+00 0.  1.
          2   -1    0    0  501    0  0.00000000000E+00 -0.00000000000E+00 -0.16126961174E+02  0.16126961174E+02  0.00000000000E+00 0. -1.
         23    2    1    2    0    0  0.00000000000E+00  0.00000000000E+00  0.11349413207E+03  0.14574805442E+03  0.91441660922E+02 0.  0.
        -11    1    3    3    0    0 -0.33618273166E+01  0.35962965783E+02  0.10142601424E+03  0.10766556161E+03  0.00000000000E+00 0.  1.
         11    1    3    3    0    0  0.33618273166E+01 -0.35962965783E+02  0.12068117827E+02  0.38082492811E+02  0.00000000000E+00 0. -1.
<mgrwt>
<rscale>  0 0.91441661E+02</rscale>
<asrwt>0</asrwt>
<pdfrwt beam="2">  1        2 0.24810710E-02 0.91441661E+02</pdfrwt>
<pdfrwt beam="1">  1       -2 0.19941706E-01 0.91441661E+02</pdfrwt>
<totfact> 0.72984753E+04</totfact>
</mgrwt>
</event>
<event>
 5    1  0.6125604E+000  0.9126507E+02  0.7546771E-02  0.1299817E+00
         -1   -1    0    0    0  501 -0.00000000000E+00  0.00000000000E+00  0.57736854588E+01  0.57736854588E+01  0.00000000000E+00 0.  1.
          1   -1    0    0  501    0  0.00000000000E+00 -0.00000000000E+00 -0.36065840953E+03  0.36065840953E+03  0.00000000000E+00 0. -1.
         23    2    1    2    0    0  0.00000000000E+00  0.00000000000E+00 -0.35488472408E+03  0.36643209499E+03  0.91265069215E+02 0.  0.
        -11    1    3    3    0    0  0.42153911085E+02  0.13958361891E+02 -0.21965562277E+03  0.22409904217E+03  0.00000000000E+00 0. -1.
         11    1    3    3    0    0 -0.42153911085E+02 -0.13958361891E+02 -0.13522910130E+03  0.14233305282E+03  0.00000000000E+00 0.  1.
<mgrwt>
<rscale>  0 0.91265069E+02</rscale>
<asrwt>0</asrwt>
<pdfrwt beam="2">  1        1 0.55485938E-01 0.91265069E+02</pdfrwt>
<pdfrwt beam="1">  1       -1 0.88825884E-03 0.91265069E+02</pdfrwt>
<totfact> 0.13219387E+05</totfact>
</mgrwt>
</event>
<event>
 5    1  0.6125604E+000  0.9265037E+02  0.7546771E-02  0.1296557E+00
          2   -1    0    0  501    0  0.00000000000E+00  0.00000000000E+00  0.23327971022E+02  0.23327971022E+02  0.00000000000E+00 0. -1.
         -2   -1    0    0    0  501 -0.00000000000E+00 -0.00000000000E+00 -0.91993546291E+02  0.91993546291E+02  0.00000000000E+00 0.  1.
         23    2    1    2    0    0  0.00000000000E+00  0.00000000000E+00 -0.68665575269E+02  0.11532151731E+03  0.92650370362E+02 0.  0.
        -11    1    3    3    0    0  0.76281058280E+01  0.21331648635E+02 -0.84628283265E+02  0.87608067896E+02  0.00000000000E+00 0.  1.
         11    1    3    3    0    0 -0.76281058280E+01 -0.21331648635E+02  0.15962707996E+02  0.27713449417E+02  0.00000000000E+00 0. -1.
<mgrwt>
<rscale>  0 0.92650370E+02</rscale>
<asrwt>0</asrwt>
<pdfrwt beam="1">  1        2 0.35889187E-02 0.92650370E+02</pdfrwt>
<pdfrwt beam="2">  1       -2 0.14152853E-01 0.92650370E+02</pdfrwt>
<totfact> 0.78599509E+04</totfact>
</mgrwt>
</event>
<event>
 5    1  0.6125604E+000  0.9485662E+02  0.7546771E-02  0.1291499E+00
          2   -1    0    0  501    0  0.00000000000E+00  0.00000000000E+00  0.12145438022E+03  0.12145438022E+03  0.00000000000E+00 0. -1.
         -2   -1    0    0    0  501 -0.00000000000E+00 -0.00000000000E+00 -0.18520899902E+02  0.18520899902E+02  0.00000000000E+00 0.  1.
         23    2    1    2    0    0  0.00000000000E+00  0.00000000000E+00  0.10293348032E+03  0.13997528012E+03  0.94856616400E+02 0.  0.
        -11    1    3    3    0    0 -0.32620708194E+02 -0.34253850826E+02  0.46353333162E+02  0.66227399124E+02  0.00000000000E+00 0.  1.
         11    1    3    3    0    0  0.32620708194E+02  0.34253850826E+02  0.56580147160E+02  0.73747881001E+02  0.00000000000E+00 0. -1.
<mgrwt>
<rscale>  0 0.94856616E+02</rscale>
<asrwt>0</asrwt>
<pdfrwt beam="1">  1        2 0.18685289E-01 0.94856616E+02</pdfrwt>
<pdfrwt beam="2">  1       -2 0.28493693E-02 0.94856616E+02</pdfrwt>
<totfact> 0.11696150E+05</totfact>
</mgrwt>
</event>
<event>
 5    1  0.6125604E+000  0.9177503E+02  0.7546771E-02  0.1298609E+00
          2   -1    0    0  501    0  0.00000000000E+00  0.00000000000E+00  0.37336008405E+02  0.37336008405E+02  0.00000000000E+00 0. -1.
         -2   -1    0    0    0  501 -0.00000000000E+00 -0.00000000000E+00 -0.56397672734E+02  0.56397672734E+02  0.00000000000E+00 0.  1.
         23    2    1    2    0    0  0.00000000000E+00  0.00000000000E+00 -0.19061664329E+02  0.93733681139E+02  0.91775028918E+02 0.  0.
        -11    1    3    3    0    0 -0.15444718554E+02  0.28569875008E+02  0.23578401666E+02  0.40133752806E+02  0.00000000000E+00 0. -1.
         11    1    3    3    0    0  0.15444718554E+02 -0.28569875008E+02 -0.42640065995E+02  0.53599928333E+02  0.00000000000E+00 0.  1.
<mgrwt>
<rscale>  0 0.91775029E+02</rscale>
<asrwt>0</asrwt>
<pdfrwt beam="1">  1        2 0.57440013E-02 0.91775029E+02</pdfrwt>
<pdfrwt beam="2">  1       -2 0.86765651E-02 0.91775029E+02</pdfrwt>
<totfact> 0.91929707E+04</totfact>
</mgrwt>
</event>
<event>
 5    1  0.6125604E+000  0.9217858E+02  0.7546771E-02  0.1297660E+00
         -1   -1    0    0    0  501 -0.00000000000E+00  0.00000000000E+00  0.10830441021E+03  0.10830441021E+03  0.00000000000E+00 0.  1.
          1   -1    0    0  501    0  0.00000000000E+00 -0.00000000000E+00 -0.19613444412E+02  0.19613444412E+02  0.00000000000E+00 0. -1.
         23    2    1    2    0    0  0.00000000000E+00  0.00000000000E+00  0.88690965796E+02  0.12791785462E+03  0.92178577320E+02 0.  0.
        -11    1    3    3    0    0 -0.22319443730E+02  0.97394334052E+01  0.98647794458E+02  0.10160906201E+03  0.00000000000E+00 0.  1.
         11    1    3    3    0    0  0.22319443730E+02 -0.97394334052E+01 -0.99568286624E+01  0.26308792608E+02  0.00000000000E+00 0. -1.
<mgrwt>
<rscale>  0 0.92178577E+02</rscale>
<asrwt>0</asrwt>
<pdfrwt beam="2">  1        1 0.30174531E-02 0.92178577E+02</pdfrwt>
<pdfrwt beam="1">  1       -1 0.16662216E-01 0.92178577E+02</pdfrwt>
<totfact> 0.77918389E+04</totfact>
</mgrwt>
</event>
<event>
 5    1  0.6125604E+000  0.9109962E+02  0.7546771E-02  0.1300210E+00
          1   -1    0    0  501    0  0.00000000000E+00  0.00000000000E+00  0.36310763509E+03  0.36310763509E+03  0.00000000000E+00 0. -1.
         -1   -1    0    0    0  501 -0.00000000000E+00 -0.00000000000E+00 -0.57139679802E+01  0.57139679802E+01  0.00000000000E+00 0.  1.
         23    2    1    2    0    0  0.00000000000E+00  0.00000000000E+00  0.35739366711E+03  0.36882160307E+03  0.91099624593E+02 0.  0.
        -11    1    3    3    0    0 -0.45475771658E+02  0.59658511411E+00  0.18892588281E+03  0.19432290374E+03  0.00000000000E+00 0. -1.
         11    1    3    3    0    0  0.45475771658E+02 -0.59658511411E+00  0.16846778430E+03  0.17449869933E+03  0.00000000000E+00 0.  1.
<mgrwt>
<rscale>  0 0.91099625E+02</rscale>
<asrwt>0</asrwt>
<pdfrwt beam="1">  1        1 0.55862695E-01 0.91099625E+02</pdfrwt>
<pdfrwt beam="2">  1       -1 0.87907228E-03 0.91099625E+02</pdfrwt>
<totfact> 0.13299077E+05</totfact>
</mgrwt>
</event>
<event>
 5    1  0.6125604E+000  0.9385963E+02  0.7546771E-02  0.1293765E+00
         -2   -1    0    0    0  501 -0.00000000000E+00  0.00000000000E+00  0.18458752473E+02  0.18458752473E+02  0.00000000000E+00 0.  1.
          2   -1    0    0  501    0  0.00000000000E+00 -0.00000000000E+00 -0.11931507339E+03  0.11931507339E+03  0.00000000000E+00 0. -1.
         23    2    1    2    0    0  0.00000000000E+00  0.00000000000E+00 -0.10085632092E+03  0.13777382586E+03  0.93859627231E+02 0.  0.
        -11    1    3    3    0    0  0.30188802524E+02  0.29160380866E+02 -0.19612803577E+02  0.46328756450E+02  0.00000000000E+00 0.  1.
         11    1    3    3    0    0 -0.30188802524E+02 -0.29160380866E+02 -0.81243517338E+02  0.91445069411E+02  0.00000000000E+00 0. -1.
<mgrwt>
<rscale>  0 0.93859627E+02</rscale>
<asrwt>0</asrwt>
<pdfrwt beam="2">  1        2 0.18356165E-01 0.93859627E+02</pdfrwt>
<pdfrwt beam="1">  1       -2 0.28398081E-02 0.93859627E+02</pdfrwt>
<totfact> 0.11971718E+05</totfact>
</mgrwt>
</event>
<event>
 5    1  0.6125604E+000  0.8779081E+02  0.7546771E-02  0.1308291E+00
         -1   -1    0    0    0  501 -0.00000000000E+00  0.00000000000E+00  0.11877657830E+02  0.11877657830E+02  0.00000000000E+00 0.  1.
          1   -1    0    0  501    0  0.00000000000E+00 -0.00000000000E+00 -0.16222109267E+03  0.16222109267E+03  0.00000000000E+00 0. -1.
         23    2    1    2    0    0  0.00000000000E+00  0.00000000000E+00 -0.15034343484E+03  0.17409875050E+03  0.87790811172E+02 0.  0.
        -11    1    3    3    0    0  0.30284068677E+02  0.13328716015E+02 -0.13237426094E+03  0.13644678247E+03  0.00000000000E+00 0. -1.
         11    1    3    3    0    0 -0.30284068677E+02 -0.13328716015E+02 -0.17969173905E+02  0.37651968037E+02  0.00000000000E+00 0.  1.
<mgrwt>
<rscale>  0 0.87790811E+02</rscale>
<asrwt>0</asrwt>
<pdfrwt beam="2">  1        1 0.24957091E-01 0.87790811E+02</pdfrwt>
<pdfrwt beam="1">  1       -1 0.18273320E-02 0.87790811E+02</pdfrwt>
<totfact> 0.12594080E+05</totfact>
</mgrwt>
</event>
<event>
 5    1  0.6125604E+000  0.8720763E+02  0.7546771E-02  0.1309758E+00
          2   -1    0    0  501    0  0.00000000000E+00  0.00000000000E+00  0.42925497080E+03  0.42925497080E+03  0.00000000000E+00 0.  1.
         -2   -1    0    0    0  501 -0.00000000000E+00 -0.00000000000E+00 -0.44292851970E+01  0.44292851970E+01  0.00000000000E+00 0. -1.
         23    2    1    2    0    0  0.00000000000E+00  0.00000000000E+00  0.42482568560E+03  0.43368425600E+03  0.87207630123E+02 0.  0.
        -11    1    3    3    0    0 -0.36460025804E+02  0.23732819487E+02  0.22709163105E+03  0.23122108272E+03  0.00000000000E+00 0.  1.
         11    1    3    3    0    0  0.36460025804E+02 -0.23732819487E+02  0.19773405455E+03  0.20246317328E+03  0.00000000000E+00 0. -1.
<mgrwt>
<rscale>  0 0.87207630E+02</rscale>
<asrwt>0</asrwt>
<pdfrwt beam="1">  1        2 0.66039194E-01 0.87207630E+02</pdfrwt>
<pdfrwt beam="2">  1       -2 0.68142883E-03 0.87207630E+02</pdfrwt>
<totfact> 0.23023821E+05</totfact>
</mgrwt>
</event>
<event>
 5    1  0.6125604E+000  0.8818876E+02  0.7546771E-02  0.1307298E+00
         -2   -1    0    0    0  501 -0.00000000000E+00  0.00000000000E+00  0.49211473634E+02  0.49211473634E+02  0.00000000000E+00 0.  1.
          2   -1    0    0  501    0  0.00000000000E+00 -0.00000000000E+00 -0.39509369644E+02  0.39509369644E+02  0.00000000000E+00 0. -1.
         23    2    1    2    0    0  0.00000000000E+00  0.00000000000E+00  0.97021039898E+01  0.88720843278E+02  0.88188758979E+02 0.  0.
        -11    1    3    3    0    0 -0.55797300191E+01 -0.24760583553E+02 -0.31423317854E+02  0.40393623135E+02  0.00000000000E+00 0. -1.
         11    1    3    3    0    0  0.55797300191E+01  0.24760583553E+02  0.41125421844E+02  0.48327220144E+02  0.00000000000E+00 0.  1.
<mgrwt>
<rscale>  0 0.88188759E+02</rscale>
<asrwt>0</asrwt>
<pdfrwt beam="2">  1        2 0.60783646E-02 0.88188759E+02</pdfrwt>
<pdfrwt beam="1">  1       -2 0.75709959E-02 0.88188759E+02</pdfrwt>
<totfact> 0.10468396E+05</totfact>
</mgrwt>
</event>
<event>
 5    1  0.6125604E+000  0.9088420E+02  0.7546771E-02  0.1300724E+00
          1   -1    0    0  501    0  0.00000000000E+00  0.00000000000E+00  0.49309851700E+02  0.49309851700E+02  0.00000000000E+00 0. -1.
         -1   -1    0    0    0  501 -0.00000000000E+00 -0.00000000000E+00 -0.41877726897E+02  0.41877726897E+02  0.00000000000E+00 0.  1.
         23    2    1    2    0    0  0.00000000000E+00  0.00000000000E+00  0.74321248027E+01  0.91187578597E+02  0.90884201110E+02 0.  0.
        -11    1    3    3    0    0 -0.34989693812E+02 -0.24405904855E+02  0.19422634461E+02  0.46873932993E+02  0.00000000000E+00 0. -1.
         11    1    3    3    0    0  0.34989693812E+02  0.24405904855E+02 -0.11990509659E+02  0.44313645604E+02  0.00000000000E+00 0.  1.
<mgrwt>
<rscale>  0 0.90884201E+02</rscale>
<asrwt>0</asrwt>
<pdfrwt beam="1">  1        1 0.75861310E-02 0.90884201E+02</pdfrwt>
<pdfrwt beam="2">  1       -1 0.64427272E-02 0.90884201E+02</pdfrwt>
<totfact> 0.94413387E+04</totfact>
</mgrwt>
</event>
<event>
 5    1  0.6125604E+000  0.9051712E+02  0.7546771E-02  0.1301604E+00
         -4   -1    0    0    0  501 -0.00000000000E+00  0.00000000000E+00  0.67109026946E+02  0.67109026946E+02  0.00000000000E+00 0.  1.
          4   -1    0    0  501    0  0.00000000000E+00 -0.00000000000E+00 -0.30522527575E+02  0.30522527575E+02  0.00000000000E+00 0. -1.
         23    2    1    2    0    0  0.00000000000E+00  0.00000000000E+00  0.36586499371E+02  0.97631554522E+02  0.90517117177E+02 0.  0.
        -11    1    3    3    0    0 -0.14139037798E+02 -0.41224342952E+02  0.31458253034E+02  0.53749237442E+02  0.00000000000E+00 0.  1.
         11    1    3    3    0    0  0.14139037798E+02  0.41224342952E+02  0.51282463376E+01  0.43882317079E+02  0.00000000000E+00 0. -1.
<mgrwt>
<rscale>  0 0.90517117E+02</rscale>
<asrwt>0</asrwt>
<pdfrwt beam="2">  1        4 0.46957735E-02 0.90517117E+02</pdfrwt>
<pdfrwt beam="1">  1       -4 0.10324466E-01 0.90517117E+02</pdfrwt>
<totfact> 0.27133820E+04</totfact>
</mgrwt>
</event>
<event>
 5    1  0.6125604E+000  0.9549973E+02  0.7546771E-02  0.1290055E+00
          1   -1    0    0  501    0  0.00000000000E+00  0.00000000000E+00  0.62234452650E+02  0.62234452650E+02  0.00000000000E+00 0. -1.
         -1   -1    0    0    0  501 -0.00000000000E+00 -0.00000000000E+00 -0.36636450817E+02  0.36636450817E+02  0.00000000000E+00 0.  1.
         23    2    1    2    0    0  0.00000000000E+00  0.00000000000E+00  0.25598001833E+02  0.98870903466E+02  0.95499726986E+02 0.  0.
        -11    1    3    3    0    0  0.95303060842E+01 -0.31970010187E+02  0.48168431536E+02  0.58592713557E+02  0.00000000000E+00 0. -1.
         11    1    3    3    0    0 -0.95303060842E+01  0.31970010187E+02 -0.22570429703E+02  0.40278189909E+02  0.00000000000E+00 0.  1.
<mgrwt>
<rscale>  0 0.95499727E+02</rscale>
<asrwt>0</asrwt>
<pdfrwt beam="1">  1        1 0.95745312E-02 0.95499727E+02</pdfrwt>
<pdfrwt beam="2">  1       -1 0.56363771E-02 0.95499727E+02</pdfrwt>
<totfact> 0.85190596E+04</totfact>
</mgrwt>
</event>
<event>
 5    1  0.6125604E+000  0.9135734E+02  0.7546771E-02  0.1299598E+00
         -3   -1    0    0    0  501 -0.00000000000E+00  0.00000000000E+00  0.33372023688E+03  0.33372023688E+03  0.00000000000E+00 0.  1.
          3   -1    0    0  501    0  0.00000000000E+00 -0.00000000000E+00 -0.62523655627E+01  0.62523655627E+01  0.00000000000E+00 0. -1.
         23    2    1    2    0    0  0.00000000000E+00  0.00000000000E+00  0.32746787131E+03  0.33997260244E+03  0.91357340518E+02 0.  0.
        -11    1    3    3    0    0 -0.37609500144E+02  0.24852427750E+02  0.13628075237E+03  0.14354288952E+03  0.00000000000E+00 0. -1.
         11    1    3    3    0    0  0.37609500144E+02 -0.24852427750E+02  0.19118711894E+03  0.19642971292E+03  0.00000000000E+00 0.  1.
<mgrwt>
<rscale>  0 0.91357341E+02</rscale>
<asrwt>0</asrwt>
<pdfrwt beam="2">  1        3 0.96190265E-03 0.91357341E+02</pdfrwt>
<pdfrwt beam="1">  1       -3 0.51341561E-01 0.91357341E+02</pdfrwt>
<totfact> 0.22432968E+04</totfact>
</mgrwt>
</event>
<event>
 5    1  0.6125604E+000  0.9068273E+02  0.7546771E-02  0.1301207E+00
         -2   -1    0    0    0  501 -0.00000000000E+00  0.00000000000E+00  0.61881950558E+01  0.61881950558E+01  0.00000000000E+00 0.  1.
          2   -1    0    0  501    0  0.00000000000E+00 -0.00000000000E+00 -0.33221957033E+03  0.33221957033E+03  0.00000000000E+00 0. -1.
         23    2    1    2    0    0  0.00000000000E+00  0.00000000000E+00 -0.32603137527E+03  0.33840776538E+03  0.90682732701E+02 0.  0.
        -11    1    3    3    0    0 -0.37253017341E+02 -0.20342412897E+02 -0.22251834039E+03  0.22653037958E+03  0.00000000000E+00 0. -1.
         11    1    3    3    0    0  0.37253017341E+02  0.20342412897E+02 -0.10351303488E+03  0.11187738580E+03  0.00000000000E+00 0.  1.
<mgrwt>
<rscale>  0 0.90682733E+02</rscale>
<asrwt>0</asrwt>
<pdfrwt beam="2">  1        2 0.51110716E-01 0.90682733E+02</pdfrwt>
<pdfrwt beam="1">  1       -2 0.95202976E-03 0.90682733E+02</pdfrwt>
<totfact> 0.18930584E+05</totfact>
</mgrwt>
</event>
<event>
 5    1  0.6125604E+000  0.8984188E+02  0.7546771E-02  0.1303235E+00
          2   -1    0    0  501    0  0.00000000000E+00  0.00000000000E+00  0.14527605916E+02  0.14527605916E+02  0.00000000000E+00 0. -1.
         -2   -1    0    0    0  501 -0.00000000000E+00 -0.00000000000E+00 -0.13890043132E+03  0.13890043132E+03  0.00000000000E+00 0.  1.
         23    2    1    2    0    0  0.00000000000E+00  0.00000000000E+00 -0.12437282540E+03  0.15342803724E+03  0.89841877269E+02 0.  0.
        -11    1    3    3    0    0  0.35214133121E+01 -0.41861704120E+02 -0.35018155653E+02  0.54690710810E+02  0.00000000000E+00 0. -1.
         11    1    3    3    0    0 -0.35214133121E+01  0.41861704120E+02 -0.89354669752E+02  0.98737326427E+02  0.00000000000E+00 0.  1.
<mgrwt>
<rscale>  0 0.89841877E+02</rscale>
<asrwt>0</asrwt>
<pdfrwt beam="1">  1        2 0.22350165E-02 0.89841877E+02</pdfrwt>
<pdfrwt beam="2">  1       -2 0.21369295E-01 0.89841877E+02</pdfrwt>
<totfact> 0.74519182E+04</totfact>
</mgrwt>
</event>
<event>
 5    1  0.6125604E+000  0.9235282E+02  0.7546771E-02  0.1297252E+00
          1   -1    0    0  501    0  0.00000000000E+00  0.00000000000E+00  0.21449214183E+02  0.21449214183E+02  0.00000000000E+00 0. -1.
         -1   -1    0    0    0  501 -0.00000000000E+00 -0.00000000000E+00 -0.99409739233E+02  0.99409739233E+02  0.00000000000E+00 0.  1.
         23    2    1    2    0    0  0.00000000000E+00  0.00000000000E+00 -0.77960525049E+02  0.12085895342E+03  0.92352818879E+02 0.  0.
        -11    1    3    3    0    0  0.21487348747E+02 -0.40082827814E+02 -0.49443168236E+02  0.67178613613E+02  0.00000000000E+00 0.  1.
         11    1    3    3    0    0 -0.21487348747E+02  0.40082827814E+02 -0.28517356813E+02  0.53680339803E+02  0.00000000000E+00 0. -1.
<mgrwt>
<rscale>  0 0.92352819E+02</rscale>
<asrwt>0</asrwt>
<pdfrwt beam="1">  1        1 0.32998791E-02 0.92352819E+02</pdfrwt>
<pdfrwt beam="2">  1       -1 0.15293806E-01 0.92352819E+02</pdfrwt>
<totfact> 0.78812890E+04</totfact>
</mgrwt>
</event>
<event>
 5    1  0.6125604E+000  0.9735575E+02  0.7546771E-02  0.1285957E+00
          1   -1    0    0  501    0  0.00000000000E+00  0.00000000000E+00  0.85322326211E+01  0.85322326211E+01  0.00000000000E+00 0. -1.
         -1   -1    0    0    0  501 -0.00000000000E+00 -0.00000000000E+00 -0.27771579279E+03  0.27771579279E+03  0.00000000000E+00 0.  1.
         23    2    1    2    0    0  0.00000000000E+00  0.00000000000E+00 -0.26918356017E+03  0.28624802541E+03  0.97355754768E+02 0.  0.
        -11    1    3    3    0    0  0.15048625989E+02 -0.41536350038E+02 -0.19469092960E+03  0.19964039568E+03  0.00000000000E+00 0.  1.
         11    1    3    3    0    0 -0.15048625989E+02  0.41536350038E+02 -0.74492630569E+02  0.86607629732E+02  0.00000000000E+00 0. -1.
<mgrwt>
<rscale>  0 0.97355755E+02</rscale>
<asrwt>0</asrwt>
<pdfrwt beam="1">  1        1 0.13126515E-02 0.97355755E+02</pdfrwt>
<pdfrwt beam="2">  1       -1 0.42725496E-01 0.97355755E+02</pdfrwt>
<totfact> 0.52545624E+04</totfact>
</mgrwt>
</event>
<event>
 5    1  0.6125604E+000  0.8935856E+02  0.7546771E-02  0.1304413E+00
         -2   -1    0    0    0  501 -0.00000000000E+00  0.00000000000E+00  0.12549083316E+02  0.12549083316E+02  0.00000000000E+00 0. -1.
          2   -1    0    0  501    0  0.00000000000E+00 -0.00000000000E+00 -0.15907441230E+03  0.15907441230E+03  0.00000000000E+00 0.  1.
         23    2    1    2    0    0  0.00000000000E+00  0.00000000000E+00 -0.14652532898E+03  0.17162349562E+03  0.89358559822E+02 0.  0.
        -11    1    3    3    0    0  0.32517936960E+02 -0.25414045128E+02 -0.10613540827E+03  0.11387719176E+03  0.00000000000E+00 0.  1.
         11    1    3    3    0    0 -0.32517936960E+02  0.25414045128E+02 -0.40389920712E+02  0.57746303856E+02  0.00000000000E+00 0. -1.
<mgrwt>
<rscale>  0 0.89358560E+02</rscale>
<asrwt>0</asrwt>
<pdfrwt beam="2">  1        2 0.24472985E-01 0.89358560E+02</pdfrwt>
<pdfrwt beam="1">  1       -2 0.19306283E-02 0.89358560E+02</pdfrwt>
<totfact> 0.15063543E+05</totfact>
</mgrwt>
</event>
<event>
 5    1  0.6125604E+000  0.9083952E+02  0.7546771E-02  0.1300831E+00
         -2   -1    0    0    0  501 -0.00000000000E+00  0.00000000000E+00  0.82404594796E+01  0.82404594796E+01  0.00000000000E+00 0.  1.
          2   -1    0    0  501    0  0.00000000000E+00 -0.00000000000E+00 -0.25034463425E+03  0.25034463425E+03  0.00000000000E+00 0. -1.
         23    2    1    2    0    0  0.00000000000E+00  0.00000000000E+00 -0.24210417477E+03  0.25858509373E+03  0.90839524756E+02 0.  0.
        -11    1    3    3    0    0  0.36778352889E+02  0.19264650571E+02 -0.68626383491E+02  0.80208194805E+02  0.00000000000E+00 0. -1.
         11    1    3    3    0    0 -0.36778352889E+02 -0.19264650571E+02 -0.17347779128E+03  0.17837689892E+03  0.00000000000E+00 0.  1.
<mgrwt>
<rscale>  0 0.90839525E+02</rscale>
<asrwt>0</asrwt>
<pdfrwt beam="2">  1        2 0.38514559E-01 0.90839525E+02</pdfrwt>
<pdfrwt beam="1">  1       -2 0.12677630E-02 0.90839525E+02</pdfrwt>
<totfact> 0.16962077E+05</totfact>
</mgrwt>
</event>
<event>
 5    1  0.6125604E+000  0.9159786E+02  0.7546771E-02  0.1299028E+00
         -3   -1    0    0    0  501 -0.00000000000E+00  0.00000000000E+00  0.10616955173E+02  0.10616955173E+02  0.00000000000E+00 0.  1.
          3   -1    0    0  501    0  0.00000000000E+00 -0.00000000000E+00 -0.19756529342E+03  0.19756529342E+03  0.00000000000E+00 0. -1.
         23    2    1    2    0    0  0.00000000000E+00  0.00000000000E+00 -0.18694833824E+03  0.20818224859E+03  0.91597857266E+02 0.  0.
        -11    1    3    3    0    0  0.25215503444E+02 -0.36133892587E+02 -0.65081446255E+02  0.78594366554E+02  0.00000000000E+00 0.  1.
         11    1    3    3    0    0 -0.25215503444E+02  0.36133892587E+02 -0.12186689199E+03  0.12958788204E+03  0.00000000000E+00 0. -1.
<mgrwt>
<rscale>  0 0.91597857E+02</rscale>
<asrwt>0</asrwt>
<pdfrwt beam="2">  1        3 0.30394660E-01 0.91597857E+02</pdfrwt>
<pdfrwt beam="1">  1       -3 0.16333778E-02 0.91597857E+02</pdfrwt>
<totfact> 0.27733702E+04</totfact>
</mgrwt>
</event>
<event>
 5    1  0.6125604E+000  0.9279210E+02  0.7546771E-02  0.1296228E+00
          4   -1    0    0  501    0  0.00000000000E+00  0.00000000000E+00  0.97039412356E+02  0.97039412356E+02  0.00000000000E+00 0. -1.
         -4   -1    0    0    0  501 -0.00000000000E+00 -0.00000000000E+00 -0.22182671071E+02  0.22182671071E+02  0.00000000000E+00 0.  1.
         23    2    1    2    0    0  0.00000000000E+00  0.00000000000E+00  0.74856741285E+02  0.11922208343E+03  0.92792098052E+02 0.  0.
        -11    1    3    3    0    0 -0.43635808477E+02  0.13606945283E+01  0.17249660667E+02  0.46941304458E+02  0.00000000000E+00 0.  1.
         11    1    3    3    0    0  0.43635808477E+02 -0.13606945283E+01  0.57607080618E+02  0.72280778969E+02  0.00000000000E+00 0. -1.
<mgrwt>
<rscale>  0 0.92792098E+02</rscale>
<asrwt>0</asrwt>
<pdfrwt beam="1">  1        4 0.14929140E-01 0.92792098E+02</pdfrwt>
<pdfrwt beam="2">  1       -4 0.34127187E-02 0.92792098E+02</pdfrwt>
<totfact> 0.24140155E+04</totfact>
</mgrwt>
</event>
<event>
 5    1  0.6125604E+000  0.1048297E+03  0.7546771E-02  0.1270455E+00
         -2   -1    0    0    0  501 -0.00000000000E+00  0.00000000000E+00  0.14225329659E+03  0.14225329659E+03  0.00000000000E+00 0. -1.
          2   -1    0    0  501    0  0.00000000000E+00 -0.00000000000E+00 -0.19312859974E+02  0.19312859974E+02  0.00000000000E+00 0.  1.
         23    2    1    2    0    0  0.00000000000E+00  0.00000000000E+00  0.12294043662E+03  0.16156615657E+03  0.10482972857E+03 0.  0.
        -11    1    3    3    0    0  0.57249696457E+01 -0.48889986005E+02  0.33714821901E+02  0.59663181484E+02  0.00000000000E+00 0.  1.
         11    1    3    3    0    0 -0.57249696457E+01  0.48889986005E+02  0.89225614719E+02  0.10190297508E+03  0.00000000000E+00 0. -1.
<mgrwt>
<rscale>  0 0.10482973E+03</rscale>
<asrwt>0</asrwt>
<pdfrwt beam="2">  1        2 0.29712093E-02 0.10482973E+03</pdfrwt>
<pdfrwt beam="1">  1       -2 0.21885122E-01 0.10482973E+03</pdfrwt>
<totfact> 0.50036522E+04</totfact>
</mgrwt>
</event>
<event>
 5    1  0.6125604E+000  0.9195194E+02  0.7546771E-02  0.1298192E+00
         -3   -1    0    0    0  501 -0.00000000000E+00  0.00000000000E+00  0.17214694586E+03  0.17214694586E+03  0.00000000000E+00 0.  1.
          3   -1    0    0  501    0  0.00000000000E+00 -0.00000000000E+00 -0.12278984558E+02  0.12278984558E+02  0.00000000000E+00 0. -1.
         23    2    1    2    0    0  0.00000000000E+00  0.00000000000E+00  0.15986796130E+03  0.18442593042E+03  0.91951937226E+02 0.  0.
        -11    1    3    3    0    0  0.45782486772E+02 -0.22249369199E+01  0.72757339643E+02  0.85991958411E+02  0.00000000000E+00 0.  1.
         11    1    3    3    0    0 -0.45782486772E+02  0.22249369199E+01  0.87110621658E+02  0.98433972006E+02  0.00000000000E+00 0. -1.
<mgrwt>
<rscale>  0 0.91951937E+02</rscale>
<asrwt>0</asrwt>
<pdfrwt beam="2">  1        3 0.18890747E-02 0.91951937E+02</pdfrwt>
<pdfrwt beam="1">  1       -3 0.26484144E-01 0.91951937E+02</pdfrwt>
<totfact> 0.28659505E+04</totfact>
</mgrwt>
</event>
<event>
 5    1  0.6125604E+000  0.8424013E+02  0.7546771E-02  0.1317432E+00
          2   -1    0    0  501    0  0.00000000000E+00  0.00000000000E+00  0.20202658707E+03  0.20202658707E+03  0.00000000000E+00 0.  1.
         -2   -1    0    0    0  501 -0.00000000000E+00 -0.00000000000E+00 -0.87815167844E+01  0.87815167844E+01  0.00000000000E+00 0. -1.
         23    2    1    2    0    0  0.00000000000E+00  0.00000000000E+00  0.19324507029E+03  0.21080810385E+03  0.84240129754E+02 0.  0.
        -11    1    3    3    0    0  0.41773847180E+02  0.10476872240E+01  0.10985201994E+03  0.11753135003E+03  0.00000000000E+00 0. -1.
         11    1    3    3    0    0 -0.41773847180E+02 -0.10476872240E+01  0.83393050350E+02  0.93276753821E+02  0.00000000000E+00 0.  1.
<mgrwt>
<rscale>  0 0.84240130E+02</rscale>
<asrwt>0</asrwt>
<pdfrwt beam="1">  1        2 0.31081010E-01 0.84240130E+02</pdfrwt>
<pdfrwt beam="2">  1       -2 0.13510027E-02 0.84240130E+02</pdfrwt>
<totfact> 0.19188016E+05</totfact>
</mgrwt>
</event>
<event>
 5    1  0.6125604E+000  0.9127357E+02  0.7546771E-02  0.1299797E+00
          2   -1    0    0  501    0  0.00000000000E+00  0.00000000000E+00  0.40361277350E+02  0.40361277350E+02  0.00000000000E+00 0. -1.
         -2   -1    0    0    0  501 -0.00000000000E+00 -0.00000000000E+00 -0.51601840996E+02  0.51601840996E+02  0.00000000000E+00 0.  1.
         23    2    1    2    0    0  0.00000000000E+00  0.00000000000E+00 -0.11240563646E+02  0.91963118345E+02  0.91273571557E+02 0.  0.
        -11    1    3    3    0    0  0.21889166121E+02 -0.27113959503E+02  0.24071209262E+02  0.42352396729E+02  0.00000000000E+00 0. -1.
         11    1    3    3    0    0 -0.21889166121E+02  0.27113959503E+02 -0.35311772908E+02  0.49610721616E+02  0.00000000000E+00 0.  1.
<mgrwt>
<rscale>  0 0.91273572E+02</rscale>
<asrwt>0</asrwt>
<pdfrwt beam="1">  1        2 0.62094273E-02 0.91273572E+02</pdfrwt>
<pdfrwt beam="2">  1       -2 0.79387448E-02 0.91273572E+02</pdfrwt>
<totfact> 0.95317328E+04</totfact>
</mgrwt>
</event>
<event>
 5    1  0.6125604E+000  0.8881553E+02  0.7546771E-02  0.1305746E+00
          1   -1    0    0  501    0  0.00000000000E+00  0.00000000000E+00  0.41443798478E+02  0.41443798478E+02  0.00000000000E+00 0. -1.
         -1   -1    0    0    0  501 -0.00000000000E+00 -0.00000000000E+00 -0.47583707356E+02  0.47583707356E+02  0.00000000000E+00 0.  1.
         23    2    1    2    0    0  0.00000000000E+00  0.00000000000E+00 -0.61399088777E+01  0.89027505833E+02  0.88815529689E+02 0.  0.
        -11    1    3    3    0    0  0.34802794599E+02  0.18954814377E+02  0.17016086249E+02  0.43128490481E+02  0.00000000000E+00 0. -1.
         11    1    3    3    0    0 -0.34802794599E+02 -0.18954814377E+02 -0.23155995127E+02  0.45899015352E+02  0.00000000000E+00 0.  1.
<mgrwt>
<rscale>  0 0.88815530E+02</rscale>
<asrwt>0</asrwt>
<pdfrwt beam="1">  1        1 0.63759690E-02 0.88815530E+02</pdfrwt>
<pdfrwt beam="2">  1       -1 0.73205703E-02 0.88815530E+02</pdfrwt>
<totfact> 0.98130405E+04</totfact>
</mgrwt>
</event>
<event>
 5    1  0.6125604E+000  0.9124743E+02  0.7546771E-02  0.1299859E+00
         -1   -1    0    0    0  501 -0.00000000000E+00  0.00000000000E+00  0.50757356032E+02  0.50757356032E+02  0.00000000000E+00 0.  1.
          1   -1    0    0  501    0  0.00000000000E+00 -0.00000000000E+00 -0.41009293942E+02  0.41009293942E+02  0.00000000000E+00 0. -1.
         23    2    1    2    0    0  0.00000000000E+00  0.00000000000E+00  0.97480620901E+01  0.91766649974E+02  0.91247429185E+02 0.  0.
        -11    1    3    3    0    0  0.44830348137E+02 -0.26667856884E+01 -0.32123360516E+01  0.45024337451E+02  0.00000000000E+00 0. -1.
         11    1    3    3    0    0 -0.44830348137E+02  0.26667856884E+01  0.12960398142E+02  0.46742312523E+02  0.00000000000E+00 0.  1.
<mgrwt>
<rscale>  0 0.91247429E+02</rscale>
<asrwt>0</asrwt>
<pdfrwt beam="2">  1        1 0.63091221E-02 0.91247429E+02</pdfrwt>
<pdfrwt beam="1">  1       -1 0.78088240E-02 0.91247429E+02</pdfrwt>
<totfact> 0.90808513E+04</totfact>
</mgrwt>
</event>
<event>
 5    1  0.6125604E+000  0.9498709E+02  0.7546771E-02  0.1291205E+00
         -2   -1    0    0    0  501 -0.00000000000E+00  0.00000000000E+00  0.18774678296E+03  0.18774678296E+03  0.00000000000E+00 0.  1.
          2   -1    0    0  501    0  0.00000000000E+00 -0.00000000000E+00 -0.12014250106E+02  0.12014250106E+02  0.00000000000E+00 0. -1.
         23    2    1    2    0    0  0.00000000000E+00  0.00000000000E+00  0.17573253285E+03  0.19976103306E+03  0.94987089797E+02 0.  0.
        -11    1    3    3    0    0  0.48894269108E+01 -0.37742853684E+02  0.14761638007E+03  0.15244351467E+03  0.00000000000E+00 0.  1.
         11    1    3    3    0    0 -0.48894269108E+01  0.37742853684E+02  0.28116152782E+02  0.47317518395E+02  0.00000000000E+00 0. -1.
<mgrwt>
<rscale>  0 0.94987090E+02</rscale>
<asrwt>0</asrwt>
<pdfrwt beam="2">  1        2 0.18483463E-02 0.94987090E+02</pdfrwt>
<pdfrwt beam="1">  1       -2 0.28884118E-01 0.94987090E+02</pdfrwt>
<totfact> 0.57663299E+04</totfact>
</mgrwt>
</event>
<event>
 5    1  0.6125604E+000  0.8721411E+02  0.7546771E-02  0.1309742E+00
          3   -1    0    0  501    0  0.00000000000E+00  0.00000000000E+00  0.59206001351E+02  0.59206001351E+02  0.00000000000E+00 0. -1.
         -3   -1    0    0    0  501 -0.00000000000E+00 -0.00000000000E+00 -0.32117946710E+02  0.32117946710E+02  0.00000000000E+00 0.  1.
         23    2    1    2    0    0  0.00000000000E+00  0.00000000000E+00  0.27088054640E+02  0.91323948061E+02  0.87214108866E+02 0.  0.
        -11    1    3    3    0    0 -0.37707091014E+00  0.17335445456E+02  0.55440948950E+02  0.58089230259E+02  0.00000000000E+00 0. -1.
         11    1    3    3    0    0  0.37707091014E+00 -0.17335445456E+02 -0.28352894310E+02  0.33234717802E+02  0.00000000000E+00 0.  1.
<mgrwt>
<rscale>  0 0.87214109E+02</rscale>
<asrwt>0</asrwt>
<pdfrwt beam="1">  1        3 0.91086156E-02 0.87214109E+02</pdfrwt>
<pdfrwt beam="2">  1       -3 0.49412226E-02 0.87214109E+02</pdfrwt>
<totfact> 0.39853808E+04</totfact>
</mgrwt>
</event>
<event>
 5    1  0.6125604E+000  0.9001226E+02  0.7546771E-02  0.1302822E+00
          2   -1    0    0  501    0  0.00000000000E+00  0.00000000000E+00  0.10496122622E+02  0.10496122622E+02  0.00000000000E+00 0. -1.
         -2   -1    0    0    0  501 -0.00000000000E+00 -0.00000000000E+00 -0.19298093910E+03  0.19298093910E+03  0.00000000000E+00 0.  1.
         23    2    1    2    0    0  0.00000000000E+00  0.00000000000E+00 -0.18248481648E+03  0.20347706172E+03  0.90012256956E+02 0.  0.
        -11    1    3    3    0    0  0.35462656714E+01 -0.40953731371E+02 -0.13266460493E+03  0.13888729789E+03  0.00000000000E+00 0.  1.
         11    1    3    3    0    0 -0.35462656714E+01  0.40953731371E+02 -0.49820211544E+02  0.64589763831E+02  0.00000000000E+00 0. -1.
<mgrwt>
<rscale>  0 0.90012257E+02</rscale>
<asrwt>0</asrwt>
<pdfrwt beam="1">  1        2 0.16147882E-02 0.90012257E+02</pdfrwt>
<pdfrwt beam="2">  1       -2 0.29689373E-01 0.90012257E+02</pdfrwt>
<totfact> 0.65387838E+04</totfact>
</mgrwt>
</event>
<event>
 5    1  0.6125604E+000  0.9166331E+02  0.7546771E-02  0.1298873E+00
          2   -1    0    0  501    0  0.00000000000E+00  0.00000000000E+00  0.13536659164E+02  0.13536659164E+02  0.00000000000E+00 0. -1.
         -2   -1    0    0    0  501 -0.00000000000E+00 -0.00000000000E+00 -0.15517420902E+03  0.15517420902E+03  0.00000000000E+00 0.  1.
         23    2    1    2    0    0  0.00000000000E+00  0.00000000000E+00 -0.14163754986E+03  0.16871086819E+03  0.91663305167E+02 0.  0.
        -11    1    3    3    0    0 -0.45563233066E+02  0.25099848881E+01 -0.62959790043E+02  0.77757593802E+02  0.00000000000E+00 0. -1.
         11    1    3    3    0    0  0.45563233066E+02 -0.25099848881E+01 -0.78677759818E+02  0.90953274386E+02  0.00000000000E+00 0.  1.
<mgrwt>
<rscale>  0 0.91663305E+02</rscale>
<asrwt>0</asrwt>
<pdfrwt beam="1">  1        2 0.20825630E-02 0.91663305E+02</pdfrwt>
<pdfrwt beam="2">  1       -2 0.23872955E-01 0.91663305E+02</pdfrwt>
<totfact> 0.68066124E+04</totfact>
</mgrwt>
</event>
<event>
 5    1  0.6125604E+000  0.8995713E+02  0.7546771E-02  0.1302956E+00
          1   -1    0    0  501    0  0.00000000000E+00  0.00000000000E+00  0.22275696340E+02  0.22275696340E+02  0.00000000000E+00 0. -1.
         -1   -1    0    0    0  501 -0.00000000000E+00 -0.00000000000E+00 -0.90819674137E+02  0.90819674137E+02  0.00000000000E+00 0.  1.
         23    2    1    2    0    0  0.00000000000E+00  0.00000000000E+00 -0.68543977797E+02  0.11309537048E+03  0.89957133853E+02 0.  0.
        -11    1    3    3    0    0  0.16295225904E+02  0.18620716361E+02  0.12949847201E+02  0.27927835713E+02  0.00000000000E+00 0. -1.
         11    1    3    3    0    0 -0.16295225904E+02 -0.18620716361E+02 -0.81493824997E+02  0.85167534764E+02  0.00000000000E+00 0.  1.
<mgrwt>
<rscale>  0 0.89957134E+02</rscale>
<asrwt>0</asrwt>
<pdfrwt beam="1">  1        1 0.34270302E-02 0.89957134E+02</pdfrwt>
<pdfrwt beam="2">  1       -1 0.13972258E-01 0.89957134E+02</pdfrwt>
<totfact> 0.85720707E+04</totfact>
</mgrwt>
</event>
<event>
 5    1  0.6125604E+000  0.8790281E+02  0.7546771E-02  0.1308011E+00
          3   -1    0    0  501    0  0.00000000000E+00  0.00000000000E+00  0.18307192674E+03  0.18307192674E+03  0.00000000000E+00 0. -1.
         -3   -1    0    0    0  501 -0.00000000000E+00 -0.00000000000E+00 -0.10551733500E+02  0.10551733500E+02  0.00000000000E+00 0.  1.
         23    2    1    2    0    0  0.00000000000E+00  0.00000000000E+00  0.17252019324E+03  0.19362366024E+03  0.87902814112E+02 0.  0.
        -11    1    3    3    0    0 -0.14139942478E+02  0.30443243616E+02  0.14875618160E+03  0.15249632986E+03  0.00000000000E+00 0. -1.
         11    1    3    3    0    0  0.14139942478E+02 -0.30443243616E+02  0.23764011636E+02  0.41127330380E+02  0.00000000000E+00 0.  1.
<mgrwt>
<rscale>  0 0.87902814E+02</rscale>
<asrwt>0</asrwt>
<pdfrwt beam="1">  1        3 0.28164909E-01 0.87902814E+02</pdfrwt>
<pdfrwt beam="2">  1       -3 0.16233438E-02 0.87902814E+02</pdfrwt>
<totfact> 0.31811412E+04</totfact>
</mgrwt>
</event>
<event>
 5    1  0.6125604E+000  0.9297303E+02  0.7546771E-02  0.1295808E+00
         -3   -1    0    0    0  501 -0.00000000000E+00  0.00000000000E+00  0.84513813409E+01  0.84513813409E+01  0.00000000000E+00 0.  1.
          3   -1    0    0  501    0  0.00000000000E+00 -0.00000000000E+00 -0.25569739311E+03  0.25569739311E+03  0.00000000000E+00 0. -1.
         23    2    1    2    0    0  0.00000000000E+00  0.00000000000E+00 -0.24724601177E+03  0.26414877445E+03  0.92973032156E+02 0.  0.
        -11    1    3    3    0    0  0.12583645621E+02 -0.44548969313E+02 -0.11155659110E+03  0.12078009696E+03  0.00000000000E+00 0.  1.
         11    1    3    3    0    0 -0.12583645621E+02  0.44548969313E+02 -0.13568942067E+03  0.14336867749E+03  0.00000000000E+00 0. -1.
<mgrwt>
<rscale>  0 0.92973032E+02</rscale>
<asrwt>0</asrwt>
<pdfrwt beam="2">  1        3 0.39338061E-01 0.92973032E+02</pdfrwt>
<pdfrwt beam="1">  1       -3 0.13002125E-02 0.92973032E+02</pdfrwt>
<totfact> 0.24182692E+04</totfact>
</mgrwt>
</event>
<event>
 5    1  0.6125604E+000  0.9061759E+02  0.7546771E-02  0.1301363E+00
         -2   -1    0    0    0  501 -0.00000000000E+00  0.00000000000E+00  0.30097106441E+03  0.30097106441E+03  0.00000000000E+00 0.  1.
          2   -1    0    0  501    0  0.00000000000E+00 -0.00000000000E+00 -0.68208772866E+01  0.68208772866E+01  0.00000000000E+00 0. -1.
         23    2    1    2    0    0  0.00000000000E+00  0.00000000000E+00  0.29415018713E+03  0.30779194170E+03  0.90617585427E+02 0.  0.
        -11    1    3    3    0    0  0.10247261995E+02 -0.39292239807E+02  0.21534598203E+03  0.21914100133E+03  0.00000000000E+00 0.  1.
         11    1    3    3    0    0 -0.10247261995E+02  0.39292239807E+02  0.78804205093E+02  0.88650940366E+02  0.00000000000E+00 0. -1.
<mgrwt>
<rscale>  0 0.90617585E+02</rscale>
<asrwt>0</asrwt>
<pdfrwt beam="2">  1        2 0.10493660E-02 0.90617585E+02</pdfrwt>
<pdfrwt beam="1">  1       -2 0.46303230E-01 0.90617585E+02</pdfrwt>
<totfact> 0.51721242E+04</totfact>
</mgrwt>
</event>
<event>
 5    1  0.6125604E+000  0.9203696E+02  0.7546771E-02  0.1297993E+00
         -2   -1    0    0    0  501 -0.00000000000E+00  0.00000000000E+00  0.25130579586E+02  0.25130579586E+02  0.00000000000E+00 0.  1.
          2   -1    0    0  501    0  0.00000000000E+00 -0.00000000000E+00 -0.84267869103E+02  0.84267869103E+02  0.00000000000E+00 0. -1.
         23    2    1    2    0    0  0.00000000000E+00  0.00000000000E+00 -0.59137289517E+02  0.10939844869E+03  0.92036957599E+02 0.  0.
        -11    1    3    3    0    0 -0.20672869242E+02  0.50709802416E+00 -0.78434104693E+02  0.81114323335E+02  0.00000000000E+00 0. -1.
         11    1    3    3    0    0  0.20672869242E+02 -0.50709802416E+00  0.19296815176E+02  0.28284125354E+02  0.00000000000E+00 0.  1.
<mgrwt>
<rscale>  0 0.92036958E+02</rscale>
<asrwt>0</asrwt>
<pdfrwt beam="2">  1        2 0.12964288E-01 0.92036958E+02</pdfrwt>
<pdfrwt beam="1">  1       -2 0.38662430E-02 0.92036958E+02</pdfrwt>
<totfact> 0.11358706E+05</totfact>
</mgrwt>
</event>
<event>
 5    1  0.6125604E+000  0.9153840E+02  0.7546771E-02  0.1299168E+00
         -2   -1    0    0    0  501 -0.00000000000E+00  0.00000000000E+00  0.15880502115E+02  0.15880502115E+02  0.00000000000E+00 0. -1.
          2   -1    0    0  501    0  0.00000000000E+00 -0.00000000000E+00 -0.13191142708E+03  0.13191142708E+03  0.00000000000E+00 0.  1.
         23    2    1    2    0    0  0.00000000000E+00  0.00000000000E+00 -0.11603092496E+03  0.14779192919E+03  0.91538400612E+02 0.  0.
        -11    1    3    3    0    0 -0.90208214226E+00 -0.41105542713E+02 -0.90480874143E+02  0.99384445361E+02  0.00000000000E+00 0.  1.
         11    1    3    3    0    0  0.90208214226E+00  0.41105542713E+02 -0.25550050818E+02  0.48407483830E+02  0.00000000000E+00 0. -1.
<mgrwt>
<rscale>  0 0.91538401E+02</rscale>
<asrwt>0</asrwt>
<pdfrwt beam="2">  1        2 0.20294066E-01 0.91538401E+02</pdfrwt>
<pdfrwt beam="1">  1       -2 0.24431541E-02 0.91538401E+02</pdfrwt>
<totfact> 0.13248338E+05</totfact>
</mgrwt>
</event>
<event>
 5    1  0.6125604E+000  0.9164151E+02  0.7546771E-02  0.1298925E+00
         -1   -1    0    0    0  501 -0.00000000000E+00  0.00000000000E+00  0.35697496741E+02  0.35697496741E+02  0.00000000000E+00 0.  1.
          1   -1    0    0  501    0  0.00000000000E+00 -0.00000000000E+00 -0.58814809367E+02  0.58814809367E+02  0.00000000000E+00 0. -1.
         23    2    1    2    0    0  0.00000000000E+00  0.00000000000E+00 -0.23117312626E+02  0.94512306108E+02  0.91641507314E+02 0.  0.
        -11    1    3    3    0    0 -0.30236492218E+02  0.19633356508E+02  0.17608510972E+02  0.40121986592E+02  0.00000000000E+00 0.  1.
         11    1    3    3    0    0  0.30236492218E+02 -0.19633356508E+02 -0.40725823597E+02  0.54390319516E+02  0.00000000000E+00 0. -1.
<mgrwt>
<rscale>  0 0.91641507E+02</rscale>
<asrwt>0</asrwt>
<pdfrwt beam="2">  1        1 0.90484321E-02 0.91641507E+02</pdfrwt>
<pdfrwt beam="1">  1       -1 0.54919226E-02 0.91641507E+02</pdfrwt>
<totfact> 0.94732818E+04</totfact>
</mgrwt>
</event>
<event>
 5    1  0.6125604E+000  0.9176728E+02  0.7546771E-02  0.1298628E+00
         -3   -1    0    0    0  501 -0.00000000000E+00  0.00000000000E+00  0.67854927221E+02  0.67854927221E+02  0.00000000000E+00 0.  1.
          3   -1    0    0  501    0  0.00000000000E+00 -0.00000000000E+00 -0.31026607833E+02  0.31026607833E+02  0.00000000000E+00 0. -1.
         23    2    1    2    0    0  0.00000000000E+00  0.00000000000E+00  0.36828319387E+02  0.98881535054E+02  0.91767275571E+02 0.  0.
        -11    1    3    3    0    0  0.29205093979E+02  0.28153461111E+02 -0.46899800694E+01  0.40835655987E+02  0.00000000000E+00 0. -1.
         11    1    3    3    0    0 -0.29205093979E+02 -0.28153461111E+02  0.41518299457E+02  0.58045879067E+02  0.00000000000E+00 0.  1.
<mgrwt>
<rscale>  0 0.91767276E+02</rscale>
<asrwt>0</asrwt>
<pdfrwt beam="2">  1        3 0.47733243E-02 0.91767276E+02</pdfrwt>
<pdfrwt beam="1">  1       -3 0.10439220E-01 0.91767276E+02</pdfrwt>
<totfact> 0.34148755E+04</totfact>
</mgrwt>
</event>
<event>
 5    1  0.6125604E+000  0.9152413E+02  0.7546771E-02  0.1299202E+00
         -1   -1    0    0    0  501 -0.00000000000E+00  0.00000000000E+00  0.24355642273E+02  0.24355642273E+02  0.00000000000E+00 0.  1.
          1   -1    0    0  501    0  0.00000000000E+00 -0.00000000000E+00 -0.85982810074E+02  0.85982810074E+02  0.00000000000E+00 0. -1.
         23    2    1    2    0    0  0.00000000000E+00  0.00000000000E+00 -0.61627167801E+02  0.11033845235E+03  0.91524129360E+02 0.  0.
        -11    1    3    3    0    0  0.65664571510E+01  0.36820127340E+02  0.97605901765E+00  0.37413805313E+02  0.00000000000E+00 0.  1.
         11    1    3    3    0    0 -0.65664571510E+01 -0.36820127340E+02 -0.62603226819E+02  0.72924647034E+02  0.00000000000E+00 0. -1.
<mgrwt>
<rscale>  0 0.91524129E+02</rscale>
<asrwt>0</asrwt>
<pdfrwt beam="2">  1        1 0.13228124E-01 0.91524129E+02</pdfrwt>
<pdfrwt beam="1">  1       -1 0.37470219E-02 0.91524129E+02</pdfrwt>
<totfact> 0.10085017E+05</totfact>
</mgrwt>
</event>
<event>
 5    1  0.6125604E+000  0.9242532E+02  0.7546771E-02  0.1297082E+00
         -4   -1    0    0    0  501 -0.00000000000E+00  0.00000000000E+00  0.98442464819E+02  0.98442464819E+02  0.00000000000E+00 0. -1.
          4   -1    0    0  501    0  0.00000000000E+00 -0.00000000000E+00 -0.21693992726E+02  0.21693992726E+02  0.00000000000E+00 0.  1.
         23    2    1    2    0    0  0.00000000000E+00  0.00000000000E+00  0.76748472093E+02  0.12013645755E+03  0.92425323710E+02 0.  0.
        -11    1    3    3    0    0  0.16041191683E+02 -0.31103811263E+02 -0.85462092341E+00  0.35007103316E+02  0.00000000000E+00 0.  1.
         11    1    3    3    0    0 -0.16041191683E+02  0.31103811263E+02  0.77603093017E+02  0.85129354229E+02  0.00000000000E+00 0. -1.
<mgrwt>
<rscale>  0 0.92425324E+02</rscale>
<asrwt>0</asrwt>
<pdfrwt beam="2">  1        4 0.33375374E-02 0.92425324E+02</pdfrwt>
<pdfrwt beam="1">  1       -4 0.15144994E-01 0.92425324E+02</pdfrwt>
<totfact> 0.24350965E+04</totfact>
</mgrwt>
</event>
<event>
 5    1  0.6125604E+000  0.9183374E+02  0.7546771E-02  0.1298471E+00
          1   -1    0    0  501    0  0.00000000000E+00  0.00000000000E+00  0.38013989397E+02  0.38013989397E+02  0.00000000000E+00 0. -1.
         -1   -1    0    0    0  501 -0.00000000000E+00 -0.00000000000E+00 -0.55462707172E+02  0.55462707172E+02  0.00000000000E+00 0.  1.
         23    2    1    2    0    0  0.00000000000E+00  0.00000000000E+00 -0.17448717775E+02  0.93476696568E+02  0.91833735900E+02 0.  0.
        -11    1    3    3    0    0 -0.10471151528E+02  0.29779085181E+02 -0.42666391188E+02  0.53074097878E+02  0.00000000000E+00 0.  1.
         11    1    3    3    0    0  0.10471151528E+02 -0.29779085181E+02  0.25217673413E+02  0.40402598690E+02  0.00000000000E+00 0. -1.
<mgrwt>
<rscale>  0 0.91833736E+02</rscale>
<asrwt>0</asrwt>
<pdfrwt beam="1">  1        1 0.58483061E-02 0.91833736E+02</pdfrwt>
<pdfrwt beam="2">  1       -1 0.85327242E-02 0.91833736E+02</pdfrwt>
<totfact> 0.88148766E+04</totfact>
</mgrwt>
</event>
<event>
 5    1  0.6125604E+000  0.9109810E+02  0.7546771E-02  0.1300214E+00
          2   -1    0    0  501    0  0.00000000000E+00  0.00000000000E+00  0.80614617344E+01  0.80614617344E+01  0.00000000000E+00 0. -1.
         -2   -1    0    0    0  501 -0.00000000000E+00 -0.00000000000E+00 -0.25736223588E+03  0.25736223588E+03  0.00000000000E+00 0.  1.
         23    2    1    2    0    0  0.00000000000E+00  0.00000000000E+00 -0.24930077414E+03  0.26542369761E+03  0.91098096938E+02 0.  0.
        -11    1    3    3    0    0  0.43757337365E+02 -0.12546634424E+02 -0.12934229028E+03  0.13711874658E+03  0.00000000000E+00 0.  1.
         11    1    3    3    0    0 -0.43757337365E+02  0.12546634424E+02 -0.11995848386E+03  0.12830495103E+03  0.00000000000E+00 0. -1.
<mgrwt>
<rscale>  0 0.91098097E+02</rscale>
<asrwt>0</asrwt>
<pdfrwt beam="1">  1        2 0.12402250E-02 0.91098097E+02</pdfrwt>
<pdfrwt beam="2">  1       -2 0.39594188E-01 0.91098097E+02</pdfrwt>
<totfact> 0.55484629E+04</totfact>
</mgrwt>
</event>
<event>
 5    1  0.6125604E+000  0.1039159E+03  0.7546771E-02  0.1272270E+00
         -1   -1    0    0    0  501 -0.00000000000E+00  0.00000000000E+00  0.75793325697E+01  0.75793325697E+01  0.00000000000E+00 0.  1.
          1   -1    0    0  501    0  0.00000000000E+00 -0.00000000000E+00 -0.35618261202E+03  0.35618261202E+03  0.00000000000E+00 0. -1.
         23    2    1    2    0    0  0.00000000000E+00  0.00000000000E+00 -0.34860327945E+03  0.36376194459E+03  0.10391585966E+03 0.  0.
        -11    1    3    3    0    0  0.36148076472E+02  0.36497638216E+02 -0.20161158473E+03  0.20805285897E+03  0.00000000000E+00 0.  1.
         11    1    3    3    0    0 -0.36148076472E+02 -0.36497638216E+02 -0.14699169472E+03  0.15570908562E+03  0.00000000000E+00 0. -1.
<mgrwt>
<rscale>  0 0.10391586E+03</rscale>
<asrwt>0</asrwt>
<pdfrwt beam="2">  1        1 0.54797305E-01 0.10391586E+03</pdfrwt>
<pdfrwt beam="1">  1       -1 0.11660516E-02 0.10391586E+03</pdfrwt>
<totfact> 0.93178187E+04</totfact>
</mgrwt>
</event>
<event>
 5    1  0.6125604E+000  0.9100189E+02  0.7546771E-02  0.1300443E+00
         -2   -1    0    0    0  501 -0.00000000000E+00  0.00000000000E+00  0.74018887132E+02  0.74018887132E+02  0.00000000000E+00 0. -1.
          2   -1    0    0  501    0  0.00000000000E+00 -0.00000000000E+00 -0.27970375033E+02  0.27970375033E+02  0.00000000000E+00 0.  1.
         23    2    1    2    0    0  0.00000000000E+00  0.00000000000E+00  0.46048512099E+02  0.10198926216E+03  0.91001890807E+02 0.  0.
        -11    1    3    3    0    0  0.18133836922E+01  0.24681140023E+02 -0.19768106400E+02  0.31673728291E+02  0.00000000000E+00 0.  1.
         11    1    3    3    0    0 -0.18133836922E+01 -0.24681140023E+02  0.65816618500E+02  0.70315533874E+02  0.00000000000E+00 0. -1.
<mgrwt>
<rscale>  0 0.91001891E+02</rscale>
<asrwt>0</asrwt>
<pdfrwt beam="2">  1        2 0.43031346E-02 0.91001891E+02</pdfrwt>
<pdfrwt beam="1">  1       -2 0.11387521E-01 0.91001891E+02</pdfrwt>
<totfact> 0.87314878E+04</totfact>
</mgrwt>
</event>
<event>
 5    1  0.6125604E+000  0.9163902E+02  0.7546771E-02  0.1298930E+00
          2   -1    0    0  501    0  0.00000000000E+00  0.00000000000E+00  0.14744214758E+03  0.14744214758E+03  0.00000000000E+00 0. -1.
         -2   -1    0    0    0  501 -0.00000000000E+00 -0.00000000000E+00 -0.14238990163E+02  0.14238990163E+02  0.00000000000E+00 0.  1.
         23    2    1    2    0    0  0.00000000000E+00  0.00000000000E+00  0.13320315741E+03  0.16168113774E+03  0.91639015468E+02 0.  0.
        -11    1    3    3    0    0 -0.13064747430E+02  0.31584946368E+02  0.12764151894E+02  0.36485888177E+02  0.00000000000E+00 0.  1.
         11    1    3    3    0    0  0.13064747430E+02 -0.31584946368E+02  0.12043900552E+03  0.12519524956E+03  0.00000000000E+00 0. -1.
<mgrwt>
<rscale>  0 0.91639015E+02</rscale>
<asrwt>0</asrwt>
<pdfrwt beam="1">  1        2 0.22683406E-01 0.91639015E+02</pdfrwt>
<pdfrwt beam="2">  1       -2 0.21906140E-02 0.91639015E+02</pdfrwt>
<totfact> 0.13709806E+05</totfact>
</mgrwt>
</event>
<event>
 5    1  0.6125604E+000  0.8920465E+02  0.7546771E-02  0.1304789E+00
          1   -1    0    0  501    0  0.00000000000E+00  0.00000000000E+00  0.25615479397E+02  0.25615479397E+02  0.00000000000E+00 0. -1.
         -1   -1    0    0    0  501 -0.00000000000E+00 -0.00000000000E+00 -0.77662710969E+02  0.77662710969E+02  0.00000000000E+00 0.  1.
         23    2    1    2    0    0  0.00000000000E+00  0.00000000000E+00 -0.52047231572E+02  0.10327819037E+03  0.89204653976E+02 0.  0.
        -11    1    3    3    0    0 -0.43117373764E+02  0.19710184612E+01 -0.13008403924E+02  0.45080055532E+02  0.00000000000E+00 0. -1.
         11    1    3    3    0    0  0.43117373764E+02 -0.19710184612E+01 -0.39038827647E+02  0.58198134834E+02  0.00000000000E+00 0.  1.
<mgrwt>
<rscale>  0 0.89204654E+02</rscale>
<asrwt>0</asrwt>
<pdfrwt beam="1">  1        1 0.39408431E-02 0.89204654E+02</pdfrwt>
<pdfrwt beam="2">  1       -1 0.11948109E-01 0.89204654E+02</pdfrwt>
<totfact> 0.89961746E+04</totfact>
</mgrwt>
</event>
<event>
 5    1  0.6125604E+000  0.9395625E+02  0.7546771E-02  0.1293544E+00
          1   -1    0    0  501    0  0.00000000000E+00  0.00000000000E+00  0.29747752220E+03  0.29747752220E+03  0.00000000000E+00 0. -1.
         -1   -1    0    0    0  501 -0.00000000000E+00 -0.00000000000E+00 -0.74188609438E+01  0.74188609438E+01  0.00000000000E+00 0.  1.
         23    2    1    2    0    0  0.00000000000E+00  0.00000000000E+00  0.29005866126E+03  0.30489638314E+03  0.93956253035E+02 0.  0.
        -11    1    3    3    0    0  0.22878036842E+02 -0.39671032859E+02  0.17902524894E+03  0.18478970528E+03  0.00000000000E+00 0.  1.
         11    1    3    3    0    0 -0.22878036842E+02  0.39671032859E+02  0.11103341231E+03  0.12010667786E+03  0.00000000000E+00 0. -1.
<mgrwt>
<rscale>  0 0.93956253E+02</rscale>
<asrwt>0</asrwt>
<pdfrwt beam="1">  1        1 0.45765763E-01 0.93956253E+02</pdfrwt>
<pdfrwt beam="2">  1       -1 0.11413635E-02 0.93956253E+02</pdfrwt>
<totfact> 0.11805832E+05</totfact>
</mgrwt>
</event>
<event>
 5    1  0.6125604E+000  0.9760930E+02  0.7546771E-02  0.1285405E+00
         -2   -1    0    0    0  501 -0.00000000000E+00  0.00000000000E+00  0.67083689635E+01  0.67083689635E+01  0.00000000000E+00 0.  1.
          2   -1    0    0  501    0  0.00000000000E+00 -0.00000000000E+00 -0.35506307091E+03  0.35506307091E+03  0.00000000000E+00 0. -1.
         23    2    1    2    0    0  0.00000000000E+00  0.00000000000E+00 -0.34835470195E+03  0.36177143988E+03  0.97609304577E+02 0.  0.
        -11    1    3    3    0    0  0.43337405069E+02  0.11260209031E+02 -0.24613833408E+03  0.25017794165E+03  0.00000000000E+00 0.  1.
         11    1    3    3    0    0 -0.43337405069E+02 -0.11260209031E+02 -0.10221636787E+03  0.11159349822E+03  0.00000000000E+00 0. -1.
<mgrwt>
<rscale>  0 0.97609305E+02</rscale>
<asrwt>0</asrwt>
<pdfrwt beam="2">  1        2 0.54625075E-01 0.97609305E+02</pdfrwt>
<pdfrwt beam="1">  1       -2 0.10320570E-02 0.97609305E+02</pdfrwt>
<totfact> 0.15936852E+05</totfact>
</mgrwt>
</event>
<event>
 5    1  0.6125604E+000  0.1051433E+03  0.7546771E-02  0.1269837E+00
         -1   -1    0    0    0  501 -0.00000000000E+00  0.00000000000E+00  0.13072069436E+02  0.13072069436E+02  0.00000000000E+00 0.  1.
          1   -1    0    0  501    0  0.00000000000E+00 -0.00000000000E+00 -0.21142638118E+03  0.21142638118E+03  0.00000000000E+00 0. -1.
         23    2    1    2    0    0  0.00000000000E+00  0.00000000000E+00 -0.19835431175E+03  0.22449845062E+03  0.10514333712E+03 0.  0.
        -11    1    3    3    0    0  0.43696205937E+02 -0.11536865718E+02 -0.41832047692E+02  0.61582285586E+02  0.00000000000E+00 0.  1.
         11    1    3    3    0    0 -0.43696205937E+02  0.11536865718E+02 -0.15652226405E+03  0.16291616503E+03  0.00000000000E+00 0. -1.
<mgrwt>
<rscale>  0 0.10514334E+03</rscale>
<asrwt>0</asrwt>
<pdfrwt beam="2">  1        1 0.32527133E-01 0.10514334E+03</pdfrwt>
<pdfrwt beam="1">  1       -1 0.20110877E-02 0.10514334E+03</pdfrwt>
<totfact> 0.81444179E+04</totfact>
</mgrwt>
</event>
<event>
 5    1  0.6125604E+000  0.8991027E+02  0.7546771E-02  0.1303069E+00
          2   -1    0    0  501    0  0.00000000000E+00  0.00000000000E+00  0.47151441916E+02  0.47151441916E+02  0.00000000000E+00 0. -1.
         -2   -1    0    0    0  501 -0.00000000000E+00 -0.00000000000E+00 -0.42861133477E+02  0.42861133477E+02  0.00000000000E+00 0.  1.
         23    2    1    2    0    0  0.00000000000E+00  0.00000000000E+00  0.42903084389E+01  0.90012575393E+02  0.89910271840E+02 0.  0.
        -11    1    3    3    0    0  0.31150589187E+02 -0.16003581406E+02 -0.26073624219E+02  0.43661283815E+02  0.00000000000E+00 0.  1.
         11    1    3    3    0    0 -0.31150589187E+02  0.16003581406E+02  0.30363932658E+02  0.46351291578E+02  0.00000000000E+00 0. -1.
<mgrwt>
<rscale>  0 0.89910272E+02</rscale>
<asrwt>0</asrwt>
<pdfrwt beam="1">  1        2 0.72540680E-02 0.89910272E+02</pdfrwt>
<pdfrwt beam="2">  1       -2 0.65940206E-02 0.89910272E+02</pdfrwt>
<totfact> 0.10360171E+05</totfact>
</mgrwt>
</event>
<event>
 5    1  0.6125604E+000  0.9221949E+02  0.7546771E-02  0.1297564E+00
          2   -1    0    0  501    0  0.00000000000E+00  0.00000000000E+00  0.21004560897E+03  0.21004560897E+03  0.00000000000E+00 0.  1.
         -2   -1    0    0    0  501 -0.00000000000E+00 -0.00000000000E+00 -0.10122128786E+02  0.10122128786E+02  0.00000000000E+00 0. -1.
         23    2    1    2    0    0  0.00000000000E+00  0.00000000000E+00  0.19992348018E+03  0.22016773775E+03  0.92219492622E+02 0.  0.
        -11    1    3    3    0    0  0.33660642838E+02  0.17095577099E+02  0.16316382848E+03  0.16747457287E+03  0.00000000000E+00 0.  1.
         11    1    3    3    0    0 -0.33660642838E+02 -0.17095577099E+02  0.36759651703E+02  0.52693164888E+02  0.00000000000E+00 0. -1.
<mgrwt>
<rscale>  0 0.92219493E+02</rscale>
<asrwt>0</asrwt>
<pdfrwt beam="1">  1        2 0.32314706E-01 0.92219493E+02</pdfrwt>
<pdfrwt beam="2">  1       -2 0.15572507E-02 0.92219493E+02</pdfrwt>
<totfact> 0.15270687E+05</totfact>
</mgrwt>
</event>
<event>
 5    1  0.6125604E+000  0.8884278E+02  0.7546771E-02  0.1305679E+00
          2   -1    0    0  501    0  0.00000000000E+00  0.00000000000E+00  0.11619325830E+03  0.11619325830E+03  0.00000000000E+00 0. -1.
         -2   -1    0    0    0  501 -0.00000000000E+00 -0.00000000000E+00 -0.16982568178E+02  0.16982568178E+02  0.00000000000E+00 0.  1.
         23    2    1    2    0    0  0.00000000000E+00  0.00000000000E+00  0.99210690125E+02  0.13317582648E+03  0.88842780932E+02 0.  0.
        -11    1    3    3    0    0 -0.30702831794E+02 -0.21595152012E+02  0.13998188575E+02  0.40061998876E+02  0.00000000000E+00 0.  1.
         11    1    3    3    0    0  0.30702831794E+02  0.21595152012E+02  0.85212501551E+02  0.93113827604E+02  0.00000000000E+00 0. -1.
<mgrwt>
<rscale>  0 0.88842781E+02</rscale>
<asrwt>0</asrwt>
<pdfrwt beam="1">  1        2 0.17875885E-01 0.88842781E+02</pdfrwt>
<pdfrwt beam="2">  1       -2 0.26127029E-02 0.88842781E+02</pdfrwt>
<totfact> 0.13796623E+05</totfact>
</mgrwt>
</event>
<event>
 5    1  0.6125604E+000  0.9042417E+02  0.7546771E-02  0.1301828E+00
          2   -1    0    0  501    0  0.00000000000E+00  0.00000000000E+00  0.90149700913E+02  0.90149700913E+02  0.00000000000E+00 0.  1.
         -2   -1    0    0    0  501 -0.00000000000E+00 -0.00000000000E+00 -0.22674869927E+02  0.22674869927E+02  0.00000000000E+00 0. -1.
         23    2    1    2    0    0  0.00000000000E+00  0.00000000000E+00  0.67474830987E+02  0.11282457084E+03  0.90424172479E+02 0.  0.
        -11    1    3    3    0    0 -0.20039351145E+02  0.77466581531E+00  0.84296597904E+02  0.86649247658E+02  0.00000000000E+00 0.  1.
         11    1    3    3    0    0  0.20039351145E+02 -0.77466581531E+00 -0.16821766917E+02  0.26175323182E+02  0.00000000000E+00 0. -1.
<mgrwt>
<rscale>  0 0.90424172E+02</rscale>
<asrwt>0</asrwt>
<pdfrwt beam="1">  1        2 0.13869185E-01 0.90424172E+02</pdfrwt>
<pdfrwt beam="2">  1       -2 0.34884416E-02 0.90424172E+02</pdfrwt>
<totfact> 0.12167008E+05</totfact>
</mgrwt>
</event>
<event>
 5    1  0.6125604E+000  0.9167716E+02  0.7546771E-02  0.1298840E+00
          1   -1    0    0  501    0  0.00000000000E+00  0.00000000000E+00  0.16750284494E+03  0.16750284494E+03  0.00000000000E+00 0. -1.
         -1   -1    0    0    0  501 -0.00000000000E+00 -0.00000000000E+00 -0.12544117092E+02  0.12544117092E+02  0.00000000000E+00 0.  1.
         23    2    1    2    0    0  0.00000000000E+00  0.00000000000E+00  0.15495872785E+03  0.18004696204E+03  0.91677157464E+02 0.  0.
        -11    1    3    3    0    0 -0.69826175256E+01  0.29685094887E+02  0.10268002508E+02  0.32177533800E+02  0.00000000000E+00 0.  1.
         11    1    3    3    0    0  0.69826175256E+01 -0.29685094887E+02  0.14469072535E+03  0.14786942824E+03  0.00000000000E+00 0. -1.
<mgrwt>
<rscale>  0 0.91677157E+02</rscale>
<asrwt>0</asrwt>
<pdfrwt beam="1">  1        1 0.25769667E-01 0.91677157E+02</pdfrwt>
<pdfrwt beam="2">  1       -1 0.19298643E-02 0.91677157E+02</pdfrwt>
<totfact> 0.11278150E+05</totfact>
</mgrwt>
</event>
<event>
 5    1  0.6125604E+000  0.9226623E+02  0.7546771E-02  0.1297455E+00
          2   -1    0    0  501    0  0.00000000000E+00  0.00000000000E+00  0.27529771735E+03  0.27529771735E+03  0.00000000000E+00 0. -1.
         -2   -1    0    0    0  501 -0.00000000000E+00 -0.00000000000E+00 -0.77307735930E+01  0.77307735930E+01  0.00000000000E+00 0.  1.
         23    2    1    2    0    0  0.00000000000E+00  0.00000000000E+00  0.26756694375E+03  0.28302849094E+03  0.92266230518E+02 0.  0.
        -11    1    3    3    0    0 -0.38909554269E+02  0.32863982500E+01  0.20914154613E+03  0.21275558781E+03  0.00000000000E+00 0.  1.
         11    1    3    3    0    0  0.38909554269E+02 -0.32863982500E+01  0.58425397628E+02  0.70272903134E+02  0.00000000000E+00 0. -1.
<mgrwt>
<rscale>  0 0.92266231E+02</rscale>
<asrwt>0</asrwt>
<pdfrwt beam="1">  1        2 0.42353487E-01 0.92266231E+02</pdfrwt>
<pdfrwt beam="2">  1       -2 0.11893500E-02 0.92266231E+02</pdfrwt>
<totfact> 0.16855003E+05</totfact>
</mgrwt>
</event>
<event>
 5    1  0.6125604E+000  0.9060130E+02  0.7546771E-02  0.1301402E+00
         -1   -1    0    0    0  501 -0.00000000000E+00  0.00000000000E+00  0.28398488021E+02  0.28398488021E+02  0.00000000000E+00 0.  1.
          1   -1    0    0  501    0  0.00000000000E+00 -0.00000000000E+00 -0.72262610291E+02  0.72262610291E+02  0.00000000000E+00 0. -1.
         23    2    1    2    0    0  0.00000000000E+00  0.00000000000E+00 -0.43864122270E+02  0.10066109831E+03  0.90601299610E+02 0.  0.
        -11    1    3    3    0    0  0.11675582764E+02 -0.16259556393E+02  0.23218255690E+02  0.30655828227E+02  0.00000000000E+00 0.  1.
         11    1    3    3    0    0 -0.11675582764E+02  0.16259556393E+02 -0.67082377960E+02  0.70005270086E+02  0.00000000000E+00 0. -1.
<mgrwt>
<rscale>  0 0.90601300E+02</rscale>
<asrwt>0</asrwt>
<pdfrwt beam="2">  1        1 0.11117325E-01 0.90601300E+02</pdfrwt>
<pdfrwt beam="1">  1       -1 0.43689982E-02 0.90601300E+02</pdfrwt>
<totfact> 0.10089700E+05</totfact>
</mgrwt>
</event>
<event>
 5    1  0.6125604E+000  0.9167678E+02  0.7546771E-02  0.1298841E+00
          2   -1    0    0  501    0  0.00000000000E+00  0.00000000000E+00  0.33017006056E+02  0.33017006056E+02  0.00000000000E+00 0. -1.
         -2   -1    0    0    0  501 -0.00000000000E+00 -0.00000000000E+00 -0.63638661994E+02  0.63638661994E+02  0.00000000000E+00 0.  1.
         23    2    1    2    0    0  0.00000000000E+00  0.00000000000E+00 -0.30621655937E+02  0.96655668050E+02  0.91676781978E+02 0.  0.
        -11    1    3    3    0    0  0.39154263850E+02  0.21395633565E+02 -0.26385017991E+02  0.51836268073E+02  0.00000000000E+00 0.  1.
         11    1    3    3    0    0 -0.39154263850E+02 -0.21395633565E+02 -0.42366379461E+01  0.44819399978E+02  0.00000000000E+00 0. -1.
<mgrwt>
<rscale>  0 0.91676782E+02</rscale>
<asrwt>0</asrwt>
<pdfrwt beam="1">  1        2 0.50795394E-02 0.91676782E+02</pdfrwt>
<pdfrwt beam="2">  1       -2 0.97905633E-02 0.91676782E+02</pdfrwt>
<totfact> 0.89289403E+04</totfact>
</mgrwt>
</event>
<event>
 5    1  0.6125604E+000  0.9481258E+02  0.7546771E-02  0.1291599E+00
          2   -1    0    0  501    0  0.00000000000E+00  0.00000000000E+00  0.83478042698E+02  0.83478042698E+02  0.00000000000E+00 0. -1.
         -2   -1    0    0    0  501 -0.00000000000E+00 -0.00000000000E+00 -0.26921523618E+02  0.26921523618E+02  0.00000000000E+00 0.  1.
         23    2    1    2    0    0  0.00000000000E+00  0.00000000000E+00  0.56556519080E+02  0.11039956632E+03  0.94812575075E+02 0.  0.
        -11    1    3    3    0    0 -0.11426117907E+02 -0.16029908335E+02 -0.21937431884E+02  0.29474820598E+02  0.00000000000E+00 0.  1.
         11    1    3    3    0    0  0.11426117907E+02  0.16029908335E+02  0.78493950964E+02  0.80924745718E+02  0.00000000000E+00 0. -1.
<mgrwt>
<rscale>  0 0.94812575E+02</rscale>
<asrwt>0</asrwt>
<pdfrwt beam="1">  1        2 0.12842776E-01 0.94812575E+02</pdfrwt>
<pdfrwt beam="2">  1       -2 0.41417729E-02 0.94812575E+02</pdfrwt>
<totfact> 0.10427454E+05</totfact>
</mgrwt>
</event>
<event>
 4    1  0.6125604E+000  0.5385159E+02  0.7546771E-02  0.1425609E+00
          2   -1    0    0  501    0  0.00000000000E+00  0.00000000000E+00  0.22041217899E+02  0.22041217899E+02  0.00000000000E+00 0. -1.
         -2   -1    0    0    0  501 -0.00000000000E+00 -0.00000000000E+00 -0.32892849562E+02  0.32892849562E+02  0.00000000000E+00 0.  1.
        -11    1    1    2    0    0 -0.69060561486E+01 -0.19130288375E+02  0.12573604941E+02  0.23911442576E+02  0.00000000000E+00 0. -1.
         11    1    1    2    0    0  0.69060561486E+01  0.19130288375E+02 -0.23425236604E+02  0.31022624885E+02  0.00000000000E+00 0.  1.
<mgrwt>
<rscale>  0 0.53851591E+02</rscale>
<asrwt>0</asrwt>
<pdfrwt beam="1">  1        2 0.33909566E-02 0.53851591E+02</pdfrwt>
<pdfrwt beam="2">  1       -2 0.50604384E-02 0.53851591E+02</pdfrwt>
<totfact> 0.36663085E+05</totfact>
</mgrwt>
</event>
<event>
 5    1  0.6125604E+000  0.9092384E+02  0.7546771E-02  0.1300630E+00
          1   -1    0    0  501    0  0.00000000000E+00  0.00000000000E+00  0.40987756378E+03  0.40987756378E+03  0.00000000000E+00 0. -1.
         -1   -1    0    0    0  501 -0.00000000000E+00 -0.00000000000E+00 -0.50424472220E+01  0.50424472220E+01  0.00000000000E+00 0.  1.
         23    2    1    2    0    0  0.00000000000E+00  0.00000000000E+00  0.40483511656E+03  0.41492001101E+03  0.90923835882E+02 0.  0.
        -11    1    3    3    0    0  0.35941350986E+02 -0.27351945061E+02  0.17875988848E+03  0.18437735040E+03  0.00000000000E+00 0.  1.
         11    1    3    3    0    0 -0.35941350986E+02  0.27351945061E+02  0.22607522808E+03  0.23054266061E+03  0.00000000000E+00 0. -1.
<mgrwt>
<rscale>  0 0.90923836E+02</rscale>
<asrwt>0</asrwt>
<pdfrwt beam="1">  1        1 0.63058061E-01 0.90923836E+02</pdfrwt>
<pdfrwt beam="2">  1       -1 0.77576143E-03 0.90923836E+02</pdfrwt>
<totfact> 0.13642780E+05</totfact>
</mgrwt>
</event>
<event>
 5    1  0.6125604E+000  0.9122862E+02  0.7546771E-02  0.1299903E+00
         -4   -1    0    0    0  501 -0.00000000000E+00  0.00000000000E+00  0.89797542167E+01  0.89797542167E+01  0.00000000000E+00 0.  1.
          4   -1    0    0  501    0  0.00000000000E+00 -0.00000000000E+00 -0.23170624920E+03  0.23170624920E+03  0.00000000000E+00 0. -1.
         23    2    1    2    0    0  0.00000000000E+00  0.00000000000E+00 -0.22272649499E+03  0.24068600342E+03  0.91228617623E+02 0.  0.
        -11    1    3    3    0    0 -0.16276681596E+02 -0.42341081822E+02 -0.98719450947E+02  0.10864265999E+03  0.00000000000E+00 0.  1.
         11    1    3    3    0    0  0.16276681596E+02  0.42341081822E+02 -0.12400704404E+03  0.13204334343E+03  0.00000000000E+00 0. -1.
<mgrwt>
<rscale>  0 0.91228618E+02</rscale>
<asrwt>0</asrwt>
<pdfrwt beam="2">  1        4 0.35647124E-01 0.91228618E+02</pdfrwt>
<pdfrwt beam="1">  1       -4 0.13815003E-02 0.91228618E+02</pdfrwt>
<totfact> 0.19768539E+04</totfact>
</mgrwt>
</event>
<event>
 5    1  0.6125604E+000  0.7358837E+02  0.7546771E-02  0.1348299E+00
          2   -1    0    0  501    0  0.00000000000E+00  0.00000000000E+00  0.35730801299E+02  0.35730801299E+02  0.00000000000E+00 0. -1.
         -2   -1    0    0    0  501 -0.00000000000E+00 -0.00000000000E+00 -0.37889219874E+02  0.37889219874E+02  0.00000000000E+00 0.  1.
         23    2    1    2    0    0  0.00000000000E+00  0.00000000000E+00 -0.21584185752E+01  0.73620021174E+02  0.73588373721E+02 0.  0.
        -11    1    3    3    0    0  0.22406079122E+02  0.16335076208E+02 -0.25275248676E+02  0.37519398876E+02  0.00000000000E+00 0.  1.
         11    1    3    3    0    0 -0.22406079122E+02 -0.16335076208E+02  0.23116830101E+02  0.36100622298E+02  0.00000000000E+00 0. -1.
<mgrwt>
<rscale>  0 0.73588374E+02</rscale>
<asrwt>0</asrwt>
<pdfrwt beam="1">  1        2 0.54970463E-02 0.73588374E+02</pdfrwt>
<pdfrwt beam="2">  1       -2 0.58291108E-02 0.73588374E+02</pdfrwt>
<totfact> 0.17076080E+05</totfact>
</mgrwt>
</event>
<event>
 5    1  0.6125604E+000  0.9028641E+02  0.7546771E-02  0.1302160E+00
         -2   -1    0    0    0  501 -0.00000000000E+00  0.00000000000E+00  0.56343420539E+02  0.56343420539E+02  0.00000000000E+00 0.  1.
          2   -1    0    0  501    0  0.00000000000E+00 -0.00000000000E+00 -0.36169423849E+02  0.36169423849E+02  0.00000000000E+00 0. -1.
         23    2    1    2    0    0  0.00000000000E+00  0.00000000000E+00  0.20173996690E+02  0.92512844388E+02  0.90286412235E+02 0.  0.
        -11    1    3    3    0    0 -0.35940725556E+02 -0.17204351828E+01 -0.17847212468E+02  0.40164893172E+02  0.00000000000E+00 0. -1.
         11    1    3    3    0    0  0.35940725556E+02  0.17204351828E+01  0.38021209158E+02  0.52347951216E+02  0.00000000000E+00 0.  1.
<mgrwt>
<rscale>  0 0.90286412E+02</rscale>
<asrwt>0</asrwt>
<pdfrwt beam="2">  1        2 0.55645268E-02 0.90286412E+02</pdfrwt>
<pdfrwt beam="1">  1       -2 0.86682185E-02 0.90286412E+02</pdfrwt>
<totfact> 0.95626862E+04</totfact>
</mgrwt>
</event>
<event>
 5    1  0.6125604E+000  0.9014565E+02  0.7546771E-02  0.1302499E+00
         -1   -1    0    0    0  501 -0.00000000000E+00  0.00000000000E+00  0.21329802162E+02  0.21329802162E+02  0.00000000000E+00 0.  1.
          1   -1    0    0  501    0  0.00000000000E+00 -0.00000000000E+00 -0.95245119550E+02  0.95245119550E+02  0.00000000000E+00 0. -1.
         23    2    1    2    0    0  0.00000000000E+00  0.00000000000E+00 -0.73915317387E+02  0.11657492171E+03  0.90145650077E+02 0.  0.
        -11    1    3    3    0    0 -0.35702009568E+02 -0.13965431205E+02 -0.67611654346E+02  0.77723886672E+02  0.00000000000E+00 0. -1.
         11    1    3    3    0    0  0.35702009568E+02  0.13965431205E+02 -0.63036630409E+01  0.38851035040E+02  0.00000000000E+00 0.  1.
<mgrwt>
<rscale>  0 0.90145650E+02</rscale>
<asrwt>0</asrwt>
<pdfrwt beam="2">  1        1 0.14653095E-01 0.90145650E+02</pdfrwt>
<pdfrwt beam="1">  1       -1 0.32815081E-02 0.90145650E+02</pdfrwt>
<totfact> 0.10687702E+05</totfact>
</mgrwt>
</event>
<event>
 5    1  0.6125604E+000  0.9124402E+02  0.7546771E-02  0.1299867E+00
          2   -1    0    0  501    0  0.00000000000E+00  0.00000000000E+00  0.73565699552E+02  0.73565699552E+02  0.00000000000E+00 0.  1.
         -2   -1    0    0    0  501 -0.00000000000E+00 -0.00000000000E+00 -0.28292637418E+02  0.28292637418E+02  0.00000000000E+00 0. -1.
         23    2    1    2    0    0  0.00000000000E+00  0.00000000000E+00  0.45273062134E+02  0.10185833697E+03  0.91244017093E+02 0.  0.
        -11    1    3    3    0    0 -0.33987721498E+02 -0.28310247751E+02  0.10168964658E+02  0.45387698582E+02  0.00000000000E+00 0. -1.
         11    1    3    3    0    0  0.33987721498E+02  0.28310247751E+02  0.35104097476E+02  0.56470638388E+02  0.00000000000E+00 0.  1.
<mgrwt>
<rscale>  0 0.91244017E+02</rscale>
<asrwt>0</asrwt>
<pdfrwt beam="1">  1        2 0.11317800E-01 0.91244017E+02</pdfrwt>
<pdfrwt beam="2">  1       -2 0.43527135E-02 0.91244017E+02</pdfrwt>
<totfact> 0.11193108E+05</totfact>
</mgrwt>
</event>
<event>
 5    1  0.6125604E+000  0.9390831E+02  0.7546771E-02  0.1293654E+00
          3   -1    0    0  501    0  0.00000000000E+00  0.00000000000E+00  0.41742591602E+02  0.41742591602E+02  0.00000000000E+00 0. -1.
         -3   -1    0    0    0  501 -0.00000000000E+00 -0.00000000000E+00 -0.52816380211E+02  0.52816380211E+02  0.00000000000E+00 0.  1.
         23    2    1    2    0    0  0.00000000000E+00  0.00000000000E+00 -0.11073788609E+02  0.94558971814E+02  0.93908308239E+02 0.  0.
        -11    1    3    3    0    0 -0.52058579930E+01 -0.33981833557E+02 -0.37740146682E+02  0.51050804509E+02  0.00000000000E+00 0.  1.
         11    1    3    3    0    0  0.52058579930E+01  0.33981833557E+02  0.26666358073E+02  0.43508167305E+02  0.00000000000E+00 0. -1.
<mgrwt>
<rscale>  0 0.93908308E+02</rscale>
<asrwt>0</asrwt>
<pdfrwt beam="1">  1        3 0.64219371E-02 0.93908308E+02</pdfrwt>
<pdfrwt beam="2">  1       -3 0.81255970E-02 0.93908308E+02</pdfrwt>
<totfact> 0.32362220E+04</totfact>
</mgrwt>
</event>
<event>
 5    1  0.6125604E+000  0.9117166E+02  0.7546771E-02  0.1300039E+00
         -3   -1    0    0    0  501 -0.00000000000E+00  0.00000000000E+00  0.43599497453E+02  0.43599497453E+02  0.00000000000E+00 0.  1.
          3   -1    0    0  501    0  0.00000000000E+00 -0.00000000000E+00 -0.47662657126E+02  0.47662657126E+02  0.00000000000E+00 0. -1.
         23    2    1    2    0    0  0.00000000000E+00  0.00000000000E+00 -0.40631596723E+01  0.91262154579E+02  0.91171660026E+02 0.  0.
        -11    1    3    3    0    0 -0.42860384287E+02 -0.14409706858E+02 -0.78179494191E+01  0.45888697150E+02  0.00000000000E+00 0.  1.
         11    1    3    3    0    0  0.42860384287E+02  0.14409706858E+02  0.37547897469E+01  0.45373457429E+02  0.00000000000E+00 0. -1.
<mgrwt>
<rscale>  0 0.91171660E+02</rscale>
<asrwt>0</asrwt>
<pdfrwt beam="2">  1        3 0.73327165E-02 0.91171660E+02</pdfrwt>
<pdfrwt beam="1">  1       -3 0.67076150E-02 0.91171660E+02</pdfrwt>
<totfact> 0.35337472E+04</totfact>
</mgrwt>
</event>
<event>
 5    1  0.6125604E+000  0.8981524E+02  0.7546771E-02  0.1303300E+00
         -1   -1    0    0    0  501 -0.00000000000E+00  0.00000000000E+00  0.69046668413E+02  0.69046668413E+02  0.00000000000E+00 0.  1.
          1   -1    0    0  501    0  0.00000000000E+00 -0.00000000000E+00 -0.29207697088E+02  0.29207697088E+02  0.00000000000E+00 0. -1.
         23    2    1    2    0    0  0.00000000000E+00  0.00000000000E+00  0.39838971325E+02  0.98254365502E+02  0.89815236480E+02 0.  0.
        -11    1    3    3    0    0  0.19456264686E+02 -0.13287654201E+02 -0.21903405585E+02  0.32169351344E+02  0.00000000000E+00 0. -1.
         11    1    3    3    0    0 -0.19456264686E+02  0.13287654201E+02  0.61742376910E+02  0.66085014157E+02  0.00000000000E+00 0.  1.
<mgrwt>
<rscale>  0 0.89815236E+02</rscale>
<asrwt>0</asrwt>
<pdfrwt beam="2">  1        1 0.44934919E-02 0.89815236E+02</pdfrwt>
<pdfrwt beam="1">  1       -1 0.10622564E-01 0.89815236E+02</pdfrwt>
<totfact> 0.90117635E+04</totfact>
</mgrwt>
</event>
<event>
 5    1  0.6125604E+000  0.9270870E+02  0.7546771E-02  0.1296422E+00
         -1   -1    0    0    0  501 -0.00000000000E+00  0.00000000000E+00  0.62624498167E+02  0.62624498167E+02  0.00000000000E+00 0.  1.
          1   -1    0    0  501    0  0.00000000000E+00 -0.00000000000E+00 -0.34311267023E+02  0.34311267023E+02  0.00000000000E+00 0. -1.
         23    2    1    2    0    0  0.00000000000E+00  0.00000000000E+00  0.28313231144E+02  0.96935765191E+02  0.92708702479E+02 0.  0.
        -11    1    3    3    0    0 -0.21910737257E+02  0.35242551209E+02 -0.74396204987E+01  0.42160002088E+02  0.00000000000E+00 0.  1.
         11    1    3    3    0    0  0.21910737257E+02 -0.35242551209E+02  0.35752851643E+02  0.54775763103E+02  0.00000000000E+00 0. -1.
<mgrwt>
<rscale>  0 0.92708702E+02</rscale>
<asrwt>0</asrwt>
<pdfrwt beam="2">  1        1 0.52786565E-02 0.92708702E+02</pdfrwt>
<pdfrwt beam="1">  1       -1 0.96345381E-02 0.92708702E+02</pdfrwt>
<totfact> 0.84435292E+04</totfact>
</mgrwt>
</event>
<event>
 5    1  0.6125604E+000  0.8987073E+02  0.7546771E-02  0.1303165E+00
         -1   -1    0    0    0  501 -0.00000000000E+00  0.00000000000E+00  0.10787793598E+02  0.10787793598E+02  0.00000000000E+00 0.  1.
          1   -1    0    0  501    0  0.00000000000E+00 -0.00000000000E+00 -0.18717329927E+03  0.18717329927E+03  0.00000000000E+00 0. -1.
         23    2    1    2    0    0  0.00000000000E+00  0.00000000000E+00 -0.17638550568E+03  0.19796109287E+03  0.89870727597E+02 0.  0.
        -11    1    3    3    0    0  0.35159156729E+02 -0.22738891841E+02 -0.52269758002E+02  0.66972763909E+02  0.00000000000E+00 0.  1.
         11    1    3    3    0    0 -0.35159156729E+02  0.22738891841E+02 -0.12411574767E+03  0.13098832896E+03  0.00000000000E+00 0. -1.
<mgrwt>
<rscale>  0 0.89870728E+02</rscale>
<asrwt>0</asrwt>
<pdfrwt beam="2">  1        1 0.28795892E-01 0.89870728E+02</pdfrwt>
<pdfrwt beam="1">  1       -1 0.16596606E-02 0.89870728E+02</pdfrwt>
<totfact> 0.12151049E+05</totfact>
</mgrwt>
</event>
<event>
 5    1  0.6125604E+000  0.9164403E+02  0.7546771E-02  0.1298919E+00
         -4   -1    0    0    0  501 -0.00000000000E+00  0.00000000000E+00  0.23029117715E+03  0.23029117715E+03  0.00000000000E+00 0.  1.
          4   -1    0    0  501    0  0.00000000000E+00 -0.00000000000E+00 -0.91174016190E+01  0.91174016190E+01  0.00000000000E+00 0. -1.
         23    2    1    2    0    0  0.00000000000E+00  0.00000000000E+00  0.22117377553E+03  0.23940857877E+03  0.91644032024E+02 0.  0.
        -11    1    3    3    0    0 -0.36682514995E+02  0.16126150694E+02  0.16864967764E+03  0.17334466652E+03  0.00000000000E+00 0.  1.
         11    1    3    3    0    0  0.36682514995E+02 -0.16126150694E+02  0.52524097894E+02  0.66063912253E+02  0.00000000000E+00 0. -1.
<mgrwt>
<rscale>  0 0.91644032E+02</rscale>
<asrwt>0</asrwt>
<pdfrwt beam="2">  1        4 0.14026773E-02 0.91644032E+02</pdfrwt>
<pdfrwt beam="1">  1       -4 0.35429407E-01 0.91644032E+02</pdfrwt>
<totfact> 0.19575843E+04</totfact>
</mgrwt>
</event>
<event>
 5    1  0.6125604E+000  0.8931309E+02  0.7546771E-02  0.1304524E+00
          1   -1    0    0  501    0  0.00000000000E+00  0.00000000000E+00  0.16524880572E+03  0.16524880572E+03  0.00000000000E+00 0. -1.
         -1   -1    0    0    0  501 -0.00000000000E+00 -0.00000000000E+00 -0.12067906839E+02  0.12067906839E+02  0.00000000000E+00 0.  1.
         23    2    1    2    0    0  0.00000000000E+00  0.00000000000E+00  0.15318089888E+03  0.17731671256E+03  0.89313094063E+02 0.  0.
        -11    1    3    3    0    0  0.22693318266E+02 -0.38381020059E+02  0.81501021700E+02  0.92900516322E+02  0.00000000000E+00 0.  1.
         11    1    3    3    0    0 -0.22693318266E+02  0.38381020059E+02  0.71679877180E+02  0.84416196237E+02  0.00000000000E+00 0. -1.
<mgrwt>
<rscale>  0 0.89313094E+02</rscale>
<asrwt>0</asrwt>
<pdfrwt beam="1">  1        1 0.25422891E-01 0.89313094E+02</pdfrwt>
<pdfrwt beam="2">  1       -1 0.18566012E-02 0.89313094E+02</pdfrwt>
<totfact> 0.12068014E+05</totfact>
</mgrwt>
</event>
<event>
 5    1  0.6125604E+000  0.9148196E+02  0.7546771E-02  0.1299302E+00
          1   -1    0    0  501    0  0.00000000000E+00  0.00000000000E+00  0.14366551215E+02  0.14366551215E+02  0.00000000000E+00 0. -1.
         -1   -1    0    0    0  501 -0.00000000000E+00 -0.00000000000E+00 -0.14563252817E+03  0.14563252817E+03  0.00000000000E+00 0.  1.
         23    2    1    2    0    0  0.00000000000E+00  0.00000000000E+00 -0.13126597695E+03  0.15999907938E+03  0.91481958321E+02 0.  0.
        -11    1    3    3    0    0  0.23510902490E+02  0.13211538743E+02 -0.10174151749E+01  0.26987819947E+02  0.00000000000E+00 0. -1.
         11    1    3    3    0    0 -0.23510902490E+02 -0.13211538743E+02 -0.13024856178E+03  0.13301125944E+03  0.00000000000E+00 0.  1.
<mgrwt>
<rscale>  0 0.91481958E+02</rscale>
<asrwt>0</asrwt>
<pdfrwt beam="1">  1        1 0.22102386E-02 0.91481958E+02</pdfrwt>
<pdfrwt beam="2">  1       -1 0.22405005E-01 0.91481958E+02</pdfrwt>
<totfact> 0.74652342E+04</totfact>
</mgrwt>
</event>
<event>
 5    1  0.6125604E+000  0.8985953E+02  0.7546771E-02  0.1303192E+00
         -1   -1    0    0    0  501 -0.00000000000E+00  0.00000000000E+00  0.43286992882E+02  0.43286992882E+02  0.00000000000E+00 0.  1.
          1   -1    0    0  501    0  0.00000000000E+00 -0.00000000000E+00 -0.46634884300E+02  0.46634884300E+02  0.00000000000E+00 0. -1.
         23    2    1    2    0    0  0.00000000000E+00  0.00000000000E+00 -0.33478914178E+01  0.89921877182E+02  0.89859532711E+02 0.  0.
        -11    1    3    3    0    0  0.10589739956E+02 -0.43528591632E+02  0.17639906637E+01  0.44832940399E+02  0.00000000000E+00 0.  1.
         11    1    3    3    0    0 -0.10589739956E+02  0.43528591632E+02 -0.51118820815E+01  0.45088936783E+02  0.00000000000E+00 0. -1.
<mgrwt>
<rscale>  0 0.89859533E+02</rscale>
<asrwt>0</asrwt>
<pdfrwt beam="2">  1        1 0.71745975E-02 0.89859533E+02</pdfrwt>
<pdfrwt beam="1">  1       -1 0.66595374E-02 0.89859533E+02</pdfrwt>
<totfact> 0.96645191E+04</totfact>
</mgrwt>
</event>
<event>
 5    1  0.6125604E+000  0.8568204E+02  0.7546771E-02  0.1313659E+00
         -2   -1    0    0    0  501 -0.00000000000E+00  0.00000000000E+00  0.58805233111E+01  0.58805233111E+01  0.00000000000E+00 0.  1.
          2   -1    0    0  501    0  0.00000000000E+00 -0.00000000000E+00 -0.31210708338E+03  0.31210708338E+03  0.00000000000E+00 0. -1.
         23    2    1    2    0    0  0.00000000000E+00  0.00000000000E+00 -0.30622656007E+03  0.31798760669E+03  0.85682039644E+02 0.  0.
        -11    1    3    3    0    0 -0.22440474918E+02 -0.30364989213E+02 -0.22823707028E+03  0.23133907525E+03  0.00000000000E+00 0. -1.
         11    1    3    3    0    0  0.22440474918E+02  0.30364989213E+02 -0.77989489785E+02  0.86648531444E+02  0.00000000000E+00 0.  1.
<mgrwt>
<rscale>  0 0.85682040E+02</rscale>
<asrwt>0</asrwt>
<pdfrwt beam="2">  1        2 0.48016465E-01 0.85682040E+02</pdfrwt>
<pdfrwt beam="1">  1       -2 0.90469607E-03 0.85682040E+02</pdfrwt>
<totfact> 0.21504634E+05</totfact>
</mgrwt>
</event>
<event>
 5    1  0.6125604E+000  0.9043248E+02  0.7546771E-02  0.1301808E+00
          3   -1    0    0  501    0  0.00000000000E+00  0.00000000000E+00  0.20438763952E+02  0.20438763952E+02  0.00000000000E+00 0. -1.
         -3   -1    0    0    0  501 -0.00000000000E+00 -0.00000000000E+00 -0.10003092037E+03  0.10003092037E+03  0.00000000000E+00 0.  1.
         23    2    1    2    0    0  0.00000000000E+00  0.00000000000E+00 -0.79592156415E+02  0.12046968432E+03  0.90432480210E+02 0.  0.
        -11    1    3    3    0    0  0.19856346557E+02  0.17213544127E+02  0.92214128390E+01  0.27849866333E+02  0.00000000000E+00 0. -1.
         11    1    3    3    0    0 -0.19856346557E+02 -0.17213544127E+02 -0.88813569254E+02  0.92619817985E+02  0.00000000000E+00 0.  1.
<mgrwt>
<rscale>  0 0.90432480E+02</rscale>
<asrwt>0</asrwt>
<pdfrwt beam="1">  1        3 0.31444253E-02 0.90432480E+02</pdfrwt>
<pdfrwt beam="2">  1       -3 0.15389372E-01 0.90432480E+02</pdfrwt>
<totfact> 0.33962498E+04</totfact>
</mgrwt>
</event>
<event>
 5    1  0.6125604E+000  0.9169311E+02  0.7546771E-02  0.1298803E+00
         -2   -1    0    0    0  501 -0.00000000000E+00  0.00000000000E+00  0.90267970259E+01  0.90267970259E+01  0.00000000000E+00 0.  1.
          2   -1    0    0  501    0  0.00000000000E+00 -0.00000000000E+00 -0.23285186984E+03  0.23285186984E+03  0.00000000000E+00 0. -1.
         23    2    1    2    0    0  0.00000000000E+00  0.00000000000E+00 -0.22382507281E+03  0.24187866687E+03  0.91693109144E+02 0.  0.
        -11    1    3    3    0    0  0.40123068928E+02 -0.13430842172E+02 -0.65343175843E+02  0.77845865728E+02  0.00000000000E+00 0.  1.
         11    1    3    3    0    0 -0.40123068928E+02  0.13430842172E+02 -0.15848189697E+03  0.16403280114E+03  0.00000000000E+00 0. -1.
<mgrwt>
<rscale>  0 0.91693109E+02</rscale>
<asrwt>0</asrwt>
<pdfrwt beam="2">  1        2 0.35823364E-01 0.91693109E+02</pdfrwt>
<pdfrwt beam="1">  1       -2 0.13887380E-02 0.91693109E+02</pdfrwt>
<totfact> 0.16105388E+05</totfact>
</mgrwt>
</event>
<event>
 5    1  0.6125604E+000  0.9111931E+02  0.7546771E-02  0.1300164E+00
         -2   -1    0    0    0  501 -0.00000000000E+00  0.00000000000E+00  0.18610061981E+02  0.18610061981E+02  0.00000000000E+00 0.  1.
          2   -1    0    0  501    0  0.00000000000E+00 -0.00000000000E+00 -0.11153547841E+03  0.11153547841E+03  0.00000000000E+00 0. -1.
         23    2    1    2    0    0  0.00000000000E+00  0.00000000000E+00 -0.92925416426E+02  0.13014554039E+03  0.91119310055E+02 0.  0.
        -11    1    3    3    0    0  0.30403590805E+02  0.13806902424E+02 -0.21929934648E+01  0.33463683430E+02  0.00000000000E+00 0.  1.
         11    1    3    3    0    0 -0.30403590805E+02 -0.13806902424E+02 -0.90732422961E+02  0.96681856958E+02  0.00000000000E+00 0. -1.
<mgrwt>
<rscale>  0 0.91119310E+02</rscale>
<asrwt>0</asrwt>
<pdfrwt beam="2">  1        2 0.17159304E-01 0.91119310E+02</pdfrwt>
<pdfrwt beam="1">  1       -2 0.28630865E-02 0.91119310E+02</pdfrwt>
<totfact> 0.12710755E+05</totfact>
</mgrwt>
</event>
<event>
 5    1  0.6125604E+000  0.9094470E+02  0.7546771E-02  0.1300580E+00
          1   -1    0    0  501    0  0.00000000000E+00  0.00000000000E+00  0.10438658346E+03  0.10438658346E+03  0.00000000000E+00 0. -1.
         -1   -1    0    0    0  501 -0.00000000000E+00 -0.00000000000E+00 -0.19808434544E+02  0.19808434544E+02  0.00000000000E+00 0.  1.
         23    2    1    2    0    0  0.00000000000E+00  0.00000000000E+00  0.84578148912E+02  0.12419501800E+03  0.90944704203E+02 0.  0.
        -11    1    3    3    0    0  0.39647208561E+01 -0.27651622042E+02 -0.67095759681E+01  0.28728898738E+02  0.00000000000E+00 0.  1.
         11    1    3    3    0    0 -0.39647208561E+01  0.27651622042E+02  0.91287724880E+02  0.95466119262E+02  0.00000000000E+00 0. -1.
<mgrwt>
<rscale>  0 0.90944704E+02</rscale>
<asrwt>0</asrwt>
<pdfrwt beam="1">  1        1 0.16059474E-01 0.90944704E+02</pdfrwt>
<pdfrwt beam="2">  1       -1 0.30474515E-02 0.90944704E+02</pdfrwt>
<totfact> 0.10593669E+05</totfact>
</mgrwt>
</event>
<event>
 5    1  0.6125604E+000  0.6485433E+02  0.7546771E-02  0.1378520E+00
         -2   -1    0    0    0  501 -0.00000000000E+00  0.00000000000E+00  0.20568870062E+03  0.20568870062E+03  0.00000000000E+00 0.  1.
          2   -1    0    0  501    0  0.00000000000E+00 -0.00000000000E+00 -0.51121964635E+01  0.51121964635E+01  0.00000000000E+00 0. -1.
         23    2    1    2    0    0  0.00000000000E+00  0.00000000000E+00  0.20057650416E+03  0.21080089709E+03  0.64854330554E+02 0.  0.
        -11    1    3    3    0    0 -0.10245692569E+02 -0.30647752651E+02  0.91529055746E+02  0.97066096061E+02  0.00000000000E+00 0.  1.
         11    1    3    3    0    0  0.10245692569E+02  0.30647752651E+02  0.10904744842E+03  0.11373480103E+03  0.00000000000E+00 0. -1.
<mgrwt>
<rscale>  0 0.64854331E+02</rscale>
<asrwt>0</asrwt>
<pdfrwt beam="2">  1        2 0.78649192E-03 0.64854331E+02</pdfrwt>
<pdfrwt beam="1">  1       -2 0.31644409E-01 0.64854331E+02</pdfrwt>
<totfact> 0.14600847E+05</totfact>
</mgrwt>
</event>
<event>
 5    1  0.6125604E+000  0.9116649E+02  0.7546771E-02  0.1300051E+00
          1   -1    0    0  501    0  0.00000000000E+00  0.00000000000E+00  0.33551338485E+02  0.33551338485E+02  0.00000000000E+00 0.  1.
         -1   -1    0    0    0  501 -0.00000000000E+00 -0.00000000000E+00 -0.61929931587E+02  0.61929931587E+02  0.00000000000E+00 0. -1.
         23    2    1    2    0    0  0.00000000000E+00  0.00000000000E+00 -0.28378593102E+02  0.95481270072E+02  0.91166487198E+02 0.  0.
        -11    1    3    3    0    0 -0.12588479324E+01 -0.42017764474E+02 -0.32651857253E+02  0.53228009653E+02  0.00000000000E+00 0. -1.
         11    1    3    3    0    0  0.12588479324E+01  0.42017764474E+02  0.42732641503E+01  0.42253260419E+02  0.00000000000E+00 0.  1.
<mgrwt>
<rscale>  0 0.91166487E+02</rscale>
<asrwt>0</asrwt>
<pdfrwt beam="1">  1        1 0.51617444E-02 0.91166487E+02</pdfrwt>
<pdfrwt beam="2">  1       -1 0.95276817E-02 0.91166487E+02</pdfrwt>
<totfact> 0.88268375E+04</totfact>
</mgrwt>
</event>
<event>
 5    1  0.6125604E+000  0.9079863E+02  0.7546771E-02  0.1300929E+00
         -1   -1    0    0    0  501 -0.00000000000E+00  0.00000000000E+00  0.11397458852E+02  0.11397458852E+02  0.00000000000E+00 0.  1.
          1   -1    0    0  501    0  0.00000000000E+00 -0.00000000000E+00 -0.18083836513E+03  0.18083836513E+03  0.00000000000E+00 0. -1.
         23    2    1    2    0    0  0.00000000000E+00  0.00000000000E+00 -0.16944090628E+03  0.19223582398E+03  0.90798630505E+02 0.  0.
        -11    1    3    3    0    0  0.38244279000E+02  0.23722963243E+02 -0.72071563108E+02  0.84968900606E+02  0.00000000000E+00 0.  1.
         11    1    3    3    0    0 -0.38244279000E+02 -0.23722963243E+02 -0.97369343172E+02  0.10726692338E+03  0.00000000000E+00 0. -1.
<mgrwt>
<rscale>  0 0.90798631E+02</rscale>
<asrwt>0</asrwt>
<pdfrwt beam="2">  1        1 0.27821288E-01 0.90798631E+02</pdfrwt>
<pdfrwt beam="1">  1       -1 0.17534551E-02 0.90798631E+02</pdfrwt>
<totfact> 0.11743309E+05</totfact>
</mgrwt>
</event>
<event>
 5    1  0.6125604E+000  0.9100957E+02  0.7546771E-02  0.1300425E+00
         -2   -1    0    0    0  501 -0.00000000000E+00  0.00000000000E+00  0.12234364669E+02  0.12234364669E+02  0.00000000000E+00 0.  1.
          2   -1    0    0  501    0  0.00000000000E+00 -0.00000000000E+00 -0.16925158401E+03  0.16925158401E+03  0.00000000000E+00 0. -1.
         23    2    1    2    0    0  0.00000000000E+00  0.00000000000E+00 -0.15701721934E+03  0.18148594867E+03  0.91009573112E+02 0.  0.
        -11    1    3    3    0    0 -0.38043901932E+02  0.24782262211E+02 -0.84552734840E+02  0.95972204119E+02  0.00000000000E+00 0. -1.
         11    1    3    3    0    0  0.38043901932E+02 -0.24782262211E+02 -0.72464484497E+02  0.85513744555E+02  0.00000000000E+00 0.  1.
<mgrwt>
<rscale>  0 0.91009573E+02</rscale>
<asrwt>0</asrwt>
<pdfrwt beam="2">  1        2 0.26038705E-01 0.91009573E+02</pdfrwt>
<pdfrwt beam="1">  1       -2 0.18822100E-02 0.91009573E+02</pdfrwt>
<totfact> 0.14647950E+05</totfact>
</mgrwt>
</event>
<event>
 5    1  0.6125604E+000  0.9087745E+02  0.7546771E-02  0.1300741E+00
          2   -1    0    0  501    0  0.00000000000E+00  0.00000000000E+00  0.10304781495E+03  0.10304781495E+03  0.00000000000E+00 0. -1.
         -2   -1    0    0    0  501 -0.00000000000E+00 -0.00000000000E+00 -0.20036113948E+02  0.20036113948E+02  0.00000000000E+00 0.  1.
         23    2    1    2    0    0  0.00000000000E+00  0.00000000000E+00  0.83011701005E+02  0.12308392890E+03  0.90877450724E+02 0.  0.
        -11    1    3    3    0    0  0.18470638543E+02  0.24087554339E+01 -0.14627412074E+02  0.23683913843E+02  0.00000000000E+00 0.  1.
         11    1    3    3    0    0 -0.18470638543E+02 -0.24087554339E+01  0.97639113079E+02  0.99400015060E+02  0.00000000000E+00 0. -1.
<mgrwt>
<rscale>  0 0.90877451E+02</rscale>
<asrwt>0</asrwt>
<pdfrwt beam="1">  1        2 0.15853510E-01 0.90877451E+02</pdfrwt>
<pdfrwt beam="2">  1       -2 0.30824791E-02 0.90877451E+02</pdfrwt>
<totfact> 0.12493211E+05</totfact>
</mgrwt>
</event>
<event>
 5    1  0.6125604E+000  0.9557279E+02  0.7546771E-02  0.1289891E+00
          1   -1    0    0  501    0  0.00000000000E+00  0.00000000000E+00  0.73165654050E+02  0.73165654050E+02  0.00000000000E+00 0. -1.
         -1   -1    0    0    0  501 -0.00000000000E+00 -0.00000000000E+00 -0.31210537837E+02  0.31210537837E+02  0.00000000000E+00 0.  1.
         23    2    1    2    0    0  0.00000000000E+00  0.00000000000E+00  0.41955116214E+02  0.10437619189E+03  0.95572787216E+02 0.  0.
        -11    1    3    3    0    0  0.13999081209E+02  0.45682217462E+02  0.20063735611E+02  0.51820775309E+02  0.00000000000E+00 0. -1.
         11    1    3    3    0    0 -0.13999081209E+02 -0.45682217462E+02  0.21891380602E+02  0.52555416578E+02  0.00000000000E+00 0.  1.
<mgrwt>
<rscale>  0 0.95572787E+02</rscale>
<asrwt>0</asrwt>
<pdfrwt beam="1">  1        1 0.11256254E-01 0.95572787E+02</pdfrwt>
<pdfrwt beam="2">  1       -1 0.48016212E-02 0.95572787E+02</pdfrwt>
<totfact> 0.87216937E+04</totfact>
</mgrwt>
</event>
<event>
 5    1  0.6125604E+000  0.9246383E+02  0.7546771E-02  0.1296993E+00
          1   -1    0    0  501    0  0.00000000000E+00  0.00000000000E+00  0.13416597502E+03  0.13416597502E+03  0.00000000000E+00 0. -1.
         -1   -1    0    0    0  501 -0.00000000000E+00 -0.00000000000E+00 -0.15930939738E+02  0.15930939738E+02  0.00000000000E+00 0.  1.
         23    2    1    2    0    0  0.00000000000E+00  0.00000000000E+00  0.11823503528E+03  0.15009691476E+03  0.92463832129E+02 0.  0.
        -11    1    3    3    0    0  0.38747620093E+01  0.27351112227E+02  0.11929576496E+03  0.12245234444E+03  0.00000000000E+00 0. -1.
         11    1    3    3    0    0 -0.38747620093E+01 -0.27351112227E+02 -0.10607296803E+01  0.27644570320E+02  0.00000000000E+00 0.  1.
<mgrwt>
<rscale>  0 0.92463832E+02</rscale>
<asrwt>0</asrwt>
<pdfrwt beam="1">  1        1 0.20640919E-01 0.92463832E+02</pdfrwt>
<pdfrwt beam="2">  1       -1 0.24509139E-02 0.92463832E+02</pdfrwt>
<totfact> 0.10578958E+05</totfact>
</mgrwt>
</event>
<event>
 5    1  0.6125604E+000  0.9277894E+02  0.7546771E-02  0.1296258E+00
          4   -1    0    0  501    0  0.00000000000E+00  0.00000000000E+00  0.17222756854E+02  0.17222756854E+02  0.00000000000E+00 0. -1.
         -4   -1    0    0    0  501 -0.00000000000E+00 -0.00000000000E+00 -0.12494996344E+03  0.12494996344E+03  0.00000000000E+00 0.  1.
         23    2    1    2    0    0  0.00000000000E+00  0.00000000000E+00 -0.10772720658E+03  0.14217272029E+03  0.92778938110E+02 0.  0.
        -11    1    3    3    0    0 -0.44193763611E+02 -0.58683382246E+01 -0.34212240829E+02  0.56196116931E+02  0.00000000000E+00 0. -1.
         11    1    3    3    0    0  0.44193763611E+02  0.58683382246E+01 -0.73514965751E+02  0.85976603358E+02  0.00000000000E+00 0.  1.
<mgrwt>
<rscale>  0 0.92778938E+02</rscale>
<asrwt>0</asrwt>
<pdfrwt beam="1">  1        4 0.26496550E-02 0.92778938E+02</pdfrwt>
<pdfrwt beam="2">  1       -4 0.19223071E-01 0.92778938E+02</pdfrwt>
<totfact> 0.22965742E+04</totfact>
</mgrwt>
</event>
<event>
 5    1  0.6125604E+000  0.9211563E+02  0.7546771E-02  0.1297808E+00
          1   -1    0    0  501    0  0.00000000000E+00  0.00000000000E+00  0.28287677523E+02  0.28287677523E+02  0.00000000000E+00 0. -1.
         -1   -1    0    0    0  501 -0.00000000000E+00 -0.00000000000E+00 -0.74991044182E+02  0.74991044182E+02  0.00000000000E+00 0.  1.
         23    2    1    2    0    0  0.00000000000E+00  0.00000000000E+00 -0.46703366659E+02  0.10327872170E+03  0.92115633308E+02 0.  0.
        -11    1    3    3    0    0  0.32872660490E+02 -0.17638925202E+02 -0.53635713463E+02  0.65334012954E+02  0.00000000000E+00 0.  1.
         11    1    3    3    0    0 -0.32872660490E+02  0.17638925202E+02  0.69323468049E+01  0.37944708751E+02  0.00000000000E+00 0. -1.
<mgrwt>
<rscale>  0 0.92115633E+02</rscale>
<asrwt>0</asrwt>
<pdfrwt beam="1">  1        1 0.43519504E-02 0.92115633E+02</pdfrwt>
<pdfrwt beam="2">  1       -1 0.11537084E-01 0.92115633E+02</pdfrwt>
<totfact> 0.83357449E+04</totfact>
</mgrwt>
</event>
<event>
 5    1  0.6125604E+000  0.1255167E+03  0.7546771E-02  0.1234264E+00
          2   -1    0    0  501    0  0.00000000000E+00  0.00000000000E+00  0.23636717766E+03  0.23636717766E+03  0.00000000000E+00 0. -1.
         -2   -1    0    0    0  501 -0.00000000000E+00 -0.00000000000E+00 -0.16663091094E+02  0.16663091094E+02  0.00000000000E+00 0.  1.
         23    2    1    2    0    0  0.00000000000E+00  0.00000000000E+00  0.21970408656E+03  0.25303026875E+03  0.12551665727E+03 0.  0.
        -11    1    3    3    0    0  0.28623860646E+01 -0.53756875326E+02  0.44821749243E+02  0.70049868694E+02  0.00000000000E+00 0.  1.
         11    1    3    3    0    0 -0.28623860646E+01  0.53756875326E+02  0.17488233732E+03  0.18298040006E+03  0.00000000000E+00 0. -1.
<mgrwt>
<rscale>  0 0.12551666E+03</rscale>
<asrwt>0</asrwt>
<pdfrwt beam="1">  1        2 0.36364179E-01 0.12551666E+03</pdfrwt>
<pdfrwt beam="2">  1       -2 0.25635527E-02 0.12551666E+03</pdfrwt>
<totfact> 0.68597629E+04</totfact>
</mgrwt>
</event>
<event>
 5    1  0.6125604E+000  0.9220112E+02  0.7546771E-02  0.1297607E+00
          2   -1    0    0  501    0  0.00000000000E+00  0.00000000000E+00  0.21550928940E+03  0.21550928940E+03  0.00000000000E+00 0. -1.
         -2   -1    0    0    0  501 -0.00000000000E+00 -0.00000000000E+00 -0.98615789065E+01  0.98615789065E+01  0.00000000000E+00 0.  1.
         23    2    1    2    0    0  0.00000000000E+00  0.00000000000E+00  0.20564771050E+03  0.22537086831E+03  0.92201124994E+02 0.  0.
        -11    1    3    3    0    0 -0.41898899724E+02  0.19185647715E+02  0.10596840697E+03  0.11555479286E+03  0.00000000000E+00 0. -1.
         11    1    3    3    0    0  0.41898899724E+02 -0.19185647715E+02  0.99679303525E+02  0.10981607545E+03  0.00000000000E+00 0.  1.
<mgrwt>
<rscale>  0 0.92201125E+02</rscale>
<asrwt>0</asrwt>
<pdfrwt beam="1">  1        2 0.33155272E-01 0.92201125E+02</pdfrwt>
<pdfrwt beam="2">  1       -2 0.15171661E-02 0.92201125E+02</pdfrwt>
<totfact> 0.15422952E+05</totfact>
</mgrwt>
</event>
<event>
 5    1  0.6125604E+000  0.8893248E+02  0.7546771E-02  0.1305458E+00
          2   -1    0    0  501    0  0.00000000000E+00  0.00000000000E+00  0.32273420772E+03  0.32273420772E+03  0.00000000000E+00 0. -1.
         -2   -1    0    0    0  501 -0.00000000000E+00 -0.00000000000E+00 -0.61265475797E+01  0.61265475797E+01  0.00000000000E+00 0.  1.
         23    2    1    2    0    0  0.00000000000E+00  0.00000000000E+00  0.31660766014E+03  0.32886075530E+03  0.88932479538E+02 0.  0.
        -11    1    3    3    0    0 -0.30994671710E+02 -0.24675387272E+02  0.23296986787E+03  0.23631441714E+03  0.00000000000E+00 0.  1.
         11    1    3    3    0    0  0.30994671710E+02  0.24675387272E+02  0.83637792268E+02  0.92546338161E+02  0.00000000000E+00 0. -1.
<mgrwt>
<rscale>  0 0.88932480E+02</rscale>
<asrwt>0</asrwt>
<pdfrwt beam="1">  1        2 0.49651403E-01 0.88932480E+02</pdfrwt>
<pdfrwt beam="2">  1       -2 0.94254603E-03 0.88932480E+02</pdfrwt>
<totfact> 0.19725135E+05</totfact>
</mgrwt>
</event>
<event>
 5    1  0.6125604E+000  0.9162466E+02  0.7546771E-02  0.1298964E+00
         -1   -1    0    0    0  501 -0.00000000000E+00  0.00000000000E+00  0.26237147002E+02  0.26237147002E+02  0.00000000000E+00 0. -1.
          1   -1    0    0  501    0  0.00000000000E+00 -0.00000000000E+00 -0.79992292090E+02  0.79992292090E+02  0.00000000000E+00 0.  1.
         23    2    1    2    0    0  0.00000000000E+00  0.00000000000E+00 -0.53755145088E+02  0.10622943909E+03  0.91624658834E+02 0.  0.
        -11    1    3    3    0    0 -0.30940054917E+02 -0.33598531262E+02 -0.22758653289E+02  0.51030428185E+02  0.00000000000E+00 0. -1.
         11    1    3    3    0    0  0.30940054917E+02  0.33598531262E+02 -0.30996491800E+02  0.55199010907E+02  0.00000000000E+00 0.  1.
<mgrwt>
<rscale>  0 0.91624659E+02</rscale>
<asrwt>0</asrwt>
<pdfrwt beam="2">  1        1 0.12306506E-01 0.91624659E+02</pdfrwt>
<pdfrwt beam="1">  1       -1 0.40364842E-02 0.91624659E+02</pdfrwt>
<totfact> 0.99395140E+04</totfact>
</mgrwt>
</event>
<event>
 4    1  0.6125604E+000  0.1286672E+03  0.7546771E-02  0.1229447E+00
         -2   -1    0    0    0  501 -0.00000000000E+00  0.00000000000E+00  0.87835694254E+01  0.87835694254E+01  0.00000000000E+00 0. -1.
          2   -1    0    0  501    0  0.00000000000E+00 -0.00000000000E+00 -0.47119928043E+03  0.47119928043E+03  0.00000000000E+00 0.  1.
        -11    1    1    2    0    0 -0.31346664567E+02 -0.55309485309E+02 -0.26795942665E+03  0.27539790644E+03  0.00000000000E+00 0.  1.
         11    1    1    2    0    0  0.31346664567E+02  0.55309485309E+02 -0.19445628436E+03  0.20458494342E+03  0.00000000000E+00 0. -1.
<mgrwt>
<rscale>  0 0.12866719E+03</rscale>
<asrwt>0</asrwt>
<pdfrwt beam="2">  1        2 0.72492214E-01 0.12866719E+03</pdfrwt>
<pdfrwt beam="1">  1       -2 0.13513181E-02 0.12866719E+03</pdfrwt>
<totfact> 0.83445079E+04</totfact>
</mgrwt>
</event>
<event>
 5    1  0.6125604E+000  0.9301782E+02  0.7546771E-02  0.1295704E+00
          2   -1    0    0  501    0  0.00000000000E+00  0.00000000000E+00  0.63586648846E+02  0.63586648846E+02  0.00000000000E+00 0. -1.
         -2   -1    0    0    0  501 -0.00000000000E+00 -0.00000000000E+00 -0.34017813450E+02  0.34017813450E+02  0.00000000000E+00 0.  1.
         23    2    1    2    0    0  0.00000000000E+00  0.00000000000E+00  0.29568835396E+02  0.97604462296E+02  0.93017821052E+02 0.  0.
        -11    1    3    3    0    0  0.10613788130E+02 -0.11850886854E+02  0.60642747439E+02  0.62694807079E+02  0.00000000000E+00 0. -1.
         11    1    3    3    0    0 -0.10613788130E+02  0.11850886854E+02 -0.31073912043E+02  0.34909655217E+02  0.00000000000E+00 0.  1.
<mgrwt>
<rscale>  0 0.93017821E+02</rscale>
<asrwt>0</asrwt>
<pdfrwt beam="1">  1        2 0.97825614E-02 0.93017821E+02</pdfrwt>
<pdfrwt beam="2">  1       -2 0.52335098E-02 0.93017821E+02</pdfrwt>
<totfact> 0.10183961E+05</totfact>
</mgrwt>
</event>
<event>
 5    1  0.6125604E+000  0.8812967E+02  0.7546771E-02  0.1307445E+00
          2   -1    0    0  501    0  0.00000000000E+00  0.00000000000E+00  0.81882159417E+02  0.81882159417E+02  0.00000000000E+00 0. -1.
         -2   -1    0    0    0  501 -0.00000000000E+00 -0.00000000000E+00 -0.23713463376E+02  0.23713463376E+02  0.00000000000E+00 0.  1.
         23    2    1    2    0    0  0.00000000000E+00  0.00000000000E+00  0.58168696041E+02  0.10559562279E+03  0.88129667842E+02 0.  0.
        -11    1    3    3    0    0  0.23738208685E+02  0.20673021711E+02 -0.78623774623E+01  0.32445236285E+02  0.00000000000E+00 0.  1.
         11    1    3    3    0    0 -0.23738208685E+02 -0.20673021711E+02  0.66031073503E+02  0.73150386508E+02  0.00000000000E+00 0. -1.
<mgrwt>
<rscale>  0 0.88129668E+02</rscale>
<asrwt>0</asrwt>
<pdfrwt beam="1">  1        2 0.12597255E-01 0.88129668E+02</pdfrwt>
<pdfrwt beam="2">  1       -2 0.36482252E-02 0.88129668E+02</pdfrwt>
<totfact> 0.12702594E+05</totfact>
</mgrwt>
</event>
<event>
 5    1  0.6125604E+000  0.9159830E+02  0.7546771E-02  0.1299027E+00
          2   -1    0    0  501    0  0.00000000000E+00  0.00000000000E+00  0.11771802832E+03  0.11771802832E+03  0.00000000000E+00 0. -1.
         -2   -1    0    0    0  501 -0.00000000000E+00 -0.00000000000E+00 -0.17818530913E+02  0.17818530913E+02  0.00000000000E+00 0.  1.
         23    2    1    2    0    0  0.00000000000E+00  0.00000000000E+00  0.99899497407E+02  0.13553655923E+03  0.91598304060E+02 0.  0.
        -11    1    3    3    0    0  0.33999321554E+02 -0.30439404887E+02  0.44209205249E+02  0.63537115647E+02  0.00000000000E+00 0.  1.
         11    1    3    3    0    0 -0.33999321554E+02  0.30439404887E+02  0.55690292158E+02  0.71999443586E+02  0.00000000000E+00 0. -1.
<mgrwt>
<rscale>  0 0.91598304E+02</rscale>
<asrwt>0</asrwt>
<pdfrwt beam="1">  1        2 0.18110465E-01 0.91598304E+02</pdfrwt>
<pdfrwt beam="2">  1       -2 0.27413125E-02 0.91598304E+02</pdfrwt>
<totfact> 0.12745004E+05</totfact>
</mgrwt>
</event>
<event>
 5    1  0.6125604E+000  0.9012942E+02  0.7546771E-02  0.1302539E+00
          4   -1    0    0  501    0  0.00000000000E+00  0.00000000000E+00  0.50564093008E+02  0.50564093008E+02  0.00000000000E+00 0. -1.
         -4   -1    0    0    0  501 -0.00000000000E+00 -0.00000000000E+00 -0.40163447107E+02  0.40163447107E+02  0.00000000000E+00 0.  1.
         23    2    1    2    0    0  0.00000000000E+00  0.00000000000E+00  0.10400645901E+02  0.90727540114E+02  0.90129424164E+02 0.  0.
        -11    1    3    3    0    0 -0.96093873508E+01 -0.43115263379E+02 -0.37786243450E+01  0.44334459098E+02  0.00000000000E+00 0. -1.
         11    1    3    3    0    0  0.96093873508E+01  0.43115263379E+02  0.14179270246E+02  0.46393081017E+02  0.00000000000E+00 0.  1.
<mgrwt>
<rscale>  0 0.90129424E+02</rscale>
<asrwt>0</asrwt>
<pdfrwt beam="1">  1        4 0.77790913E-02 0.90129424E+02</pdfrwt>
<pdfrwt beam="2">  1       -4 0.61789918E-02 0.90129424E+02</pdfrwt>
<totfact> 0.27905323E+04</totfact>
</mgrwt>
</event>
<event>
 5    1  0.6125604E+000  0.1024150E+03  0.7546771E-02  0.1275298E+00
         -4   -1    0    0    0  501 -0.00000000000E+00  0.00000000000E+00  0.33596773062E+02  0.33596773062E+02  0.00000000000E+00 0.  1.
          4   -1    0    0  501    0  0.00000000000E+00 -0.00000000000E+00 -0.78049457632E+02  0.78049457632E+02  0.00000000000E+00 0. -1.
         23    2    1    2    0    0  0.00000000000E+00  0.00000000000E+00 -0.44452684571E+02  0.11164623069E+03  0.10241503631E+03 0.  0.
        -11    1    3    3    0    0 -0.70399938844E+01  0.45188373048E+02 -0.47338743973E+02  0.65821784036E+02  0.00000000000E+00 0.  1.
         11    1    3    3    0    0  0.70399938844E+01 -0.45188373048E+02  0.28860594029E+01  0.45824446658E+02  0.00000000000E+00 0. -1.
<mgrwt>
<rscale>  0 0.10241504E+03</rscale>
<asrwt>0</asrwt>
<pdfrwt beam="2">  1        4 0.12007609E-01 0.10241504E+03</pdfrwt>
<pdfrwt beam="1">  1       -4 0.51687343E-02 0.10241504E+03</pdfrwt>
<totfact> 0.18752149E+04</totfact>
</mgrwt>
</event>
<event>
 5    1  0.6125604E+000  0.8506461E+02  0.7546771E-02  0.1315264E+00
          4   -1    0    0  501    0  0.00000000000E+00  0.00000000000E+00  0.48523589238E+02  0.48523589238E+02  0.00000000000E+00 0. -1.
         -4   -1    0    0    0  501 -0.00000000000E+00 -0.00000000000E+00 -0.37280775915E+02  0.37280775915E+02  0.00000000000E+00 0.  1.
         23    2    1    2    0    0  0.00000000000E+00  0.00000000000E+00  0.11242813323E+02  0.85804365153E+02  0.85064612077E+02 0.  0.
        -11    1    3    3    0    0  0.20503965380E+02 -0.36551520103E+02 -0.16922220692E+01  0.41943889110E+02  0.00000000000E+00 0.  1.
         11    1    3    3    0    0 -0.20503965380E+02  0.36551520103E+02  0.12935035392E+02  0.43860476043E+02  0.00000000000E+00 0. -1.
<mgrwt>
<rscale>  0 0.85064612E+02</rscale>
<asrwt>0</asrwt>
<pdfrwt beam="1">  1        4 0.74651676E-02 0.85064612E+02</pdfrwt>
<pdfrwt beam="2">  1       -4 0.57355040E-02 0.85064612E+02</pdfrwt>
<totfact> 0.33005716E+04</totfact>
</mgrwt>
</event>
<event>
 5    1  0.6125604E+000  0.1120591E+03  0.7546771E-02  0.1256804E+00
          2   -1    0    0  501    0  0.00000000000E+00  0.00000000000E+00  0.94332773050E+01  0.94332773050E+01  0.00000000000E+00 0. -1.
         -2   -1    0    0    0  501 -0.00000000000E+00 -0.00000000000E+00 -0.33279108193E+03  0.33279108193E+03  0.00000000000E+00 0.  1.
         23    2    1    2    0    0  0.00000000000E+00  0.00000000000E+00 -0.32335780463E+03  0.34222435924E+03  0.11205910156E+03 0.  0.
        -11    1    3    3    0    0 -0.19224876478E+02 -0.46917814256E+02 -0.88866799558E+02  0.10231414972E+03  0.00000000000E+00 0. -1.
         11    1    3    3    0    0  0.19224876478E+02  0.46917814256E+02 -0.23449100507E+03  0.23991020951E+03  0.00000000000E+00 0.  1.
<mgrwt>
<rscale>  0 0.11205910E+03</rscale>
<asrwt>0</asrwt>
<pdfrwt beam="1">  1        2 0.14512737E-02 0.11205910E+03</pdfrwt>
<pdfrwt beam="2">  1       -2 0.51198619E-01 0.11205910E+03</pdfrwt>
<totfact> 0.28136091E+04</totfact>
</mgrwt>
</event>
<event>
 5    1  0.6125604E+000  0.9087421E+02  0.7546771E-02  0.1300748E+00
         -2   -1    0    0    0  501 -0.00000000000E+00  0.00000000000E+00  0.10672520043E+03  0.10672520043E+03  0.00000000000E+00 0. -1.
          2   -1    0    0  501    0  0.00000000000E+00 -0.00000000000E+00 -0.19344356815E+02  0.19344356815E+02  0.00000000000E+00 0.  1.
         23    2    1    2    0    0  0.00000000000E+00  0.00000000000E+00  0.87380843619E+02  0.12606955725E+03  0.90874206645E+02 0.  0.
        -11    1    3    3    0    0 -0.17896417168E+02 -0.36780610219E+02  0.16243123531E+02  0.44010613465E+02  0.00000000000E+00 0.  1.
         11    1    3    3    0    0  0.17896417168E+02  0.36780610219E+02  0.71137720088E+02  0.82058943784E+02  0.00000000000E+00 0. -1.
<mgrwt>
<rscale>  0 0.90874207E+02</rscale>
<asrwt>0</asrwt>
<pdfrwt beam="2">  1        2 0.29760549E-02 0.90874207E+02</pdfrwt>
<pdfrwt beam="1">  1       -2 0.16419261E-01 0.90874207E+02</pdfrwt>
<totfact> 0.78903307E+04</totfact>
</mgrwt>
</event>
<event>
 5    1  0.6125604E+000  0.8863864E+02  0.7546771E-02  0.1306182E+00
         -2   -1    0    0    0  501 -0.00000000000E+00  0.00000000000E+00  0.72807600142E+02  0.72807600142E+02  0.00000000000E+00 0. -1.
          2   -1    0    0  501    0  0.00000000000E+00 -0.00000000000E+00 -0.26977982001E+02  0.26977982001E+02  0.00000000000E+00 0.  1.
         23    2    1    2    0    0  0.00000000000E+00  0.00000000000E+00  0.45829618141E+02  0.99785582143E+02  0.88638640020E+02 0.  0.
        -11    1    3    3    0    0  0.97896150619E+01 -0.26431947244E+02  0.61416982619E+02  0.67576106370E+02  0.00000000000E+00 0. -1.
         11    1    3    3    0    0 -0.97896150619E+01  0.26431947244E+02 -0.15587364478E+02  0.32209475773E+02  0.00000000000E+00 0.  1.
<mgrwt>
<rscale>  0 0.88638640E+02</rscale>
<asrwt>0</asrwt>
<pdfrwt beam="2">  1        2 0.41504588E-02 0.88638640E+02</pdfrwt>
<pdfrwt beam="1">  1       -2 0.11201169E-01 0.88638640E+02</pdfrwt>
<totfact> 0.93523149E+04</totfact>
</mgrwt>
</event>
<event>
 5    1  0.6125604E+000  0.9521809E+02  0.7546771E-02  0.1290686E+00
          1   -1    0    0  501    0  0.00000000000E+00  0.00000000000E+00  0.36142760426E+03  0.36142760426E+03  0.00000000000E+00 0. -1.
         -1   -1    0    0    0  501 -0.00000000000E+00 -0.00000000000E+00 -0.62713008024E+01  0.62713008024E+01  0.00000000000E+00 0.  1.
         23    2    1    2    0    0  0.00000000000E+00  0.00000000000E+00  0.35515630345E+03  0.36769890506E+03  0.95218091235E+02 0.  0.
        -11    1    3    3    0    0  0.40668553750E+02 -0.24103549909E+02  0.19932333430E+03  0.20485288374E+03  0.00000000000E+00 0.  1.
         11    1    3    3    0    0 -0.40668553750E+02  0.24103549909E+02  0.15583296916E+03  0.16284602132E+03  0.00000000000E+00 0. -1.
<mgrwt>
<rscale>  0 0.95218091E+02</rscale>
<asrwt>0</asrwt>
<pdfrwt beam="1">  1        1 0.55604230E-01 0.95218091E+02</pdfrwt>
<pdfrwt beam="2">  1       -1 0.96481579E-03 0.95218091E+02</pdfrwt>
<totfact> 0.11811088E+05</totfact>
</mgrwt>
</event>
<event>
 5    1  0.6125604E+000  0.9083821E+02  0.7546771E-02  0.1300834E+00
         -2   -1    0    0    0  501 -0.00000000000E+00  0.00000000000E+00  0.23982919688E+02  0.23982919688E+02  0.00000000000E+00 0. -1.
          2   -1    0    0  501    0  0.00000000000E+00 -0.00000000000E+00 -0.86015178049E+02  0.86015178049E+02  0.00000000000E+00 0.  1.
         23    2    1    2    0    0  0.00000000000E+00  0.00000000000E+00 -0.62032258361E+02  0.10999809774E+03  0.90838210178E+02 0.  0.
        -11    1    3    3    0    0  0.35202406761E+02  0.25861112472E+02 -0.46086579548E+02  0.63497869212E+02  0.00000000000E+00 0. -1.
         11    1    3    3    0    0 -0.35202406761E+02 -0.25861112472E+02 -0.15945678812E+02  0.46500228524E+02  0.00000000000E+00 0.  1.
<mgrwt>
<rscale>  0 0.90838210E+02</rscale>
<asrwt>0</asrwt>
<pdfrwt beam="2">  1        2 0.13233104E-01 0.90838210E+02</pdfrwt>
<pdfrwt beam="1">  1       -2 0.36896799E-02 0.90838210E+02</pdfrwt>
<totfact> 0.11850176E+05</totfact>
</mgrwt>
</event>
<event>
 5    1  0.6125604E+000  0.9047684E+02  0.7546771E-02  0.1301701E+00
         -4   -1    0    0    0  501 -0.00000000000E+00  0.00000000000E+00  0.37378925159E+02  0.37378925159E+02  0.00000000000E+00 0.  1.
          4   -1    0    0  501    0  0.00000000000E+00 -0.00000000000E+00 -0.54750496018E+02  0.54750496018E+02  0.00000000000E+00 0. -1.
         23    2    1    2    0    0  0.00000000000E+00  0.00000000000E+00 -0.17371570859E+02  0.92129421176E+02  0.90476841082E+02 0.  0.
        -11    1    3    3    0    0  0.64072929230E+01 -0.28518032566E+02  0.26472881141E+02  0.39435327055E+02  0.00000000000E+00 0.  1.
         11    1    3    3    0    0 -0.64072929230E+01  0.28518032566E+02 -0.43844452001E+02  0.52694094121E+02  0.00000000000E+00 0. -1.
<mgrwt>
<rscale>  0 0.90476841E+02</rscale>
<asrwt>0</asrwt>
<pdfrwt beam="2">  1        4 0.84231532E-02 0.90476841E+02</pdfrwt>
<pdfrwt beam="1">  1       -4 0.57506039E-02 0.90476841E+02</pdfrwt>
<totfact> 0.27523915E+04</totfact>
</mgrwt>
</event>
<event>
 5    1  0.6125604E+000  0.9673016E+02  0.7546771E-02  0.1287326E+00
          1   -1    0    0  501    0  0.00000000000E+00  0.00000000000E+00  0.53346681652E+01  0.53346681652E+01  0.00000000000E+00 0. -1.
         -1   -1    0    0    0  501 -0.00000000000E+00 -0.00000000000E+00 -0.43848669614E+03  0.43848669614E+03  0.00000000000E+00 0.  1.
         23    2    1    2    0    0  0.00000000000E+00  0.00000000000E+00 -0.43315202798E+03  0.44382136431E+03  0.96730161145E+02 0.  0.
        -11    1    3    3    0    0  0.48213808493E+02  0.30424792096E+01 -0.20596039538E+03  0.21155025992E+03  0.00000000000E+00 0.  1.
         11    1    3    3    0    0 -0.48213808493E+02 -0.30424792096E+01 -0.22719163260E+03  0.23227110439E+03  0.00000000000E+00 0. -1.
<mgrwt>
<rscale>  0 0.96730161E+02</rscale>
<asrwt>0</asrwt>
<pdfrwt beam="1">  1        1 0.82071816E-03 0.96730161E+02</pdfrwt>
<pdfrwt beam="2">  1       -1 0.67459494E-01 0.96730161E+02</pdfrwt>
<totfact> 0.43467701E+04</totfact>
</mgrwt>
</event>
<event>
 5    1  0.6125604E+000  0.8966918E+02  0.7546771E-02  0.1303655E+00
         -2   -1    0    0    0  501 -0.00000000000E+00  0.00000000000E+00  0.38188947061E+02  0.38188947061E+02  0.00000000000E+00 0.  1.
          2   -1    0    0  501    0  0.00000000000E+00 -0.00000000000E+00 -0.52636707466E+02  0.52636707466E+02  0.00000000000E+00 0. -1.
         23    2    1    2    0    0  0.00000000000E+00  0.00000000000E+00 -0.14447760404E+02  0.90825654527E+02  0.89669179429E+02 0.  0.
        -11    1    3    3    0    0 -0.26839834572E+02  0.15605127950E+02 -0.39986737333E+02  0.50624459510E+02  0.00000000000E+00 0. -1.
         11    1    3    3    0    0  0.26839834572E+02 -0.15605127950E+02  0.25538976928E+02  0.40201195017E+02  0.00000000000E+00 0.  1.
<mgrwt>
<rscale>  0 0.89669179E+02</rscale>
<asrwt>0</asrwt>
<pdfrwt beam="2">  1        2 0.80979550E-02 0.89669179E+02</pdfrwt>
<pdfrwt beam="1">  1       -2 0.58752226E-02 0.89669179E+02</pdfrwt>
<totfact> 0.10740844E+05</totfact>
</mgrwt>
</event>
<event>
 5    1  0.6125604E+000  0.9057253E+02  0.7546771E-02  0.1301471E+00
         -3   -1    0    0    0  501 -0.00000000000E+00  0.00000000000E+00  0.29693763716E+02  0.29693763716E+02  0.00000000000E+00 0.  1.
          3   -1    0    0  501    0  0.00000000000E+00 -0.00000000000E+00 -0.69066546473E+02  0.69066546473E+02  0.00000000000E+00 0. -1.
         23    2    1    2    0    0  0.00000000000E+00  0.00000000000E+00 -0.39372782757E+02  0.98760310189E+02  0.90572528101E+02 0.  0.
        -11    1    3    3    0    0 -0.13209841998E+02 -0.21608850726E+01  0.27487459832E+02  0.30573351107E+02  0.00000000000E+00 0.  1.
         11    1    3    3    0    0  0.13209841998E+02  0.21608850726E+01 -0.66860242589E+02  0.68186959082E+02  0.00000000000E+00 0. -1.
<mgrwt>
<rscale>  0 0.90572528E+02</rscale>
<asrwt>0</asrwt>
<pdfrwt beam="2">  1        3 0.10625622E-01 0.90572528E+02</pdfrwt>
<pdfrwt beam="1">  1       -3 0.45682714E-02 0.90572528E+02</pdfrwt>
<totfact> 0.35397351E+04</totfact>
</mgrwt>
</event>
<event>
 5    1  0.6125604E+000  0.9157512E+02  0.7546771E-02  0.1299082E+00
          2   -1    0    0  501    0  0.00000000000E+00  0.00000000000E+00  0.16682815810E+03  0.16682815810E+03  0.00000000000E+00 0. -1.
         -2   -1    0    0    0  501 -0.00000000000E+00 -0.00000000000E+00 -0.12566826556E+02  0.12566826556E+02  0.00000000000E+00 0.  1.
         23    2    1    2    0    0  0.00000000000E+00  0.00000000000E+00  0.15426133154E+03  0.17939498465E+03  0.91575117306E+02 0.  0.
        -11    1    3    3    0    0 -0.54906100454E+01  0.43324828544E+02  0.10408465106E+03  0.11287516181E+03  0.00000000000E+00 0. -1.
         11    1    3    3    0    0  0.54906100454E+01 -0.43324828544E+02  0.50176680477E+02  0.66519822840E+02  0.00000000000E+00 0.  1.
<mgrwt>
<rscale>  0 0.91575117E+02</rscale>
<asrwt>0</asrwt>
<pdfrwt beam="1">  1        2 0.25665869E-01 0.91575117E+02</pdfrwt>
<pdfrwt beam="2">  1       -2 0.19333581E-02 0.91575117E+02</pdfrwt>
<totfact> 0.14332031E+05</totfact>
</mgrwt>
</event>
<event>
 5    1  0.6125604E+000  0.9057678E+02  0.7546771E-02  0.1301461E+00
          1   -1    0    0  501    0  0.00000000000E+00  0.00000000000E+00  0.18488354107E+02  0.18488354107E+02  0.00000000000E+00 0. -1.
         -1   -1    0    0    0  501 -0.00000000000E+00 -0.00000000000E+00 -0.11093676542E+03  0.11093676542E+03  0.00000000000E+00 0.  1.
         23    2    1    2    0    0  0.00000000000E+00  0.00000000000E+00 -0.92448411312E+02  0.12942511953E+03  0.90576778538E+02 0.  0.
        -11    1    3    3    0    0 -0.66323838255E+01  0.38453021413E+02 -0.13377697778E+02  0.41250286894E+02  0.00000000000E+00 0.  1.
         11    1    3    3    0    0  0.66323838255E+01 -0.38453021413E+02 -0.79070713534E+02  0.88174832633E+02  0.00000000000E+00 0. -1.
<mgrwt>
<rscale>  0 0.90576779E+02</rscale>
<asrwt>0</asrwt>
<pdfrwt beam="1">  1        1 0.28443622E-02 0.90576779E+02</pdfrwt>
<pdfrwt beam="2">  1       -1 0.17067194E-01 0.90576779E+02</pdfrwt>
<totfact> 0.81145225E+04</totfact>
</mgrwt>
</event>
<event>
 5    1  0.6125604E+000  0.9114343E+02  0.7546771E-02  0.1300106E+00
          2   -1    0    0  501    0  0.00000000000E+00  0.00000000000E+00  0.55780693855E+02  0.55780693855E+02  0.00000000000E+00 0. -1.
         -2   -1    0    0    0  501 -0.00000000000E+00 -0.00000000000E+00 -0.37231184092E+02  0.37231184092E+02  0.00000000000E+00 0.  1.
         23    2    1    2    0    0  0.00000000000E+00  0.00000000000E+00  0.18549509763E+02  0.93011877947E+02  0.91143431616E+02 0.  0.
        -11    1    3    3    0    0  0.35273249633E+02  0.72889134348E+00  0.38711323996E+02  0.52376521723E+02  0.00000000000E+00 0. -1.
         11    1    3    3    0    0 -0.35273249633E+02 -0.72889134348E+00 -0.20161814233E+02  0.40635356224E+02  0.00000000000E+00 0.  1.
<mgrwt>
<rscale>  0 0.91143432E+02</rscale>
<asrwt>0</asrwt>
<pdfrwt beam="1">  1        2 0.85816452E-02 0.91143432E+02</pdfrwt>
<pdfrwt beam="2">  1       -2 0.57278745E-02 0.91143432E+02</pdfrwt>
<totfact> 0.10413594E+05</totfact>
</mgrwt>
</event>
<event>
 5    1  0.6125604E+000  0.9031225E+02  0.7546771E-02  0.1302097E+00
          1   -1    0    0  501    0  0.00000000000E+00  0.00000000000E+00  0.68168470007E+02  0.68168470007E+02  0.00000000000E+00 0. -1.
         -1   -1    0    0    0  501 -0.00000000000E+00 -0.00000000000E+00 -0.29912297329E+02  0.29912297329E+02  0.00000000000E+00 0.  1.
         23    2    1    2    0    0  0.00000000000E+00  0.00000000000E+00  0.38256172678E+02  0.98080767336E+02  0.90312248191E+02 0.  0.
        -11    1    3    3    0    0  0.23671447609E+02  0.21352074245E+02  0.53860766816E+02  0.62587784020E+02  0.00000000000E+00 0. -1.
         11    1    3    3    0    0 -0.23671447609E+02 -0.21352074245E+02 -0.15604594139E+02  0.35492983316E+02  0.00000000000E+00 0.  1.
<mgrwt>
<rscale>  0 0.90312248E+02</rscale>
<asrwt>0</asrwt>
<pdfrwt beam="1">  1        1 0.10487457E-01 0.90312248E+02</pdfrwt>
<pdfrwt beam="2">  1       -1 0.46018919E-02 0.90312248E+02</pdfrwt>
<totfact> 0.10088005E+05</totfact>
</mgrwt>
</event>
<event>
 5    1  0.6125604E+000  0.9098155E+02  0.7546771E-02  0.1300492E+00
         -4   -1    0    0    0  501 -0.00000000000E+00  0.00000000000E+00  0.23053540962E+02  0.23053540962E+02  0.00000000000E+00 0.  1.
          4   -1    0    0  501    0  0.00000000000E+00 -0.00000000000E+00 -0.89765411034E+02  0.89765411034E+02  0.00000000000E+00 0. -1.
         23    2    1    2    0    0  0.00000000000E+00  0.00000000000E+00 -0.66711870072E+02  0.11281895200E+03  0.90981549345E+02 0.  0.
        -11    1    3    3    0    0 -0.80020443497E+01  0.29402017577E+02  0.85284724573E+01  0.31642474521E+02  0.00000000000E+00 0.  1.
         11    1    3    3    0    0  0.80020443497E+01 -0.29402017577E+02 -0.75240342529E+02  0.81176477475E+02  0.00000000000E+00 0. -1.
<mgrwt>
<rscale>  0 0.90981549E+02</rscale>
<asrwt>0</asrwt>
<pdfrwt beam="2">  1        4 0.13810063E-01 0.90981549E+02</pdfrwt>
<pdfrwt beam="1">  1       -4 0.35466986E-02 0.90981549E+02</pdfrwt>
<totfact> 0.25836033E+04</totfact>
</mgrwt>
</event>
<event>
 5    1  0.6125604E+000  0.9018302E+02  0.7546771E-02  0.1302409E+00
          1   -1    0    0  501    0  0.00000000000E+00  0.00000000000E+00  0.22376300244E+03  0.22376300244E+03  0.00000000000E+00 0. -1.
         -1   -1    0    0    0  501 -0.00000000000E+00 -0.00000000000E+00 -0.90865962939E+01  0.90865962939E+01  0.00000000000E+00 0.  1.
         23    2    1    2    0    0  0.00000000000E+00  0.00000000000E+00  0.21467640615E+03  0.23284959873E+03  0.90183015445E+02 0.  0.
        -11    1    3    3    0    0  0.70214311498E+01 -0.35640635388E+02  0.38361068978E+02  0.52831117719E+02  0.00000000000E+00 0.  1.
         11    1    3    3    0    0 -0.70214311498E+01  0.35640635388E+02  0.17631533717E+03  0.18001848101E+03  0.00000000000E+00 0. -1.
<mgrwt>
<rscale>  0 0.90183015E+02</rscale>
<asrwt>0</asrwt>
<pdfrwt beam="1">  1        1 0.34425073E-01 0.90183015E+02</pdfrwt>
<pdfrwt beam="2">  1       -1 0.13979381E-02 0.90183015E+02</pdfrwt>
<totfact> 0.12462201E+05</totfact>
</mgrwt>
</event>
<event>
 5    1  0.6125604E+000  0.8618623E+02  0.7546771E-02  0.1312359E+00
          1   -1    0    0  501    0  0.00000000000E+00  0.00000000000E+00  0.40962851729E+02  0.40962851729E+02  0.00000000000E+00 0. -1.
         -1   -1    0    0    0  501 -0.00000000000E+00 -0.00000000000E+00 -0.45334159961E+02  0.45334159961E+02  0.00000000000E+00 0.  1.
         23    2    1    2    0    0  0.00000000000E+00  0.00000000000E+00 -0.43713082313E+01  0.86297011690E+02  0.86186227966E+02 0.  0.
        -11    1    3    3    0    0 -0.27952491230E+02 -0.51677730606E+00  0.30649907117E+02  0.41485245944E+02  0.00000000000E+00 0. -1.
         11    1    3    3    0    0  0.27952491230E+02  0.51677730606E+00 -0.35021215348E+02  0.44811765746E+02  0.00000000000E+00 0.  1.
<mgrwt>
<rscale>  0 0.86186228E+02</rscale>
<asrwt>0</asrwt>
<pdfrwt beam="1">  1        1 0.63019772E-02 0.86186228E+02</pdfrwt>
<pdfrwt beam="2">  1       -1 0.69744861E-02 0.86186228E+02</pdfrwt>
<totfact> 0.10655943E+05</totfact>
</mgrwt>
</event>
<event>
 5    1  0.6125604E+000  0.9176076E+02  0.7546771E-02  0.1298643E+00
          2   -1    0    0  501    0  0.00000000000E+00  0.00000000000E+00  0.15620968984E+03  0.15620968984E+03  0.00000000000E+00 0. -1.
         -2   -1    0    0    0  501 -0.00000000000E+00 -0.00000000000E+00 -0.13475535124E+02  0.13475535124E+02  0.00000000000E+00 0.  1.
         23    2    1    2    0    0  0.00000000000E+00  0.00000000000E+00  0.14273415472E+03  0.16968522496E+03  0.91760757674E+02 0.  0.
        -11    1    3    3    0    0  0.26809474124E+02 -0.30121989695E+02  0.11183600502E+03  0.11888386848E+03  0.00000000000E+00 0. -1.
         11    1    3    3    0    0 -0.26809474124E+02  0.30121989695E+02  0.30898149694E+02  0.50801356482E+02  0.00000000000E+00 0.  1.
<mgrwt>
<rscale>  0 0.91760758E+02</rscale>
<asrwt>0</asrwt>
<pdfrwt beam="1">  1        2 0.24032259E-01 0.91760758E+02</pdfrwt>
<pdfrwt beam="2">  1       -2 0.20731594E-02 0.91760758E+02</pdfrwt>
<totfact> 0.13932623E+05</totfact>
</mgrwt>
</event>
<event>
 5    1  0.6125604E+000  0.9139629E+02  0.7546771E-02  0.1299505E+00
         -1   -1    0    0    0  501 -0.00000000000E+00  0.00000000000E+00  0.51428695826E+02  0.51428695826E+02  0.00000000000E+00 0.  1.
          1   -1    0    0  501    0  0.00000000000E+00 -0.00000000000E+00 -0.40606135279E+02  0.40606135279E+02  0.00000000000E+00 0. -1.
         23    2    1    2    0    0  0.00000000000E+00  0.00000000000E+00  0.10822560547E+02  0.92034831105E+02  0.91396292703E+02 0.  0.
        -11    1    3    3    0    0  0.20588931009E+02  0.38626649201E+02  0.18633073016E+02  0.47572192704E+02  0.00000000000E+00 0.  1.
         11    1    3    3    0    0 -0.20588931009E+02 -0.38626649201E+02 -0.78105124698E+01  0.44462638402E+02  0.00000000000E+00 0. -1.
<mgrwt>
<rscale>  0 0.91396293E+02</rscale>
<asrwt>0</asrwt>
<pdfrwt beam="2">  1        1 0.62470977E-02 0.91396293E+02</pdfrwt>
<pdfrwt beam="1">  1       -1 0.79121071E-02 0.91396293E+02</pdfrwt>
<totfact> 0.90255724E+04</totfact>
</mgrwt>
</event>
<event>
 5    1  0.6125604E+000  0.9585037E+02  0.7546771E-02  0.1289272E+00
          2   -1    0    0  501    0  0.00000000000E+00  0.00000000000E+00  0.78731500692E+02  0.78731500692E+02  0.00000000000E+00 0.  1.
         -2   -1    0    0    0  501 -0.00000000000E+00 -0.00000000000E+00 -0.29172865379E+02  0.29172865379E+02  0.00000000000E+00 0. -1.
         23    2    1    2    0    0  0.00000000000E+00  0.00000000000E+00  0.49558635313E+02  0.10790436607E+03  0.95850372369E+02 0.  0.
        -11    1    3    3    0    0  0.36552896192E+02  0.11595696602E+02 -0.75801005927E+01  0.39090054038E+02  0.00000000000E+00 0. -1.
         11    1    3    3    0    0 -0.36552896192E+02 -0.11595696602E+02  0.57138735905E+02  0.68814312033E+02  0.00000000000E+00 0.  1.
<mgrwt>
<rscale>  0 0.95850372E+02</rscale>
<asrwt>0</asrwt>
<pdfrwt beam="1">  1        2 0.12112538E-01 0.95850372E+02</pdfrwt>
<pdfrwt beam="2">  1       -2 0.44881332E-02 0.95850372E+02</pdfrwt>
<totfact> 0.99423617E+04</totfact>
</mgrwt>
</event>
<event>
 5    1  0.6125604E+000  0.8987718E+02  0.7546771E-02  0.1303149E+00
         -1   -1    0    0    0  501 -0.00000000000E+00  0.00000000000E+00  0.62231969590E+02  0.62231969590E+02  0.00000000000E+00 0.  1.
          1   -1    0    0  501    0  0.00000000000E+00 -0.00000000000E+00 -0.32450792081E+02  0.32450792081E+02  0.00000000000E+00 0. -1.
         23    2    1    2    0    0  0.00000000000E+00  0.00000000000E+00  0.29781177509E+02  0.94682761670E+02  0.89877176322E+02 0.  0.
        -11    1    3    3    0    0  0.35871326788E+02  0.91234203692E+01  0.41738283604E+02  0.55785958834E+02  0.00000000000E+00 0. -1.
         11    1    3    3    0    0 -0.35871326788E+02 -0.91234203692E+01 -0.11957106095E+02  0.38896802837E+02  0.00000000000E+00 0.  1.
<mgrwt>
<rscale>  0 0.89877176E+02</rscale>
<asrwt>0</asrwt>
<pdfrwt beam="2">  1        1 0.49924296E-02 0.89877176E+02</pdfrwt>
<pdfrwt beam="1">  1       -1 0.95741491E-02 0.89877176E+02</pdfrwt>
<totfact> 0.91445810E+04</totfact>
</mgrwt>
</event>
<event>
 5    1  0.6125604E+000  0.9121977E+02  0.7546771E-02  0.1299924E+00
          2   -1    0    0  501    0  0.00000000000E+00  0.00000000000E+00  0.16009283425E+03  0.16009283425E+03  0.00000000000E+00 0.  1.
         -2   -1    0    0    0  501 -0.00000000000E+00 -0.00000000000E+00 -0.12994097117E+02  0.12994097117E+02  0.00000000000E+00 0. -1.
         23    2    1    2    0    0  0.00000000000E+00  0.00000000000E+00  0.14709873713E+03  0.17308693137E+03  0.91219774961E+02 0.  0.
        -11    1    3    3    0    0  0.44705625165E+02  0.85408226152E+01  0.67945153662E+02  0.81780697469E+02  0.00000000000E+00 0. -1.
         11    1    3    3    0    0 -0.44705625165E+02 -0.85408226152E+01  0.79153583473E+02  0.91306233900E+02  0.00000000000E+00 0.  1.
<mgrwt>
<rscale>  0 0.91219775E+02</rscale>
<asrwt>0</asrwt>
<pdfrwt beam="1">  1        2 0.24629665E-01 0.91219775E+02</pdfrwt>
<pdfrwt beam="2">  1       -2 0.19990920E-02 0.91219775E+02</pdfrwt>
<totfact> 0.14278264E+05</totfact>
</mgrwt>
</event>
<event>
 5    1  0.6125604E+000  0.9136754E+02  0.7546771E-02  0.1299573E+00
         -1   -1    0    0    0  501 -0.00000000000E+00  0.00000000000E+00  0.14198139713E+03  0.14198139713E+03  0.00000000000E+00 0.  1.
          1   -1    0    0  501    0  0.00000000000E+00 -0.00000000000E+00 -0.14699158127E+02  0.14699158127E+02  0.00000000000E+00 0. -1.
         23    2    1    2    0    0  0.00000000000E+00  0.00000000000E+00  0.12728223901E+03  0.15668055526E+03  0.91367543635E+02 0.  0.
        -11    1    3    3    0    0  0.21813277148E+02  0.38585369264E+02  0.82609836815E+02  0.93749852905E+02  0.00000000000E+00 0.  1.
         11    1    3    3    0    0 -0.21813277148E+02 -0.38585369264E+02  0.44672402191E+02  0.62930702354E+02  0.00000000000E+00 0. -1.
<mgrwt>
<rscale>  0 0.91367544E+02</rscale>
<asrwt>0</asrwt>
<pdfrwt beam="2">  1        1 0.22614090E-02 0.91367544E+02</pdfrwt>
<pdfrwt beam="1">  1       -1 0.21843291E-01 0.91367544E+02</pdfrwt>
<totfact> 0.75330322E+04</totfact>
</mgrwt>
</event>
<event>
 5    1  0.6125604E+000  0.8892205E+02  0.7546771E-02  0.1305483E+00
         -1   -1    0    0    0  501 -0.00000000000E+00  0.00000000000E+00  0.65979247670E+01  0.65979247670E+01  0.00000000000E+00 0.  1.
          1   -1    0    0  501    0  0.00000000000E+00 -0.00000000000E+00 -0.29960675198E+03  0.29960675198E+03  0.00000000000E+00 0. -1.
         23    2    1    2    0    0  0.00000000000E+00  0.00000000000E+00 -0.29300882722E+03  0.30620467675E+03  0.88922051467E+02 0.  0.
        -11    1    3    3    0    0  0.37301178532E+02 -0.15113530086E+02 -0.81442325450E+02  0.90844092193E+02  0.00000000000E+00 0.  1.
         11    1    3    3    0    0 -0.37301178532E+02  0.15113530086E+02 -0.21156650177E+03  0.21536058456E+03  0.00000000000E+00 0. -1.
<mgrwt>
<rscale>  0 0.88922051E+02</rscale>
<asrwt>0</asrwt>
<pdfrwt beam="2">  1        1 0.46093337E-01 0.88922051E+02</pdfrwt>
<pdfrwt beam="1">  1       -1 0.10150656E-02 0.88922051E+02</pdfrwt>
<totfact> 0.13691134E+05</totfact>
</mgrwt>
</event>
<event>
 5    1  0.6125604E+000  0.7157815E+02  0.7546771E-02  0.1354807E+00
          2   -1    0    0  501    0  0.00000000000E+00  0.00000000000E+00  0.12428471769E+02  0.12428471769E+02  0.00000000000E+00 0. -1.
         -2   -1    0    0    0  501 -0.00000000000E+00 -0.00000000000E+00 -0.10305834976E+03  0.10305834976E+03  0.00000000000E+00 0.  1.
         23    2    1    2    0    0  0.00000000000E+00  0.00000000000E+00 -0.90629877987E+02  0.11548682153E+03  0.71578147238E+02 0.  0.
        -11    1    3    3    0    0  0.58545827207E+01  0.32824584879E+02 -0.66297577137E+02  0.74209825802E+02  0.00000000000E+00 0.  1.
         11    1    3    3    0    0 -0.58545827207E+01 -0.32824584879E+02 -0.24332300850E+02  0.41276995724E+02  0.00000000000E+00 0. -1.
<mgrwt>
<rscale>  0 0.71578147E+02</rscale>
<asrwt>0</asrwt>
<pdfrwt beam="1">  1        2 0.19120726E-02 0.71578147E+02</pdfrwt>
<pdfrwt beam="2">  1       -2 0.15855130E-01 0.71578147E+02</pdfrwt>
<totfact> 0.14453080E+05</totfact>
</mgrwt>
</event>
<event>
 5    1  0.6125604E+000  0.1164702E+03  0.7546771E-02  0.1249036E+00
         -4   -1    0    0    0  501 -0.00000000000E+00  0.00000000000E+00  0.33663595343E+03  0.33663595343E+03  0.00000000000E+00 0.  1.
          4   -1    0    0  501    0  0.00000000000E+00 -0.00000000000E+00 -0.10074169491E+02  0.10074169491E+02  0.00000000000E+00 0. -1.
         23    2    1    2    0    0  0.00000000000E+00  0.00000000000E+00  0.32656178393E+03  0.34671012292E+03  0.11647021338E+03 0.  0.
        -11    1    3    3    0    0 -0.58052176655E+02  0.23664583029E+01  0.17506558264E+03  0.18445490930E+03  0.00000000000E+00 0.  1.
         11    1    3    3    0    0  0.58052176655E+02 -0.23664583029E+01  0.15149620130E+03  0.16225521362E+03  0.00000000000E+00 0. -1.
<mgrwt>
<rscale>  0 0.11647021E+03</rscale>
<asrwt>0</asrwt>
<pdfrwt beam="2">  1        4 0.15498725E-02 0.11647021E+03</pdfrwt>
<pdfrwt beam="1">  1       -4 0.51790138E-01 0.11647021E+03</pdfrwt>
<totfact> 0.85157866E+03</totfact>
</mgrwt>
</event>
<event>
 5    1  0.6125604E+000  0.9214479E+02  0.7546771E-02  0.1297739E+00
          4   -1    0    0  501    0  0.00000000000E+00  0.00000000000E+00  0.10079666789E+02  0.10079666789E+02  0.00000000000E+00 0. -1.
         -4   -1    0    0    0  501 -0.00000000000E+00 -0.00000000000E+00 -0.21058886957E+03  0.21058886957E+03  0.00000000000E+00 0.  1.
         23    2    1    2    0    0  0.00000000000E+00  0.00000000000E+00 -0.20050920278E+03  0.22066853636E+03  0.92144791165E+02 0.  0.
        -11    1    3    3    0    0  0.68539047194E+01 -0.35828646672E+02 -0.16765020778E+03  0.17157290025E+03  0.00000000000E+00 0.  1.
         11    1    3    3    0    0 -0.68539047194E+01  0.35828646672E+02 -0.32858995002E+02  0.49095636107E+02  0.00000000000E+00 0. -1.
<mgrwt>
<rscale>  0 0.92144791E+02</rscale>
<asrwt>0</asrwt>
<pdfrwt beam="1">  1        4 0.15507181E-02 0.92144791E+02</pdfrwt>
<pdfrwt beam="2">  1       -4 0.32398285E-01 0.92144791E+02</pdfrwt>
<totfact> 0.19979437E+04</totfact>
</mgrwt>
</event>
<event>
 5    1  0.6125604E+000  0.9050886E+02  0.7546771E-02  0.1301624E+00
          1   -1    0    0  501    0  0.00000000000E+00  0.00000000000E+00  0.11444452026E+03  0.11444452026E+03  0.00000000000E+00 0. -1.
         -1   -1    0    0    0  501 -0.00000000000E+00 -0.00000000000E+00 -0.17894815326E+02  0.17894815326E+02  0.00000000000E+00 0.  1.
         23    2    1    2    0    0  0.00000000000E+00  0.00000000000E+00  0.96549704939E+02  0.13233933559E+03  0.90508862664E+02 0.  0.
        -11    1    3    3    0    0  0.27477356432E+02  0.27619786287E+02  0.14609812189E+02  0.41608945231E+02  0.00000000000E+00 0.  1.
         11    1    3    3    0    0 -0.27477356432E+02 -0.27619786287E+02  0.81939892749E+02  0.90730390359E+02  0.00000000000E+00 0. -1.
<mgrwt>
<rscale>  0 0.90508863E+02</rscale>
<asrwt>0</asrwt>
<pdfrwt beam="1">  1        1 0.17606849E-01 0.90508863E+02</pdfrwt>
<pdfrwt beam="2">  1       -1 0.27530486E-02 0.90508863E+02</pdfrwt>
<totfact> 0.10901333E+05</totfact>
</mgrwt>
</event>
<event>
 5    1  0.6125604E+000  0.6410075E+02  0.7546771E-02  0.1381386E+00
         -1   -1    0    0    0  501 -0.00000000000E+00  0.00000000000E+00  0.65357086668E+02  0.65357086668E+02  0.00000000000E+00 0.  1.
          1   -1    0    0  501    0  0.00000000000E+00 -0.00000000000E+00 -0.15717142648E+02  0.15717142648E+02  0.00000000000E+00 0. -1.
         23    2    1    2    0    0  0.00000000000E+00  0.00000000000E+00  0.49639944019E+02  0.81074229316E+02  0.64100753638E+02 0.  0.
        -11    1    3    3    0    0 -0.28276175858E+02  0.51192554582E+01  0.42772815579E+02  0.51529240729E+02  0.00000000000E+00 0.  1.
         11    1    3    3    0    0  0.28276175858E+02 -0.51192554582E+01  0.68671284403E+01  0.29544988587E+02  0.00000000000E+00 0. -1.
<mgrwt>
<rscale>  0 0.64100754E+02</rscale>
<asrwt>0</asrwt>
<pdfrwt beam="2">  1        1 0.24180220E-02 0.64100754E+02</pdfrwt>
<pdfrwt beam="1">  1       -1 0.10054936E-01 0.64100754E+02</pdfrwt>
<totfact> 0.21335487E+05</totfact>
</mgrwt>
</event>
<event>
 5    1  0.6125604E+000  0.8183195E+02  0.7546771E-02  0.1323932E+00
         -1   -1    0    0    0  501 -0.00000000000E+00  0.00000000000E+00  0.17556750287E+02  0.17556750287E+02  0.00000000000E+00 0.  1.
          1   -1    0    0  501    0  0.00000000000E+00 -0.00000000000E+00 -0.95354603478E+02  0.95354603478E+02  0.00000000000E+00 0. -1.
         23    2    1    2    0    0  0.00000000000E+00  0.00000000000E+00 -0.77797853191E+02  0.11291135377E+03  0.81831948822E+02 0.  0.
        -11    1    3    3    0    0  0.22711069597E+01 -0.37166598842E+02 -0.15499166736E+02  0.40332842273E+02  0.00000000000E+00 0.  1.
         11    1    3    3    0    0 -0.22711069597E+01  0.37166598842E+02 -0.62298686455E+02  0.72578511492E+02  0.00000000000E+00 0. -1.
<mgrwt>
<rscale>  0 0.81831949E+02</rscale>
<asrwt>0</asrwt>
<pdfrwt beam="2">  1        1 0.14669939E-01 0.81831949E+02</pdfrwt>
<pdfrwt beam="1">  1       -1 0.27010385E-02 0.81831949E+02</pdfrwt>
<totfact> 0.13890378E+05</totfact>
</mgrwt>
</event>
<event>
 5    1  0.6125604E+000  0.8965040E+02  0.7546771E-02  0.1303701E+00
         -1   -1    0    0    0  501 -0.00000000000E+00  0.00000000000E+00  0.29899407831E+02  0.29899407831E+02  0.00000000000E+00 0.  1.
          1   -1    0    0  501    0  0.00000000000E+00 -0.00000000000E+00 -0.67201949032E+02  0.67201949032E+02  0.00000000000E+00 0. -1.
         23    2    1    2    0    0  0.00000000000E+00  0.00000000000E+00 -0.37302541201E+02  0.97101356864E+02  0.89650398352E+02 0.  0.
        -11    1    3    3    0    0 -0.22117087711E+02  0.27395891649E+02  0.11396001478E+02  0.37007692413E+02  0.00000000000E+00 0.  1.
         11    1    3    3    0    0  0.22117087711E+02 -0.27395891649E+02 -0.48698542679E+02  0.60093664451E+02  0.00000000000E+00 0. -1.
<mgrwt>
<rscale>  0 0.89650398E+02</rscale>
<asrwt>0</asrwt>
<pdfrwt beam="2">  1        1 0.10338761E-01 0.89650398E+02</pdfrwt>
<pdfrwt beam="1">  1       -1 0.45999090E-02 0.89650398E+02</pdfrwt>
<totfact> 0.10272030E+05</totfact>
</mgrwt>
</event>
<event>
 5    1  0.6125604E+000  0.9406310E+02  0.7546771E-02  0.1293300E+00
         -2   -1    0    0    0  501 -0.00000000000E+00  0.00000000000E+00  0.21976022457E+02  0.21976022457E+02  0.00000000000E+00 0.  1.
          2   -1    0    0  501    0  0.00000000000E+00 -0.00000000000E+00 -0.10065364518E+03  0.10065364518E+03  0.00000000000E+00 0. -1.
         23    2    1    2    0    0  0.00000000000E+00  0.00000000000E+00 -0.78677622718E+02  0.12262966763E+03  0.94063101518E+02 0.  0.
        -11    1    3    3    0    0 -0.21137205079E+02 -0.30051025225E+02 -0.10598256301E+01  0.36755527285E+02  0.00000000000E+00 0.  1.
         11    1    3    3    0    0  0.21137205079E+02  0.30051025225E+02 -0.77617797088E+02  0.85874140348E+02  0.00000000000E+00 0. -1.
<mgrwt>
<rscale>  0 0.94063102E+02</rscale>
<asrwt>0</asrwt>
<pdfrwt beam="2">  1        2 0.15485176E-01 0.94063102E+02</pdfrwt>
<pdfrwt beam="1">  1       -2 0.33809265E-02 0.94063102E+02</pdfrwt>
<totfact> 0.11278560E+05</totfact>
</mgrwt>
</event>
<event>
 5    1  0.6125604E+000  0.9385256E+02  0.7546771E-02  0.1293782E+00
          2   -1    0    0  501    0  0.00000000000E+00  0.00000000000E+00  0.16322039790E+03  0.16322039790E+03  0.00000000000E+00 0. -1.
         -2   -1    0    0    0  501 -0.00000000000E+00 -0.00000000000E+00 -0.13491425852E+02  0.13491425852E+02  0.00000000000E+00 0.  1.
         23    2    1    2    0    0  0.00000000000E+00  0.00000000000E+00  0.14972897205E+03  0.17671182376E+03  0.93852563010E+02 0.  0.
        -11    1    3    3    0    0  0.46848017492E+02 -0.21453718851E+01  0.71749760565E+02  0.85716786598E+02  0.00000000000E+00 0. -1.
         11    1    3    3    0    0 -0.46848017492E+02  0.21453718851E+01  0.77979211486E+02  0.90995037158E+02  0.00000000000E+00 0.  1.
<mgrwt>
<rscale>  0 0.93852563E+02</rscale>
<asrwt>0</asrwt>
<pdfrwt beam="1">  1        2 0.25110829E-01 0.93852563E+02</pdfrwt>
<pdfrwt beam="2">  1       -2 0.20756041E-02 0.93852563E+02</pdfrwt>
<totfact> 0.13305755E+05</totfact>
</mgrwt>
</event>
<event>
 5    1  0.6125604E+000  0.9119722E+02  0.7546771E-02  0.1299978E+00
         -1   -1    0    0    0  501 -0.00000000000E+00  0.00000000000E+00  0.15165359515E+02  0.15165359515E+02  0.00000000000E+00 0.  1.
          1   -1    0    0  501    0  0.00000000000E+00 -0.00000000000E+00 -0.13710410569E+03  0.13710410569E+03  0.00000000000E+00 0. -1.
         23    2    1    2    0    0  0.00000000000E+00  0.00000000000E+00 -0.12193874618E+03  0.15226946521E+03  0.91197216049E+02 0.  0.
        -11    1    3    3    0    0  0.42878302920E+02 -0.14856609817E+02 -0.53508845063E+02  0.70160275203E+02  0.00000000000E+00 0. -1.
         11    1    3    3    0    0 -0.42878302920E+02  0.14856609817E+02 -0.68429901116E+02  0.82109190005E+02  0.00000000000E+00 0.  1.
<mgrwt>
<rscale>  0 0.91197216E+02</rscale>
<asrwt>0</asrwt>
<pdfrwt beam="2">  1        1 0.21092939E-01 0.91197216E+02</pdfrwt>
<pdfrwt beam="1">  1       -1 0.23331323E-02 0.91197216E+02</pdfrwt>
<totfact> 0.11024615E+05</totfact>
</mgrwt>
</event>
<event>
 5    1  0.6125604E+000  0.8992815E+02  0.7546771E-02  0.1303026E+00
         -1   -1    0    0    0  501 -0.00000000000E+00  0.00000000000E+00  0.33132584067E+02  0.33132584067E+02  0.00000000000E+00 0.  1.
          1   -1    0    0  501    0  0.00000000000E+00 -0.00000000000E+00 -0.61020532672E+02  0.61020532672E+02  0.00000000000E+00 0. -1.
         23    2    1    2    0    0  0.00000000000E+00  0.00000000000E+00 -0.27887948605E+02  0.94153116739E+02  0.89928147509E+02 0.  0.
        -11    1    3    3    0    0  0.23343138078E+02 -0.36601262207E+02 -0.26208122140E+02  0.50709172312E+02  0.00000000000E+00 0. -1.
         11    1    3    3    0    0 -0.23343138078E+02  0.36601262207E+02 -0.16798264655E+01  0.43443944428E+02  0.00000000000E+00 0.  1.
<mgrwt>
<rscale>  0 0.89928148E+02</rscale>
<asrwt>0</asrwt>
<pdfrwt beam="2">  1        1 0.93877743E-02 0.89928148E+02</pdfrwt>
<pdfrwt beam="1">  1       -1 0.50973206E-02 0.89928148E+02</pdfrwt>
<totfact> 0.10037562E+05</totfact>
</mgrwt>
</event>
<event>
 5    1  0.6125604E+000  0.9077876E+02  0.7546771E-02  0.1300977E+00
          1   -1    0    0  501    0  0.00000000000E+00  0.00000000000E+00  0.25302594343E+02  0.25302594343E+02  0.00000000000E+00 0. -1.
         -1   -1    0    0    0  501 -0.00000000000E+00 -0.00000000000E+00 -0.81422320924E+02  0.81422320924E+02  0.00000000000E+00 0.  1.
         23    2    1    2    0    0  0.00000000000E+00  0.00000000000E+00 -0.56119726582E+02  0.10672491527E+03  0.90778763084E+02 0.  0.
        -11    1    3    3    0    0  0.40314315469E+02 -0.13392716201E+01 -0.52528223555E+02  0.66228784906E+02  0.00000000000E+00 0.  1.
         11    1    3    3    0    0 -0.40314315469E+02  0.13392716201E+01 -0.35915030263E+01  0.40496130361E+02  0.00000000000E+00 0. -1.
<mgrwt>
<rscale>  0 0.90778763E+02</rscale>
<asrwt>0</asrwt>
<pdfrwt beam="1">  1        1 0.38927069E-02 0.90778763E+02</pdfrwt>
<pdfrwt beam="2">  1       -1 0.12526511E-01 0.90778763E+02</pdfrwt>
<totfact> 0.85348724E+04</totfact>
</mgrwt>
</event>
<event>
 5    1  0.6125604E+000  0.8901043E+02  0.7546771E-02  0.1305266E+00
          3   -1    0    0  501    0  0.00000000000E+00  0.00000000000E+00  0.15854518877E+03  0.15854518877E+03  0.00000000000E+00 0. -1.
         -3   -1    0    0    0  501 -0.00000000000E+00 -0.00000000000E+00 -0.12493056947E+02  0.12493056947E+02  0.00000000000E+00 0.  1.
         23    2    1    2    0    0  0.00000000000E+00  0.00000000000E+00  0.14605213182E+03  0.17103824572E+03  0.89010427974E+02 0.  0.
        -11    1    3    3    0    0  0.31685560881E+02 -0.54680432870E+01  0.13898418672E+02  0.35029135121E+02  0.00000000000E+00 0.  1.
         11    1    3    3    0    0 -0.31685560881E+02  0.54680432870E+01  0.13215371315E+03  0.13600911059E+03  0.00000000000E+00 0. -1.
<mgrwt>
<rscale>  0 0.89010428E+02</rscale>
<asrwt>0</asrwt>
<pdfrwt beam="1">  1        3 0.24391566E-01 0.89010428E+02</pdfrwt>
<pdfrwt beam="2">  1       -3 0.19220089E-02 0.89010428E+02</pdfrwt>
<totfact> 0.32081138E+04</totfact>
</mgrwt>
</event>
<event>
 5    1  0.6125604E+000  0.8696667E+02  0.7546771E-02  0.1310368E+00
         -2   -1    0    0    0  501 -0.00000000000E+00  0.00000000000E+00  0.47081775374E+02  0.47081775374E+02  0.00000000000E+00 0.  1.
          2   -1    0    0  501    0  0.00000000000E+00 -0.00000000000E+00 -0.40159923350E+02  0.40159923350E+02  0.00000000000E+00 0. -1.
         23    2    1    2    0    0  0.00000000000E+00  0.00000000000E+00  0.69218520240E+01  0.87241698723E+02  0.86966671551E+02 0.  0.
        -11    1    3    3    0    0 -0.52705738011E+01 -0.41537461699E+02 -0.83090732824E+01  0.42687004714E+02  0.00000000000E+00 0. -1.
         11    1    3    3    0    0  0.52705738011E+01  0.41537461699E+02  0.15230925306E+02  0.44554694010E+02  0.00000000000E+00 0.  1.
<mgrwt>
<rscale>  0 0.86966672E+02</rscale>
<asrwt>0</asrwt>
<pdfrwt beam="2">  1        2 0.61784498E-02 0.86966672E+02</pdfrwt>
<pdfrwt beam="1">  1       -2 0.72433500E-02 0.86966672E+02</pdfrwt>
<totfact> 0.10940881E+05</totfact>
</mgrwt>
</event>
<event>
 5    1  0.6125604E+000  0.9085568E+02  0.7546771E-02  0.1300793E+00
         -1   -1    0    0    0  501 -0.00000000000E+00  0.00000000000E+00  0.10804089695E+03  0.10804089695E+03  0.00000000000E+00 0.  1.
          1   -1    0    0  501    0  0.00000000000E+00 -0.00000000000E+00 -0.19100995528E+02  0.19100995528E+02  0.00000000000E+00 0. -1.
         23    2    1    2    0    0  0.00000000000E+00  0.00000000000E+00  0.88939901421E+02  0.12714189248E+03  0.90855680934E+02 0.  0.
        -11    1    3    3    0    0 -0.26707874035E+02  0.25779930822E+02  0.78239254535E+01  0.37935856102E+02  0.00000000000E+00 0. -1.
         11    1    3    3    0    0  0.26707874035E+02 -0.25779930822E+02  0.81115975968E+02  0.89206036376E+02  0.00000000000E+00 0.  1.
<mgrwt>
<rscale>  0 0.90855681E+02</rscale>
<asrwt>0</asrwt>
<pdfrwt beam="2">  1        1 0.29386147E-02 0.90855681E+02</pdfrwt>
<pdfrwt beam="1">  1       -1 0.16621676E-01 0.90855681E+02</pdfrwt>
<totfact> 0.80919755E+04</totfact>
</mgrwt>
</event>
<event>
 5    1  0.6125604E+000  0.9240125E+02  0.7546771E-02  0.1297139E+00
          1   -1    0    0  501    0  0.00000000000E+00  0.00000000000E+00  0.26894570224E+03  0.26894570224E+03  0.00000000000E+00 0. -1.
         -1   -1    0    0    0  501 -0.00000000000E+00 -0.00000000000E+00 -0.79365377465E+01  0.79365377465E+01  0.00000000000E+00 0.  1.
         23    2    1    2    0    0  0.00000000000E+00  0.00000000000E+00  0.26100916449E+03  0.27688223998E+03  0.92401249290E+02 0.  0.
        -11    1    3    3    0    0 -0.30213306603E+02  0.32599606963E+02  0.16827969594E+03  0.17405066600E+03  0.00000000000E+00 0. -1.
         11    1    3    3    0    0  0.30213306603E+02 -0.32599606963E+02  0.92729468556E+02  0.10283157399E+03  0.00000000000E+00 0.  1.
<mgrwt>
<rscale>  0 0.92401249E+02</rscale>
<asrwt>0</asrwt>
<pdfrwt beam="1">  1        1 0.41376255E-01 0.92401249E+02</pdfrwt>
<pdfrwt beam="2">  1       -1 0.12210060E-02 0.92401249E+02</pdfrwt>
<totfact> 0.12105362E+05</totfact>
</mgrwt>
</event>
<event>
 5    1  0.6125604E+000  0.9663908E+02  0.7546771E-02  0.1287527E+00
         -4   -1    0    0    0  501 -0.00000000000E+00  0.00000000000E+00  0.11461872621E+03  0.11461872621E+03  0.00000000000E+00 0.  1.
          4   -1    0    0  501    0  0.00000000000E+00 -0.00000000000E+00 -0.20369953192E+02  0.20369953192E+02  0.00000000000E+00 0. -1.
         23    2    1    2    0    0  0.00000000000E+00  0.00000000000E+00  0.94248773021E+02  0.13498867941E+03  0.96639082941E+02 0.  0.
        -11    1    3    3    0    0 -0.42401808502E+00  0.41240915163E+02  0.82289789587E+02  0.92046740003E+02  0.00000000000E+00 0.  1.
         11    1    3    3    0    0  0.42401808502E+00 -0.41240915163E+02  0.11958983434E+02  0.42941939402E+02  0.00000000000E+00 0. -1.
<mgrwt>
<rscale>  0 0.96639083E+02</rscale>
<asrwt>0</asrwt>
<pdfrwt beam="2">  1        4 0.31338390E-02 0.96639083E+02</pdfrwt>
<pdfrwt beam="1">  1       -4 0.17633650E-01 0.96639083E+02</pdfrwt>
<totfact> 0.20881587E+04</totfact>
</mgrwt>
</event>
<event>
 5    1  0.6125604E+000  0.9011425E+02  0.7546771E-02  0.1302575E+00
          1   -1    0    0  501    0  0.00000000000E+00  0.00000000000E+00  0.45065948233E+03  0.45065948233E+03  0.00000000000E+00 0. -1.
         -1   -1    0    0    0  501 -0.00000000000E+00 -0.00000000000E+00 -0.45048301461E+01  0.45048301461E+01  0.00000000000E+00 0.  1.
         23    2    1    2    0    0  0.00000000000E+00  0.00000000000E+00  0.44615465219E+03  0.45516431248E+03  0.90114247967E+02 0.  0.
        -11    1    3    3    0    0  0.44875512450E+02 -0.15302357867E+01  0.24197037073E+03  0.24610122623E+03  0.00000000000E+00 0.  1.
         11    1    3    3    0    0 -0.44875512450E+02  0.15302357867E+01  0.20418428145E+03  0.20906308625E+03  0.00000000000E+00 0. -1.
<mgrwt>
<rscale>  0 0.90114248E+02</rscale>
<asrwt>0</asrwt>
<pdfrwt beam="1">  1        1 0.69332193E-01 0.90114248E+02</pdfrwt>
<pdfrwt beam="2">  1       -1 0.69305115E-03 0.90114248E+02</pdfrwt>
<totfact> 0.14172086E+05</totfact>
</mgrwt>
</event>
<event>
 5    1  0.6125604E+000  0.9044614E+02  0.7546771E-02  0.1301775E+00
          2   -1    0    0  501    0  0.00000000000E+00  0.00000000000E+00  0.48172991032E+03  0.48172991032E+03  0.00000000000E+00 0. -1.
         -2   -1    0    0    0  501 -0.00000000000E+00 -0.00000000000E+00 -0.42453790817E+01  0.42453790817E+01  0.00000000000E+00 0.  1.
         23    2    1    2    0    0  0.00000000000E+00  0.00000000000E+00  0.47748453124E+03  0.48597528940E+03  0.90446140532E+02 0.  0.
        -11    1    3    3    0    0 -0.43312329857E+02 -0.11827449216E+02  0.26781640072E+03  0.27155380860E+03  0.00000000000E+00 0. -1.
         11    1    3    3    0    0  0.43312329857E+02  0.11827449216E+02  0.20966813052E+03  0.21442148080E+03  0.00000000000E+00 0.  1.
<mgrwt>
<rscale>  0 0.90446141E+02</rscale>
<asrwt>0</asrwt>
<pdfrwt beam="1">  1        2 0.74112251E-01 0.90446141E+02</pdfrwt>
<pdfrwt beam="2">  1       -2 0.65313562E-03 0.90446141E+02</pdfrwt>
<totfact> 0.21745952E+05</totfact>
</mgrwt>
</event>
<event>
 5    1  0.6125604E+000  0.1023142E+03  0.7546771E-02  0.1275503E+00
          2   -1    0    0  501    0  0.00000000000E+00  0.00000000000E+00  0.17211569092E+02  0.17211569092E+02  0.00000000000E+00 0. -1.
         -2   -1    0    0    0  501 -0.00000000000E+00 -0.00000000000E+00 -0.15205174014E+03  0.15205174014E+03  0.00000000000E+00 0.  1.
         23    2    1    2    0    0  0.00000000000E+00  0.00000000000E+00 -0.13484017105E+03  0.16926330924E+03  0.10231420295E+03 0.  0.
        -11    1    3    3    0    0 -0.40584194014E+02 -0.34926959728E+01 -0.11861870675E+03  0.12541799440E+03  0.00000000000E+00 0.  1.
         11    1    3    3    0    0  0.40584194014E+02  0.34926959728E+01 -0.16221464303E+02  0.43845314836E+02  0.00000000000E+00 0. -1.
<mgrwt>
<rscale>  0 0.10231420E+03</rscale>
<asrwt>0</asrwt>
<pdfrwt beam="1">  1        2 0.26479338E-02 0.10231420E+03</pdfrwt>
<pdfrwt beam="2">  1       -2 0.23392575E-01 0.10231420E+03</pdfrwt>
<totfact> 0.51900567E+04</totfact>
</mgrwt>
</event>
<event>
 5    1  0.6125604E+000  0.9021467E+02  0.7546771E-02  0.1302333E+00
          1   -1    0    0  501    0  0.00000000000E+00  0.00000000000E+00  0.15024229381E+02  0.15024229381E+02  0.00000000000E+00 0. -1.
         -1   -1    0    0    0  501 -0.00000000000E+00 -0.00000000000E+00 -0.13542603907E+03  0.13542603907E+03  0.00000000000E+00 0.  1.
         23    2    1    2    0    0  0.00000000000E+00  0.00000000000E+00 -0.12040180969E+03  0.15045026846E+03  0.90214674533E+02 0.  0.
        -11    1    3    3    0    0 -0.35288623740E+02 -0.26849775823E+02 -0.46400874209E+02  0.64181294429E+02  0.00000000000E+00 0. -1.
         11    1    3    3    0    0  0.35288623740E+02  0.26849775823E+02 -0.74000935484E+02  0.86268974027E+02  0.00000000000E+00 0.  1.
<mgrwt>
<rscale>  0 0.90214675E+02</rscale>
<asrwt>0</asrwt>
<pdfrwt beam="1">  1        1 0.23114200E-02 0.90214675E+02</pdfrwt>
<pdfrwt beam="2">  1       -1 0.20834774E-01 0.90214675E+02</pdfrwt>
<totfact> 0.78673549E+04</totfact>
</mgrwt>
</event>
<event>
 5    1  0.6125604E+000  0.9066327E+02  0.7546771E-02  0.1301253E+00
         -2   -1    0    0    0  501 -0.00000000000E+00  0.00000000000E+00  0.14357830990E+02  0.14357830990E+02  0.00000000000E+00 0.  1.
          2   -1    0    0  501    0  0.00000000000E+00 -0.00000000000E+00 -0.14312447327E+03  0.14312447327E+03  0.00000000000E+00 0. -1.
         23    2    1    2    0    0  0.00000000000E+00  0.00000000000E+00 -0.12876664228E+03  0.15748230426E+03  0.90663267044E+02 0.  0.
        -11    1    3    3    0    0  0.73389152621E+01  0.28048342695E+02 -0.12491449448E+03  0.12823494117E+03  0.00000000000E+00 0. -1.
         11    1    3    3    0    0 -0.73389152621E+01 -0.28048342695E+02 -0.38521477997E+01  0.29247363092E+02  0.00000000000E+00 0.  1.
<mgrwt>
<rscale>  0 0.90663267E+02</rscale>
<asrwt>0</asrwt>
<pdfrwt beam="2">  1        2 0.22019149E-01 0.90663267E+02</pdfrwt>
<pdfrwt beam="1">  1       -2 0.22088971E-02 0.90663267E+02</pdfrwt>
<totfact> 0.13973579E+05</totfact>
</mgrwt>
</event>
<event>
 5    1  0.6125604E+000  0.9027294E+02  0.7546771E-02  0.1302192E+00
          1   -1    0    0  501    0  0.00000000000E+00  0.00000000000E+00  0.10956559638E+02  0.10956559638E+02  0.00000000000E+00 0. -1.
         -1   -1    0    0    0  501 -0.00000000000E+00 -0.00000000000E+00 -0.18594347418E+03  0.18594347418E+03  0.00000000000E+00 0.  1.
         23    2    1    2    0    0  0.00000000000E+00  0.00000000000E+00 -0.17498691454E+03  0.19690003382E+03  0.90272936456E+02 0.  0.
        -11    1    3    3    0    0 -0.31479766165E+02 -0.32277593596E+02 -0.92111160128E+02  0.10255381293E+03  0.00000000000E+00 0. -1.
         11    1    3    3    0    0  0.31479766165E+02  0.32277593596E+02 -0.82875754416E+02  0.94346220890E+02  0.00000000000E+00 0.  1.
<mgrwt>
<rscale>  0 0.90272936E+02</rscale>
<asrwt>0</asrwt>
<pdfrwt beam="1">  1        1 0.16856246E-02 0.90272936E+02</pdfrwt>
<pdfrwt beam="2">  1       -1 0.28606688E-01 0.90272936E+02</pdfrwt>
<totfact> 0.72708782E+04</totfact>
</mgrwt>
</event>
<event>
 5    1  0.6125604E+000  0.9205645E+02  0.7546771E-02  0.1297947E+00
          1   -1    0    0  501    0  0.00000000000E+00  0.00000000000E+00  0.49553885469E+02  0.49553885469E+02  0.00000000000E+00 0. -1.
         -1   -1    0    0    0  501 -0.00000000000E+00 -0.00000000000E+00 -0.42753406931E+02  0.42753406931E+02  0.00000000000E+00 0.  1.
         23    2    1    2    0    0  0.00000000000E+00  0.00000000000E+00  0.68004785385E+01  0.92307292400E+02  0.92056448562E+02 0.  0.
        -11    1    3    3    0    0  0.66131277149E+01  0.45540933890E+02  0.24556997446E+01  0.46084059923E+02  0.00000000000E+00 0.  1.
         11    1    3    3    0    0 -0.66131277149E+01 -0.45540933890E+02  0.43447787939E+01  0.46223232476E+02  0.00000000000E+00 0. -1.
<mgrwt>
<rscale>  0 0.92056449E+02</rscale>
<asrwt>0</asrwt>
<pdfrwt beam="1">  1        1 0.76236747E-02 0.92056449E+02</pdfrwt>
<pdfrwt beam="2">  1       -1 0.65774472E-02 0.92056449E+02</pdfrwt>
<totfact> 0.91153047E+04</totfact>
</mgrwt>
</event>
<event>
 5    1  0.6125604E+000  0.9460955E+02  0.7546771E-02  0.1292058E+00
          1   -1    0    0  501    0  0.00000000000E+00  0.00000000000E+00  0.14371671176E+03  0.14371671176E+03  0.00000000000E+00 0. -1.
         -1   -1    0    0    0  501 -0.00000000000E+00 -0.00000000000E+00 -0.15570503945E+02  0.15570503945E+02  0.00000000000E+00 0.  1.
         23    2    1    2    0    0  0.00000000000E+00  0.00000000000E+00  0.12814620782E+03  0.15928721571E+03  0.94609547668E+02 0.  0.
        -11    1    3    3    0    0  0.40203556914E+02 -0.82535840104E+01  0.24470482752E+02  0.47783387947E+02  0.00000000000E+00 0.  1.
         11    1    3    3    0    0 -0.40203556914E+02  0.82535840104E+01  0.10367572506E+03  0.11150382776E+03  0.00000000000E+00 0. -1.
<mgrwt>
<rscale>  0 0.94609548E+02</rscale>
<asrwt>0</asrwt>
<pdfrwt beam="1">  1        1 0.22110262E-01 0.94609548E+02</pdfrwt>
<pdfrwt beam="2">  1       -1 0.23954622E-02 0.94609548E+02</pdfrwt>
<totfact> 0.10066080E+05</totfact>
</mgrwt>
</event>
<event>
 5    1  0.6125604E+000  0.9066278E+02  0.7546771E-02  0.1301255E+00
         -1   -1    0    0    0  501 -0.00000000000E+00  0.00000000000E+00  0.29812008863E+02  0.29812008863E+02  0.00000000000E+00 0.  1.
          1   -1    0    0  501    0  0.00000000000E+00 -0.00000000000E+00 -0.68929774979E+02  0.68929774979E+02  0.00000000000E+00 0. -1.
         23    2    1    2    0    0  0.00000000000E+00  0.00000000000E+00 -0.39117766116E+02  0.98741783842E+02  0.90662783160E+02 0.  0.
        -11    1    3    3    0    0 -0.15883972476E+02  0.14296722454E+02 -0.63099309307E+02  0.66619964647E+02  0.00000000000E+00 0. -1.
         11    1    3    3    0    0  0.15883972476E+02 -0.14296722454E+02  0.23981543191E+02  0.32121819195E+02  0.00000000000E+00 0.  1.
<mgrwt>
<rscale>  0 0.90662783E+02</rscale>
<asrwt>0</asrwt>
<pdfrwt beam="2">  1        1 0.10604581E-01 0.90662783E+02</pdfrwt>
<pdfrwt beam="1">  1       -1 0.45864629E-02 0.90662783E+02</pdfrwt>
<totfact> 0.99979313E+04</totfact>
</mgrwt>
</event>
<event>
 5    1  0.6125604E+000  0.9084068E+02  0.7546771E-02  0.1300829E+00
         -1   -1    0    0    0  501 -0.00000000000E+00  0.00000000000E+00  0.11334354324E+03  0.11334354324E+03  0.00000000000E+00 0. -1.
          1   -1    0    0  501    0  0.00000000000E+00 -0.00000000000E+00 -0.18201363988E+02  0.18201363988E+02  0.00000000000E+00 0.  1.
         23    2    1    2    0    0  0.00000000000E+00  0.00000000000E+00  0.95142179254E+02  0.13154490723E+03  0.90840675607E+02 0.  0.
        -11    1    3    3    0    0  0.40282614367E+02 -0.14709142966E+02  0.69242047954E+02  0.81446357266E+02  0.00000000000E+00 0. -1.
         11    1    3    3    0    0 -0.40282614367E+02  0.14709142966E+02  0.25900131300E+02  0.50098549963E+02  0.00000000000E+00 0.  1.
<mgrwt>
<rscale>  0 0.90840676E+02</rscale>
<asrwt>0</asrwt>
<pdfrwt beam="2">  1        1 0.28002099E-02 0.90840676E+02</pdfrwt>
<pdfrwt beam="1">  1       -1 0.17437468E-01 0.90840676E+02</pdfrwt>
<totfact> 0.80199290E+04</totfact>
</mgrwt>
</event>
<event>
 5    1  0.6125604E+000  0.9159696E+02  0.7546771E-02  0.1299030E+00
         -1   -1    0    0    0  501 -0.00000000000E+00  0.00000000000E+00  0.42825659338E+02  0.42825659338E+02  0.00000000000E+00 0.  1.
          1   -1    0    0  501    0  0.00000000000E+00 -0.00000000000E+00 -0.48977661683E+02  0.48977661683E+02  0.00000000000E+00 0. -1.
         23    2    1    2    0    0  0.00000000000E+00  0.00000000000E+00 -0.61520023449E+01  0.91803321021E+02  0.91596957470E+02 0.  0.
        -11    1    3    3    0    0 -0.13148691707E+02 -0.43742397826E+02 -0.64324553695E+01  0.46126586078E+02  0.00000000000E+00 0.  1.
         11    1    3    3    0    0  0.13148691707E+02  0.43742397826E+02  0.28045302453E+00  0.45676734943E+02  0.00000000000E+00 0. -1.
<mgrwt>
<rscale>  0 0.91596957E+02</rscale>
<asrwt>0</asrwt>
<pdfrwt beam="2">  1        1 0.75350249E-02 0.91596957E+02</pdfrwt>
<pdfrwt beam="1">  1       -1 0.65885630E-02 0.91596957E+02</pdfrwt>
<totfact> 0.92277453E+04</totfact>
</mgrwt>
</event>
<event>
 5    1  0.6125604E+000  0.8923062E+02  0.7546771E-02  0.1304726E+00
         -1   -1    0    0    0  501 -0.00000000000E+00  0.00000000000E+00  0.14064662566E+02  0.14064662566E+02  0.00000000000E+00 0.  1.
          1   -1    0    0  501    0  0.00000000000E+00 -0.00000000000E+00 -0.14152673730E+03  0.14152673730E+03  0.00000000000E+00 0. -1.
         23    2    1    2    0    0  0.00000000000E+00  0.00000000000E+00 -0.12746207473E+03  0.15559139986E+03  0.89230618156E+02 0.  0.
        -11    1    3    3    0    0 -0.20938755911E+02  0.31513711336E+02 -0.22505156978E+02  0.44023034787E+02  0.00000000000E+00 0.  1.
         11    1    3    3    0    0  0.20938755911E+02 -0.31513711336E+02 -0.10495691775E+03  0.11156836508E+03  0.00000000000E+00 0. -1.
<mgrwt>
<rscale>  0 0.89230618E+02</rscale>
<asrwt>0</asrwt>
<pdfrwt beam="2">  1        1 0.21773344E-01 0.89230618E+02</pdfrwt>
<pdfrwt beam="1">  1       -1 0.21637942E-02 0.89230618E+02</pdfrwt>
<totfact> 0.11759302E+05</totfact>
</mgrwt>
</event>
<event>
 5    1  0.6125604E+000  0.9010141E+02  0.7546771E-02  0.1302606E+00
         -3   -1    0    0    0  501 -0.00000000000E+00  0.00000000000E+00  0.61489505811E+02  0.61489505811E+02  0.00000000000E+00 0.  1.
          3   -1    0    0  501    0  0.00000000000E+00 -0.00000000000E+00 -0.33006706208E+02  0.33006706208E+02  0.00000000000E+00 0. -1.
         23    2    1    2    0    0  0.00000000000E+00  0.00000000000E+00  0.28482799604E+02  0.94496212019E+02  0.90101410714E+02 0.  0.
        -11    1    3    3    0    0 -0.44251872555E+02  0.83052161973E+01  0.15852974121E+02  0.47733862501E+02  0.00000000000E+00 0. -1.
         11    1    3    3    0    0  0.44251872555E+02 -0.83052161973E+01  0.12629825483E+02  0.46762349518E+02  0.00000000000E+00 0.  1.
<mgrwt>
<rscale>  0 0.90101411E+02</rscale>
<asrwt>0</asrwt>
<pdfrwt beam="2">  1        3 0.50779548E-02 0.90101411E+02</pdfrwt>
<pdfrwt beam="1">  1       -3 0.94599239E-02 0.90101411E+02</pdfrwt>
<totfact> 0.36235392E+04</totfact>
</mgrwt>
</event>
<event>
 5    1  0.6125604E+000  0.9302930E+02  0.7546771E-02  0.1295677E+00
          1   -1    0    0  501    0  0.00000000000E+00  0.00000000000E+00  0.13623813185E+03  0.13623813185E+03  0.00000000000E+00 0. -1.
         -1   -1    0    0    0  501 -0.00000000000E+00 -0.00000000000E+00 -0.15881110646E+02  0.15881110646E+02  0.00000000000E+00 0.  1.
         23    2    1    2    0    0  0.00000000000E+00  0.00000000000E+00  0.12035702120E+03  0.15211924249E+03  0.93029303901E+02 0.  0.
        -11    1    3    3    0    0  0.94694193626E+01 -0.37127200622E+02  0.17054683611E+02  0.41939970937E+02  0.00000000000E+00 0.  1.
         11    1    3    3    0    0 -0.94694193626E+01  0.37127200622E+02  0.10330233759E+03  0.11017927156E+03  0.00000000000E+00 0. -1.
<mgrwt>
<rscale>  0 0.93029304E+02</rscale>
<asrwt>0</asrwt>
<pdfrwt beam="1">  1        1 0.20959712E-01 0.93029304E+02</pdfrwt>
<pdfrwt beam="2">  1       -1 0.24432479E-02 0.93029304E+02</pdfrwt>
<totfact> 0.10434331E+05</totfact>
</mgrwt>
</event>
<event>
 5    1  0.6125604E+000  0.9086459E+02  0.7546771E-02  0.1300771E+00
          1   -1    0    0  501    0  0.00000000000E+00  0.00000000000E+00  0.47296065602E+02  0.47296065602E+02  0.00000000000E+00 0. -1.
         -1   -1    0    0    0  501 -0.00000000000E+00 -0.00000000000E+00 -0.43641968459E+02  0.43641968459E+02  0.00000000000E+00 0.  1.
         23    2    1    2    0    0  0.00000000000E+00  0.00000000000E+00  0.36540971434E+01  0.90938034061E+02  0.90864589434E+02 0.  0.
        -11    1    3    3    0    0 -0.31640156660E+02  0.13828467128E+02 -0.27722523878E+02  0.44281647968E+02  0.00000000000E+00 0.  1.
         11    1    3    3    0    0  0.31640156660E+02 -0.13828467128E+02  0.31376621022E+02  0.46656386093E+02  0.00000000000E+00 0. -1.
<mgrwt>
<rscale>  0 0.90864589E+02</rscale>
<asrwt>0</asrwt>
<pdfrwt beam="1">  1        1 0.72763178E-02 0.90864589E+02</pdfrwt>
<pdfrwt beam="2">  1       -1 0.67141490E-02 0.90864589E+02</pdfrwt>
<totfact> 0.93882507E+04</totfact>
</mgrwt>
</event>
<event>
 5    1  0.6125604E+000  0.9072824E+02  0.7546771E-02  0.1301098E+00
          3   -1    0    0  501    0  0.00000000000E+00  0.00000000000E+00  0.79442133287E+02  0.79442133287E+02  0.00000000000E+00 0. -1.
         -3   -1    0    0    0  501 -0.00000000000E+00 -0.00000000000E+00 -0.25904433647E+02  0.25904433647E+02  0.00000000000E+00 0.  1.
         23    2    1    2    0    0  0.00000000000E+00  0.00000000000E+00  0.53537699639E+02  0.10534656693E+03  0.90728241921E+02 0.  0.
        -11    1    3    3    0    0  0.38647091556E+02 -0.11213445163E+02  0.24527120400E+01  0.40315689681E+02  0.00000000000E+00 0.  1.
         11    1    3    3    0    0 -0.38647091556E+02  0.11213445163E+02  0.51084987600E+02  0.65030877252E+02  0.00000000000E+00 0. -1.
<mgrwt>
<rscale>  0 0.90728242E+02</rscale>
<asrwt>0</asrwt>
<pdfrwt beam="1">  1        3 0.12221867E-01 0.90728242E+02</pdfrwt>
<pdfrwt beam="2">  1       -3 0.39852975E-02 0.90728242E+02</pdfrwt>
<totfact> 0.34741653E+04</totfact>
</mgrwt>
</event>
<event>
 5    1  0.6125604E+000  0.7528324E+02  0.7546771E-02  0.1342996E+00
          2   -1    0    0  501    0  0.00000000000E+00  0.00000000000E+00  0.79778326269E+02  0.79778326269E+02  0.00000000000E+00 0. -1.
         -2   -1    0    0    0  501 -0.00000000000E+00 -0.00000000000E+00 -0.17760355602E+02  0.17760355602E+02  0.00000000000E+00 0.  1.
         23    2    1    2    0    0  0.00000000000E+00  0.00000000000E+00  0.62017970667E+02  0.97538681872E+02  0.75283237016E+02 0.  0.
        -11    1    3    3    0    0 -0.32229377876E+02 -0.19423365891E+02  0.32232305205E+02  0.49547163790E+02  0.00000000000E+00 0. -1.
         11    1    3    3    0    0  0.32229377876E+02  0.19423365891E+02  0.29785665462E+02  0.47991518082E+02  0.00000000000E+00 0.  1.
<mgrwt>
<rscale>  0 0.75283237E+02</rscale>
<asrwt>0</asrwt>
<pdfrwt beam="1">  1        2 0.12273588E-01 0.75283237E+02</pdfrwt>
<pdfrwt beam="2">  1       -2 0.27323625E-02 0.75283237E+02</pdfrwt>
<totfact> 0.19388517E+05</totfact>
</mgrwt>
</event>
<event>
 5    1  0.6125604E+000  0.9118940E+02  0.7546771E-02  0.1299997E+00
          1   -1    0    0  501    0  0.00000000000E+00  0.00000000000E+00  0.45642863574E+03  0.45642863574E+03  0.00000000000E+00 0.  1.
         -1   -1    0    0    0  501 -0.00000000000E+00 -0.00000000000E+00 -0.45546588335E+01  0.45546588335E+01  0.00000000000E+00 0. -1.
         23    2    1    2    0    0  0.00000000000E+00  0.00000000000E+00  0.45187397690E+03  0.46098329457E+03  0.91189401086E+02 0.  0.
        -11    1    3    3    0    0  0.33233700529E+02 -0.30840674103E+02  0.25031277986E+03  0.25438575784E+03  0.00000000000E+00 0. -1.
         11    1    3    3    0    0 -0.33233700529E+02  0.30840674103E+02  0.20156119704E+03  0.20659753673E+03  0.00000000000E+00 0.  1.
<mgrwt>
<rscale>  0 0.91189401E+02</rscale>
<asrwt>0</asrwt>
<pdfrwt beam="1">  1        1 0.70219754E-01 0.91189401E+02</pdfrwt>
<pdfrwt beam="2">  1       -1 0.70071711E-03 0.91189401E+02</pdfrwt>
<totfact> 0.13758269E+05</totfact>
</mgrwt>
</event>
<event>
 5    1  0.6125604E+000  0.8754412E+02  0.7546771E-02  0.1308910E+00
          2   -1    0    0  501    0  0.00000000000E+00  0.00000000000E+00  0.29697013997E+02  0.29697013997E+02  0.00000000000E+00 0. -1.
         -2   -1    0    0    0  501 -0.00000000000E+00 -0.00000000000E+00 -0.64518048253E+02  0.64518048253E+02  0.00000000000E+00 0.  1.
         23    2    1    2    0    0  0.00000000000E+00  0.00000000000E+00 -0.34821034255E+02  0.94215062250E+02  0.87544123322E+02 0.  0.
        -11    1    3    3    0    0  0.39840815519E+02  0.10452886560E+02 -0.14682088657E+01  0.41215398287E+02  0.00000000000E+00 0. -1.
         11    1    3    3    0    0 -0.39840815519E+02 -0.10452886560E+02 -0.33352825390E+02  0.52999663963E+02  0.00000000000E+00 0.  1.
<mgrwt>
<rscale>  0 0.87544123E+02</rscale>
<asrwt>0</asrwt>
<pdfrwt beam="1">  1        2 0.45687715E-02 0.87544123E+02</pdfrwt>
<pdfrwt beam="2">  1       -2 0.99258534E-02 0.87544123E+02</pdfrwt>
<totfact> 0.99482037E+04</totfact>
</mgrwt>
</event>
<event>
 5    1  0.6125604E+000  0.9299953E+02  0.7546771E-02  0.1295746E+00
         -1   -1    0    0    0  501 -0.00000000000E+00  0.00000000000E+00  0.20679566731E+02  0.20679566731E+02  0.00000000000E+00 0.  1.
          1   -1    0    0  501    0  0.00000000000E+00 -0.00000000000E+00 -0.10455866660E+03  0.10455866660E+03  0.00000000000E+00 0. -1.
         23    2    1    2    0    0  0.00000000000E+00  0.00000000000E+00 -0.83879099870E+02  0.12523823333E+03  0.92999525231E+02 0.  0.
        -11    1    3    3    0    0  0.30301669194E+02 -0.90761473595E+01 -0.87837763036E+02  0.93359735550E+02  0.00000000000E+00 0. -1.
         11    1    3    3    0    0 -0.30301669194E+02  0.90761473595E+01  0.39586631655E+01  0.31878497783E+02  0.00000000000E+00 0.  1.
<mgrwt>
<rscale>  0 0.92999525E+02</rscale>
<asrwt>0</asrwt>
<pdfrwt beam="2">  1        1 0.16085948E-01 0.92999525E+02</pdfrwt>
<pdfrwt beam="1">  1       -1 0.31814719E-02 0.92999525E+02</pdfrwt>
<totfact> 0.99700440E+04</totfact>
</mgrwt>
</event>
<event>
 5    1  0.6125604E+000  0.9946903E+02  0.7546771E-02  0.1281416E+00
         -2   -1    0    0    0  501 -0.00000000000E+00  0.00000000000E+00  0.18309553979E+02  0.18309553979E+02  0.00000000000E+00 0.  1.
          2   -1    0    0  501    0  0.00000000000E+00 -0.00000000000E+00 -0.13509461058E+03  0.13509461058E+03  0.00000000000E+00 0. -1.
         23    2    1    2    0    0  0.00000000000E+00  0.00000000000E+00 -0.11678505660E+03  0.15340416456E+03  0.99469031654E+02 0.  0.
        -11    1    3    3    0    0  0.59448371665E+01 -0.33988823424E+02 -0.31526671882E+01  0.34648528354E+02  0.00000000000E+00 0.  1.
         11    1    3    3    0    0 -0.59448371665E+01  0.33988823424E+02 -0.11363238941E+03  0.11875563620E+03  0.00000000000E+00 0. -1.
<mgrwt>
<rscale>  0 0.99469032E+02</rscale>
<asrwt>0</asrwt>
<pdfrwt beam="2">  1        2 0.20783786E-01 0.99469032E+02</pdfrwt>
<pdfrwt beam="1">  1       -2 0.28168545E-02 0.99469032E+02</pdfrwt>
<totfact> 0.10633062E+05</totfact>
</mgrwt>
</event>
<event>
 5    1  0.6125604E+000  0.9448391E+02  0.7546771E-02  0.1292343E+00
          1   -1    0    0  501    0  0.00000000000E+00  0.00000000000E+00  0.48219502423E+01  0.48219502423E+01  0.00000000000E+00 0. -1.
         -1   -1    0    0    0  501 -0.00000000000E+00 -0.00000000000E+00 -0.46284226184E+03  0.46284226184E+03  0.00000000000E+00 0.  1.
         23    2    1    2    0    0  0.00000000000E+00  0.00000000000E+00 -0.45802031160E+03  0.46766421208E+03  0.94483910940E+02 0.  0.
        -11    1    3    3    0    0  0.29068623266E+02  0.37239566435E+02 -0.22812210948E+03  0.23296237250E+03  0.00000000000E+00 0.  1.
         11    1    3    3    0    0 -0.29068623266E+02 -0.37239566435E+02 -0.22989820212E+03  0.23470183958E+03  0.00000000000E+00 0. -1.
<mgrwt>
<rscale>  0 0.94483911E+02</rscale>
<asrwt>0</asrwt>
<pdfrwt beam="1">  1        1 0.74183848E-03 0.94483911E+02</pdfrwt>
<pdfrwt beam="2">  1       -1 0.71206504E-01 0.94483911E+02</pdfrwt>
<totfact> 0.44856539E+04</totfact>
</mgrwt>
</event>
<event>
 5    1  0.6125604E+000  0.9203460E+02  0.7546771E-02  0.1297998E+00
         -1   -1    0    0    0  501 -0.00000000000E+00  0.00000000000E+00  0.11238610661E+03  0.11238610661E+03  0.00000000000E+00 0.  1.
          1   -1    0    0  501    0  0.00000000000E+00 -0.00000000000E+00 -0.18842116026E+02  0.18842116026E+02  0.00000000000E+00 0. -1.
         23    2    1    2    0    0  0.00000000000E+00  0.00000000000E+00  0.93543990583E+02  0.13122822264E+03  0.92034603503E+02 0.  0.
        -11    1    3    3    0    0  0.12482954477E+02 -0.40078241481E+02  0.73656213455E+02  0.84778106686E+02  0.00000000000E+00 0.  1.
         11    1    3    3    0    0 -0.12482954477E+02  0.40078241481E+02  0.19887777128E+02  0.46450115950E+02  0.00000000000E+00 0. -1.
<mgrwt>
<rscale>  0 0.92034604E+02</rscale>
<asrwt>0</asrwt>
<pdfrwt beam="2">  1        1 0.28987872E-02 0.92034604E+02</pdfrwt>
<pdfrwt beam="1">  1       -1 0.17290170E-01 0.92034604E+02</pdfrwt>
<totfact> 0.77668874E+04</totfact>
</mgrwt>
</event>
<event>
 5    1  0.6125604E+000  0.9237924E+02  0.7546771E-02  0.1297190E+00
         -4   -1    0    0    0  501 -0.00000000000E+00  0.00000000000E+00  0.10154175893E+02  0.10154175893E+02  0.00000000000E+00 0. -1.
          4   -1    0    0  501    0  0.00000000000E+00 -0.00000000000E+00 -0.21010871990E+03  0.21010871990E+03  0.00000000000E+00 0.  1.
         23    2    1    2    0    0  0.00000000000E+00  0.00000000000E+00 -0.19995454401E+03  0.22026289580E+03  0.92379237897E+02 0.  0.
        -11    1    3    3    0    0 -0.17101093837E+02  0.28138240436E+02 -0.22742796717E+02  0.40018030783E+02  0.00000000000E+00 0. -1.
         11    1    3    3    0    0  0.17101093837E+02 -0.28138240436E+02 -0.17721174729E+03  0.18024486501E+03  0.00000000000E+00 0.  1.
<mgrwt>
<rscale>  0 0.92379238E+02</rscale>
<asrwt>0</asrwt>
<pdfrwt beam="2">  1        4 0.32324413E-01 0.92379238E+02</pdfrwt>
<pdfrwt beam="1">  1       -4 0.15621812E-02 0.92379238E+02</pdfrwt>
<totfact> 0.19859006E+04</totfact>
</mgrwt>
</event>
<event>
 5    1  0.6125604E+000  0.9930134E+02  0.7546771E-02  0.1281772E+00
          1   -1    0    0  501    0  0.00000000000E+00  0.00000000000E+00  0.38986106139E+02  0.38986106139E+02  0.00000000000E+00 0. -1.
         -1   -1    0    0    0  501 -0.00000000000E+00 -0.00000000000E+00 -0.63232498537E+02  0.63232498537E+02  0.00000000000E+00 0.  1.
         23    2    1    2    0    0  0.00000000000E+00  0.00000000000E+00 -0.24246392397E+02  0.10221860468E+03  0.99301337340E+02 0.  0.
        -11    1    3    3    0    0 -0.46835875222E+02  0.61641548693E+01  0.36095543751E+01  0.47377472451E+02  0.00000000000E+00 0. -1.
         11    1    3    3    0    0  0.46835875222E+02 -0.61641548693E+01 -0.27855946772E+02  0.54841132225E+02  0.00000000000E+00 0.  1.
<mgrwt>
<rscale>  0 0.99301337E+02</rscale>
<asrwt>0</asrwt>
<pdfrwt beam="1">  1        1 0.59978625E-02 0.99301337E+02</pdfrwt>
<pdfrwt beam="2">  1       -1 0.97280766E-02 0.99301337E+02</pdfrwt>
<totfact> 0.70795268E+04</totfact>
</mgrwt>
</event>
<event>
 5    1  0.6125604E+000  0.9759265E+02  0.7546771E-02  0.1285441E+00
          1   -1    0    0  501    0  0.00000000000E+00  0.00000000000E+00  0.20347955257E+02  0.20347955257E+02  0.00000000000E+00 0. -1.
         -1   -1    0    0    0  501 -0.00000000000E+00 -0.00000000000E+00 -0.11701821782E+03  0.11701821782E+03  0.00000000000E+00 0.  1.
         23    2    1    2    0    0  0.00000000000E+00  0.00000000000E+00 -0.96670262564E+02  0.13736617308E+03  0.97592652601E+02 0.  0.
        -11    1    3    3    0    0  0.82761939112E+01  0.48045020677E+02 -0.45429285216E+02  0.66638122368E+02  0.00000000000E+00 0.  1.
         11    1    3    3    0    0 -0.82761939112E+01 -0.48045020677E+02 -0.51240977349E+02  0.70728050710E+02  0.00000000000E+00 0. -1.
<mgrwt>
<rscale>  0 0.97592653E+02</rscale>
<asrwt>0</asrwt>
<pdfrwt beam="1">  1        1 0.31304548E-02 0.97592653E+02</pdfrwt>
<pdfrwt beam="2">  1       -1 0.18002802E-01 0.97592653E+02</pdfrwt>
<totfact> 0.66190056E+04</totfact>
</mgrwt>
</event>
<event>
 5    1  0.6125604E+000  0.9396534E+02  0.7546771E-02  0.1293524E+00
          1   -1    0    0  501    0  0.00000000000E+00  0.00000000000E+00  0.19930625861E+02  0.19930625861E+02  0.00000000000E+00 0.  1.
         -1   -1    0    0    0  501 -0.00000000000E+00 -0.00000000000E+00 -0.11075272296E+03  0.11075272296E+03  0.00000000000E+00 0. -1.
         23    2    1    2    0    0  0.00000000000E+00  0.00000000000E+00 -0.90822097101E+02  0.13068334882E+03  0.93965335831E+02 0.  0.
        -11    1    3    3    0    0 -0.26200882849E+02  0.35597123506E+02 -0.23257761768E+02  0.49945619892E+02  0.00000000000E+00 0.  1.
         11    1    3    3    0    0  0.26200882849E+02 -0.35597123506E+02 -0.67564335333E+02  0.80737728931E+02  0.00000000000E+00 0. -1.
<mgrwt>
<rscale>  0 0.93965336E+02</rscale>
<asrwt>0</asrwt>
<pdfrwt beam="1">  1        1 0.30662502E-02 0.93965336E+02</pdfrwt>
<pdfrwt beam="2">  1       -1 0.17038880E-01 0.93965336E+02</pdfrwt>
<totfact> 0.73822662E+04</totfact>
</mgrwt>
</event>
<event>
 5    1  0.6125604E+000  0.8864303E+02  0.7546771E-02  0.1306171E+00
         -2   -1    0    0    0  501 -0.00000000000E+00  0.00000000000E+00  0.12444057042E+03  0.12444057042E+03  0.00000000000E+00 0.  1.
          2   -1    0    0  501    0  0.00000000000E+00 -0.00000000000E+00 -0.15785821720E+02  0.15785821720E+02  0.00000000000E+00 0. -1.
         23    2    1    2    0    0  0.00000000000E+00  0.00000000000E+00  0.10865474870E+03  0.14022639214E+03  0.88643029267E+02 0.  0.
        -11    1    3    3    0    0 -0.32592445281E+02 -0.23860149004E+02  0.83187052543E+02  0.92475185377E+02  0.00000000000E+00 0.  1.
         11    1    3    3    0    0  0.32592445281E+02  0.23860149004E+02  0.25467696162E+02  0.47751206766E+02  0.00000000000E+00 0. -1.
<mgrwt>
<rscale>  0 0.88643029E+02</rscale>
<asrwt>0</asrwt>
<pdfrwt beam="2">  1        2 0.24285880E-02 0.88643029E+02</pdfrwt>
<pdfrwt beam="1">  1       -2 0.19144703E-01 0.88643029E+02</pdfrwt>
<totfact> 0.79992745E+04</totfact>
</mgrwt>
</event>
<event>
 5    1  0.6125604E+000  0.7961718E+02  0.7546771E-02  0.1330141E+00
         -4   -1    0    0    0  501 -0.00000000000E+00  0.00000000000E+00  0.15842495134E+02  0.15842495134E+02  0.00000000000E+00 0.  1.
          4   -1    0    0  501    0  0.00000000000E+00 -0.00000000000E+00 -0.10002995037E+03  0.10002995037E+03  0.00000000000E+00 0. -1.
         23    2    1    2    0    0  0.00000000000E+00  0.00000000000E+00 -0.84187455233E+02  0.11587244550E+03  0.79617184124E+02 0.  0.
        -11    1    3    3    0    0  0.13692345846E+02  0.31037572057E+02 -0.11777540136E+02  0.35909910410E+02  0.00000000000E+00 0.  1.
         11    1    3    3    0    0 -0.13692345846E+02 -0.31037572057E+02 -0.72409915097E+02  0.79962535092E+02  0.00000000000E+00 0. -1.
<mgrwt>
<rscale>  0 0.79617184E+02</rscale>
<asrwt>0</asrwt>
<pdfrwt beam="2">  1        4 0.15389223E-01 0.79617184E+02</pdfrwt>
<pdfrwt beam="1">  1       -4 0.24373070E-02 0.79617184E+02</pdfrwt>
<totfact> 0.36656948E+04</totfact>
</mgrwt>
</event>
<event>
 5    1  0.6125604E+000  0.8691984E+02  0.7546771E-02  0.1310487E+00
         -2   -1    0    0    0  501 -0.00000000000E+00  0.00000000000E+00  0.22348272682E+02  0.22348272682E+02  0.00000000000E+00 0. -1.
          2   -1    0    0  501    0  0.00000000000E+00 -0.00000000000E+00 -0.84515007564E+02  0.84515007564E+02  0.00000000000E+00 0.  1.
         23    2    1    2    0    0  0.00000000000E+00  0.00000000000E+00 -0.62166734881E+02  0.10686328025E+03  0.86919835130E+02 0.  0.
        -11    1    3    3    0    0  0.48464208907E+01  0.42987587714E+02 -0.36203527190E+02  0.56410246179E+02  0.00000000000E+00 0. -1.
         11    1    3    3    0    0 -0.48464208907E+01 -0.42987587714E+02 -0.25963207691E+02  0.50453034067E+02  0.00000000000E+00 0.  1.
<mgrwt>
<rscale>  0 0.86919835E+02</rscale>
<asrwt>0</asrwt>
<pdfrwt beam="2">  1        2 0.13002309E-01 0.86919835E+02</pdfrwt>
<pdfrwt beam="1">  1       -2 0.34381958E-02 0.86919835E+02</pdfrwt>
<totfact> 0.13314833E+05</totfact>
</mgrwt>
</event>
<event>
 5    1  0.6125604E+000  0.9035554E+02  0.7546771E-02  0.1301993E+00
          1   -1    0    0  501    0  0.00000000000E+00  0.00000000000E+00  0.40674980758E+02  0.40674980758E+02  0.00000000000E+00 0. -1.
         -1   -1    0    0    0  501 -0.00000000000E+00 -0.00000000000E+00 -0.50179023965E+02  0.50179023965E+02  0.00000000000E+00 0.  1.
         23    2    1    2    0    0  0.00000000000E+00  0.00000000000E+00 -0.95040432064E+01  0.90854004723E+02  0.90355538496E+02 0.  0.
        -11    1    3    3    0    0 -0.41757697985E+02  0.16022925407E+02  0.16542606497E+01  0.44756854870E+02  0.00000000000E+00 0. -1.
         11    1    3    3    0    0  0.41757697985E+02 -0.16022925407E+02 -0.11158303856E+02  0.46097149853E+02  0.00000000000E+00 0.  1.
<mgrwt>
<rscale>  0 0.90355538E+02</rscale>
<asrwt>0</asrwt>
<pdfrwt beam="1">  1        1 0.62576894E-02 0.90355538E+02</pdfrwt>
<pdfrwt beam="2">  1       -1 0.77198498E-02 0.90355538E+02</pdfrwt>
<totfact> 0.93242147E+04</totfact>
</mgrwt>
</event>
<event>
 5    1  0.6125604E+000  0.9135428E+02  0.7546771E-02  0.1299605E+00
         -2   -1    0    0    0  501 -0.00000000000E+00  0.00000000000E+00  0.79270195900E+01  0.79270195900E+01  0.00000000000E+00 0.  1.
          2   -1    0    0  501    0  0.00000000000E+00 -0.00000000000E+00 -0.26320122738E+03  0.26320122738E+03  0.00000000000E+00 0. -1.
         23    2    1    2    0    0  0.00000000000E+00  0.00000000000E+00 -0.25527420779E+03  0.27112824697E+03  0.91354283655E+02 0.  0.
        -11    1    3    3    0    0 -0.42306624823E+02  0.95375170206E+01 -0.85082828521E+02  0.95498180318E+02  0.00000000000E+00 0.  1.
         11    1    3    3    0    0  0.42306624823E+02 -0.95375170206E+01 -0.17019137927E+03  0.17563006665E+03  0.00000000000E+00 0. -1.
<mgrwt>
<rscale>  0 0.91354284E+02</rscale>
<asrwt>0</asrwt>
<pdfrwt beam="2">  1        2 0.40492496E-01 0.91354284E+02</pdfrwt>
<pdfrwt beam="1">  1       -2 0.12195415E-02 0.91354284E+02</pdfrwt>
<totfact> 0.17021250E+05</totfact>
</mgrwt>
</event>
<event>
 5    1  0.6125604E+000  0.9360802E+02  0.7546771E-02  0.1294342E+00
          3   -1    0    0  501    0  0.00000000000E+00  0.00000000000E+00  0.59170926109E+02  0.59170926109E+02  0.00000000000E+00 0. -1.
         -3   -1    0    0    0  501 -0.00000000000E+00 -0.00000000000E+00 -0.37021817306E+02  0.37021817306E+02  0.00000000000E+00 0.  1.
         23    2    1    2    0    0  0.00000000000E+00  0.00000000000E+00  0.22149108803E+02  0.96192743415E+02  0.93608017097E+02 0.  0.
        -11    1    3    3    0    0  0.70863260317E+00  0.26741065647E+02  0.50541131848E+02  0.57183850522E+02  0.00000000000E+00 0. -1.
         11    1    3    3    0    0 -0.70863260317E+00 -0.26741065647E+02 -0.28392023045E+02  0.39008892892E+02  0.00000000000E+00 0.  1.
<mgrwt>
<rscale>  0 0.93608017E+02</rscale>
<asrwt>0</asrwt>
<pdfrwt beam="1">  1        3 0.91032194E-02 0.93608017E+02</pdfrwt>
<pdfrwt beam="2">  1       -3 0.56956642E-02 0.93608017E+02</pdfrwt>
<totfact> 0.32532269E+04</totfact>
</mgrwt>
</event>
<event>
 5    1  0.6125604E+000  0.9163295E+02  0.7546771E-02  0.1298945E+00
          4   -1    0    0  501    0  0.00000000000E+00  0.00000000000E+00  0.18498177979E+03  0.18498177979E+03  0.00000000000E+00 0. -1.
         -4   -1    0    0    0  501 -0.00000000000E+00 -0.00000000000E+00 -0.11347871597E+02  0.11347871597E+02  0.00000000000E+00 0.  1.
         23    2    1    2    0    0  0.00000000000E+00  0.00000000000E+00  0.17363390819E+03  0.19632965139E+03  0.91632952257E+02 0.  0.
        -11    1    3    3    0    0 -0.26179037259E+02  0.29585794673E+02  0.13653594787E+03  0.14213629479E+03  0.00000000000E+00 0. -1.
         11    1    3    3    0    0  0.26179037259E+02 -0.29585794673E+02  0.37097960325E+02  0.54193356591E+02  0.00000000000E+00 0.  1.
<mgrwt>
<rscale>  0 0.91632952E+02</rscale>
<asrwt>0</asrwt>
<pdfrwt beam="1">  1        4 0.28458733E-01 0.91632952E+02</pdfrwt>
<pdfrwt beam="2">  1       -4 0.17458265E-02 0.91632952E+02</pdfrwt>
<totfact> 0.21253946E+04</totfact>
</mgrwt>
</event>
<event>
 5    1  0.6125604E+000  0.9614276E+02  0.7546771E-02  0.1288623E+00
         -1   -1    0    0    0  501 -0.00000000000E+00  0.00000000000E+00  0.21178117898E+02  0.21178117898E+02  0.00000000000E+00 0.  1.
          1   -1    0    0  501    0  0.00000000000E+00 -0.00000000000E+00 -0.10911534401E+03  0.10911534401E+03  0.00000000000E+00 0. -1.
         23    2    1    2    0    0  0.00000000000E+00  0.00000000000E+00 -0.87937226112E+02  0.13029346191E+03  0.96142760932E+02 0.  0.
        -11    1    3    3    0    0  0.12717458025E+02 -0.40774293301E+02 -0.73862580469E+02  0.85322667132E+02  0.00000000000E+00 0.  1.
         11    1    3    3    0    0 -0.12717458025E+02  0.40774293301E+02 -0.14074645643E+02  0.44970794776E+02  0.00000000000E+00 0. -1.
<mgrwt>
<rscale>  0 0.96142761E+02</rscale>
<asrwt>0</asrwt>
<pdfrwt beam="2">  1        1 0.16786976E-01 0.96142761E+02</pdfrwt>
<pdfrwt beam="1">  1       -1 0.32581720E-02 0.96142761E+02</pdfrwt>
<totfact> 0.91703851E+04</totfact>
</mgrwt>
</event>
<event>
 5    1  0.6125604E+000  0.9285652E+02  0.7546771E-02  0.1296078E+00
          1   -1    0    0  501    0  0.00000000000E+00  0.00000000000E+00  0.23728735403E+02  0.23728735403E+02  0.00000000000E+00 0. -1.
         -1   -1    0    0    0  501 -0.00000000000E+00 -0.00000000000E+00 -0.90842745507E+02  0.90842745507E+02  0.00000000000E+00 0.  1.
         23    2    1    2    0    0  0.00000000000E+00  0.00000000000E+00 -0.67114010104E+02  0.11457148091E+03  0.92856523118E+02 0.  0.
        -11    1    3    3    0    0  0.35784875891E+02  0.27048654239E+02 -0.18781807977E+02  0.48630683211E+02  0.00000000000E+00 0. -1.
         11    1    3    3    0    0 -0.35784875891E+02 -0.27048654239E+02 -0.48332202127E+02  0.65940797699E+02  0.00000000000E+00 0.  1.
<mgrwt>
<rscale>  0 0.92856523E+02</rscale>
<asrwt>0</asrwt>
<pdfrwt beam="1">  1        1 0.36505747E-02 0.92856523E+02</pdfrwt>
<pdfrwt beam="2">  1       -1 0.13975807E-01 0.92856523E+02</pdfrwt>
<totfact> 0.79006717E+04</totfact>
</mgrwt>
</event>
<event>
 5    1  0.6125604E+000  0.8979099E+02  0.7546771E-02  0.1303359E+00
         -2   -1    0    0    0  501 -0.00000000000E+00  0.00000000000E+00  0.10757847531E+03  0.10757847531E+03  0.00000000000E+00 0.  1.
          2   -1    0    0  501    0  0.00000000000E+00 -0.00000000000E+00 -0.18736138922E+02  0.18736138922E+02  0.00000000000E+00 0. -1.
         23    2    1    2    0    0  0.00000000000E+00  0.00000000000E+00  0.88842336389E+02  0.12631461423E+03  0.89790985260E+02 0.  0.
        -11    1    3    3    0    0  0.23874283612E+02  0.37320302222E+02  0.34197294692E+02  0.55966430476E+02  0.00000000000E+00 0.  1.
         11    1    3    3    0    0 -0.23874283612E+02 -0.37320302222E+02  0.54645041697E+02  0.70348183758E+02  0.00000000000E+00 0. -1.
<mgrwt>
<rscale>  0 0.89790985E+02</rscale>
<asrwt>0</asrwt>
<pdfrwt beam="2">  1        2 0.28824830E-02 0.89790985E+02</pdfrwt>
<pdfrwt beam="1">  1       -2 0.16550534E-01 0.89790985E+02</pdfrwt>
<totfact> 0.81101342E+04</totfact>
</mgrwt>
</event>
<event>
 5    1  0.6125604E+000  0.9062244E+02  0.7546771E-02  0.1301351E+00
         -2   -1    0    0    0  501 -0.00000000000E+00  0.00000000000E+00  0.67276953970E+01  0.67276953970E+01  0.00000000000E+00 0.  1.
          2   -1    0    0  501    0  0.00000000000E+00 -0.00000000000E+00 -0.30517235497E+03  0.30517235497E+03  0.00000000000E+00 0. -1.
         23    2    1    2    0    0  0.00000000000E+00  0.00000000000E+00 -0.29844465957E+03  0.31190005037E+03  0.90622439778E+02 0.  0.
        -11    1    3    3    0    0 -0.33477775044E+02 -0.30483282140E+02 -0.14314811266E+03  0.15013785023E+03  0.00000000000E+00 0.  1.
         11    1    3    3    0    0  0.33477775044E+02  0.30483282140E+02 -0.15529654691E+03  0.16176220014E+03  0.00000000000E+00 0. -1.
<mgrwt>
<rscale>  0 0.90622440E+02</rscale>
<asrwt>0</asrwt>
<pdfrwt beam="2">  1        2 0.46949584E-01 0.90622440E+02</pdfrwt>
<pdfrwt beam="1">  1       -2 0.10350303E-02 0.90622440E+02</pdfrwt>
<totfact> 0.18377030E+05</totfact>
</mgrwt>
</event>
<event>
 5    1  0.6125604E+000  0.9071490E+02  0.7546771E-02  0.1301130E+00
         -2   -1    0    0    0  501 -0.00000000000E+00  0.00000000000E+00  0.11239716032E+02  0.11239716032E+02  0.00000000000E+00 0.  1.
          2   -1    0    0  501    0  0.00000000000E+00 -0.00000000000E+00 -0.18303827584E+03  0.18303827584E+03  0.00000000000E+00 0. -1.
         23    2    1    2    0    0  0.00000000000E+00  0.00000000000E+00 -0.17179855981E+03  0.19427799187E+03  0.90714899404E+02 0.  0.
        -11    1    3    3    0    0 -0.36048487306E+02 -0.14023487664E+02 -0.35167143614E+02  0.52276951262E+02  0.00000000000E+00 0.  1.
         11    1    3    3    0    0  0.36048487306E+02  0.14023487664E+02 -0.13663141619E+03  0.14200104061E+03  0.00000000000E+00 0. -1.
<mgrwt>
<rscale>  0 0.90714899E+02</rscale>
<asrwt>0</asrwt>
<pdfrwt beam="2">  1        2 0.28159736E-01 0.90714899E+02</pdfrwt>
<pdfrwt beam="1">  1       -2 0.17291870E-02 0.90714899E+02</pdfrwt>
<totfact> 0.15190244E+05</totfact>
</mgrwt>
</event>
<event>
 5    1  0.6125604E+000  0.6365030E+02  0.7546771E-02  0.1383122E+00
         -3   -1    0    0    0  501 -0.00000000000E+00  0.00000000000E+00  0.11109437681E+02  0.11109437681E+02  0.00000000000E+00 0.  1.
          3   -1    0    0  501    0  0.00000000000E+00 -0.00000000000E+00 -0.91169338807E+02  0.91169338807E+02  0.00000000000E+00 0. -1.
         23    2    1    2    0    0  0.00000000000E+00  0.00000000000E+00 -0.80059901125E+02  0.10227877649E+03  0.63650297342E+02 0.  0.
        -11    1    3    3    0    0 -0.10319688141E+02 -0.14564104024E+02 -0.82368608567E+02  0.84280464917E+02  0.00000000000E+00 0.  1.
         11    1    3    3    0    0  0.10319688141E+02  0.14564104024E+02  0.23087074419E+01  0.17998311571E+02  0.00000000000E+00 0. -1.
<mgrwt>
<rscale>  0 0.63650297E+02</rscale>
<asrwt>0</asrwt>
<pdfrwt beam="2">  1        3 0.14026052E-01 0.63650297E+02</pdfrwt>
<pdfrwt beam="1">  1       -3 0.17091443E-02 0.63650297E+02</pdfrwt>
<totfact> 0.89692861E+04</totfact>
</mgrwt>
</event>
<event>
 5    1  0.6125604E+000  0.8760746E+02  0.7546771E-02  0.1308751E+00
         -4   -1    0    0    0  501 -0.00000000000E+00  0.00000000000E+00  0.26092278983E+02  0.26092278983E+02  0.00000000000E+00 0. -1.
          4   -1    0    0  501    0  0.00000000000E+00 -0.00000000000E+00 -0.73537725030E+02  0.73537725030E+02  0.00000000000E+00 0.  1.
         23    2    1    2    0    0  0.00000000000E+00  0.00000000000E+00 -0.47445446047E+02  0.99630004014E+02  0.87607461721E+02 0.  0.
        -11    1    3    3    0    0  0.24652635914E+02  0.13369525543E+02 -0.61989693606E+02  0.68038362591E+02  0.00000000000E+00 0.  1.
         11    1    3    3    0    0 -0.24652635914E+02 -0.13369525543E+02  0.14544247558E+02  0.31591641423E+02  0.00000000000E+00 0. -1.
<mgrwt>
<rscale>  0 0.87607462E+02</rscale>
<asrwt>0</asrwt>
<pdfrwt beam="2">  1        4 0.11313496E-01 0.87607462E+02</pdfrwt>
<pdfrwt beam="1">  1       -4 0.40141967E-02 0.87607462E+02</pdfrwt>
<totfact> 0.29493775E+04</totfact>
</mgrwt>
</event>
<event>
 5    1  0.6125604E+000  0.9194662E+02  0.7546771E-02  0.1298205E+00
          4   -1    0    0  501    0  0.00000000000E+00  0.00000000000E+00  0.28285948103E+03  0.28285948103E+03  0.00000000000E+00 0. -1.
         -4   -1    0    0    0  501 -0.00000000000E+00 -0.00000000000E+00 -0.74720686475E+01  0.74720686475E+01  0.00000000000E+00 0.  1.
         23    2    1    2    0    0  0.00000000000E+00  0.00000000000E+00  0.27538741239E+03  0.29033154968E+03  0.91946624949E+02 0.  0.
        -11    1    3    3    0    0 -0.17964919390E+02 -0.37795079935E+02  0.19779945594E+03  0.20217772174E+03  0.00000000000E+00 0. -1.
         11    1    3    3    0    0  0.17964919390E+02  0.37795079935E+02  0.77587956444E+02  0.88153827943E+02  0.00000000000E+00 0.  1.
<mgrwt>
<rscale>  0 0.91946625E+02</rscale>
<asrwt>0</asrwt>
<pdfrwt beam="1">  1        4 0.43516835E-01 0.91946625E+02</pdfrwt>
<pdfrwt beam="2">  1       -4 0.11495492E-02 0.91946625E+02</pdfrwt>
<totfact> 0.17717691E+04</totfact>
</mgrwt>
</event>
<event>
 5    1  0.6125604E+000  0.9037211E+02  0.7546771E-02  0.1301953E+00
          2   -1    0    0  501    0  0.00000000000E+00  0.00000000000E+00  0.58254573014E+02  0.58254573014E+02  0.00000000000E+00 0. -1.
         -2   -1    0    0    0  501 -0.00000000000E+00 -0.00000000000E+00 -0.35049261205E+02  0.35049261205E+02  0.00000000000E+00 0.  1.
         23    2    1    2    0    0  0.00000000000E+00  0.00000000000E+00  0.23205311810E+02  0.93303834219E+02  0.90372113972E+02 0.  0.
        -11    1    3    3    0    0  0.42664089562E+02 -0.29914950963E+01  0.26656692809E+02  0.50395960677E+02  0.00000000000E+00 0. -1.
         11    1    3    3    0    0 -0.42664089562E+02  0.29914950963E+01 -0.34513809999E+01  0.42907873542E+02  0.00000000000E+00 0.  1.
<mgrwt>
<rscale>  0 0.90372114E+02</rscale>
<asrwt>0</asrwt>
<pdfrwt beam="1">  1        2 0.89622420E-02 0.90372114E+02</pdfrwt>
<pdfrwt beam="2">  1       -2 0.53921940E-02 0.90372114E+02</pdfrwt>
<totfact> 0.10789991E+05</totfact>
</mgrwt>
</event>
<event>
 5    1  0.6125604E+000  0.8959375E+02  0.7546771E-02  0.1303838E+00
         -4   -1    0    0    0  501 -0.00000000000E+00  0.00000000000E+00  0.45300693495E+02  0.45300693495E+02  0.00000000000E+00 0.  1.
          4   -1    0    0  501    0  0.00000000000E+00 -0.00000000000E+00 -0.44298664027E+02  0.44298664027E+02  0.00000000000E+00 0. -1.
         23    2    1    2    0    0  0.00000000000E+00  0.00000000000E+00  0.10020294684E+01  0.89599357522E+02  0.89593754276E+02 0.  0.
        -11    1    3    3    0    0 -0.20632223626E+02  0.19376809966E+02  0.35225092678E+02  0.45188013570E+02  0.00000000000E+00 0.  1.
         11    1    3    3    0    0  0.20632223626E+02 -0.19376809966E+02 -0.34223063209E+02  0.44411343952E+02  0.00000000000E+00 0. -1.
<mgrwt>
<rscale>  0 0.89593754E+02</rscale>
<asrwt>0</asrwt>
<pdfrwt beam="2">  1        4 0.68151791E-02 0.89593754E+02</pdfrwt>
<pdfrwt beam="1">  1       -4 0.69693374E-02 0.89593754E+02</pdfrwt>
<totfact> 0.28435372E+04</totfact>
</mgrwt>
</event>
<event>
 5    1  0.6125604E+000  0.9160045E+02  0.7546771E-02  0.1299022E+00
          2   -1    0    0  501    0  0.00000000000E+00  0.00000000000E+00  0.17478928933E+02  0.17478928933E+02  0.00000000000E+00 0. -1.
         -2   -1    0    0    0  501 -0.00000000000E+00 -0.00000000000E+00 -0.12001082834E+03  0.12001082834E+03  0.00000000000E+00 0.  1.
         23    2    1    2    0    0  0.00000000000E+00  0.00000000000E+00 -0.10253189940E+03  0.13748975727E+03  0.91600452829E+02 0.  0.
        -11    1    3    3    0    0  0.35710763279E+02  0.27070609197E+02 -0.65472496936E+02  0.79339298908E+02  0.00000000000E+00 0. -1.
         11    1    3    3    0    0 -0.35710763279E+02 -0.27070609197E+02 -0.37059402468E+02  0.58150458361E+02  0.00000000000E+00 0.  1.
<mgrwt>
<rscale>  0 0.91600453E+02</rscale>
<asrwt>0</asrwt>
<pdfrwt beam="1">  1        2 0.26890660E-02 0.91600453E+02</pdfrwt>
<pdfrwt beam="2">  1       -2 0.18463204E-01 0.91600453E+02</pdfrwt>
<totfact> 0.74541471E+04</totfact>
</mgrwt>
</event>
<event>
 5    1  0.6125604E+000  0.9708078E+02  0.7546771E-02  0.1286557E+00
         -2   -1    0    0    0  501 -0.00000000000E+00  0.00000000000E+00  0.26676218414E+02  0.26676218414E+02  0.00000000000E+00 0.  1.
          2   -1    0    0  501    0  0.00000000000E+00 -0.00000000000E+00 -0.88324714569E+02  0.88324714569E+02  0.00000000000E+00 0. -1.
         23    2    1    2    0    0  0.00000000000E+00  0.00000000000E+00 -0.61648496156E+02  0.11500093298E+03  0.97080778266E+02 0.  0.
        -11    1    3    3    0    0  0.32045742946E+02 -0.33003296129E+02 -0.12471808490E+02  0.47662282817E+02  0.00000000000E+00 0.  1.
         11    1    3    3    0    0 -0.32045742946E+02  0.33003296129E+02 -0.49176687666E+02  0.67338650166E+02  0.00000000000E+00 0. -1.
<mgrwt>
<rscale>  0 0.97080778E+02</rscale>
<asrwt>0</asrwt>
<pdfrwt beam="2">  1        2 0.13588418E-01 0.97080778E+02</pdfrwt>
<pdfrwt beam="1">  1       -2 0.41040335E-02 0.97080778E+02</pdfrwt>
<totfact> 0.99265110E+04</totfact>
</mgrwt>
</event>
<event>
 5    1  0.6125604E+000  0.9036952E+02  0.7546771E-02  0.1301959E+00
          1   -1    0    0  501    0  0.00000000000E+00  0.00000000000E+00  0.48786423072E+02  0.48786423072E+02  0.00000000000E+00 0. -1.
         -1   -1    0    0    0  501 -0.00000000000E+00 -0.00000000000E+00 -0.41848988698E+02  0.41848988698E+02  0.00000000000E+00 0.  1.
         23    2    1    2    0    0  0.00000000000E+00  0.00000000000E+00  0.69374343745E+01  0.90635411770E+02  0.90369518484E+02 0.  0.
        -11    1    3    3    0    0  0.43182909150E+02  0.12249956460E+02  0.86644414771E+01  0.45715398085E+02  0.00000000000E+00 0. -1.
         11    1    3    3    0    0 -0.43182909150E+02 -0.12249956460E+02 -0.17270071026E+01  0.44920013685E+02  0.00000000000E+00 0.  1.
<mgrwt>
<rscale>  0 0.90369518E+02</rscale>
<asrwt>0</asrwt>
<pdfrwt beam="1">  1        1 0.75056035E-02 0.90369518E+02</pdfrwt>
<pdfrwt beam="2">  1       -1 0.64383060E-02 0.90369518E+02</pdfrwt>
<totfact> 0.95769613E+04</totfact>
</mgrwt>
</event>
<event>
 5    1  0.6125604E+000  0.8599329E+02  0.7546771E-02  0.1312855E+00
          1   -1    0    0  501    0  0.00000000000E+00  0.00000000000E+00  0.12280505741E+03  0.12280505741E+03  0.00000000000E+00 0. -1.
         -1   -1    0    0    0  501 -0.00000000000E+00 -0.00000000000E+00 -0.15054033758E+02  0.15054033758E+02  0.00000000000E+00 0.  1.
         23    2    1    2    0    0  0.00000000000E+00  0.00000000000E+00  0.10775102365E+03  0.13785909117E+03  0.85993289969E+02 0.  0.
        -11    1    3    3    0    0 -0.17177588031E+02  0.22770033299E+02  0.22961258801E+01  0.28614963587E+02  0.00000000000E+00 0.  1.
         11    1    3    3    0    0  0.17177588031E+02 -0.22770033299E+02  0.10545489777E+03  0.10924412758E+03  0.00000000000E+00 0. -1.
<mgrwt>
<rscale>  0 0.85993290E+02</rscale>
<asrwt>0</asrwt>
<pdfrwt beam="1">  1        1 0.18893085E-01 0.85993290E+02</pdfrwt>
<pdfrwt beam="2">  1       -1 0.23160053E-02 0.85993290E+02</pdfrwt>
<totfact> 0.12668604E+05</totfact>
</mgrwt>
</event>
<event>
 5    1  0.6125604E+000  0.9282569E+02  0.7546771E-02  0.1296150E+00
          1   -1    0    0  501    0  0.00000000000E+00  0.00000000000E+00  0.29544059717E+02  0.29544059717E+02  0.00000000000E+00 0. -1.
         -1   -1    0    0    0  501 -0.00000000000E+00 -0.00000000000E+00 -0.72913200956E+02  0.72913200956E+02  0.00000000000E+00 0.  1.
         23    2    1    2    0    0  0.00000000000E+00  0.00000000000E+00 -0.43369141239E+02  0.10245726067E+03  0.92825685307E+02 0.  0.
        -11    1    3    3    0    0  0.12851565448E+02  0.24020891109E+02  0.19790752136E+02  0.33672537984E+02  0.00000000000E+00 0. -1.
         11    1    3    3    0    0 -0.12851565448E+02 -0.24020891109E+02 -0.63159893376E+02  0.68784722689E+02  0.00000000000E+00 0.  1.
<mgrwt>
<rscale>  0 0.92825685E+02</rscale>
<asrwt>0</asrwt>
<pdfrwt beam="1">  1        1 0.45452399E-02 0.92825685E+02</pdfrwt>
<pdfrwt beam="2">  1       -1 0.11217416E-01 0.92825685E+02</pdfrwt>
<totfact> 0.82118069E+04</totfact>
</mgrwt>
</event>
<event>
 5    1  0.6125604E+000  0.9099012E+02  0.7546771E-02  0.1300472E+00
         -2   -1    0    0    0  501 -0.00000000000E+00  0.00000000000E+00  0.19631846761E+02  0.19631846761E+02  0.00000000000E+00 0.  1.
          2   -1    0    0  501    0  0.00000000000E+00 -0.00000000000E+00 -0.10543075595E+03  0.10543075595E+03  0.00000000000E+00 0. -1.
         23    2    1    2    0    0  0.00000000000E+00  0.00000000000E+00 -0.85798909186E+02  0.12506260271E+03  0.90990119126E+02 0.  0.
        -11    1    3    3    0    0  0.36637916736E+02  0.20706345141E+02 -0.66654653529E+02  0.78828500613E+02  0.00000000000E+00 0. -1.
         11    1    3    3    0    0 -0.36637916736E+02 -0.20706345141E+02 -0.19144255657E+02  0.46234102095E+02  0.00000000000E+00 0.  1.
<mgrwt>
<rscale>  0 0.90990119E+02</rscale>
<asrwt>0</asrwt>
<pdfrwt beam="2">  1        2 0.16220116E-01 0.90990119E+02</pdfrwt>
<pdfrwt beam="1">  1       -2 0.30202841E-02 0.90990119E+02</pdfrwt>
<totfact> 0.12538712E+05</totfact>
</mgrwt>
</event>
<event>
 5    1  0.6125604E+000  0.7937343E+02  0.7546771E-02  0.1330839E+00
         -1   -1    0    0    0  501 -0.00000000000E+00  0.00000000000E+00  0.55820862799E+02  0.55820862799E+02  0.00000000000E+00 0.  1.
          1   -1    0    0  501    0  0.00000000000E+00 -0.00000000000E+00 -0.28215892551E+02  0.28215892551E+02  0.00000000000E+00 0. -1.
         23    2    1    2    0    0  0.00000000000E+00  0.00000000000E+00  0.27604970248E+02  0.84036755349E+02  0.79373433007E+02 0.  0.
        -11    1    3    3    0    0 -0.17444946323E+02  0.16354350092E+02 -0.19732453478E+02  0.31002590850E+02  0.00000000000E+00 0. -1.
         11    1    3    3    0    0  0.17444946323E+02 -0.16354350092E+02  0.47337423726E+02  0.53034164499E+02  0.00000000000E+00 0.  1.
<mgrwt>
<rscale>  0 0.79373433E+02</rscale>
<asrwt>0</asrwt>
<pdfrwt beam="2">  1        1 0.43409066E-02 0.79373433E+02</pdfrwt>
<pdfrwt beam="1">  1       -1 0.85878250E-02 0.79373433E+02</pdfrwt>
<totfact> 0.12727438E+05</totfact>
</mgrwt>
</event>
<event>
 5    1  0.6125604E+000  0.9451097E+02  0.7546771E-02  0.1292281E+00
         -2   -1    0    0    0  501 -0.00000000000E+00  0.00000000000E+00  0.59765281941E+01  0.59765281941E+01  0.00000000000E+00 0.  1.
          2   -1    0    0  501    0  0.00000000000E+00 -0.00000000000E+00 -0.37364181475E+03  0.37364181475E+03  0.00000000000E+00 0. -1.
         23    2    1    2    0    0  0.00000000000E+00  0.00000000000E+00 -0.36766528656E+03  0.37961834295E+03  0.94510969530E+02 0.  0.
        -11    1    3    3    0    0  0.33821990397E+02  0.28734333796E+02 -0.11863249576E+03  0.12666198334E+03  0.00000000000E+00 0. -1.
         11    1    3    3    0    0 -0.33821990397E+02 -0.28734333796E+02 -0.24903279080E+03  0.25295635961E+03  0.00000000000E+00 0.  1.
<mgrwt>
<rscale>  0 0.94510970E+02</rscale>
<asrwt>0</asrwt>
<pdfrwt beam="2">  1        2 0.57483373E-01 0.94510970E+02</pdfrwt>
<pdfrwt beam="1">  1       -2 0.91946560E-03 0.94510970E+02</pdfrwt>
<totfact> 0.17700337E+05</totfact>
</mgrwt>
</event>
<event>
 5    1  0.6125604E+000  0.9203102E+02  0.7546771E-02  0.1298007E+00
         -1   -1    0    0    0  501 -0.00000000000E+00  0.00000000000E+00  0.58327760246E+02  0.58327760246E+02  0.00000000000E+00 0.  1.
          1   -1    0    0  501    0  0.00000000000E+00 -0.00000000000E+00 -0.36302222392E+02  0.36302222392E+02  0.00000000000E+00 0. -1.
         23    2    1    2    0    0  0.00000000000E+00  0.00000000000E+00  0.22025537854E+02  0.94629982639E+02  0.92031023554E+02 0.  0.
        -11    1    3    3    0    0 -0.33224607105E+02  0.29965751001E+02  0.22068456908E+02  0.49888250527E+02  0.00000000000E+00 0.  1.
         11    1    3    3    0    0  0.33224607105E+02 -0.29965751001E+02 -0.42919054401E-01  0.44741732112E+02  0.00000000000E+00 0. -1.
<mgrwt>
<rscale>  0 0.92031024E+02</rscale>
<asrwt>0</asrwt>
<pdfrwt beam="2">  1        1 0.55849573E-02 0.92031024E+02</pdfrwt>
<pdfrwt beam="1">  1       -1 0.89735016E-02 0.92031024E+02</pdfrwt>
<totfact> 0.86989637E+04</totfact>
</mgrwt>
</event>
<event>
 5    1  0.6125604E+000  0.9007495E+02  0.7546771E-02  0.1302670E+00
         -2   -1    0    0    0  501 -0.00000000000E+00  0.00000000000E+00  0.51661823949E+02  0.51661823949E+02  0.00000000000E+00 0.  1.
          2   -1    0    0  501    0  0.00000000000E+00 -0.00000000000E+00 -0.39262532786E+02  0.39262532786E+02  0.00000000000E+00 0. -1.
         23    2    1    2    0    0  0.00000000000E+00  0.00000000000E+00  0.12399291163E+02  0.90924356735E+02  0.90074947828E+02 0.  0.
        -11    1    3    3    0    0 -0.41492332988E+02  0.12277445526E+02  0.18808420256E+02  0.47181628183E+02  0.00000000000E+00 0. -1.
         11    1    3    3    0    0  0.41492332988E+02 -0.12277445526E+02 -0.64091290926E+01  0.43742728552E+02  0.00000000000E+00 0.  1.
<mgrwt>
<rscale>  0 0.90074948E+02</rscale>
<asrwt>0</asrwt>
<pdfrwt beam="2">  1        2 0.60403896E-02 0.90074948E+02</pdfrwt>
<pdfrwt beam="1">  1       -2 0.79479729E-02 0.90074948E+02</pdfrwt>
<totfact> 0.98330764E+04</totfact>
</mgrwt>
</event>
<event>
 5    1  0.6125604E+000  0.9207853E+02  0.7546771E-02  0.1297895E+00
          2   -1    0    0  501    0  0.00000000000E+00  0.00000000000E+00  0.18963429642E+03  0.18963429642E+03  0.00000000000E+00 0. -1.
         -2   -1    0    0    0  501 -0.00000000000E+00 -0.00000000000E+00 -0.11177377039E+02  0.11177377039E+02  0.00000000000E+00 0.  1.
         23    2    1    2    0    0  0.00000000000E+00  0.00000000000E+00  0.17845691938E+03  0.20081167346E+03  0.92078532362E+02 0.  0.
        -11    1    3    3    0    0  0.98193956577E+01 -0.36202010772E+02  0.14744627284E+03  0.15214272736E+03  0.00000000000E+00 0. -1.
         11    1    3    3    0    0 -0.98193956577E+01  0.36202010772E+02  0.31010646539E+02  0.48668946093E+02  0.00000000000E+00 0.  1.
<mgrwt>
<rscale>  0 0.92078532E+02</rscale>
<asrwt>0</asrwt>
<pdfrwt beam="1">  1        2 0.29174505E-01 0.92078532E+02</pdfrwt>
<pdfrwt beam="2">  1       -2 0.17195966E-02 0.92078532E+02</pdfrwt>
<totfact> 0.14776513E+05</totfact>
</mgrwt>
</event>
<event>
 5    1  0.6125604E+000  0.9175150E+02  0.7546771E-02  0.1298665E+00
          1   -1    0    0  501    0  0.00000000000E+00  0.00000000000E+00  0.63792607598E+02  0.63792607598E+02  0.00000000000E+00 0. -1.
         -1   -1    0    0    0  501 -0.00000000000E+00 -0.00000000000E+00 -0.32991039351E+02  0.32991039351E+02  0.00000000000E+00 0.  1.
         23    2    1    2    0    0  0.00000000000E+00  0.00000000000E+00  0.30801568247E+02  0.96783646949E+02  0.91751499771E+02 0.  0.
        -11    1    3    3    0    0  0.14792796301E+02  0.18529517959E+02  0.56828345593E+02  0.61576218795E+02  0.00000000000E+00 0. -1.
         11    1    3    3    0    0 -0.14792796301E+02 -0.18529517959E+02 -0.26026777346E+02  0.35207428154E+02  0.00000000000E+00 0.  1.
<mgrwt>
<rscale>  0 0.91751500E+02</rscale>
<asrwt>0</asrwt>
<pdfrwt beam="1">  1        1 0.98142473E-02 0.91751500E+02</pdfrwt>
<pdfrwt beam="2">  1       -1 0.50755445E-02 0.91751500E+02</pdfrwt>
<totfact> 0.95593257E+04</totfact>
</mgrwt>
</event>
<event>
 5    1  0.6125604E+000  0.9412259E+02  0.7546771E-02  0.1293165E+00
          3   -1    0    0  501    0  0.00000000000E+00  0.00000000000E+00  0.15529181714E+02  0.15529181714E+02  0.00000000000E+00 0. -1.
         -3   -1    0    0    0  501 -0.00000000000E+00 -0.00000000000E+00 -0.14261957507E+03  0.14261957507E+03  0.00000000000E+00 0.  1.
         23    2    1    2    0    0  0.00000000000E+00  0.00000000000E+00 -0.12709039336E+03  0.15814875678E+03  0.94122585965E+02 0.  0.
        -11    1    3    3    0    0  0.19348352968E+02  0.21259981580E+02 -0.93683809343E+00  0.28761488921E+02  0.00000000000E+00 0. -1.
         11    1    3    3    0    0 -0.19348352968E+02 -0.21259981580E+02 -0.12615355526E+03  0.12938726786E+03  0.00000000000E+00 0.  1.
<mgrwt>
<rscale>  0 0.94122586E+02</rscale>
<asrwt>0</asrwt>
<pdfrwt beam="1">  1        3 0.23891049E-02 0.94122586E+02</pdfrwt>
<pdfrwt beam="2">  1       -3 0.21941473E-01 0.94122586E+02</pdfrwt>
<totfact> 0.28267557E+04</totfact>
</mgrwt>
</event>
<event>
 5    1  0.6125604E+000  0.9130725E+02  0.7546771E-02  0.1299717E+00
          2   -1    0    0  501    0  0.00000000000E+00  0.00000000000E+00  0.36118781092E+03  0.36118781092E+03  0.00000000000E+00 0. -1.
         -2   -1    0    0    0  501 -0.00000000000E+00 -0.00000000000E+00 -0.57705528713E+01  0.57705528713E+01  0.00000000000E+00 0.  1.
         23    2    1    2    0    0  0.00000000000E+00  0.00000000000E+00  0.35541725805E+03  0.36695836379E+03  0.91307247454E+02 0.  0.
        -11    1    3    3    0    0 -0.37802695216E+02 -0.23633547793E+02  0.13819506574E+03  0.14520834873E+03  0.00000000000E+00 0.  1.
         11    1    3    3    0    0  0.37802695216E+02  0.23633547793E+02  0.21722219231E+03  0.22175001506E+03  0.00000000000E+00 0. -1.
<mgrwt>
<rscale>  0 0.91307247E+02</rscale>
<asrwt>0</asrwt>
<pdfrwt beam="1">  1        2 0.55567338E-01 0.91307247E+02</pdfrwt>
<pdfrwt beam="2">  1       -2 0.88777765E-03 0.91307247E+02</pdfrwt>
<totfact> 0.19166345E+05</totfact>
</mgrwt>
</event>
<event>
 5    1  0.6125604E+000  0.9403740E+02  0.7546771E-02  0.1293359E+00
         -4   -1    0    0    0  501 -0.00000000000E+00  0.00000000000E+00  0.25312067730E+02  0.25312067730E+02  0.00000000000E+00 0.  1.
          4   -1    0    0  501    0  0.00000000000E+00 -0.00000000000E+00 -0.87340092951E+02  0.87340092951E+02  0.00000000000E+00 0. -1.
         23    2    1    2    0    0  0.00000000000E+00  0.00000000000E+00 -0.62028025221E+02  0.11265216068E+03  0.94037404225E+02 0.  0.
        -11    1    3    3    0    0  0.43622904810E+02  0.54701034868E+01 -0.11044550812E+02  0.45330585247E+02  0.00000000000E+00 0.  1.
         11    1    3    3    0    0 -0.43622904810E+02 -0.54701034868E+01 -0.50983474408E+02  0.67321575434E+02  0.00000000000E+00 0. -1.
<mgrwt>
<rscale>  0 0.94037404E+02</rscale>
<asrwt>0</asrwt>
<pdfrwt beam="2">  1        4 0.13436938E-01 0.94037404E+02</pdfrwt>
<pdfrwt beam="1">  1       -4 0.38941642E-02 0.94037404E+02</pdfrwt>
<totfact> 0.23629101E+04</totfact>
</mgrwt>
</event>
<event>
 5    1  0.6125604E+000  0.9078151E+02  0.7546771E-02  0.1300970E+00
         -1   -1    0    0    0  501 -0.00000000000E+00  0.00000000000E+00  0.17843537794E+03  0.17843537794E+03  0.00000000000E+00 0.  1.
          1   -1    0    0  501    0  0.00000000000E+00 -0.00000000000E+00 -0.11546593725E+02  0.11546593725E+02  0.00000000000E+00 0. -1.
         23    2    1    2    0    0  0.00000000000E+00  0.00000000000E+00  0.16688878422E+03  0.18998197167E+03  0.90781513874E+02 0.  0.
        -11    1    3    3    0    0 -0.35101667377E+02 -0.28486050245E+02  0.92006405171E+02  0.10251224660E+03  0.00000000000E+00 0.  1.
         11    1    3    3    0    0  0.35101667377E+02  0.28486050245E+02  0.74882379046E+02  0.87469725064E+02  0.00000000000E+00 0. -1.
<mgrwt>
<rscale>  0 0.90781514E+02</rscale>
<asrwt>0</asrwt>
<pdfrwt beam="2">  1        1 0.17763992E-02 0.90781514E+02</pdfrwt>
<pdfrwt beam="1">  1       -1 0.27451595E-01 0.90781514E+02</pdfrwt>
<totfact> 0.72448720E+04</totfact>
</mgrwt>
</event>
<event>
 5    1  0.6125604E+000  0.9100078E+02  0.7546771E-02  0.1300446E+00
          2   -1    0    0  501    0  0.00000000000E+00  0.00000000000E+00  0.23867417896E+02  0.23867417896E+02  0.00000000000E+00 0. -1.
         -2   -1    0    0    0  501 -0.00000000000E+00 -0.00000000000E+00 -0.86741068456E+02  0.86741068456E+02  0.00000000000E+00 0.  1.
         23    2    1    2    0    0  0.00000000000E+00  0.00000000000E+00 -0.62873650560E+02  0.11060848635E+03  0.91000776471E+02 0.  0.
        -11    1    3    3    0    0  0.81705333153E+01 -0.17068650972E+02  0.18857523111E+02  0.26715213616E+02  0.00000000000E+00 0. -1.
         11    1    3    3    0    0 -0.81705333153E+01  0.17068650972E+02 -0.81731173671E+02  0.83893272736E+02  0.00000000000E+00 0.  1.
<mgrwt>
<rscale>  0 0.91000776E+02</rscale>
<asrwt>0</asrwt>
<pdfrwt beam="1">  1        2 0.36719105E-02 0.91000776E+02</pdfrwt>
<pdfrwt beam="2">  1       -2 0.13344779E-01 0.91000776E+02</pdfrwt>
<totfact> 0.83573233E+04</totfact>
</mgrwt>
</event>
<event>
 5    1  0.6125604E+000  0.9166353E+02  0.7546771E-02  0.1298873E+00
         -3   -1    0    0    0  501 -0.00000000000E+00  0.00000000000E+00  0.26219117018E+02  0.26219117018E+02  0.00000000000E+00 0.  1.
          3   -1    0    0  501    0  0.00000000000E+00 -0.00000000000E+00 -0.80115226866E+02  0.80115226866E+02  0.00000000000E+00 0. -1.
         23    2    1    2    0    0  0.00000000000E+00  0.00000000000E+00 -0.53896109848E+02  0.10633434388E+03  0.91663526185E+02 0.  0.
        -11    1    3    3    0    0  0.15250778329E+02  0.62646590471E+01  0.22659794826E+02  0.28023177803E+02  0.00000000000E+00 0.  1.
         11    1    3    3    0    0 -0.15250778329E+02 -0.62646590471E+01 -0.76555904674E+02  0.78311166081E+02  0.00000000000E+00 0. -1.
<mgrwt>
<rscale>  0 0.91663526E+02</rscale>
<asrwt>0</asrwt>
<pdfrwt beam="2">  1        3 0.12325419E-01 0.91663526E+02</pdfrwt>
<pdfrwt beam="1">  1       -3 0.40337104E-02 0.91663526E+02</pdfrwt>
<totfact> 0.33715037E+04</totfact>
</mgrwt>
</event>
<event>
 5    1  0.6125604E+000  0.9316894E+02  0.7546771E-02  0.1295354E+00
          2   -1    0    0  501    0  0.00000000000E+00  0.00000000000E+00  0.24897504253E+02  0.24897504253E+02  0.00000000000E+00 0. -1.
         -2   -1    0    0    0  501 -0.00000000000E+00 -0.00000000000E+00 -0.87161869788E+02  0.87161869788E+02  0.00000000000E+00 0.  1.
         23    2    1    2    0    0  0.00000000000E+00  0.00000000000E+00 -0.62264365535E+02  0.11205937404E+03  0.93168943833E+02 0.  0.
        -11    1    3    3    0    0 -0.37909455882E+02  0.51280879551E+01 -0.63105754421E+02  0.73795395333E+02  0.00000000000E+00 0.  1.
         11    1    3    3    0    0  0.37909455882E+02 -0.51280879551E+01  0.84138888504E+00  0.38263978708E+02  0.00000000000E+00 0. -1.
<mgrwt>
<rscale>  0 0.93168944E+02</rscale>
<asrwt>0</asrwt>
<pdfrwt beam="1">  1        2 0.38303852E-02 0.93168944E+02</pdfrwt>
<pdfrwt beam="2">  1       -2 0.13409519E-01 0.93168944E+02</pdfrwt>
<totfact> 0.78740906E+04</totfact>
</mgrwt>
</event>
<event>
 5    1  0.6125604E+000  0.8925181E+02  0.7546771E-02  0.1304674E+00
         -3   -1    0    0    0  501 -0.00000000000E+00  0.00000000000E+00  0.14880253049E+02  0.14880253049E+02  0.00000000000E+00 0.  1.
          3   -1    0    0  501    0  0.00000000000E+00 -0.00000000000E+00 -0.13383315765E+03  0.13383315765E+03  0.00000000000E+00 0. -1.
         23    2    1    2    0    0  0.00000000000E+00  0.00000000000E+00 -0.11895290460E+03  0.14871341069E+03  0.89251806753E+02 0.  0.
        -11    1    3    3    0    0 -0.16077905027E+02  0.38864432114E+02 -0.34620775950E+02  0.54475143332E+02  0.00000000000E+00 0. -1.
         11    1    3    3    0    0  0.16077905027E+02 -0.38864432114E+02 -0.84332128646E+02  0.94238267363E+02  0.00000000000E+00 0.  1.
<mgrwt>
<rscale>  0 0.89251807E+02</rscale>
<asrwt>0</asrwt>
<pdfrwt beam="2">  1        3 0.20589716E-01 0.89251807E+02</pdfrwt>
<pdfrwt beam="1">  1       -3 0.22892697E-02 0.89251807E+02</pdfrwt>
<totfact> 0.33248128E+04</totfact>
</mgrwt>
</event>
<event>
 5    1  0.6125604E+000  0.8929401E+02  0.7546771E-02  0.1304570E+00
          2   -1    0    0  501    0  0.00000000000E+00  0.00000000000E+00  0.17120919917E+02  0.17120919917E+02  0.00000000000E+00 0. -1.
         -2   -1    0    0    0  501 -0.00000000000E+00 -0.00000000000E+00 -0.11642803391E+03  0.11642803391E+03  0.00000000000E+00 0.  1.
         23    2    1    2    0    0  0.00000000000E+00  0.00000000000E+00 -0.99307113998E+02  0.13354895383E+03  0.89294009759E+02 0.  0.
        -11    1    3    3    0    0 -0.26360680691E+02 -0.33343408747E+02 -0.29218549676E+02  0.51578988344E+02  0.00000000000E+00 0. -1.
         11    1    3    3    0    0  0.26360680691E+02  0.33343408747E+02 -0.70088564322E+02  0.81969965488E+02  0.00000000000E+00 0.  1.
<mgrwt>
<rscale>  0 0.89294010E+02</rscale>
<asrwt>0</asrwt>
<pdfrwt beam="1">  1        2 0.26339876E-02 0.89294010E+02</pdfrwt>
<pdfrwt beam="2">  1       -2 0.17912006E-01 0.89294010E+02</pdfrwt>
<totfact> 0.80236964E+04</totfact>
</mgrwt>
</event>
<event>
 5    1  0.6125604E+000  0.9217236E+02  0.7546771E-02  0.1297675E+00
         -1   -1    0    0    0  501 -0.00000000000E+00  0.00000000000E+00  0.45371996668E+01  0.45371996668E+01  0.00000000000E+00 0.  1.
          1   -1    0    0  501    0  0.00000000000E+00 -0.00000000000E+00 -0.46811604029E+03  0.46811604029E+03  0.00000000000E+00 0. -1.
         23    2    1    2    0    0  0.00000000000E+00  0.00000000000E+00 -0.46357884063E+03  0.47265323996E+03  0.92172359024E+02 0.  0.
        -11    1    3    3    0    0  0.30895153717E+02  0.33252508921E+02 -0.19086351900E+03  0.19618644897E+03  0.00000000000E+00 0.  1.
         11    1    3    3    0    0 -0.30895153717E+02 -0.33252508921E+02 -0.27271532162E+03  0.27646679099E+03  0.00000000000E+00 0. -1.
<mgrwt>
<rscale>  0 0.92172359E+02</rscale>
<asrwt>0</asrwt>
<pdfrwt beam="2">  1        1 0.72017846E-01 0.92172359E+02</pdfrwt>
<pdfrwt beam="1">  1       -1 0.69803078E-03 0.92172359E+02</pdfrwt>
<totfact> 0.13418706E+05</totfact>
</mgrwt>
</event>
<event>
 5    1  0.6125604E+000  0.9222680E+02  0.7546771E-02  0.1297547E+00
         -1   -1    0    0    0  501 -0.00000000000E+00  0.00000000000E+00  0.84150621906E+01  0.84150621906E+01  0.00000000000E+00 0.  1.
          1   -1    0    0  501    0  0.00000000000E+00 -0.00000000000E+00 -0.25269518883E+03  0.25269518883E+03  0.00000000000E+00 0. -1.
         23    2    1    2    0    0  0.00000000000E+00  0.00000000000E+00 -0.24428012664E+03  0.26111025102E+03  0.92226801511E+02 0.  0.
        -11    1    3    3    0    0  0.23160964736E+02 -0.27021274670E+02 -0.39120163864E+02  0.52886357343E+02  0.00000000000E+00 0.  1.
         11    1    3    3    0    0 -0.23160964736E+02  0.27021274670E+02 -0.20515996277E+03  0.20822389368E+03  0.00000000000E+00 0. -1.
<mgrwt>
<rscale>  0 0.92226802E+02</rscale>
<asrwt>0</asrwt>
<pdfrwt beam="2">  1        1 0.38876176E-01 0.92226802E+02</pdfrwt>
<pdfrwt beam="1">  1       -1 0.12946252E-02 0.92226802E+02</pdfrwt>
<totfact> 0.12019087E+05</totfact>
</mgrwt>
</event>
<event>
 5    1  0.6125604E+000  0.9201823E+02  0.7546771E-02  0.1298037E+00
          2   -1    0    0  501    0  0.00000000000E+00  0.00000000000E+00  0.26134442931E+03  0.26134442931E+03  0.00000000000E+00 0. -1.
         -2   -1    0    0    0  501 -0.00000000000E+00 -0.00000000000E+00 -0.80998045392E+01  0.80998045392E+01  0.00000000000E+00 0.  1.
         23    2    1    2    0    0  0.00000000000E+00  0.00000000000E+00  0.25324462477E+03  0.26944423385E+03  0.92018232863E+02 0.  0.
        -11    1    3    3    0    0 -0.29563576105E+02  0.19811128115E+02  0.21200987575E+03  0.21497598295E+03  0.00000000000E+00 0. -1.
         11    1    3    3    0    0  0.29563576105E+02 -0.19811128115E+02  0.41234749020E+02  0.54468250900E+02  0.00000000000E+00 0.  1.
<mgrwt>
<rscale>  0 0.92018233E+02</rscale>
<asrwt>0</asrwt>
<pdfrwt beam="1">  1        2 0.40206829E-01 0.92018233E+02</pdfrwt>
<pdfrwt beam="2">  1       -2 0.12461240E-02 0.92018233E+02</pdfrwt>
<totfact> 0.16650182E+05</totfact>
</mgrwt>
</event>
<event>
 5    1  0.6125604E+000  0.9177310E+02  0.7546771E-02  0.1298614E+00
          2   -1    0    0  501    0  0.00000000000E+00  0.00000000000E+00  0.54294042937E+03  0.54294042937E+03  0.00000000000E+00 0. -1.
         -2   -1    0    0    0  501 -0.00000000000E+00 -0.00000000000E+00 -0.38780963139E+01  0.38780963139E+01  0.00000000000E+00 0.  1.
         23    2    1    2    0    0  0.00000000000E+00  0.00000000000E+00  0.53906233306E+03  0.54681852569E+03  0.91773095792E+02 0.  0.
        -11    1    3    3    0    0  0.13730117379E+02 -0.43774930441E+02  0.26415335935E+03  0.26810773565E+03  0.00000000000E+00 0. -1.
         11    1    3    3    0    0 -0.13730117379E+02  0.43774930441E+02  0.27490897371E+03  0.27871079004E+03  0.00000000000E+00 0.  1.
<mgrwt>
<rscale>  0 0.91773096E+02</rscale>
<asrwt>0</asrwt>
<pdfrwt beam="1">  1        2 0.83529237E-01 0.91773096E+02</pdfrwt>
<pdfrwt beam="2">  1       -2 0.59663063E-03 0.91773096E+02</pdfrwt>
<totfact> 0.21741277E+05</totfact>
</mgrwt>
</event>
<event>
 5    1  0.6125604E+000  0.9236729E+02  0.7546771E-02  0.1297218E+00
         -1   -1    0    0    0  501 -0.00000000000E+00  0.00000000000E+00  0.95887875087E+01  0.95887875087E+01  0.00000000000E+00 0.  1.
          1   -1    0    0  501    0  0.00000000000E+00 -0.00000000000E+00 -0.22243992980E+03  0.22243992980E+03  0.00000000000E+00 0. -1.
         23    2    1    2    0    0  0.00000000000E+00  0.00000000000E+00 -0.21285114229E+03  0.23202871731E+03  0.92367293353E+02 0.  0.
        -11    1    3    3    0    0 -0.20591179989E+02  0.39534377564E+02 -0.13677486967E+03  0.14385523513E+03  0.00000000000E+00 0. -1.
         11    1    3    3    0    0  0.20591179989E+02 -0.39534377564E+02 -0.76076272627E+02  0.88173482178E+02  0.00000000000E+00 0.  1.
<mgrwt>
<rscale>  0 0.92367293E+02</rscale>
<asrwt>0</asrwt>
<pdfrwt beam="2">  1        1 0.34221524E-01 0.92367293E+02</pdfrwt>
<pdfrwt beam="1">  1       -1 0.14751982E-02 0.92367293E+02</pdfrwt>
<totfact> 0.11675193E+05</totfact>
</mgrwt>
</event>
<event>
 5    1  0.6125604E+000  0.8867069E+02  0.7546771E-02  0.1306103E+00
         -3   -1    0    0    0  501 -0.00000000000E+00  0.00000000000E+00  0.37836790842E+02  0.37836790842E+02  0.00000000000E+00 0.  1.
          3   -1    0    0  501    0  0.00000000000E+00 -0.00000000000E+00 -0.51950040540E+02  0.51950040540E+02  0.00000000000E+00 0. -1.
         23    2    1    2    0    0  0.00000000000E+00  0.00000000000E+00 -0.14113249698E+02  0.89786831382E+02  0.88670690043E+02 0.  0.
        -11    1    3    3    0    0  0.20562730363E+02 -0.10205148234E+02 -0.45463627654E+02  0.50930466029E+02  0.00000000000E+00 0. -1.
         11    1    3    3    0    0 -0.20562730363E+02  0.10205148234E+02  0.31350377956E+02  0.38856365353E+02  0.00000000000E+00 0.  1.
<mgrwt>
<rscale>  0 0.88670690E+02</rscale>
<asrwt>0</asrwt>
<pdfrwt beam="2">  1        3 0.79923139E-02 0.88670690E+02</pdfrwt>
<pdfrwt beam="1">  1       -3 0.58210448E-02 0.88670690E+02</pdfrwt>
<totfact> 0.38233914E+04</totfact>
</mgrwt>
</event>
<event>
 5    1  0.6125604E+000  0.9230627E+02  0.7546771E-02  0.1297361E+00
          4   -1    0    0  501    0  0.00000000000E+00  0.00000000000E+00  0.57095814320E+02  0.57095814320E+02  0.00000000000E+00 0. -1.
         -4   -1    0    0    0  501 -0.00000000000E+00 -0.00000000000E+00 -0.37307670333E+02  0.37307670333E+02  0.00000000000E+00 0.  1.
         23    2    1    2    0    0  0.00000000000E+00  0.00000000000E+00  0.19788143987E+02  0.94403484653E+02  0.92306268868E+02 0.  0.
        -11    1    3    3    0    0 -0.38038618165E+02 -0.24266924009E+02 -0.36943648642E-01  0.45120077988E+02  0.00000000000E+00 0.  1.
         11    1    3    3    0    0  0.38038618165E+02  0.24266924009E+02  0.19825087635E+02  0.49283406665E+02  0.00000000000E+00 0. -1.
<mgrwt>
<rscale>  0 0.92306269E+02</rscale>
<asrwt>0</asrwt>
<pdfrwt beam="1">  1        4 0.87839715E-02 0.92306269E+02</pdfrwt>
<pdfrwt beam="2">  1       -4 0.57396416E-02 0.92306269E+02</pdfrwt>
<totfact> 0.25926997E+04</totfact>
</mgrwt>
</event>
<event>
 5    1  0.6125604E+000  0.9109564E+02  0.7546771E-02  0.1300220E+00
          3   -1    0    0  501    0  0.00000000000E+00  0.00000000000E+00  0.20478992186E+03  0.20478992186E+03  0.00000000000E+00 0. -1.
         -3   -1    0    0    0  501 -0.00000000000E+00 -0.00000000000E+00 -0.10130399710E+02  0.10130399710E+02  0.00000000000E+00 0.  1.
         23    2    1    2    0    0  0.00000000000E+00  0.00000000000E+00  0.19465952215E+03  0.21492032157E+03  0.91095636888E+02 0.  0.
        -11    1    3    3    0    0 -0.17896733153E+02 -0.31460172453E+02  0.16256586812E+03  0.16654638089E+03  0.00000000000E+00 0. -1.
         11    1    3    3    0    0  0.17896733153E+02  0.31460172453E+02  0.32093654030E+02  0.48373940684E+02  0.00000000000E+00 0.  1.
<mgrwt>
<rscale>  0 0.91095637E+02</rscale>
<asrwt>0</asrwt>
<pdfrwt beam="1">  1        3 0.31506139E-01 0.91095637E+02</pdfrwt>
<pdfrwt beam="2">  1       -3 0.15585232E-02 0.91095637E+02</pdfrwt>
<totfact> 0.27811981E+04</totfact>
</mgrwt>
</event>
<event>
 5    1  0.6125604E+000  0.9085739E+02  0.7546771E-02  0.1300789E+00
          2   -1    0    0  501    0  0.00000000000E+00  0.00000000000E+00  0.13989670381E+02  0.13989670381E+02  0.00000000000E+00 0.  1.
         -2   -1    0    0    0  501 -0.00000000000E+00 -0.00000000000E+00 -0.14752073581E+03  0.14752073581E+03  0.00000000000E+00 0. -1.
         23    2    1    2    0    0  0.00000000000E+00  0.00000000000E+00 -0.13353106543E+03  0.16151040619E+03  0.90857393060E+02 0.  0.
        -11    1    3    3    0    0 -0.33709185970E+02 -0.27822167352E+02 -0.44749927628E+02  0.62553483017E+02  0.00000000000E+00 0.  1.
         11    1    3    3    0    0  0.33709185970E+02  0.27822167352E+02 -0.88781137802E+02  0.98956923175E+02  0.00000000000E+00 0. -1.
<mgrwt>
<rscale>  0 0.90857393E+02</rscale>
<asrwt>0</asrwt>
<pdfrwt beam="1">  1        2 0.21522570E-02 0.90857393E+02</pdfrwt>
<pdfrwt beam="2">  1       -2 0.22695498E-01 0.90857393E+02</pdfrwt>
<totfact> 0.70906566E+04</totfact>
</mgrwt>
</event>
<event>
 5    1  0.6125604E+000  0.9020380E+02  0.7546771E-02  0.1302359E+00
         -2   -1    0    0    0  501 -0.00000000000E+00  0.00000000000E+00  0.19198473699E+02  0.19198473699E+02  0.00000000000E+00 0.  1.
          2   -1    0    0  501    0  0.00000000000E+00 -0.00000000000E+00 -0.10595537233E+03  0.10595537233E+03  0.00000000000E+00 0. -1.
         23    2    1    2    0    0  0.00000000000E+00  0.00000000000E+00 -0.86756898635E+02  0.12515384603E+03  0.90203801006E+02 0.  0.
        -11    1    3    3    0    0  0.46245321287E+01  0.44400638601E+02 -0.34453488220E+02  0.56390121972E+02  0.00000000000E+00 0.  1.
         11    1    3    3    0    0 -0.46245321287E+01 -0.44400638601E+02 -0.52303410415E+02  0.68763724060E+02  0.00000000000E+00 0. -1.
<mgrwt>
<rscale>  0 0.90203801E+02</rscale>
<asrwt>0</asrwt>
<pdfrwt beam="2">  1        2 0.16300827E-01 0.90203801E+02</pdfrwt>
<pdfrwt beam="1">  1       -2 0.29536113E-02 0.90203801E+02</pdfrwt>
<totfact> 0.12860376E+05</totfact>
</mgrwt>
</event>
<event>
 5    1  0.6125604E+000  0.1005561E+03  0.7546771E-02  0.1279131E+00
          1   -1    0    0  501    0  0.00000000000E+00  0.00000000000E+00  0.35519592895E+03  0.35519592895E+03  0.00000000000E+00 0. -1.
         -1   -1    0    0    0  501 -0.00000000000E+00 -0.00000000000E+00 -0.71168743761E+01  0.71168743761E+01  0.00000000000E+00 0.  1.
         23    2    1    2    0    0  0.00000000000E+00  0.00000000000E+00  0.34807905457E+03  0.36231280332E+03  0.10055614959E+03 0.  0.
        -11    1    3    3    0    0  0.46609254107E+02 -0.98577838055E+01  0.11613323462E+03  0.12552500409E+03  0.00000000000E+00 0.  1.
         11    1    3    3    0    0 -0.46609254107E+02  0.98577838055E+01  0.23194581995E+03  0.23678779923E+03  0.00000000000E+00 0. -1.
<mgrwt>
<rscale>  0 0.10055615E+03</rscale>
<asrwt>0</asrwt>
<pdfrwt beam="1">  1        1 0.54645514E-01 0.10055615E+03</pdfrwt>
<pdfrwt beam="2">  1       -1 0.10949040E-02 0.10055615E+03</pdfrwt>
<totfact> 0.10173989E+05</totfact>
</mgrwt>
</event>
<event>
 5    1  0.6125604E+000  0.9021481E+02  0.7546771E-02  0.1302332E+00
          1   -1    0    0  501    0  0.00000000000E+00  0.00000000000E+00  0.19741184795E+03  0.19741184795E+03  0.00000000000E+00 0. -1.
         -1   -1    0    0    0  501 -0.00000000000E+00 -0.00000000000E+00 -0.10306767551E+02  0.10306767551E+02  0.00000000000E+00 0.  1.
         23    2    1    2    0    0  0.00000000000E+00  0.00000000000E+00  0.18710508040E+03  0.20771861550E+03  0.90214810946E+02 0.  0.
        -11    1    3    3    0    0 -0.23174663425E+02 -0.21308828221E+02  0.19172989557E+02  0.36861018889E+02  0.00000000000E+00 0.  1.
         11    1    3    3    0    0  0.23174663425E+02  0.21308828221E+02  0.16793209084E+03  0.17085759661E+03  0.00000000000E+00 0. -1.
<mgrwt>
<rscale>  0 0.90214811E+02</rscale>
<asrwt>0</asrwt>
<pdfrwt beam="1">  1        1 0.30371051E-01 0.90214811E+02</pdfrwt>
<pdfrwt beam="2">  1       -1 0.15856567E-02 0.90214811E+02</pdfrwt>
<totfact> 0.12151244E+05</totfact>
</mgrwt>
</event>
<event>
 5    1  0.6125604E+000  0.9183243E+02  0.7546771E-02  0.1298474E+00
          1   -1    0    0  501    0  0.00000000000E+00  0.00000000000E+00  0.73438120108E+02  0.73438120108E+02  0.00000000000E+00 0. -1.
         -1   -1    0    0    0  501 -0.00000000000E+00 -0.00000000000E+00 -0.28708505206E+02  0.28708505206E+02  0.00000000000E+00 0.  1.
         23    2    1    2    0    0  0.00000000000E+00  0.00000000000E+00  0.44729614903E+02  0.10214662531E+03  0.91832426809E+02 0.  0.
        -11    1    3    3    0    0  0.32165071408E+01  0.43321018903E+02  0.38909618250E+02  0.58318221761E+02  0.00000000000E+00 0. -1.
         11    1    3    3    0    0 -0.32165071408E+01 -0.43321018903E+02  0.58199966527E+01  0.43828403553E+02  0.00000000000E+00 0.  1.
<mgrwt>
<rscale>  0 0.91832427E+02</rscale>
<asrwt>0</asrwt>
<pdfrwt beam="1">  1        1 0.11298172E-01 0.91832427E+02</pdfrwt>
<pdfrwt beam="2">  1       -1 0.44166932E-02 0.91832427E+02</pdfrwt>
<totfact> 0.97458296E+04</totfact>
</mgrwt>
</event>
<event>
 5    1  0.6125604E+000  0.9142070E+02  0.7546771E-02  0.1299447E+00
         -2   -1    0    0    0  501 -0.00000000000E+00  0.00000000000E+00  0.84215172520E+02  0.84215172520E+02  0.00000000000E+00 0.  1.
          2   -1    0    0  501    0  0.00000000000E+00 -0.00000000000E+00 -0.24810682868E+02  0.24810682868E+02  0.00000000000E+00 0. -1.
         23    2    1    2    0    0  0.00000000000E+00  0.00000000000E+00  0.59404489651E+02  0.10902585539E+03  0.91420696521E+02 0.  0.
        -11    1    3    3    0    0 -0.26175833063E+02 -0.13520319845E+02 -0.11977502093E+02  0.31803047678E+02  0.00000000000E+00 0. -1.
         11    1    3    3    0    0  0.26175833063E+02  0.13520319845E+02  0.71381991744E+02  0.77222807710E+02  0.00000000000E+00 0.  1.
<mgrwt>
<rscale>  0 0.91420697E+02</rscale>
<asrwt>0</asrwt>
<pdfrwt beam="2">  1        2 0.38170282E-02 0.91420697E+02</pdfrwt>
<pdfrwt beam="1">  1       -2 0.12956180E-01 0.91420697E+02</pdfrwt>
<totfact> 0.83320837E+04</totfact>
</mgrwt>
</event>
<event>
 5    1  0.6125604E+000  0.9141673E+02  0.7546771E-02  0.1299457E+00
          1   -1    0    0  501    0  0.00000000000E+00  0.00000000000E+00  0.31958413298E+03  0.31958413298E+03  0.00000000000E+00 0. -1.
         -1   -1    0    0    0  501 -0.00000000000E+00 -0.00000000000E+00 -0.65374173073E+01  0.65374173073E+01  0.00000000000E+00 0.  1.
         23    2    1    2    0    0  0.00000000000E+00  0.00000000000E+00  0.31304671567E+03  0.32612155029E+03  0.91416734619E+02 0.  0.
        -11    1    3    3    0    0 -0.45630842132E+02 -0.60097668960E+00  0.16577109970E+03  0.17193775741E+03  0.00000000000E+00 0.  1.
         11    1    3    3    0    0  0.45630842132E+02  0.60097668960E+00  0.14727561597E+03  0.15418379288E+03  0.00000000000E+00 0. -1.
<mgrwt>
<rscale>  0 0.91416735E+02</rscale>
<asrwt>0</asrwt>
<pdfrwt beam="1">  1        1 0.49166777E-01 0.91416735E+02</pdfrwt>
<pdfrwt beam="2">  1       -1 0.10057568E-02 0.91416735E+02</pdfrwt>
<totfact> 0.12875534E+05</totfact>
</mgrwt>
</event>
<event>
 5    1  0.6125604E+000  0.9050140E+02  0.7546771E-02  0.1301642E+00
          1   -1    0    0  501    0  0.00000000000E+00  0.00000000000E+00  0.37129629807E+03  0.37129629807E+03  0.00000000000E+00 0. -1.
         -1   -1    0    0    0  501 -0.00000000000E+00 -0.00000000000E+00 -0.55148026099E+01  0.55148026099E+01  0.00000000000E+00 0.  1.
         23    2    1    2    0    0  0.00000000000E+00  0.00000000000E+00  0.36578149546E+03  0.37681110068E+03  0.90501398744E+02 0.  0.
        -11    1    3    3    0    0  0.41263425413E+02 -0.18557988603E+02  0.18599695599E+03  0.19142083704E+03  0.00000000000E+00 0.  1.
         11    1    3    3    0    0 -0.41263425413E+02  0.18557988603E+02  0.17978453948E+03  0.18539026364E+03  0.00000000000E+00 0. -1.
<mgrwt>
<rscale>  0 0.90501399E+02</rscale>
<asrwt>0</asrwt>
<pdfrwt beam="1">  1        1 0.57122488E-01 0.90501399E+02</pdfrwt>
<pdfrwt beam="2">  1       -1 0.84843146E-03 0.90501399E+02</pdfrwt>
<totfact> 0.13586181E+05</totfact>
</mgrwt>
</event>
<event>
 5    1  0.6125604E+000  0.9292485E+02  0.7546771E-02  0.1295919E+00
          2   -1    0    0  501    0  0.00000000000E+00  0.00000000000E+00  0.38470640068E+02  0.38470640068E+02  0.00000000000E+00 0.  1.
         -2   -1    0    0    0  501 -0.00000000000E+00 -0.00000000000E+00 -0.56114395976E+02  0.56114395976E+02  0.00000000000E+00 0. -1.
         23    2    1    2    0    0  0.00000000000E+00  0.00000000000E+00 -0.17643755908E+02  0.94585036044E+02  0.92924845552E+02 0.  0.
        -11    1    3    3    0    0 -0.41056417491E+02  0.48470248636E+01  0.12761528777E+02  0.43266380527E+02  0.00000000000E+00 0.  1.
         11    1    3    3    0    0  0.41056417491E+02 -0.48470248636E+01 -0.30405284685E+02  0.51318655516E+02  0.00000000000E+00 0. -1.
<mgrwt>
<rscale>  0 0.92924846E+02</rscale>
<asrwt>0</asrwt>
<pdfrwt beam="1">  1        2 0.59185600E-02 0.92924846E+02</pdfrwt>
<pdfrwt beam="2">  1       -2 0.86329840E-02 0.92924846E+02</pdfrwt>
<totfact> 0.89346599E+04</totfact>
</mgrwt>
</event>
<event>
 5    1  0.6125604E+000  0.9043574E+02  0.7546771E-02  0.1301800E+00
         -3   -1    0    0    0  501 -0.00000000000E+00  0.00000000000E+00  0.92587275779E+02  0.92587275779E+02  0.00000000000E+00 0.  1.
          3   -1    0    0  501    0  0.00000000000E+00 -0.00000000000E+00 -0.22083551227E+02  0.22083551227E+02  0.00000000000E+00 0. -1.
         23    2    1    2    0    0  0.00000000000E+00  0.00000000000E+00  0.70503724552E+02  0.11467082701E+03  0.90435741776E+02 0.  0.
        -11    1    3    3    0    0 -0.10192238042E+02 -0.22132772440E+02  0.83550374417E+02  0.87031065703E+02  0.00000000000E+00 0.  1.
         11    1    3    3    0    0  0.10192238042E+02  0.22132772440E+02 -0.13046649865E+02  0.27639761303E+02  0.00000000000E+00 0. -1.
<mgrwt>
<rscale>  0 0.90435742E+02</rscale>
<asrwt>0</asrwt>
<pdfrwt beam="2">  1        3 0.33974695E-02 0.90435742E+02</pdfrwt>
<pdfrwt beam="1">  1       -3 0.14244196E-01 0.90435742E+02</pdfrwt>
<totfact> 0.34369165E+04</totfact>
</mgrwt>
</event>
<event>
 5    1  0.6125604E+000  0.7288862E+02  0.7546771E-02  0.1350537E+00
         -2   -1    0    0    0  501 -0.00000000000E+00  0.00000000000E+00  0.59052695071E+01  0.59052695071E+01  0.00000000000E+00 0.  1.
          2   -1    0    0  501    0  0.00000000000E+00 -0.00000000000E+00 -0.22491571020E+03  0.22491571020E+03  0.00000000000E+00 0. -1.
         23    2    1    2    0    0  0.00000000000E+00  0.00000000000E+00 -0.21901044069E+03  0.23082097971E+03  0.72888624218E+02 0.  0.
        -11    1    3    3    0    0 -0.46690135490E+01 -0.34723416855E+02 -0.14127915485E+03  0.14555863066E+03  0.00000000000E+00 0. -1.
         11    1    3    3    0    0  0.46690135490E+01  0.34723416855E+02 -0.77731285844E+02  0.85262349044E+02  0.00000000000E+00 0.  1.
<mgrwt>
<rscale>  0 0.72888624E+02</rscale>
<asrwt>0</asrwt>
<pdfrwt beam="2">  1        2 0.34602412E-01 0.72888624E+02</pdfrwt>
<pdfrwt beam="1">  1       -2 0.90850313E-03 0.72888624E+02</pdfrwt>
<totfact> 0.29211928E+05</totfact>
</mgrwt>
</event>
<event>
 5    1  0.6125604E+000  0.9365383E+02  0.7546771E-02  0.1294237E+00
          3   -1    0    0  501    0  0.00000000000E+00  0.00000000000E+00  0.16889427678E+03  0.16889427678E+03  0.00000000000E+00 0. -1.
         -3   -1    0    0    0  501 -0.00000000000E+00 -0.00000000000E+00 -0.12983034094E+02  0.12983034094E+02  0.00000000000E+00 0.  1.
         23    2    1    2    0    0  0.00000000000E+00  0.00000000000E+00  0.15591124268E+03  0.18187731087E+03  0.93653833956E+02 0.  0.
        -11    1    3    3    0    0 -0.22932332864E+02  0.36893721989E+02  0.11191157899E+03  0.12004682472E+03  0.00000000000E+00 0. -1.
         11    1    3    3    0    0  0.22932332864E+02 -0.36893721989E+02  0.43999663692E+02  0.61830486152E+02  0.00000000000E+00 0.  1.
<mgrwt>
<rscale>  0 0.93653834E+02</rscale>
<asrwt>0</asrwt>
<pdfrwt beam="1">  1        3 0.25983733E-01 0.93653834E+02</pdfrwt>
<pdfrwt beam="2">  1       -3 0.19973900E-02 0.93653834E+02</pdfrwt>
<totfact> 0.27399263E+04</totfact>
</mgrwt>
</event>
<event>
 5    1  0.6125604E+000  0.9120809E+02  0.7546771E-02  0.1299952E+00
          4   -1    0    0  501    0  0.00000000000E+00  0.00000000000E+00  0.22402090943E+03  0.22402090943E+03  0.00000000000E+00 0. -1.
         -4   -1    0    0    0  501 -0.00000000000E+00 -0.00000000000E+00 -0.92836378202E+01  0.92836378202E+01  0.00000000000E+00 0.  1.
         23    2    1    2    0    0  0.00000000000E+00  0.00000000000E+00  0.21473727161E+03  0.23330454725E+03  0.91208091468E+02 0.  0.
        -11    1    3    3    0    0 -0.15569178065E+02 -0.37905274673E+02  0.56176665066E+02  0.69534357347E+02  0.00000000000E+00 0.  1.
         11    1    3    3    0    0  0.15569178065E+02  0.37905274673E+02  0.15856060655E+03  0.16377018991E+03  0.00000000000E+00 0. -1.
<mgrwt>
<rscale>  0 0.91208091E+02</rscale>
<asrwt>0</asrwt>
<pdfrwt beam="1">  1        4 0.34464751E-01 0.91208091E+02</pdfrwt>
<pdfrwt beam="2">  1       -4 0.14282521E-02 0.91208091E+02</pdfrwt>
<totfact> 0.20052599E+04</totfact>
</mgrwt>
</event>
<event>
 5    1  0.6125604E+000  0.8863542E+02  0.7546771E-02  0.1306190E+00
         -2   -1    0    0    0  501 -0.00000000000E+00  0.00000000000E+00  0.10326726815E+03  0.10326726815E+03  0.00000000000E+00 0.  1.
          2   -1    0    0  501    0  0.00000000000E+00 -0.00000000000E+00 -0.19019187370E+02  0.19019187370E+02  0.00000000000E+00 0. -1.
         23    2    1    2    0    0  0.00000000000E+00  0.00000000000E+00  0.84248080775E+02  0.12228645551E+03  0.88635422310E+02 0.  0.
        -11    1    3    3    0    0 -0.34175421596E+02  0.17055485038E+02  0.73134430346E+02  0.82507538523E+02  0.00000000000E+00 0.  1.
         11    1    3    3    0    0  0.34175421596E+02 -0.17055485038E+02  0.11113650429E+02  0.39778916992E+02  0.00000000000E+00 0. -1.
<mgrwt>
<rscale>  0 0.88635422E+02</rscale>
<asrwt>0</asrwt>
<pdfrwt beam="2">  1        2 0.29260289E-02 0.88635422E+02</pdfrwt>
<pdfrwt beam="1">  1       -2 0.15887272E-01 0.88635422E+02</pdfrwt>
<totfact> 0.84805322E+04</totfact>
</mgrwt>
</event>
<event>
 5    1  0.6125604E+000  0.9007645E+02  0.7546771E-02  0.1302667E+00
          1   -1    0    0  501    0  0.00000000000E+00  0.00000000000E+00  0.47764524532E+02  0.47764524532E+02  0.00000000000E+00 0. -1.
         -1   -1    0    0    0  501 -0.00000000000E+00 -0.00000000000E+00 -0.42467540838E+02  0.42467540838E+02  0.00000000000E+00 0.  1.
         23    2    1    2    0    0  0.00000000000E+00  0.00000000000E+00  0.52969836936E+01  0.90232065370E+02  0.90076454108E+02 0.  0.
        -11    1    3    3    0    0 -0.33085385173E+02  0.13995734306E+02 -0.24563093645E+02  0.43518603611E+02  0.00000000000E+00 0.  1.
         11    1    3    3    0    0  0.33085385173E+02 -0.13995734306E+02  0.29860077339E+02  0.46713461759E+02  0.00000000000E+00 0. -1.
<mgrwt>
<rscale>  0 0.90076454E+02</rscale>
<asrwt>0</asrwt>
<pdfrwt beam="1">  1        1 0.73483884E-02 0.90076454E+02</pdfrwt>
<pdfrwt beam="2">  1       -1 0.65334679E-02 0.90076454E+02</pdfrwt>
<totfact> 0.96338186E+04</totfact>
</mgrwt>
</event>
<event>
 5    1  0.6125604E+000  0.9091172E+02  0.7546771E-02  0.1300659E+00
          3   -1    0    0  501    0  0.00000000000E+00  0.00000000000E+00  0.18515045324E+03  0.18515045324E+03  0.00000000000E+00 0. -1.
         -3   -1    0    0    0  501 -0.00000000000E+00 -0.00000000000E+00 -0.11159763437E+02  0.11159763437E+02  0.00000000000E+00 0.  1.
         23    2    1    2    0    0  0.00000000000E+00  0.00000000000E+00  0.17399068980E+03  0.19631021667E+03  0.90911721101E+02 0.  0.
        -11    1    3    3    0    0  0.13181554253E+01  0.33050358904E+02  0.15432315138E+03  0.15782806724E+03  0.00000000000E+00 0. -1.
         11    1    3    3    0    0 -0.13181554253E+01 -0.33050358904E+02  0.19667538419E+02  0.38482149431E+02  0.00000000000E+00 0.  1.
<mgrwt>
<rscale>  0 0.90911721E+02</rscale>
<asrwt>0</asrwt>
<pdfrwt beam="1">  1        3 0.28484683E-01 0.90911721E+02</pdfrwt>
<pdfrwt beam="2">  1       -3 0.17168868E-02 0.90911721E+02</pdfrwt>
<totfact> 0.28916761E+04</totfact>
</mgrwt>
</event>
<event>
 5    1  0.6125604E+000  0.9143304E+02  0.7546771E-02  0.1299418E+00
          1   -1    0    0  501    0  0.00000000000E+00  0.00000000000E+00  0.33049682339E+03  0.33049682339E+03  0.00000000000E+00 0. -1.
         -1   -1    0    0    0  501 -0.00000000000E+00 -0.00000000000E+00 -0.63238129721E+01  0.63238129721E+01  0.00000000000E+00 0.  1.
         23    2    1    2    0    0  0.00000000000E+00  0.00000000000E+00  0.32417301042E+03  0.33682063637E+03  0.91433037771E+02 0.  0.
        -11    1    3    3    0    0  0.33008755152E+02 -0.30968809804E+02  0.13839680503E+03  0.14561016702E+03  0.00000000000E+00 0.  1.
         11    1    3    3    0    0 -0.33008755152E+02  0.30968809804E+02  0.18577620539E+03  0.19121046935E+03  0.00000000000E+00 0. -1.
<mgrwt>
<rscale>  0 0.91433038E+02</rscale>
<asrwt>0</asrwt>
<pdfrwt beam="1">  1        1 0.50845652E-01 0.91433038E+02</pdfrwt>
<pdfrwt beam="2">  1       -1 0.97289456E-03 0.91433038E+02</pdfrwt>
<totfact> 0.12949775E+05</totfact>
</mgrwt>
</event>
<event>
 5    1  0.6125604E+000  0.9113517E+02  0.7546771E-02  0.1300126E+00
          1   -1    0    0  501    0  0.00000000000E+00  0.00000000000E+00  0.19192344295E+02  0.19192344295E+02  0.00000000000E+00 0. -1.
         -1   -1    0    0    0  501 -0.00000000000E+00 -0.00000000000E+00 -0.10818921099E+03  0.10818921099E+03  0.00000000000E+00 0.  1.
         23    2    1    2    0    0  0.00000000000E+00  0.00000000000E+00 -0.88996866696E+02  0.12738155529E+03  0.91135165250E+02 0.  0.
        -11    1    3    3    0    0 -0.29834157891E+02 -0.33806689127E+02 -0.35286678490E+02  0.57254859057E+02  0.00000000000E+00 0.  1.
         11    1    3    3    0    0  0.29834157891E+02  0.33806689127E+02 -0.53710188206E+02  0.70126696228E+02  0.00000000000E+00 0. -1.
<mgrwt>
<rscale>  0 0.91135165E+02</rscale>
<asrwt>0</asrwt>
<pdfrwt beam="1">  1        1 0.29526685E-02 0.91135165E+02</pdfrwt>
<pdfrwt beam="2">  1       -1 0.16644493E-01 0.91135165E+02</pdfrwt>
<totfact> 0.80260063E+04</totfact>
</mgrwt>
</event>
<event>
 5    1  0.6125604E+000  0.9161851E+02  0.7546771E-02  0.1298979E+00
         -1   -1    0    0    0  501 -0.00000000000E+00  0.00000000000E+00  0.19148883968E+02  0.19148883968E+02  0.00000000000E+00 0. -1.
          1   -1    0    0  501    0  0.00000000000E+00 -0.00000000000E+00 -0.10958799737E+03  0.10958799737E+03  0.00000000000E+00 0.  1.
         23    2    1    2    0    0  0.00000000000E+00  0.00000000000E+00 -0.90439113401E+02  0.12873688134E+03  0.91618510049E+02 0.  0.
        -11    1    3    3    0    0 -0.26391933715E+02 -0.20931394028E+02 -0.15961000892E+01  0.33722469611E+02  0.00000000000E+00 0. -1.
         11    1    3    3    0    0  0.26391933715E+02  0.20931394028E+02 -0.88843013312E+02  0.95014411725E+02  0.00000000000E+00 0.  1.
<mgrwt>
<rscale>  0 0.91618510E+02</rscale>
<asrwt>0</asrwt>
<pdfrwt beam="2">  1        1 0.16859692E-01 0.91618510E+02</pdfrwt>
<pdfrwt beam="1">  1       -1 0.29459821E-02 0.91618510E+02</pdfrwt>
<totfact> 0.10468577E+05</totfact>
</mgrwt>
</event>
<event>
 5    1  0.9037692E+000  0.9083466E+02  0.7546771E-02  0.1300843E+00
         -1   -1    0    0    0  501 -0.00000000000E+00  0.00000000000E+00  0.51220566341E+03  0.51220566341E+03  0.00000000000E+00 0.  1.
          1   -1    0    0  501    0  0.00000000000E+00 -0.00000000000E+00 -0.40271595860E+01  0.40271595860E+01  0.00000000000E+00 0. -1.
         23    2    1    2    0    0  0.00000000000E+00  0.00000000000E+00  0.50817850382E+03  0.51623282300E+03  0.90834661829E+02 0.  0.
        -11    1    3    3    0    0  0.45371726440E+02  0.17688448746E+01  0.25980526317E+03  0.26374324094E+03  0.00000000000E+00 0. -1.
         11    1    3    3    0    0 -0.45371726440E+02 -0.17688448746E+01  0.24837324066E+03  0.25248958206E+03  0.00000000000E+00 0.  1.
<mgrwt>
<rscale>  0 0.90834662E+02</rscale>
<asrwt>0</asrwt>
<pdfrwt beam="2">  1        1 0.61956342E-03 0.90834662E+02</pdfrwt>
<pdfrwt beam="1">  1       -1 0.78800820E-01 0.90834662E+02</pdfrwt>
<totfact> 0.46799367E+04</totfact>
</mgrwt>
</event>
<event>
 5    1  0.6125604E+000  0.9310288E+02  0.7546771E-02  0.1295507E+00
         -2   -1    0    0    0  501 -0.00000000000E+00  0.00000000000E+00  0.69560908613E+02  0.69560908613E+02  0.00000000000E+00 0.  1.
          2   -1    0    0  501    0  0.00000000000E+00 -0.00000000000E+00 -0.31153077361E+02  0.31153077361E+02  0.00000000000E+00 0. -1.
         23    2    1    2    0    0  0.00000000000E+00  0.00000000000E+00  0.38407831252E+02  0.10071398597E+03  0.93102875731E+02 0.  0.
        -11    1    3    3    0    0 -0.22389692941E+02 -0.38078684569E+02  0.33146472081E+01  0.44297533279E+02  0.00000000000E+00 0. -1.
         11    1    3    3    0    0  0.22389692941E+02  0.38078684569E+02  0.35093184044E+02  0.56416452696E+02  0.00000000000E+00 0.  1.
<mgrwt>
<rscale>  0 0.93102876E+02</rscale>
<asrwt>0</asrwt>
<pdfrwt beam="2">  1        2 0.47927811E-02 0.93102876E+02</pdfrwt>
<pdfrwt beam="1">  1       -2 0.10701678E-01 0.93102876E+02</pdfrwt>
<totfact> 0.83982904E+04</totfact>
</mgrwt>
</event>
<event>
 5    1  0.6125604E+000  0.9038623E+02  0.7546771E-02  0.1301919E+00
          2   -1    0    0  501    0  0.00000000000E+00  0.00000000000E+00  0.70651338440E+01  0.70651338440E+01  0.00000000000E+00 0. -1.
         -2   -1    0    0    0  501 -0.00000000000E+00 -0.00000000000E+00 -0.28908407724E+03  0.28908407724E+03  0.00000000000E+00 0.  1.
         23    2    1    2    0    0  0.00000000000E+00  0.00000000000E+00 -0.28201894339E+03  0.29614921108E+03  0.90386231204E+02 0.  0.
        -11    1    3    3    0    0 -0.36052454626E+02 -0.17037130473E+02 -0.21069736105E+03  0.21443745301E+03  0.00000000000E+00 0.  1.
         11    1    3    3    0    0  0.36052454626E+02  0.17037130473E+02 -0.71321582341E+02  0.81711758071E+02  0.00000000000E+00 0. -1.
<mgrwt>
<rscale>  0 0.90386231E+02</rscale>
<asrwt>0</asrwt>
<pdfrwt beam="1">  1        2 0.10869436E-02 0.90386231E+02</pdfrwt>
<pdfrwt beam="2">  1       -2 0.44474475E-01 0.90386231E+02</pdfrwt>
<totfact> 0.53241631E+04</totfact>
</mgrwt>
</event>
<event>
 5    1  0.6125604E+000  0.9476070E+02  0.7546771E-02  0.1291716E+00
          2   -1    0    0  501    0  0.00000000000E+00  0.00000000000E+00  0.47460300324E+02  0.47460300324E+02  0.00000000000E+00 0. -1.
         -2   -1    0    0    0  501 -0.00000000000E+00 -0.00000000000E+00 -0.47300533671E+02  0.47300533671E+02  0.00000000000E+00 0.  1.
         23    2    1    2    0    0  0.00000000000E+00  0.00000000000E+00  0.15976665292E+00  0.94760833995E+02  0.94760699312E+02 0.  0.
        -11    1    3    3    0    0  0.17612612958E+02 -0.36348729885E+01 -0.43754880944E+02  0.47306511637E+02  0.00000000000E+00 0.  1.
         11    1    3    3    0    0 -0.17612612958E+02  0.36348729885E+01  0.43914647597E+02  0.47454322358E+02  0.00000000000E+00 0. -1.
<mgrwt>
<rscale>  0 0.94760699E+02</rscale>
<asrwt>0</asrwt>
<pdfrwt beam="1">  1        2 0.73015847E-02 0.94760699E+02</pdfrwt>
<pdfrwt beam="2">  1       -2 0.72770051E-02 0.94760699E+02</pdfrwt>
<totfact> 0.89247917E+04</totfact>
</mgrwt>
</event>
<event>
 5    1  0.6125604E+000  0.8701548E+02  0.7546771E-02  0.1310244E+00
          4   -1    0    0  501    0  0.00000000000E+00  0.00000000000E+00  0.80427186329E+01  0.80427186329E+01  0.00000000000E+00 0.  1.
         -4   -1    0    0    0  501 -0.00000000000E+00 -0.00000000000E+00 -0.23535865792E+03  0.23535865792E+03  0.00000000000E+00 0. -1.
         23    2    1    2    0    0  0.00000000000E+00  0.00000000000E+00 -0.22731593928E+03  0.24340137655E+03  0.87015480540E+02 0.  0.
        -11    1    3    3    0    0 -0.39043387120E+02 -0.19010345248E+02 -0.10618140542E+03  0.11471822070E+03  0.00000000000E+00 0.  1.
         11    1    3    3    0    0  0.39043387120E+02  0.19010345248E+02 -0.12113453387E+03  0.12868315585E+03  0.00000000000E+00 0. -1.
<mgrwt>
<rscale>  0 0.87015481E+02</rscale>
<asrwt>0</asrwt>
<pdfrwt beam="1">  1        4 0.12373413E-02 0.87015481E+02</pdfrwt>
<pdfrwt beam="2">  1       -4 0.36209024E-01 0.87015481E+02</pdfrwt>
<totfact> 0.22301043E+04</totfact>
</mgrwt>
</event>
<event>
 5    1  0.6125604E+000  0.8879031E+02  0.7546771E-02  0.1305808E+00
          1   -1    0    0  501    0  0.00000000000E+00  0.00000000000E+00  0.20343539551E+03  0.20343539551E+03  0.00000000000E+00 0. -1.
         -1   -1    0    0    0  501 -0.00000000000E+00 -0.00000000000E+00 -0.96882337761E+01  0.96882337761E+01  0.00000000000E+00 0.  1.
         23    2    1    2    0    0  0.00000000000E+00  0.00000000000E+00  0.19374716173E+03  0.21312362929E+03  0.88790307354E+02 0.  0.
        -11    1    3    3    0    0  0.32913094690E+02  0.23772346875E+02  0.13998113535E+03  0.14575017850E+03  0.00000000000E+00 0.  1.
         11    1    3    3    0    0 -0.32913094690E+02 -0.23772346875E+02  0.53766026379E+02  0.67373450785E+02  0.00000000000E+00 0. -1.
<mgrwt>
<rscale>  0 0.88790307E+02</rscale>
<asrwt>0</asrwt>
<pdfrwt beam="1">  1        1 0.31297750E-01 0.88790307E+02</pdfrwt>
<pdfrwt beam="2">  1       -1 0.14904977E-02 0.88790307E+02</pdfrwt>
<totfact> 0.12753433E+05</totfact>
</mgrwt>
</event>
<event>
 5    1  0.6125604E+000  0.9756361E+02  0.7546771E-02  0.1285504E+00
         -2   -1    0    0    0  501 -0.00000000000E+00  0.00000000000E+00  0.21419641195E+02  0.21419641195E+02  0.00000000000E+00 0. -1.
          2   -1    0    0  501    0  0.00000000000E+00 -0.00000000000E+00 -0.11109731336E+03  0.11109731336E+03  0.00000000000E+00 0.  1.
         23    2    1    2    0    0  0.00000000000E+00  0.00000000000E+00 -0.89677672162E+02  0.13251695455E+03  0.97563611862E+02 0.  0.
        -11    1    3    3    0    0 -0.20448606209E+01  0.20180675760E+02  0.15420005550E+02  0.25479750789E+02  0.00000000000E+00 0. -1.
         11    1    3    3    0    0  0.20448606209E+01 -0.20180675760E+02 -0.10509767771E+03  0.10703720376E+03  0.00000000000E+00 0.  1.
<mgrwt>
<rscale>  0 0.97563612E+02</rscale>
<asrwt>0</asrwt>
<pdfrwt beam="2">  1        2 0.17091895E-01 0.97563612E+02</pdfrwt>
<pdfrwt beam="1">  1       -2 0.32953294E-02 0.97563612E+02</pdfrwt>
<totfact> 0.10515028E+05</totfact>
</mgrwt>
</event>
<event>
 5    1  0.6125604E+000  0.9063886E+02  0.7546771E-02  0.1301312E+00
          4   -1    0    0  501    0  0.00000000000E+00  0.00000000000E+00  0.17245898128E+03  0.17245898128E+03  0.00000000000E+00 0. -1.
         -4   -1    0    0    0  501 -0.00000000000E+00 -0.00000000000E+00 -0.11909211988E+02  0.11909211988E+02  0.00000000000E+00 0.  1.
         23    2    1    2    0    0  0.00000000000E+00  0.00000000000E+00  0.16054976929E+03  0.18436819327E+03  0.90638856290E+02 0.  0.
        -11    1    3    3    0    0  0.27694597825E+02  0.33792372417E+02  0.55786575602E+02  0.70859418567E+02  0.00000000000E+00 0.  1.
         11    1    3    3    0    0 -0.27694597825E+02 -0.33792372417E+02  0.10476319369E+03  0.11350877470E+03  0.00000000000E+00 0. -1.
<mgrwt>
<rscale>  0 0.90638856E+02</rscale>
<asrwt>0</asrwt>
<pdfrwt beam="1">  1        4 0.26532149E-01 0.90638856E+02</pdfrwt>
<pdfrwt beam="2">  1       -4 0.18321866E-02 0.90638856E+02</pdfrwt>
<totfact> 0.22409431E+04</totfact>
</mgrwt>
</event>
<event>
 5    1  0.6125604E+000  0.9158427E+02  0.7546771E-02  0.1299060E+00
         -1   -1    0    0    0  501 -0.00000000000E+00  0.00000000000E+00  0.53116819526E+02  0.53116819526E+02  0.00000000000E+00 0.  1.
          1   -1    0    0  501    0  0.00000000000E+00 -0.00000000000E+00 -0.39477503943E+02  0.39477503943E+02  0.00000000000E+00 0. -1.
         23    2    1    2    0    0  0.00000000000E+00  0.00000000000E+00  0.13639315583E+02  0.92594323470E+02  0.91584266166E+02 0.  0.
        -11    1    3    3    0    0 -0.15302032226E+02  0.86145496394E+01  0.49577409495E+02  0.52595457864E+02  0.00000000000E+00 0.  1.
         11    1    3    3    0    0  0.15302032226E+02 -0.86145496394E+01 -0.35938093911E+02  0.39998865605E+02  0.00000000000E+00 0. -1.
<mgrwt>
<rscale>  0 0.91584266E+02</rscale>
<asrwt>0</asrwt>
<pdfrwt beam="2">  1        1 0.60734622E-02 0.91584266E+02</pdfrwt>
<pdfrwt beam="1">  1       -1 0.81718184E-02 0.91584266E+02</pdfrwt>
<totfact> 0.89347821E+04</totfact>
</mgrwt>
</event>
<event>
 5    1  0.6125604E+000  0.9213523E+02  0.7546771E-02  0.1297762E+00
          1   -1    0    0  501    0  0.00000000000E+00  0.00000000000E+00  0.13883092218E+02  0.13883092218E+02  0.00000000000E+00 0. -1.
         -1   -1    0    0    0  501 -0.00000000000E+00 -0.00000000000E+00 -0.15286402336E+03  0.15286402336E+03  0.00000000000E+00 0.  1.
         23    2    1    2    0    0  0.00000000000E+00  0.00000000000E+00 -0.13898093114E+03  0.16674711557E+03  0.92135233935E+02 0.  0.
        -11    1    3    3    0    0  0.43163847955E+02 -0.15931566595E+02 -0.73654106041E+02  0.86843882463E+02  0.00000000000E+00 0.  1.
         11    1    3    3    0    0 -0.43163847955E+02  0.15931566595E+02 -0.65326825096E+02  0.79903233111E+02  0.00000000000E+00 0. -1.
<mgrwt>
<rscale>  0 0.92135234E+02</rscale>
<asrwt>0</asrwt>
<pdfrwt beam="1">  1        1 0.21358604E-02 0.92135234E+02</pdfrwt>
<pdfrwt beam="2">  1       -1 0.23517542E-01 0.92135234E+02</pdfrwt>
<totfact> 0.72459566E+04</totfact>
</mgrwt>
</event>
<event>
 5    1  0.6125604E+000  0.9216162E+02  0.7546771E-02  0.1297700E+00
         -3   -1    0    0    0  501 -0.00000000000E+00  0.00000000000E+00  0.54830186868E+02  0.54830186868E+02  0.00000000000E+00 0.  1.
          3   -1    0    0  501    0  0.00000000000E+00 -0.00000000000E+00 -0.38727589311E+02  0.38727589311E+02  0.00000000000E+00 0. -1.
         23    2    1    2    0    0  0.00000000000E+00  0.00000000000E+00  0.16102597557E+02  0.93557776179E+02  0.92161618017E+02 0.  0.
        -11    1    3    3    0    0  0.17630192733E+02 -0.10394105524E+01  0.51258226918E+02  0.54215402764E+02  0.00000000000E+00 0.  1.
         11    1    3    3    0    0 -0.17630192733E+02  0.10394105524E+01 -0.35155629362E+02  0.39342373415E+02  0.00000000000E+00 0. -1.
<mgrwt>
<rscale>  0 0.92161618E+02</rscale>
<asrwt>0</asrwt>
<pdfrwt beam="2">  1        3 0.59580906E-02 0.92161618E+02</pdfrwt>
<pdfrwt beam="1">  1       -3 0.84354134E-02 0.92161618E+02</pdfrwt>
<totfact> 0.34141058E+04</totfact>
</mgrwt>
</event>
<event>
 5    1  0.6125604E+000  0.9269701E+02  0.7546771E-02  0.1296449E+00
          1   -1    0    0  501    0  0.00000000000E+00  0.00000000000E+00  0.67458902365E+02  0.67458902365E+02  0.00000000000E+00 0. -1.
         -1   -1    0    0    0  501 -0.00000000000E+00 -0.00000000000E+00 -0.31844336279E+02  0.31844336279E+02  0.00000000000E+00 0.  1.
         23    2    1    2    0    0  0.00000000000E+00  0.00000000000E+00  0.35614566085E+02  0.99303238644E+02  0.92697011213E+02 0.  0.
        -11    1    3    3    0    0  0.22047222056E+02  0.83881424291E+01 -0.24932681800E+02  0.34323163542E+02  0.00000000000E+00 0.  1.
         11    1    3    3    0    0 -0.22047222056E+02 -0.83881424291E+01  0.60547247886E+02  0.64980075102E+02  0.00000000000E+00 0. -1.
<mgrwt>
<rscale>  0 0.92697011E+02</rscale>
<asrwt>0</asrwt>
<pdfrwt beam="1">  1        1 0.10378293E-01 0.92697011E+02</pdfrwt>
<pdfrwt beam="2">  1       -1 0.48991287E-02 0.92697011E+02</pdfrwt>
<totfact> 0.93718663E+04</totfact>
</mgrwt>
</event>
<event>
 5    1  0.6125604E+000  0.9228624E+02  0.7546771E-02  0.1297408E+00
         -1   -1    0    0    0  501 -0.00000000000E+00  0.00000000000E+00  0.11708583907E+02  0.11708583907E+02  0.00000000000E+00 0.  1.
          1   -1    0    0  501    0  0.00000000000E+00 -0.00000000000E+00 -0.18184842354E+03  0.18184842354E+03  0.00000000000E+00 0. -1.
         23    2    1    2    0    0  0.00000000000E+00  0.00000000000E+00 -0.17013983963E+03  0.19355700744E+03  0.92286240045E+02 0.  0.
        -11    1    3    3    0    0 -0.23514434687E+02  0.27456424122E+02 -0.24922851440E+02  0.43908226885E+02  0.00000000000E+00 0.  1.
         11    1    3    3    0    0  0.23514434687E+02 -0.27456424122E+02 -0.14521698819E+03  0.14964878056E+03  0.00000000000E+00 0. -1.
<mgrwt>
<rscale>  0 0.92286240E+02</rscale>
<asrwt>0</asrwt>
<pdfrwt beam="2">  1        1 0.27976682E-01 0.92286240E+02</pdfrwt>
<pdfrwt beam="1">  1       -1 0.18013205E-02 0.92286240E+02</pdfrwt>
<totfact> 0.11253125E+05</totfact>
</mgrwt>
</event>
<event>
 5    1  0.6125604E+000  0.9117173E+02  0.7546771E-02  0.1300039E+00
         -3   -1    0    0    0  501 -0.00000000000E+00  0.00000000000E+00  0.28742743545E+02  0.28742743545E+02  0.00000000000E+00 0.  1.
          3   -1    0    0  501    0  0.00000000000E+00 -0.00000000000E+00 -0.72298983693E+02  0.72298983693E+02  0.00000000000E+00 0. -1.
         23    2    1    2    0    0  0.00000000000E+00  0.00000000000E+00 -0.43556240148E+02  0.10104172724E+03  0.91171731296E+02 0.  0.
        -11    1    3    3    0    0 -0.93849752602E+01 -0.29014605070E+02 -0.59330644146E+02  0.66708698105E+02  0.00000000000E+00 0. -1.
         11    1    3    3    0    0  0.93849752602E+01  0.29014605070E+02  0.15774403998E+02  0.34333029134E+02  0.00000000000E+00 0.  1.
<mgrwt>
<rscale>  0 0.91171731E+02</rscale>
<asrwt>0</asrwt>
<pdfrwt beam="2">  1        3 0.11122920E-01 0.91171731E+02</pdfrwt>
<pdfrwt beam="1">  1       -3 0.44219606E-02 0.91171731E+02</pdfrwt>
<totfact> 0.34599296E+04</totfact>
</mgrwt>
</event>
<event>
 5    1  0.6125604E+000  0.8843638E+02  0.7546771E-02  0.1306683E+00
         -1   -1    0    0    0  501 -0.00000000000E+00  0.00000000000E+00  0.47414880063E+01  0.47414880063E+01  0.00000000000E+00 0.  1.
          1   -1    0    0  501    0  0.00000000000E+00 -0.00000000000E+00 -0.41237021176E+03  0.41237021176E+03  0.00000000000E+00 0. -1.
         23    2    1    2    0    0  0.00000000000E+00  0.00000000000E+00 -0.40762872375E+03  0.41711169977E+03  0.88436381952E+02 0.  0.
        -11    1    3    3    0    0  0.38055334956E+02 -0.22382866384E+02 -0.21541276248E+03  0.21989056247E+03  0.00000000000E+00 0.  1.
         11    1    3    3    0    0 -0.38055334956E+02  0.22382866384E+02 -0.19221596128E+03  0.19722113730E+03  0.00000000000E+00 0. -1.
<mgrwt>
<rscale>  0 0.88436382E+02</rscale>
<asrwt>0</asrwt>
<pdfrwt beam="2">  1        1 0.63441564E-01 0.88436382E+02</pdfrwt>
<pdfrwt beam="1">  1       -1 0.72945978E-03 0.88436382E+02</pdfrwt>
<totfact> 0.14697158E+05</totfact>
</mgrwt>
</event>
<event>
 5    1  0.6125604E+000  0.9136613E+02  0.7546771E-02  0.1299577E+00
         -1   -1    0    0    0  501 -0.00000000000E+00  0.00000000000E+00  0.13089277273E+02  0.13089277273E+02  0.00000000000E+00 0.  1.
          1   -1    0    0  501    0  0.00000000000E+00 -0.00000000000E+00 -0.15943910105E+03  0.15943910105E+03  0.00000000000E+00 0. -1.
         23    2    1    2    0    0  0.00000000000E+00  0.00000000000E+00 -0.14634982377E+03  0.17252837832E+03  0.91366133807E+02 0.  0.
        -11    1    3    3    0    0 -0.78973801434E+00  0.35443941602E+02 -0.18771473134E+02  0.40115643907E+02  0.00000000000E+00 0. -1.
         11    1    3    3    0    0  0.78973801434E+00 -0.35443941602E+02 -0.12757835064E+03  0.13241273441E+03  0.00000000000E+00 0.  1.
<mgrwt>
<rscale>  0 0.91366134E+02</rscale>
<asrwt>0</asrwt>
<pdfrwt beam="2">  1        1 0.24529093E-01 0.91366134E+02</pdfrwt>
<pdfrwt beam="1">  1       -1 0.20137349E-02 0.91366134E+02</pdfrwt>
<totfact> 0.11277351E+05</totfact>
</mgrwt>
</event>
<event>
 5    1  0.6125604E+000  0.9138881E+02  0.7546771E-02  0.1299523E+00
          2   -1    0    0  501    0  0.00000000000E+00  0.00000000000E+00  0.48364352293E+03  0.48364352293E+03  0.00000000000E+00 0. -1.
         -2   -1    0    0    0  501 -0.00000000000E+00 -0.00000000000E+00 -0.43171851441E+01  0.43171851441E+01  0.00000000000E+00 0.  1.
         23    2    1    2    0    0  0.00000000000E+00  0.00000000000E+00  0.47932633778E+03  0.48796070807E+03  0.91388809648E+02 0.  0.
        -11    1    3    3    0    0 -0.41348315499E+02  0.19304645564E+02  0.22699845307E+03  0.23153973791E+03  0.00000000000E+00 0. -1.
         11    1    3    3    0    0  0.41348315499E+02 -0.19304645564E+02  0.25232788472E+03  0.25642097016E+03  0.00000000000E+00 0.  1.
<mgrwt>
<rscale>  0 0.91388810E+02</rscale>
<asrwt>0</asrwt>
<pdfrwt beam="1">  1        2 0.74406653E-01 0.91388810E+02</pdfrwt>
<pdfrwt beam="2">  1       -2 0.66418271E-03 0.91388810E+02</pdfrwt>
<totfact> 0.21185109E+05</totfact>
</mgrwt>
</event>
<event>
 5    1  0.6125604E+000  0.8814223E+02  0.7546771E-02  0.1307414E+00
         -2   -1    0    0    0  501 -0.00000000000E+00  0.00000000000E+00  0.51908402768E+02  0.51908402768E+02  0.00000000000E+00 0.  1.
          2   -1    0    0  501    0  0.00000000000E+00 -0.00000000000E+00 -0.37417121421E+02  0.37417121421E+02  0.00000000000E+00 0. -1.
         23    2    1    2    0    0  0.00000000000E+00  0.00000000000E+00  0.14491281347E+02  0.89325524189E+02  0.88142226184E+02 0.  0.
        -11    1    3    3    0    0 -0.31483766546E+02 -0.13174741976E+02  0.35502965224E+02  0.49246948349E+02  0.00000000000E+00 0.  1.
         11    1    3    3    0    0  0.31483766546E+02  0.13174741976E+02 -0.21011683877E+02  0.40078575840E+02  0.00000000000E+00 0. -1.
<mgrwt>
<rscale>  0 0.88142226E+02</rscale>
<asrwt>0</asrwt>
<pdfrwt beam="2">  1        2 0.57564802E-02 0.88142226E+02</pdfrwt>
<pdfrwt beam="1">  1       -2 0.79859081E-02 0.88142226E+02</pdfrwt>
<totfact> 0.10341652E+05</totfact>
</mgrwt>
</event>
<event>
 5    1  0.6125604E+000  0.8868035E+02  0.7546771E-02  0.1306079E+00
          1   -1    0    0  501    0  0.00000000000E+00  0.00000000000E+00  0.16161450487E+02  0.16161450487E+02  0.00000000000E+00 0. -1.
         -1   -1    0    0    0  501 -0.00000000000E+00 -0.00000000000E+00 -0.12165065232E+03  0.12165065232E+03  0.00000000000E+00 0.  1.
         23    2    1    2    0    0  0.00000000000E+00  0.00000000000E+00 -0.10548920183E+03  0.13781210281E+03  0.88680347185E+02 0.  0.
        -11    1    3    3    0    0  0.40712443494E+02  0.17036158174E+02 -0.59395650022E+02  0.73997141716E+02  0.00000000000E+00 0.  1.
         11    1    3    3    0    0 -0.40712443494E+02 -0.17036158174E+02 -0.46093551809E+02  0.63814961090E+02  0.00000000000E+00 0. -1.
<mgrwt>
<rscale>  0 0.88680347E+02</rscale>
<asrwt>0</asrwt>
<pdfrwt beam="1">  1        1 0.24863771E-02 0.88680347E+02</pdfrwt>
<pdfrwt beam="2">  1       -1 0.18715485E-01 0.88680347E+02</pdfrwt>
<totfact> 0.84130901E+04</totfact>
</mgrwt>
</event>
<event>
 5    1  0.6125604E+000  0.9155767E+02  0.7546771E-02  0.1299123E+00
         -1   -1    0    0    0  501 -0.00000000000E+00  0.00000000000E+00  0.41504045082E+02  0.41504045082E+02  0.00000000000E+00 0.  1.
          1   -1    0    0  501    0  0.00000000000E+00 -0.00000000000E+00 -0.50493918361E+02  0.50493918361E+02  0.00000000000E+00 0. -1.
         23    2    1    2    0    0  0.00000000000E+00  0.00000000000E+00 -0.89898732784E+01  0.91997963443E+02  0.91557672841E+02 0.  0.
        -11    1    3    3    0    0  0.24553688262E+02 -0.27401510765E+01 -0.43219987377E+02  0.49783123085E+02  0.00000000000E+00 0. -1.
         11    1    3    3    0    0 -0.24553688262E+02  0.27401510765E+01  0.34230114099E+02  0.42214840358E+02  0.00000000000E+00 0.  1.
<mgrwt>
<rscale>  0 0.91557673E+02</rscale>
<asrwt>0</asrwt>
<pdfrwt beam="2">  1        1 0.77682951E-02 0.91557673E+02</pdfrwt>
<pdfrwt beam="1">  1       -1 0.63852377E-02 0.91557673E+02</pdfrwt>
<totfact> 0.92813653E+04</totfact>
</mgrwt>
</event>
<event>
 5    1  0.6125604E+000  0.9292574E+02  0.7546771E-02  0.1295917E+00
          1   -1    0    0  501    0  0.00000000000E+00  0.00000000000E+00  0.30149321845E+03  0.30149321845E+03  0.00000000000E+00 0. -1.
         -1   -1    0    0    0  501 -0.00000000000E+00 -0.00000000000E+00 -0.71603541194E+01  0.71603541194E+01  0.00000000000E+00 0.  1.
         23    2    1    2    0    0  0.00000000000E+00  0.00000000000E+00  0.29433286433E+03  0.30865357257E+03  0.92925738280E+02 0.  0.
        -11    1    3    3    0    0 -0.40665036390E+02  0.16035734950E+02  0.94858405880E+02  0.10444571387E+03  0.00000000000E+00 0.  1.
         11    1    3    3    0    0  0.40665036390E+02 -0.16035734950E+02  0.19947445845E+03  0.20420785870E+03  0.00000000000E+00 0. -1.
<mgrwt>
<rscale>  0 0.92925738E+02</rscale>
<asrwt>0</asrwt>
<pdfrwt beam="1">  1        1 0.46383562E-01 0.92925738E+02</pdfrwt>
<pdfrwt beam="2">  1       -1 0.11015932E-02 0.92925738E+02</pdfrwt>
<totfact> 0.12190297E+05</totfact>
</mgrwt>
</event>
<event>
 5    1  0.6125604E+000  0.8834708E+02  0.7546771E-02  0.1306905E+00
          1   -1    0    0  501    0  0.00000000000E+00  0.00000000000E+00  0.31599725912E+03  0.31599725912E+03  0.00000000000E+00 0. -1.
         -1   -1    0    0    0  501 -0.00000000000E+00 -0.00000000000E+00 -0.61750594249E+01  0.61750594249E+01  0.00000000000E+00 0.  1.
         23    2    1    2    0    0  0.00000000000E+00  0.00000000000E+00  0.30982219970E+03  0.32217231855E+03  0.88347084914E+02 0.  0.
        -11    1    3    3    0    0  0.91694468174E+01 -0.43188655243E+02  0.14980165793E+03  0.15617258215E+03  0.00000000000E+00 0.  1.
         11    1    3    3    0    0 -0.91694468174E+01  0.43188655243E+02  0.16002054177E+03  0.16599973640E+03  0.00000000000E+00 0. -1.
<mgrwt>
<rscale>  0 0.88347085E+02</rscale>
<asrwt>0</asrwt>
<pdfrwt beam="1">  1        1 0.48614950E-01 0.88347085E+02</pdfrwt>
<pdfrwt beam="2">  1       -1 0.95000939E-03 0.88347085E+02</pdfrwt>
<totfact> 0.14069226E+05</totfact>
</mgrwt>
</event>
<event>
 5    1  0.6125604E+000  0.8846902E+02  0.7546771E-02  0.1306602E+00
          1   -1    0    0  501    0  0.00000000000E+00  0.00000000000E+00  0.61060276497E+02  0.61060276497E+02  0.00000000000E+00 0. -1.
         -1   -1    0    0    0  501 -0.00000000000E+00 -0.00000000000E+00 -0.32045248368E+02  0.32045248368E+02  0.00000000000E+00 0.  1.
         23    2    1    2    0    0  0.00000000000E+00  0.00000000000E+00  0.29015028129E+02  0.93105524866E+02  0.88469016628E+02 0.  0.
        -11    1    3    3    0    0 -0.30925213820E+02  0.13783914496E+02 -0.15450587884E+02  0.37216741053E+02  0.00000000000E+00 0.  1.
         11    1    3    3    0    0  0.30925213820E+02 -0.13783914496E+02  0.44465616013E+02  0.55888783813E+02  0.00000000000E+00 0. -1.
<mgrwt>
<rscale>  0 0.88469017E+02</rscale>
<asrwt>0</asrwt>
<pdfrwt beam="1">  1        1 0.93938887E-02 0.88469017E+02</pdfrwt>
<pdfrwt beam="2">  1       -1 0.49300382E-02 0.88469017E+02</pdfrwt>
<totfact> 0.10502230E+05</totfact>
</mgrwt>
</event>
<event>
 5    1  0.6125604E+000  0.9070786E+02  0.7546771E-02  0.1301147E+00
          1   -1    0    0  501    0  0.00000000000E+00  0.00000000000E+00  0.13060394648E+03  0.13060394648E+03  0.00000000000E+00 0. -1.
         -1   -1    0    0    0  501 -0.00000000000E+00 -0.00000000000E+00 -0.15749745117E+02  0.15749745117E+02  0.00000000000E+00 0.  1.
         23    2    1    2    0    0  0.00000000000E+00  0.00000000000E+00  0.11485420137E+03  0.14635369160E+03  0.90707857837E+02 0.  0.
        -11    1    3    3    0    0 -0.33409914799E+02 -0.13047645022E+02  0.10221383931E+03  0.10832420041E+03  0.00000000000E+00 0. -1.
         11    1    3    3    0    0  0.33409914799E+02  0.13047645022E+02  0.12640362058E+02  0.38029491194E+02  0.00000000000E+00 0.  1.
<mgrwt>
<rscale>  0 0.90707858E+02</rscale>
<asrwt>0</asrwt>
<pdfrwt beam="1">  1        1 0.20092914E-01 0.90707858E+02</pdfrwt>
<pdfrwt beam="2">  1       -1 0.24230378E-02 0.90707858E+02</pdfrwt>
<totfact> 0.11089327E+05</totfact>
</mgrwt>
</event>
<event>
 5    1  0.6125604E+000  0.8942944E+02  0.7546771E-02  0.1304239E+00
          2   -1    0    0  501    0  0.00000000000E+00  0.00000000000E+00  0.18905014144E+02  0.18905014144E+02  0.00000000000E+00 0. -1.
         -2   -1    0    0    0  501 -0.00000000000E+00 -0.00000000000E+00 -0.10576061909E+03  0.10576061909E+03  0.00000000000E+00 0.  1.
         23    2    1    2    0    0  0.00000000000E+00  0.00000000000E+00 -0.86855604946E+02  0.12466563323E+03  0.89429435866E+02 0.  0.
        -11    1    3    3    0    0 -0.37176961512E+02  0.20932415599E+02 -0.62084313458E+02  0.75330966193E+02  0.00000000000E+00 0.  1.
         11    1    3    3    0    0  0.37176961512E+02 -0.20932415599E+02 -0.24771291488E+02  0.49334667041E+02  0.00000000000E+00 0. -1.
<mgrwt>
<rscale>  0 0.89429436E+02</rscale>
<asrwt>0</asrwt>
<pdfrwt beam="1">  1        2 0.29084637E-02 0.89429436E+02</pdfrwt>
<pdfrwt beam="2">  1       -2 0.16270865E-01 0.89429436E+02</pdfrwt>
<totfact> 0.82347798E+04</totfact>
</mgrwt>
</event>
<event>
 4    1  0.6125604E+000  0.1693148E+03  0.7546771E-02  0.1178564E+00
          1   -1    0    0  501    0  0.00000000000E+00  0.00000000000E+00  0.19176400332E+03  0.19176400332E+03  0.00000000000E+00 0. -1.
         -1   -1    0    0    0  501 -0.00000000000E+00 -0.00000000000E+00 -0.37373401992E+02  0.37373401992E+02  0.00000000000E+00 0.  1.
        -11    1    1    2    0    0  0.82959225666E+02 -0.98961282263E+01  0.58703419471E+02  0.10210904923E+03  0.00000000000E+00 0.  1.
         11    1    1    2    0    0 -0.82959225666E+02  0.98961282263E+01  0.95687181854E+02  0.12702835608E+03  0.00000000000E+00 0. -1.
<mgrwt>
<rscale>  0 0.16931477E+03</rscale>
<asrwt>0</asrwt>
<pdfrwt beam="1">  1        1 0.29502154E-01 0.16931477E+03</pdfrwt>
<pdfrwt beam="2">  1       -1 0.57497543E-02 0.16931477E+03</pdfrwt>
<totfact> 0.20924067E+04</totfact>
</mgrwt>
</event>
<event>
 5    1  0.6125604E+000  0.9068266E+02  0.7546771E-02  0.1301207E+00
         -2   -1    0    0    0  501 -0.00000000000E+00  0.00000000000E+00  0.43664100101E+02  0.43664100101E+02  0.00000000000E+00 0.  1.
          2   -1    0    0  501    0  0.00000000000E+00 -0.00000000000E+00 -0.47082987708E+02  0.47082987708E+02  0.00000000000E+00 0. -1.
         23    2    1    2    0    0  0.00000000000E+00  0.00000000000E+00 -0.34188876076E+01  0.90747087809E+02  0.90682661812E+02 0.  0.
        -11    1    3    3    0    0 -0.72466755735E+01  0.30084564229E+02 -0.34872707118E+02  0.46622966588E+02  0.00000000000E+00 0. -1.
         11    1    3    3    0    0  0.72466755735E+01 -0.30084564229E+02  0.31453819511E+02  0.44124121221E+02  0.00000000000E+00 0.  1.
<mgrwt>
<rscale>  0 0.90682662E+02</rscale>
<asrwt>0</asrwt>
<pdfrwt beam="2">  1        2 0.72435366E-02 0.90682662E+02</pdfrwt>
<pdfrwt beam="1">  1       -2 0.67175538E-02 0.90682662E+02</pdfrwt>
<totfact> 0.10106428E+05</totfact>
</mgrwt>
</event>
<event>
 5    1  0.6125604E+000  0.9266169E+02  0.7546771E-02  0.1296531E+00
         -2   -1    0    0    0  501 -0.00000000000E+00  0.00000000000E+00  0.70056451632E+02  0.70056451632E+02  0.00000000000E+00 0.  1.
          2   -1    0    0  501    0  0.00000000000E+00 -0.00000000000E+00 -0.30640247615E+02  0.30640247615E+02  0.00000000000E+00 0. -1.
         23    2    1    2    0    0  0.00000000000E+00  0.00000000000E+00  0.39416204017E+02  0.10069669925E+03  0.92661686258E+02 0.  0.
        -11    1    3    3    0    0 -0.33556754817E+02 -0.10134937765E+02  0.52629856673E+02  0.63235073897E+02  0.00000000000E+00 0.  1.
         11    1    3    3    0    0  0.33556754817E+02  0.10134937765E+02 -0.13213652656E+02  0.37461625350E+02  0.00000000000E+00 0. -1.
<mgrwt>
<rscale>  0 0.92661686E+02</rscale>
<asrwt>0</asrwt>
<pdfrwt beam="2">  1        2 0.47138843E-02 0.92661686E+02</pdfrwt>
<pdfrwt beam="1">  1       -2 0.10777916E-01 0.92661686E+02</pdfrwt>
<totfact> 0.84796758E+04</totfact>
</mgrwt>
</event>
<event>
 5    1  0.6125604E+000  0.9084460E+02  0.7546771E-02  0.1300819E+00
         -3   -1    0    0    0  501 -0.00000000000E+00  0.00000000000E+00  0.58692627851E+01  0.58692627851E+01  0.00000000000E+00 0.  1.
          3   -1    0    0  501    0  0.00000000000E+00 -0.00000000000E+00 -0.35152379557E+03  0.35152379557E+03  0.00000000000E+00 0. -1.
         23    2    1    2    0    0  0.00000000000E+00  0.00000000000E+00 -0.34565453278E+03  0.35739305835E+03  0.90844604274E+02 0.  0.
        -11    1    3    3    0    0  0.56171508140E+01 -0.45071160338E+02 -0.17096674264E+03  0.17689711407E+03  0.00000000000E+00 0. -1.
         11    1    3    3    0    0 -0.56171508140E+01  0.45071160338E+02 -0.17468779015E+03  0.18049594429E+03  0.00000000000E+00 0.  1.
<mgrwt>
<rscale>  0 0.90844604E+02</rscale>
<asrwt>0</asrwt>
<pdfrwt beam="2">  1        3 0.54080580E-01 0.90844604E+02</pdfrwt>
<pdfrwt beam="1">  1       -3 0.90296358E-03 0.90844604E+02</pdfrwt>
<totfact> 0.22183688E+04</totfact>
</mgrwt>
</event>
<event>
 5    1  0.6125604E+000  0.9287508E+02  0.7546771E-02  0.1296035E+00
          1   -1    0    0  501    0  0.00000000000E+00  0.00000000000E+00  0.92595835908E+01  0.92595835908E+01  0.00000000000E+00 0. -1.
         -1   -1    0    0    0  501 -0.00000000000E+00 -0.00000000000E+00 -0.23288790049E+03  0.23288790049E+03  0.00000000000E+00 0.  1.
         23    2    1    2    0    0  0.00000000000E+00  0.00000000000E+00 -0.22362831690E+03  0.24214748408E+03  0.92875076998E+02 0.  0.
        -11    1    3    3    0    0 -0.42133322469E+02 -0.65253816988E+01 -0.63834768718E+02  0.76763762062E+02  0.00000000000E+00 0. -1.
         11    1    3    3    0    0  0.42133322469E+02  0.65253816988E+01 -0.15979354818E+03  0.16538372202E+03  0.00000000000E+00 0.  1.
<mgrwt>
<rscale>  0 0.92875077E+02</rscale>
<asrwt>0</asrwt>
<pdfrwt beam="1">  1        1 0.14245514E-02 0.92875077E+02</pdfrwt>
<pdfrwt beam="2">  1       -1 0.35828905E-01 0.92875077E+02</pdfrwt>
<totfact> 0.63175380E+04</totfact>
</mgrwt>
</event>
<event>
 5    1  0.6125604E+000  0.8977438E+02  0.7546771E-02  0.1303399E+00
         -1   -1    0    0    0  501 -0.00000000000E+00  0.00000000000E+00  0.25392111356E+03  0.25392111356E+03  0.00000000000E+00 0.  1.
          1   -1    0    0  501    0  0.00000000000E+00 -0.00000000000E+00 -0.79349832599E+01  0.79349832599E+01  0.00000000000E+00 0. -1.
         23    2    1    2    0    0  0.00000000000E+00  0.00000000000E+00  0.24598613030E+03  0.26185609682E+03  0.89774379094E+02 0.  0.
        -11    1    3    3    0    0 -0.23751440125E+02 -0.35533579037E+02  0.16299650463E+03  0.16850705228E+03  0.00000000000E+00 0.  1.
         11    1    3    3    0    0  0.23751440125E+02  0.35533579037E+02  0.82989625667E+02  0.93349044535E+02  0.00000000000E+00 0. -1.
<mgrwt>
<rscale>  0 0.89774379E+02</rscale>
<asrwt>0</asrwt>
<pdfrwt beam="2">  1        1 0.12207668E-02 0.89774379E+02</pdfrwt>
<pdfrwt beam="1">  1       -1 0.39064781E-01 0.89774379E+02</pdfrwt>
<totfact> 0.67080782E+04</totfact>
</mgrwt>
</event>
<event>
 5    1  0.6125604E+000  0.9202094E+02  0.7546771E-02  0.1298030E+00
         -1   -1    0    0    0  501 -0.00000000000E+00  0.00000000000E+00  0.23000414986E+02  0.23000414986E+02  0.00000000000E+00 0.  1.
          1   -1    0    0  501    0  0.00000000000E+00 -0.00000000000E+00 -0.92040233875E+02  0.92040233875E+02  0.00000000000E+00 0. -1.
         23    2    1    2    0    0  0.00000000000E+00  0.00000000000E+00 -0.69039818888E+02  0.11504064886E+03  0.92020944889E+02 0.  0.
        -11    1    3    3    0    0 -0.43510978366E+02  0.91709952928E+01 -0.19746288855E+02  0.48654170598E+02  0.00000000000E+00 0.  1.
         11    1    3    3    0    0  0.43510978366E+02 -0.91709952928E+01 -0.49293530034E+02  0.66386478263E+02  0.00000000000E+00 0. -1.
<mgrwt>
<rscale>  0 0.92020945E+02</rscale>
<asrwt>0</asrwt>
<pdfrwt beam="2">  1        1 0.14160036E-01 0.92020945E+02</pdfrwt>
<pdfrwt beam="1">  1       -1 0.35385255E-02 0.92020945E+02</pdfrwt>
<totfact> 0.10046896E+05</totfact>
</mgrwt>
</event>
<event>
 5    1  0.6125604E+000  0.9562087E+02  0.7546771E-02  0.1289784E+00
         -3   -1    0    0    0  501 -0.00000000000E+00  0.00000000000E+00  0.58269056301E+02  0.58269056301E+02  0.00000000000E+00 0.  1.
          3   -1    0    0  501    0  0.00000000000E+00 -0.00000000000E+00 -0.39229014276E+02  0.39229014276E+02  0.00000000000E+00 0. -1.
         23    2    1    2    0    0  0.00000000000E+00  0.00000000000E+00  0.19040042025E+02  0.97498070577E+02  0.95620868883E+02 0.  0.
        -11    1    3    3    0    0 -0.85463506304E+01 -0.34561345857E+02  0.42057472453E+02  0.55103155315E+02  0.00000000000E+00 0.  1.
         11    1    3    3    0    0  0.85463506304E+01  0.34561345857E+02 -0.23017430428E+02  0.42394915262E+02  0.00000000000E+00 0. -1.
<mgrwt>
<rscale>  0 0.95620869E+02</rscale>
<asrwt>0</asrwt>
<pdfrwt beam="2">  1        3 0.60352330E-02 0.95620869E+02</pdfrwt>
<pdfrwt beam="1">  1       -3 0.89644702E-02 0.95620869E+02</pdfrwt>
<totfact> 0.30606523E+04</totfact>
</mgrwt>
</event>
<event>
 5    1  0.6125604E+000  0.1199013E+03  0.7546771E-02  0.1243260E+00
         -1   -1    0    0    0  501 -0.00000000000E+00  0.00000000000E+00  0.14673610291E+02  0.14673610291E+02  0.00000000000E+00 0.  1.
          1   -1    0    0  501    0  0.00000000000E+00 -0.00000000000E+00 -0.24493487931E+03  0.24493487931E+03  0.00000000000E+00 0. -1.
         23    2    1    2    0    0  0.00000000000E+00  0.00000000000E+00 -0.23026126902E+03  0.25960848960E+03  0.11990127548E+03 0.  0.
        -11    1    3    3    0    0  0.40864664510E+02 -0.14721583968E+02 -0.25662797307E+02  0.50450223049E+02  0.00000000000E+00 0.  1.
         11    1    3    3    0    0 -0.40864664510E+02  0.14721583968E+02 -0.20459847171E+03  0.20915826655E+03  0.00000000000E+00 0. -1.
<mgrwt>
<rscale>  0 0.11990128E+03</rscale>
<asrwt>0</asrwt>
<pdfrwt beam="2">  1        1 0.37682283E-01 0.11990128E+03</pdfrwt>
<pdfrwt beam="1">  1       -1 0.22574788E-02 0.11990128E+03</pdfrwt>
<totfact> 0.58581106E+04</totfact>
</mgrwt>
</event>
<event>
 5    1  0.6125604E+000  0.9231218E+02  0.7546771E-02  0.1297347E+00
          2   -1    0    0  501    0  0.00000000000E+00  0.00000000000E+00  0.64013209860E+02  0.64013209860E+02  0.00000000000E+00 0. -1.
         -2   -1    0    0    0  501 -0.00000000000E+00 -0.00000000000E+00 -0.33280389566E+02  0.33280389566E+02  0.00000000000E+00 0.  1.
         23    2    1    2    0    0  0.00000000000E+00  0.00000000000E+00  0.30732820294E+02  0.97293599426E+02  0.92312178211E+02 0.  0.
        -11    1    3    3    0    0  0.32447709970E+01 -0.16871334446E+02 -0.29784721539E+02  0.34384591055E+02  0.00000000000E+00 0.  1.
         11    1    3    3    0    0 -0.32447709970E+01  0.16871334446E+02  0.60517541833E+02  0.62909008372E+02  0.00000000000E+00 0. -1.
<mgrwt>
<rscale>  0 0.92312178E+02</rscale>
<asrwt>0</asrwt>
<pdfrwt beam="1">  1        2 0.98481861E-02 0.92312178E+02</pdfrwt>
<pdfrwt beam="2">  1       -2 0.51200599E-02 0.92312178E+02</pdfrwt>
<totfact> 0.10424233E+05</totfact>
</mgrwt>
</event>
<event>
 5    1  0.6125604E+000  0.6389920E+02  0.7546771E-02  0.1382161E+00
         -3   -1    0    0    0  501 -0.00000000000E+00  0.00000000000E+00  0.41279780361E+02  0.41279780361E+02  0.00000000000E+00 0.  1.
          3   -1    0    0  501    0  0.00000000000E+00 -0.00000000000E+00 -0.24728252668E+02  0.24728252668E+02  0.00000000000E+00 0. -1.
         23    2    1    2    0    0  0.00000000000E+00  0.00000000000E+00  0.16551527693E+02  0.66008033030E+02  0.63899196830E+02 0.  0.
        -11    1    3    3    0    0  0.13084704713E+02  0.23220340361E+02  0.26474886404E+02  0.37567450194E+02  0.00000000000E+00 0.  1.
         11    1    3    3    0    0 -0.13084704713E+02 -0.23220340361E+02 -0.99233587116E+01  0.28440582836E+02  0.00000000000E+00 0. -1.
<mgrwt>
<rscale>  0 0.63899197E+02</rscale>
<asrwt>0</asrwt>
<pdfrwt beam="2">  1        3 0.38043466E-02 0.63899197E+02</pdfrwt>
<pdfrwt beam="1">  1       -3 0.63507354E-02 0.63899197E+02</pdfrwt>
<totfact> 0.96653439E+04</totfact>
</mgrwt>
</event>
<event>
 5    1  0.6125604E+000  0.9056758E+02  0.7546771E-02  0.1301483E+00
          2   -1    0    0  501    0  0.00000000000E+00  0.00000000000E+00  0.26387970007E+03  0.26387970007E+03  0.00000000000E+00 0. -1.
         -2   -1    0    0    0  501 -0.00000000000E+00 -0.00000000000E+00 -0.77710478533E+01  0.77710478533E+01  0.00000000000E+00 0.  1.
         23    2    1    2    0    0  0.00000000000E+00  0.00000000000E+00  0.25610865222E+03  0.27165074792E+03  0.90567583091E+02 0.  0.
        -11    1    3    3    0    0  0.35326145313E+02  0.27254580509E+02  0.15126319151E+03  0.15770637846E+03  0.00000000000E+00 0. -1.
         11    1    3    3    0    0 -0.35326145313E+02 -0.27254580509E+02  0.10484546070E+03  0.11394436946E+03  0.00000000000E+00 0.  1.
<mgrwt>
<rscale>  0 0.90567583E+02</rscale>
<asrwt>0</asrwt>
<pdfrwt beam="1">  1        2 0.40596870E-01 0.90567583E+02</pdfrwt>
<pdfrwt beam="2">  1       -2 0.11955460E-02 0.90567583E+02</pdfrwt>
<totfact> 0.17436211E+05</totfact>
</mgrwt>
</event>
<event>
 5    1  0.6125604E+000  0.9045489E+02  0.7546771E-02  0.1301754E+00
         -1   -1    0    0    0  501 -0.00000000000E+00  0.00000000000E+00  0.44507603046E+02  0.44507603046E+02  0.00000000000E+00 0.  1.
          1   -1    0    0  501    0  0.00000000000E+00 -0.00000000000E+00 -0.45958925122E+02  0.45958925122E+02  0.00000000000E+00 0. -1.
         23    2    1    2    0    0  0.00000000000E+00  0.00000000000E+00 -0.14513220768E+01  0.90466528168E+02  0.90454885899E+02 0.  0.
        -11    1    3    3    0    0  0.20764098604E+02  0.29609982254E+02  0.26437045822E+02  0.44797502516E+02  0.00000000000E+00 0.  1.
         11    1    3    3    0    0 -0.20764098604E+02 -0.29609982254E+02 -0.27888367899E+02  0.45669025652E+02  0.00000000000E+00 0. -1.
<mgrwt>
<rscale>  0 0.90454886E+02</rscale>
<asrwt>0</asrwt>
<pdfrwt beam="2">  1        1 0.70706039E-02 0.90454886E+02</pdfrwt>
<pdfrwt beam="1">  1       -1 0.68473235E-02 0.90454886E+02</pdfrwt>
<totfact> 0.94670587E+04</totfact>
</mgrwt>
</event>
<event>
 5    1  0.6125604E+000  0.9099848E+02  0.7546771E-02  0.1300452E+00
         -2   -1    0    0    0  501 -0.00000000000E+00  0.00000000000E+00  0.37196794363E+02  0.37196794363E+02  0.00000000000E+00 0.  1.
          2   -1    0    0  501    0  0.00000000000E+00 -0.00000000000E+00 -0.55654818951E+02  0.55654818951E+02  0.00000000000E+00 0. -1.
         23    2    1    2    0    0  0.00000000000E+00  0.00000000000E+00 -0.18458024588E+02  0.92851613314E+02  0.90998480335E+02 0.  0.
        -11    1    3    3    0    0  0.26425525867E+02  0.36981281822E+02 -0.71236878235E+01  0.46007288018E+02  0.00000000000E+00 0.  1.
         11    1    3    3    0    0 -0.26425525867E+02 -0.36981281822E+02 -0.11334336764E+02  0.46844325296E+02  0.00000000000E+00 0. -1.
<mgrwt>
<rscale>  0 0.90998480E+02</rscale>
<asrwt>0</asrwt>
<pdfrwt beam="2">  1        2 0.85622799E-02 0.90998480E+02</pdfrwt>
<pdfrwt beam="1">  1       -2 0.57225837E-02 0.90998480E+02</pdfrwt>
<totfact> 0.10454416E+05</totfact>
</mgrwt>
</event>
<event>
 5    1  0.6125604E+000  0.9147490E+02  0.7546771E-02  0.1299319E+00
          3   -1    0    0  501    0  0.00000000000E+00  0.00000000000E+00  0.43660136253E+02  0.43660136253E+02  0.00000000000E+00 0. -1.
         -3   -1    0    0    0  501 -0.00000000000E+00 -0.00000000000E+00 -0.47913598312E+02  0.47913598312E+02  0.00000000000E+00 0.  1.
         23    2    1    2    0    0  0.00000000000E+00  0.00000000000E+00 -0.42534620598E+01  0.91573734565E+02  0.91474897774E+02 0.  0.
        -11    1    3    3    0    0 -0.24664667404E+01  0.45481182185E+02 -0.62896901813E+01  0.45980230466E+02  0.00000000000E+00 0.  1.
         11    1    3    3    0    0  0.24664667404E+01 -0.45481182185E+02  0.20362281215E+01  0.45593504099E+02  0.00000000000E+00 0. -1.
<mgrwt>
<rscale>  0 0.91474898E+02</rscale>
<asrwt>0</asrwt>
<pdfrwt beam="1">  1        3 0.67169441E-02 0.91474898E+02</pdfrwt>
<pdfrwt beam="2">  1       -3 0.73713227E-02 0.91474898E+02</pdfrwt>
<totfact> 0.34995013E+04</totfact>
</mgrwt>
</event>
<event>
 5    1  0.6125604E+000  0.9088731E+02  0.7546771E-02  0.1300717E+00
         -2   -1    0    0    0  501 -0.00000000000E+00  0.00000000000E+00  0.70709062885E+02  0.70709062885E+02  0.00000000000E+00 0.  1.
          2   -1    0    0  501    0  0.00000000000E+00 -0.00000000000E+00 -0.29205957061E+02  0.29205957061E+02  0.00000000000E+00 0. -1.
         23    2    1    2    0    0  0.00000000000E+00  0.00000000000E+00  0.41503105823E+02  0.99915019946E+02  0.90887311644E+02 0.  0.
        -11    1    3    3    0    0 -0.10989866478E+02  0.19039598268E+02 -0.22971363857E+02  0.31795707648E+02  0.00000000000E+00 0. -1.
         11    1    3    3    0    0  0.10989866478E+02 -0.19039598268E+02  0.64474469680E+02  0.68119312298E+02  0.00000000000E+00 0.  1.
<mgrwt>
<rscale>  0 0.90887312E+02</rscale>
<asrwt>0</asrwt>
<pdfrwt beam="2">  1        2 0.44932242E-02 0.90887312E+02</pdfrwt>
<pdfrwt beam="1">  1       -2 0.10878317E-01 0.90887312E+02</pdfrwt>
<totfact> 0.88667739E+04</totfact>
</mgrwt>
</event>
<event>
 5    1  0.6125604E+000  0.9096550E+02  0.7546771E-02  0.1300530E+00
          2   -1    0    0  501    0  0.00000000000E+00  0.00000000000E+00  0.33498479883E+03  0.33498479883E+03  0.00000000000E+00 0. -1.
         -2   -1    0    0    0  501 -0.00000000000E+00 -0.00000000000E+00 -0.61754463825E+01  0.61754463825E+01  0.00000000000E+00 0.  1.
         23    2    1    2    0    0  0.00000000000E+00  0.00000000000E+00  0.32880935245E+03  0.34116024521E+03  0.90965502563E+02 0.  0.
        -11    1    3    3    0    0 -0.85092513686E+01 -0.43934474686E+02  0.13392786164E+03  0.14120664839E+03  0.00000000000E+00 0.  1.
         11    1    3    3    0    0  0.85092513686E+01  0.43934474686E+02  0.19488149080E+03  0.19995359682E+03  0.00000000000E+00 0. -1.
<mgrwt>
<rscale>  0 0.90965503E+02</rscale>
<asrwt>0</asrwt>
<pdfrwt beam="1">  1        2 0.51536109E-01 0.90965503E+02</pdfrwt>
<pdfrwt beam="2">  1       -2 0.95006893E-03 0.90965503E+02</pdfrwt>
<totfact> 0.18831880E+05</totfact>
</mgrwt>
</event>
<event>
 5    1  0.6125604E+000  0.9323562E+02  0.7546771E-02  0.1295200E+00
         -1   -1    0    0    0  501 -0.00000000000E+00  0.00000000000E+00  0.24169548613E+02  0.24169548613E+02  0.00000000000E+00 0.  1.
          1   -1    0    0  501    0  0.00000000000E+00 -0.00000000000E+00 -0.89915633079E+02  0.89915633079E+02  0.00000000000E+00 0. -1.
         23    2    1    2    0    0  0.00000000000E+00  0.00000000000E+00 -0.65746084466E+02  0.11408518169E+03  0.93235621191E+02 0.  0.
        -11    1    3    3    0    0  0.31561148347E+02  0.10395757082E+02  0.71347731814E+01  0.33986509657E+02  0.00000000000E+00 0.  1.
         11    1    3    3    0    0 -0.31561148347E+02 -0.10395757082E+02 -0.72880857648E+02  0.80098672035E+02  0.00000000000E+00 0. -1.
<mgrwt>
<rscale>  0 0.93235621E+02</rscale>
<asrwt>0</asrwt>
<pdfrwt beam="2">  1        1 0.13833174E-01 0.93235621E+02</pdfrwt>
<pdfrwt beam="1">  1       -1 0.37183921E-02 0.93235621E+02</pdfrwt>
<totfact> 0.96550479E+04</totfact>
</mgrwt>
</event>
<event>
 5    1  0.6125604E+000  0.9076751E+02  0.7546771E-02  0.1301004E+00
          3   -1    0    0  501    0  0.00000000000E+00  0.00000000000E+00  0.95064060416E+02  0.95064060416E+02  0.00000000000E+00 0. -1.
         -3   -1    0    0    0  501 -0.00000000000E+00 -0.00000000000E+00 -0.21666288541E+02  0.21666288541E+02  0.00000000000E+00 0.  1.
         23    2    1    2    0    0  0.00000000000E+00  0.00000000000E+00  0.73397771875E+02  0.11673034896E+03  0.90767513195E+02 0.  0.
        -11    1    3    3    0    0 -0.15009596962E+02  0.37102370884E+02  0.91821658721E+01  0.41063196372E+02  0.00000000000E+00 0.  1.
         11    1    3    3    0    0  0.15009596962E+02 -0.37102370884E+02  0.64215606003E+02  0.75667152586E+02  0.00000000000E+00 0. -1.
<mgrwt>
<rscale>  0 0.90767513E+02</rscale>
<asrwt>0</asrwt>
<pdfrwt beam="1">  1        3 0.14625240E-01 0.90767513E+02</pdfrwt>
<pdfrwt beam="2">  1       -3 0.33332752E-02 0.90767513E+02</pdfrwt>
<totfact> 0.33882719E+04</totfact>
</mgrwt>
</event>
<event>
 5    1  0.6125604E+000  0.1039709E+03  0.7546771E-02  0.1272161E+00
          1   -1    0    0  501    0  0.00000000000E+00  0.00000000000E+00  0.94212024263E+02  0.94212024263E+02  0.00000000000E+00 0. -1.
         -1   -1    0    0    0  501 -0.00000000000E+00 -0.00000000000E+00 -0.28685133084E+02  0.28685133084E+02  0.00000000000E+00 0.  1.
         23    2    1    2    0    0  0.00000000000E+00  0.00000000000E+00  0.65526891179E+02  0.12289715735E+03  0.10397085080E+03 0.  0.
        -11    1    3    3    0    0  0.13117543569E+02 -0.75854901029E+01  0.91543679251E+02  0.92789303372E+02  0.00000000000E+00 0. -1.
         11    1    3    3    0    0 -0.13117543569E+02  0.75854901029E+01 -0.26016788072E+02  0.30107853975E+02  0.00000000000E+00 0.  1.
<mgrwt>
<rscale>  0 0.10397085E+03</rscale>
<asrwt>0</asrwt>
<pdfrwt beam="1">  1        1 0.14494157E-01 0.10397085E+03</pdfrwt>
<pdfrwt beam="2">  1       -1 0.44130974E-02 0.10397085E+03</pdfrwt>
<totfact> 0.72019543E+04</totfact>
</mgrwt>
</event>
<event>
 5    1  0.6125604E+000  0.9086925E+02  0.7546771E-02  0.1300760E+00
         -2   -1    0    0    0  501 -0.00000000000E+00  0.00000000000E+00  0.13982639217E+02  0.13982639217E+02  0.00000000000E+00 0. -1.
          2   -1    0    0  501    0  0.00000000000E+00 -0.00000000000E+00 -0.14763342657E+03  0.14763342657E+03  0.00000000000E+00 0.  1.
         23    2    1    2    0    0  0.00000000000E+00  0.00000000000E+00 -0.13365078736E+03  0.16161606579E+03  0.90869245405E+02 0.  0.
        -11    1    3    3    0    0  0.40660144208E+02 -0.16171971465E+02 -0.88573650095E+02  0.98793074045E+02  0.00000000000E+00 0.  1.
         11    1    3    3    0    0 -0.40660144208E+02  0.16171971465E+02 -0.45077137261E+02  0.62822991744E+02  0.00000000000E+00 0. -1.
<mgrwt>
<rscale>  0 0.90869245E+02</rscale>
<asrwt>0</asrwt>
<pdfrwt beam="2">  1        2 0.22712836E-01 0.90869245E+02</pdfrwt>
<pdfrwt beam="1">  1       -2 0.21511752E-02 0.90869245E+02</pdfrwt>
<totfact> 0.14033842E+05</totfact>
</mgrwt>
</event>
<event>
 5    1  0.6125604E+000  0.9018381E+02  0.7546771E-02  0.1302407E+00
          2   -1    0    0  501    0  0.00000000000E+00  0.00000000000E+00  0.46131237504E+02  0.46131237504E+02  0.00000000000E+00 0. -1.
         -2   -1    0    0    0  501 -0.00000000000E+00 -0.00000000000E+00 -0.44075984617E+02  0.44075984617E+02  0.00000000000E+00 0.  1.
         23    2    1    2    0    0  0.00000000000E+00  0.00000000000E+00  0.20552528873E+01  0.90207222121E+02  0.90183805965E+02 0.  0.
        -11    1    3    3    0    0 -0.15445764214E+02  0.27952355625E+02 -0.30814173274E+02  0.44378137542E+02  0.00000000000E+00 0.  1.
         11    1    3    3    0    0  0.15445764214E+02 -0.27952355625E+02  0.32869426162E+02  0.45829084579E+02  0.00000000000E+00 0. -1.
<mgrwt>
<rscale>  0 0.90183806E+02</rscale>
<asrwt>0</asrwt>
<pdfrwt beam="1">  1        2 0.70971134E-02 0.90183806E+02</pdfrwt>
<pdfrwt beam="2">  1       -2 0.67809207E-02 0.90183806E+02</pdfrwt>
<totfact> 0.10212994E+05</totfact>
</mgrwt>
</event>
<event>
 5    1  0.6125604E+000  0.9092208E+02  0.7546771E-02  0.1300634E+00
          1   -1    0    0  501    0  0.00000000000E+00  0.00000000000E+00  0.11802880003E+03  0.11802880003E+03  0.00000000000E+00 0. -1.
         -1   -1    0    0    0  501 -0.00000000000E+00 -0.00000000000E+00 -0.17510183768E+02  0.17510183768E+02  0.00000000000E+00 0.  1.
         23    2    1    2    0    0  0.00000000000E+00  0.00000000000E+00  0.10051861627E+03  0.13553898380E+03  0.90922076053E+02 0.  0.
        -11    1    3    3    0    0  0.22758536091E+02  0.37522136612E+02  0.67950801128E+02  0.80889882401E+02  0.00000000000E+00 0. -1.
         11    1    3    3    0    0 -0.22758536091E+02 -0.37522136612E+02  0.32567815137E+02  0.54649101399E+02  0.00000000000E+00 0.  1.
<mgrwt>
<rscale>  0 0.90922076E+02</rscale>
<asrwt>0</asrwt>
<pdfrwt beam="1">  1        1 0.18158276E-01 0.90922076E+02</pdfrwt>
<pdfrwt beam="2">  1       -1 0.26938745E-02 0.90922076E+02</pdfrwt>
<totfact> 0.10824848E+05</totfact>
</mgrwt>
</event>
<event>
 5    1  0.6125604E+000  0.9002753E+02  0.7546771E-02  0.1302785E+00
          3   -1    0    0  501    0  0.00000000000E+00  0.00000000000E+00  0.18074016284E+03  0.18074016284E+03  0.00000000000E+00 0. -1.
         -3   -1    0    0    0  501 -0.00000000000E+00 -0.00000000000E+00 -0.11210785116E+02  0.11210785116E+02  0.00000000000E+00 0.  1.
         23    2    1    2    0    0  0.00000000000E+00  0.00000000000E+00  0.16952937772E+03  0.19195094795E+03  0.90027531952E+02 0.  0.
        -11    1    3    3    0    0 -0.28670457731E+02  0.19100339624E+02  0.22990815478E+02  0.41417335943E+02  0.00000000000E+00 0.  1.
         11    1    3    3    0    0  0.28670457731E+02 -0.19100339624E+02  0.14653856225E+03  0.15053361201E+03  0.00000000000E+00 0. -1.
<mgrwt>
<rscale>  0 0.90027532E+02</rscale>
<asrwt>0</asrwt>
<pdfrwt beam="1">  1        3 0.27806177E-01 0.90027532E+02</pdfrwt>
<pdfrwt beam="2">  1       -3 0.17247363E-02 0.90027532E+02</pdfrwt>
<totfact> 0.29925505E+04</totfact>
</mgrwt>
</event>
<event>
 5    1  0.6125604E+000  0.9436315E+02  0.7546771E-02  0.1292617E+00
         -1   -1    0    0    0  501 -0.00000000000E+00  0.00000000000E+00  0.51532259875E+01  0.51532259875E+01  0.00000000000E+00 0.  1.
          1   -1    0    0  501    0  0.00000000000E+00 -0.00000000000E+00 -0.43198206145E+03  0.43198206145E+03  0.00000000000E+00 0. -1.
         23    2    1    2    0    0  0.00000000000E+00  0.00000000000E+00 -0.42682883547E+03  0.43713528744E+03  0.94363153513E+02 0.  0.
        -11    1    3    3    0    0 -0.45658124686E+02 -0.95569464092E+01 -0.24620425520E+03  0.25058438669E+03  0.00000000000E+00 0. -1.
         11    1    3    3    0    0  0.45658124686E+02  0.95569464092E+01 -0.18062458026E+03  0.18655090075E+03  0.00000000000E+00 0.  1.
<mgrwt>
<rscale>  0 0.94363154E+02</rscale>
<asrwt>0</asrwt>
<pdfrwt beam="2">  1        1 0.66458789E-01 0.94363154E+02</pdfrwt>
<pdfrwt beam="1">  1       -1 0.79280387E-03 0.94363154E+02</pdfrwt>
<totfact> 0.12461766E+05</totfact>
</mgrwt>
</event>
<event>
 5    1  0.6125604E+000  0.9326819E+02  0.7546771E-02  0.1295125E+00
         -1   -1    0    0    0  501 -0.00000000000E+00  0.00000000000E+00  0.35504838758E+02  0.35504838758E+02  0.00000000000E+00 0.  1.
          1   -1    0    0  501    0  0.00000000000E+00 -0.00000000000E+00 -0.61251896964E+02  0.61251896964E+02  0.00000000000E+00 0. -1.
         23    2    1    2    0    0  0.00000000000E+00  0.00000000000E+00 -0.25747058206E+02  0.96756735722E+02  0.93268188045E+02 0.  0.
        -11    1    3    3    0    0  0.35052871808E+02  0.24340570824E+02 -0.32380341327E+02  0.53569148906E+02  0.00000000000E+00 0. -1.
         11    1    3    3    0    0 -0.35052871808E+02 -0.24340570824E+02  0.66332831207E+01  0.43187586816E+02  0.00000000000E+00 0.  1.
<mgrwt>
<rscale>  0 0.93268188E+02</rscale>
<asrwt>0</asrwt>
<pdfrwt beam="2">  1        1 0.94233687E-02 0.93268188E+02</pdfrwt>
<pdfrwt beam="1">  1       -1 0.54622829E-02 0.93268188E+02</pdfrwt>
<totfact> 0.90768920E+04</totfact>
</mgrwt>
</event>
<event>
 5    1  0.6125604E+000  0.9076745E+02  0.7546771E-02  0.1301004E+00
          2   -1    0    0  501    0  0.00000000000E+00  0.00000000000E+00  0.21903746101E+02  0.21903746101E+02  0.00000000000E+00 0. -1.
         -2   -1    0    0    0  501 -0.00000000000E+00 -0.00000000000E+00 -0.94033346222E+02  0.94033346222E+02  0.00000000000E+00 0.  1.
         23    2    1    2    0    0  0.00000000000E+00  0.00000000000E+00 -0.72129600121E+02  0.11593709232E+03  0.90767451010E+02 0.  0.
        -11    1    3    3    0    0  0.19476680543E+02 -0.15193326128E+02  0.12564947849E+02  0.27713826121E+02  0.00000000000E+00 0. -1.
         11    1    3    3    0    0 -0.19476680543E+02  0.15193326128E+02 -0.84694547969E+02  0.88223266203E+02  0.00000000000E+00 0.  1.
<mgrwt>
<rscale>  0 0.90767451E+02</rscale>
<asrwt>0</asrwt>
<pdfrwt beam="1">  1        2 0.33698071E-02 0.90767451E+02</pdfrwt>
<pdfrwt beam="2">  1       -2 0.14466669E-01 0.90767451E+02</pdfrwt>
<totfact> 0.82179202E+04</totfact>
</mgrwt>
</event>
<event>
 5    1  0.6125604E+000  0.9228001E+02  0.7546771E-02  0.1297422E+00
          2   -1    0    0  501    0  0.00000000000E+00  0.00000000000E+00  0.69867880954E+02  0.69867880954E+02  0.00000000000E+00 0. -1.
         -2   -1    0    0    0  501 -0.00000000000E+00 -0.00000000000E+00 -0.30470365736E+02  0.30470365736E+02  0.00000000000E+00 0.  1.
         23    2    1    2    0    0  0.00000000000E+00  0.00000000000E+00  0.39397515218E+02  0.10033824669E+03  0.92280006196E+02 0.  0.
        -11    1    3    3    0    0  0.35531494669E+02 -0.58394943188E+01  0.51067871600E+02  0.62486112993E+02  0.00000000000E+00 0. -1.
         11    1    3    3    0    0 -0.35531494669E+02  0.58394943188E+01 -0.11670356382E+02  0.37852133697E+02  0.00000000000E+00 0.  1.
<mgrwt>
<rscale>  0 0.92280006E+02</rscale>
<asrwt>0</asrwt>
<pdfrwt beam="1">  1        2 0.10748905E-01 0.92280006E+02</pdfrwt>
<pdfrwt beam="2">  1       -2 0.46877486E-02 0.92280006E+02</pdfrwt>
<totfact> 0.10689611E+05</totfact>
</mgrwt>
</event>
<event>
 5    1  0.6125604E+000  0.8981256E+02  0.7546771E-02  0.1303306E+00
         -2   -1    0    0    0  501 -0.00000000000E+00  0.00000000000E+00  0.20573518768E+02  0.20573518768E+02  0.00000000000E+00 0.  1.
          2   -1    0    0  501    0  0.00000000000E+00 -0.00000000000E+00 -0.98017936213E+02  0.98017936213E+02  0.00000000000E+00 0. -1.
         23    2    1    2    0    0  0.00000000000E+00  0.00000000000E+00 -0.77444417446E+02  0.11859145498E+03  0.89812557034E+02 0.  0.
        -11    1    3    3    0    0 -0.34829954405E+02 -0.15630842880E+02 -0.69944929417E+02  0.79685269179E+02  0.00000000000E+00 0.  1.
         11    1    3    3    0    0  0.34829954405E+02  0.15630842880E+02 -0.74994880293E+01  0.38906185802E+02  0.00000000000E+00 0. -1.
<mgrwt>
<rscale>  0 0.89812557E+02</rscale>
<asrwt>0</asrwt>
<pdfrwt beam="2">  1        2 0.15079683E-01 0.89812557E+02</pdfrwt>
<pdfrwt beam="1">  1       -2 0.31651567E-02 0.89812557E+02</pdfrwt>
<totfact> 0.12709435E+05</totfact>
</mgrwt>
</event>
<event>
 5    1  0.6125604E+000  0.9446191E+02  0.7546771E-02  0.1292393E+00
          1   -1    0    0  501    0  0.00000000000E+00  0.00000000000E+00  0.36590232463E+03  0.36590232463E+03  0.00000000000E+00 0.  1.
         -1   -1    0    0    0  501 -0.00000000000E+00 -0.00000000000E+00 -0.60966077906E+01  0.60966077906E+01  0.00000000000E+00 0. -1.
         23    2    1    2    0    0  0.00000000000E+00  0.00000000000E+00  0.35980571684E+03  0.37199893243E+03  0.94461906883E+02 0.  0.
        -11    1    3    3    0    0 -0.19798909137E+02 -0.42880795846E+02  0.18013609049E+03  0.18622505351E+03  0.00000000000E+00 0.  1.
         11    1    3    3    0    0  0.19798909137E+02  0.42880795846E+02  0.17966962635E+03  0.18577387892E+03  0.00000000000E+00 0. -1.
<mgrwt>
<rscale>  0 0.94461907E+02</rscale>
<asrwt>0</asrwt>
<pdfrwt beam="1">  1        1 0.56292648E-01 0.94461907E+02</pdfrwt>
<pdfrwt beam="2">  1       -1 0.93793995E-03 0.94461907E+02</pdfrwt>
<totfact> 0.12091322E+05</totfact>
</mgrwt>
</event>
<event>
 5    1  0.6125604E+000  0.9199833E+02  0.7546771E-02  0.1298083E+00
         -2   -1    0    0    0  501 -0.00000000000E+00  0.00000000000E+00  0.36840927452E+02  0.36840927452E+02  0.00000000000E+00 0.  1.
          2   -1    0    0  501    0  0.00000000000E+00 -0.00000000000E+00 -0.57434031137E+02  0.57434031137E+02  0.00000000000E+00 0. -1.
         23    2    1    2    0    0  0.00000000000E+00  0.00000000000E+00 -0.20593103685E+02  0.94274958589E+02  0.91998325515E+02 0.  0.
        -11    1    3    3    0    0 -0.30585478053E+02 -0.33869395942E+02 -0.43817559914E+01  0.45845471257E+02  0.00000000000E+00 0.  1.
         11    1    3    3    0    0  0.30585478053E+02  0.33869395942E+02 -0.16211347694E+02  0.48429487332E+02  0.00000000000E+00 0. -1.
<mgrwt>
<rscale>  0 0.91998326E+02</rscale>
<asrwt>0</asrwt>
<pdfrwt beam="2">  1        2 0.88360048E-02 0.91998326E+02</pdfrwt>
<pdfrwt beam="1">  1       -2 0.56678350E-02 0.91998326E+02</pdfrwt>
<totfact> 0.10220741E+05</totfact>
</mgrwt>
</event>
<event>
 5    1  0.6125604E+000  0.8721407E+02  0.7546771E-02  0.1309742E+00
          1   -1    0    0  501    0  0.00000000000E+00  0.00000000000E+00  0.38382001577E+02  0.38382001577E+02  0.00000000000E+00 0. -1.
         -1   -1    0    0    0  501 -0.00000000000E+00 -0.00000000000E+00 -0.49543365076E+02  0.49543365076E+02  0.00000000000E+00 0.  1.
         23    2    1    2    0    0  0.00000000000E+00  0.00000000000E+00 -0.11161363499E+02  0.87925366653E+02  0.87214070344E+02 0.  0.
        -11    1    3    3    0    0  0.40183390207E+02  0.51498160728E+01 -0.21847582133E+02  0.46027625392E+02  0.00000000000E+00 0.  1.
         11    1    3    3    0    0 -0.40183390207E+02 -0.51498160728E+01  0.10686218633E+02  0.41897741261E+02  0.00000000000E+00 0. -1.
<mgrwt>
<rscale>  0 0.87214070E+02</rscale>
<asrwt>0</asrwt>
<pdfrwt beam="1">  1        1 0.59049233E-02 0.87214070E+02</pdfrwt>
<pdfrwt beam="2">  1       -1 0.76220562E-02 0.87214070E+02</pdfrwt>
<totfact> 0.10211101E+05</totfact>
</mgrwt>
</event>
<event>
 5    1  0.6125604E+000  0.9039977E+02  0.7546771E-02  0.1301886E+00
         -3   -1    0    0    0  501 -0.00000000000E+00  0.00000000000E+00  0.42433005415E+02  0.42433005415E+02  0.00000000000E+00 0.  1.
          3   -1    0    0  501    0  0.00000000000E+00 -0.00000000000E+00 -0.48147181967E+02  0.48147181967E+02  0.00000000000E+00 0. -1.
         23    2    1    2    0    0  0.00000000000E+00  0.00000000000E+00 -0.57141765516E+01  0.90580187382E+02  0.90399770644E+02 0.  0.
        -11    1    3    3    0    0 -0.16270988810E+02  0.11299938003E+02  0.37851521828E+02  0.42722024536E+02  0.00000000000E+00 0.  1.
         11    1    3    3    0    0  0.16270988810E+02 -0.11299938003E+02 -0.43565698380E+02  0.47858162846E+02  0.00000000000E+00 0. -1.
<mgrwt>
<rscale>  0 0.90399771E+02</rscale>
<asrwt>0</asrwt>
<pdfrwt beam="2">  1        3 0.74072587E-02 0.90399771E+02</pdfrwt>
<pdfrwt beam="1">  1       -3 0.65281547E-02 0.90399771E+02</pdfrwt>
<totfact> 0.36218219E+04</totfact>
</mgrwt>
</event>
<event>
 5    1  0.6125604E+000  0.8983015E+02  0.7546771E-02  0.1303264E+00
         -3   -1    0    0    0  501 -0.00000000000E+00  0.00000000000E+00  0.30919323668E+02  0.30919323668E+02  0.00000000000E+00 0.  1.
          3   -1    0    0  501    0  0.00000000000E+00 -0.00000000000E+00 -0.65246056835E+02  0.65246056835E+02  0.00000000000E+00 0. -1.
         23    2    1    2    0    0  0.00000000000E+00  0.00000000000E+00 -0.34326733167E+02  0.96165380503E+02  0.89830149713E+02 0.  0.
        -11    1    3    3    0    0 -0.86388966874E+01  0.16552670778E+02 -0.60894556515E+02  0.63692766144E+02  0.00000000000E+00 0. -1.
         11    1    3    3    0    0  0.86388966874E+01 -0.16552670778E+02  0.26567823348E+02  0.32472614359E+02  0.00000000000E+00 0.  1.
<mgrwt>
<rscale>  0 0.89830150E+02</rscale>
<asrwt>0</asrwt>
<pdfrwt beam="2">  1        3 0.10037855E-01 0.89830150E+02</pdfrwt>
<pdfrwt beam="1">  1       -3 0.47568191E-02 0.89830150E+02</pdfrwt>
<totfact> 0.36399990E+04</totfact>
</mgrwt>
</event>
<event>
 5    1  0.6125604E+000  0.9350901E+02  0.7546771E-02  0.1294570E+00
          2   -1    0    0  501    0  0.00000000000E+00  0.00000000000E+00  0.12143800061E+03  0.12143800061E+03  0.00000000000E+00 0. -1.
         -2   -1    0    0    0  501 -0.00000000000E+00 -0.00000000000E+00 -0.18000820965E+02  0.18000820965E+02  0.00000000000E+00 0.  1.
         23    2    1    2    0    0  0.00000000000E+00  0.00000000000E+00  0.10343717964E+03  0.13943882157E+03  0.93509009347E+02 0.  0.
        -11    1    3    3    0    0  0.37125572863E+02 -0.48626537906E+00  0.93459878070E+01  0.38286970401E+02  0.00000000000E+00 0.  1.
         11    1    3    3    0    0 -0.37125572863E+02  0.48626537906E+00  0.94091191836E+02  0.10115185117E+03  0.00000000000E+00 0. -1.
<mgrwt>
<rscale>  0 0.93509009E+02</rscale>
<asrwt>0</asrwt>
<pdfrwt beam="1">  1        2 0.18682769E-01 0.93509009E+02</pdfrwt>
<pdfrwt beam="2">  1       -2 0.27693572E-02 0.93509009E+02</pdfrwt>
<totfact> 0.12164518E+05</totfact>
</mgrwt>
</event>
<event>
 5    1  0.6125604E+000  0.8987010E+02  0.7546771E-02  0.1303167E+00
         -1   -1    0    0    0  501 -0.00000000000E+00  0.00000000000E+00  0.89298250934E+01  0.89298250934E+01  0.00000000000E+00 0.  1.
          1   -1    0    0  501    0  0.00000000000E+00 -0.00000000000E+00 -0.22611400862E+03  0.22611400862E+03  0.00000000000E+00 0. -1.
         23    2    1    2    0    0  0.00000000000E+00  0.00000000000E+00 -0.21718418353E+03  0.23504383372E+03  0.89870096209E+02 0.  0.
        -11    1    3    3    0    0 -0.44824163975E+02 -0.20548214929E+01 -0.11485293705E+03  0.12330703596E+03  0.00000000000E+00 0.  1.
         11    1    3    3    0    0  0.44824163975E+02  0.20548214929E+01 -0.10233124648E+03  0.11173679776E+03  0.00000000000E+00 0. -1.
<mgrwt>
<rscale>  0 0.89870096E+02</rscale>
<asrwt>0</asrwt>
<pdfrwt beam="2">  1        1 0.34786768E-01 0.89870096E+02</pdfrwt>
<pdfrwt beam="1">  1       -1 0.13738194E-02 0.89870096E+02</pdfrwt>
<totfact> 0.12604041E+05</totfact>
</mgrwt>
</event>
<event>
 5    1  0.6125604E+000  0.9203497E+02  0.7546771E-02  0.1297997E+00
          3   -1    0    0  501    0  0.00000000000E+00  0.00000000000E+00  0.23951416937E+03  0.23951416937E+03  0.00000000000E+00 0. -1.
         -3   -1    0    0    0  501 -0.00000000000E+00 -0.00000000000E+00 -0.88412676261E+01  0.88412676261E+01  0.00000000000E+00 0.  1.
         23    2    1    2    0    0  0.00000000000E+00  0.00000000000E+00  0.23067290174E+03  0.24835543700E+03  0.92034968824E+02 0.  0.
        -11    1    3    3    0    0 -0.35074688656E+02  0.99493890183E+01  0.39567738172E+02  0.53803624694E+02  0.00000000000E+00 0.  1.
         11    1    3    3    0    0  0.35074688656E+02 -0.99493890183E+01  0.19110516357E+03  0.19455181230E+03  0.00000000000E+00 0. -1.
<mgrwt>
<rscale>  0 0.92034969E+02</rscale>
<asrwt>0</asrwt>
<pdfrwt beam="1">  1        3 0.36848329E-01 0.92034969E+02</pdfrwt>
<pdfrwt beam="2">  1       -3 0.13601952E-02 0.92034969E+02</pdfrwt>
<totfact> 0.25524333E+04</totfact>
</mgrwt>
</event>
<event>
 5    1  0.6125604E+000  0.9080544E+02  0.7546771E-02  0.1300913E+00
          2   -1    0    0  501    0  0.00000000000E+00  0.00000000000E+00  0.23736425917E+03  0.23736425917E+03  0.00000000000E+00 0. -1.
         -2   -1    0    0    0  501 -0.00000000000E+00 -0.00000000000E+00 -0.86845726972E+01  0.86845726972E+01  0.00000000000E+00 0.  1.
         23    2    1    2    0    0  0.00000000000E+00  0.00000000000E+00  0.22867968648E+03  0.24604883187E+03  0.90805443989E+02 0.  0.
        -11    1    3    3    0    0  0.42697131075E+02  0.14586776206E+02  0.12804640828E+03  0.13576340345E+03  0.00000000000E+00 0.  1.
         11    1    3    3    0    0 -0.42697131075E+02 -0.14586776206E+02  0.10063327820E+03  0.11028542842E+03  0.00000000000E+00 0. -1.
<mgrwt>
<rscale>  0 0.90805444E+02</rscale>
<asrwt>0</asrwt>
<pdfrwt beam="1">  1        2 0.36517573E-01 0.90805444E+02</pdfrwt>
<pdfrwt beam="2">  1       -2 0.13360883E-02 0.90805444E+02</pdfrwt>
<totfact> 0.16648597E+05</totfact>
</mgrwt>
</event>
<event>
 5    1  0.6125604E+000  0.9228756E+02  0.7546771E-02  0.1297405E+00
         -2   -1    0    0    0  501 -0.00000000000E+00  0.00000000000E+00  0.73508414618E+01  0.73508414618E+01  0.00000000000E+00 0.  1.
          2   -1    0    0  501    0  0.00000000000E+00 -0.00000000000E+00 -0.28966052606E+03  0.28966052606E+03  0.00000000000E+00 0. -1.
         23    2    1    2    0    0  0.00000000000E+00  0.00000000000E+00 -0.28230968460E+03  0.29701136752E+03  0.92287563730E+02 0.  0.
        -11    1    3    3    0    0  0.38284608319E+02  0.16732948741E+02 -0.78126119885E+02  0.88596802515E+02  0.00000000000E+00 0.  1.
         11    1    3    3    0    0 -0.38284608319E+02 -0.16732948741E+02 -0.20418356471E+03  0.20841456501E+03  0.00000000000E+00 0. -1.
<mgrwt>
<rscale>  0 0.92287564E+02</rscale>
<asrwt>0</asrwt>
<pdfrwt beam="2">  1        2 0.44563155E-01 0.92287564E+02</pdfrwt>
<pdfrwt beam="1">  1       -2 0.11308988E-02 0.92287564E+02</pdfrwt>
<totfact> 0.17167850E+05</totfact>
</mgrwt>
</event>
<event>
 5    1  0.6125604E+000  0.9485883E+02  0.7546771E-02  0.1291494E+00
          1   -1    0    0  501    0  0.00000000000E+00  0.00000000000E+00  0.31678810055E+02  0.31678810055E+02  0.00000000000E+00 0. -1.
         -1   -1    0    0    0  501 -0.00000000000E+00 -0.00000000000E+00 -0.71011174767E+02  0.71011174767E+02  0.00000000000E+00 0.  1.
         23    2    1    2    0    0  0.00000000000E+00  0.00000000000E+00 -0.39332364711E+02  0.10268998482E+03  0.94858832319E+02 0.  0.
        -11    1    3    3    0    0 -0.14783317109E+02 -0.14960739395E+02 -0.65686640785E+02  0.68971769338E+02  0.00000000000E+00 0.  1.
         11    1    3    3    0    0  0.14783317109E+02  0.14960739395E+02  0.26354276074E+02  0.33718215483E+02  0.00000000000E+00 0. -1.
<mgrwt>
<rscale>  0 0.94858832E+02</rscale>
<asrwt>0</asrwt>
<pdfrwt beam="1">  1        1 0.48736631E-02 0.94858832E+02</pdfrwt>
<pdfrwt beam="2">  1       -1 0.10924796E-01 0.94858832E+02</pdfrwt>
<totfact> 0.78036787E+04</totfact>
</mgrwt>
</event>
<event>
 5    1  0.6125604E+000  0.9185308E+02  0.7546771E-02  0.1298425E+00
         -1   -1    0    0    0  501 -0.00000000000E+00  0.00000000000E+00  0.10108718656E+02  0.10108718656E+02  0.00000000000E+00 0.  1.
          1   -1    0    0  501    0  0.00000000000E+00 -0.00000000000E+00 -0.20865624614E+03  0.20865624614E+03  0.00000000000E+00 0. -1.
         23    2    1    2    0    0  0.00000000000E+00  0.00000000000E+00 -0.19854752749E+03  0.21876496480E+03  0.91853084611E+02 0.  0.
        -11    1    3    3    0    0 -0.81193280470E+01  0.44977388015E+02 -0.88527549350E+02  0.99629392824E+02  0.00000000000E+00 0.  1.
         11    1    3    3    0    0  0.81193280470E+01 -0.44977388015E+02 -0.11001997814E+03  0.11913557197E+03  0.00000000000E+00 0. -1.
<mgrwt>
<rscale>  0 0.91853085E+02</rscale>
<asrwt>0</asrwt>
<pdfrwt beam="2">  1        1 0.32100960E-01 0.91853085E+02</pdfrwt>
<pdfrwt beam="1">  1       -1 0.15551875E-02 0.91853085E+02</pdfrwt>
<totfact> 0.11704128E+05</totfact>
</mgrwt>
</event>
<event>
 5    1  0.6125604E+000  0.8367126E+02  0.7546771E-02  0.1318944E+00
         -1   -1    0    0    0  501 -0.00000000000E+00  0.00000000000E+00  0.97969930192E+01  0.97969930192E+01  0.00000000000E+00 0.  1.
          1   -1    0    0  501    0  0.00000000000E+00 -0.00000000000E+00 -0.17864866825E+03  0.17864866825E+03  0.00000000000E+00 0. -1.
         23    2    1    2    0    0  0.00000000000E+00  0.00000000000E+00 -0.16885167523E+03  0.18844566127E+03  0.83671255655E+02 0.  0.
        -11    1    3    3    0    0  0.36418697112E+02 -0.16350504362E+02 -0.11260637309E+03  0.11947324283E+03  0.00000000000E+00 0.  1.
         11    1    3    3    0    0 -0.36418697112E+02  0.16350504362E+02 -0.56245302140E+02  0.68972418437E+02  0.00000000000E+00 0. -1.
<mgrwt>
<rscale>  0 0.83671256E+02</rscale>
<asrwt>0</asrwt>
<pdfrwt beam="2">  1        1 0.27484409E-01 0.83671256E+02</pdfrwt>
<pdfrwt beam="1">  1       -1 0.15072298E-02 0.83671256E+02</pdfrwt>
<totfact> 0.14576701E+05</totfact>
</mgrwt>
</event>
<event>
 5    1  0.6125604E+000  0.9332235E+02  0.7546771E-02  0.1295000E+00
          1   -1    0    0  501    0  0.00000000000E+00  0.00000000000E+00  0.99577530202E+02  0.99577530202E+02  0.00000000000E+00 0. -1.
         -1   -1    0    0    0  501 -0.00000000000E+00 -0.00000000000E+00 -0.21865027184E+02  0.21865027184E+02  0.00000000000E+00 0.  1.
         23    2    1    2    0    0  0.00000000000E+00  0.00000000000E+00  0.77712503018E+02  0.12144255739E+03  0.93322353267E+02 0.  0.
        -11    1    3    3    0    0  0.26513980558E+02  0.30180413545E+02  0.69744988368E+02  0.80487340180E+02  0.00000000000E+00 0. -1.
         11    1    3    3    0    0 -0.26513980558E+02 -0.30180413545E+02  0.79675146500E+01  0.40955217207E+02  0.00000000000E+00 0.  1.
<mgrwt>
<rscale>  0 0.93322353E+02</rscale>
<asrwt>0</asrwt>
<pdfrwt beam="1">  1        1 0.15319620E-01 0.93322353E+02</pdfrwt>
<pdfrwt beam="2">  1       -1 0.33638504E-02 0.93322353E+02</pdfrwt>
<totfact> 0.97949939E+04</totfact>
</mgrwt>
</event>
<event>
 5    1  0.6125604E+000  0.9262522E+02  0.7546771E-02  0.1296616E+00
          2   -1    0    0  501    0  0.00000000000E+00  0.00000000000E+00  0.10083661356E+03  0.10083661356E+03  0.00000000000E+00 0.  1.
         -2   -1    0    0    0  501 -0.00000000000E+00 -0.00000000000E+00 -0.21270625972E+02  0.21270625972E+02  0.00000000000E+00 0. -1.
         23    2    1    2    0    0  0.00000000000E+00  0.00000000000E+00  0.79565987586E+02  0.12210723953E+03  0.92625220999E+02 0.  0.
        -11    1    3    3    0    0 -0.19992483876E+02 -0.33670874310E+01  0.94675658138E+02  0.96822089076E+02  0.00000000000E+00 0.  1.
         11    1    3    3    0    0  0.19992483876E+02  0.33670874310E+01 -0.15109670551E+02  0.25285150454E+02  0.00000000000E+00 0. -1.
<mgrwt>
<rscale>  0 0.92625221E+02</rscale>
<asrwt>0</asrwt>
<pdfrwt beam="1">  1        2 0.15513325E-01 0.92625221E+02</pdfrwt>
<pdfrwt beam="2">  1       -2 0.32724041E-02 0.92625221E+02</pdfrwt>
<totfact> 0.11775714E+05</totfact>
</mgrwt>
</event>
<event>
 5    1  0.6125604E+000  0.9154998E+02  0.7546771E-02  0.1299141E+00
         -3   -1    0    0    0  501 -0.00000000000E+00  0.00000000000E+00  0.98481435558E+02  0.98481435558E+02  0.00000000000E+00 0.  1.
          3   -1    0    0  501    0  0.00000000000E+00 -0.00000000000E+00 -0.21276596669E+02  0.21276596669E+02  0.00000000000E+00 0. -1.
         23    2    1    2    0    0  0.00000000000E+00  0.00000000000E+00  0.77204838889E+02  0.11975803223E+03  0.91549981623E+02 0.  0.
        -11    1    3    3    0    0  0.19689227192E+02  0.36871536266E+02  0.63011111855E+02  0.75614655135E+02  0.00000000000E+00 0.  1.
         11    1    3    3    0    0 -0.19689227192E+02 -0.36871536266E+02  0.14193727034E+02  0.44143377092E+02  0.00000000000E+00 0. -1.
<mgrwt>
<rscale>  0 0.91549982E+02</rscale>
<asrwt>0</asrwt>
<pdfrwt beam="2">  1        3 0.32733226E-02 0.91549982E+02</pdfrwt>
<pdfrwt beam="1">  1       -3 0.15150990E-01 0.91549982E+02</pdfrwt>
<totfact> 0.32896915E+04</totfact>
</mgrwt>
</event>
<event>
 5    1  0.6125604E+000  0.1004369E+03  0.7546771E-02  0.1279380E+00
         -1   -1    0    0    0  501 -0.00000000000E+00  0.00000000000E+00  0.66579701935E+02  0.66579701935E+02  0.00000000000E+00 0.  1.
          1   -1    0    0  501    0  0.00000000000E+00 -0.00000000000E+00 -0.37877812656E+02  0.37877812656E+02  0.00000000000E+00 0. -1.
         23    2    1    2    0    0  0.00000000000E+00  0.00000000000E+00  0.28701889278E+02  0.10445751459E+03  0.10043691506E+03 0.  0.
        -11    1    3    3    0    0  0.41666592634E+02  0.59934075046E+01 -0.14128965747E+02  0.44403305601E+02  0.00000000000E+00 0. -1.
         11    1    3    3    0    0 -0.41666592634E+02 -0.59934075046E+01  0.42830855026E+02  0.60054208990E+02  0.00000000000E+00 0.  1.
<mgrwt>
<rscale>  0 0.10043692E+03</rscale>
<asrwt>0</asrwt>
<pdfrwt beam="2">  1        1 0.58273558E-02 0.10043692E+03</pdfrwt>
<pdfrwt beam="1">  1       -1 0.10243031E-01 0.10043692E+03</pdfrwt>
<totfact> 0.68185318E+04</totfact>
</mgrwt>
</event>
<event>
 5    1  0.6125604E+000  0.9110479E+02  0.7546771E-02  0.1300198E+00
         -4   -1    0    0    0  501 -0.00000000000E+00  0.00000000000E+00  0.57333723981E+01  0.57333723981E+01  0.00000000000E+00 0.  1.
          4   -1    0    0  501    0  0.00000000000E+00 -0.00000000000E+00 -0.36191972899E+03  0.36191972899E+03  0.00000000000E+00 0. -1.
         23    2    1    2    0    0  0.00000000000E+00  0.00000000000E+00 -0.35618635659E+03  0.36765310138E+03  0.91104787679E+02 0.  0.
        -11    1    3    3    0    0  0.31492646023E+02  0.32904614816E+02 -0.18100364979E+03  0.18664624739E+03  0.00000000000E+00 0.  1.
         11    1    3    3    0    0 -0.31492646023E+02 -0.32904614816E+02 -0.17518270680E+03  0.18100685399E+03  0.00000000000E+00 0. -1.
<mgrwt>
<rscale>  0 0.91104788E+02</rscale>
<asrwt>0</asrwt>
<pdfrwt beam="2">  1        4 0.55679977E-01 0.91104788E+02</pdfrwt>
<pdfrwt beam="1">  1       -4 0.88205700E-03 0.91104788E+02</pdfrwt>
<totfact> 0.15971470E+04</totfact>
</mgrwt>
</event>
<event>
 5    1  0.6125604E+000  0.9316988E+02  0.7546771E-02  0.1295352E+00
         -2   -1    0    0    0  501 -0.00000000000E+00  0.00000000000E+00  0.94532057993E+01  0.94532057993E+01  0.00000000000E+00 0.  1.
          2   -1    0    0  501    0  0.00000000000E+00 -0.00000000000E+00 -0.22956833858E+03  0.22956833858E+03  0.00000000000E+00 0. -1.
         23    2    1    2    0    0  0.00000000000E+00  0.00000000000E+00 -0.22011513278E+03  0.23902154438E+03  0.93169882464E+02 0.  0.
        -11    1    3    3    0    0  0.43948547537E+02  0.15377230782E+02 -0.11388229999E+03  0.12303297245E+03  0.00000000000E+00 0.  1.
         11    1    3    3    0    0 -0.43948547537E+02 -0.15377230782E+02 -0.10623283279E+03  0.11598857193E+03  0.00000000000E+00 0. -1.
<mgrwt>
<rscale>  0 0.93169882E+02</rscale>
<asrwt>0</asrwt>
<pdfrwt beam="2">  1        2 0.35318203E-01 0.93169882E+02</pdfrwt>
<pdfrwt beam="1">  1       -2 0.14543395E-02 0.93169882E+02</pdfrwt>
<totfact> 0.15347458E+05</totfact>
</mgrwt>
</event>
<event>
 5    1  0.6125604E+000  0.9185557E+02  0.7546771E-02  0.1298419E+00
         -2   -1    0    0    0  501 -0.00000000000E+00  0.00000000000E+00  0.23359255609E+02  0.23359255609E+02  0.00000000000E+00 0.  1.
          2   -1    0    0  501    0  0.00000000000E+00 -0.00000000000E+00 -0.90300892069E+02  0.90300892069E+02  0.00000000000E+00 0. -1.
         23    2    1    2    0    0  0.00000000000E+00  0.00000000000E+00 -0.66941636460E+02  0.11366014768E+03  0.91855574019E+02 0.  0.
        -11    1    3    3    0    0 -0.27417543061E+02 -0.35888917173E+02 -0.43795747890E+02  0.62911076740E+02  0.00000000000E+00 0.  1.
         11    1    3    3    0    0  0.27417543061E+02  0.35888917173E+02 -0.23145888570E+02  0.50749070938E+02  0.00000000000E+00 0. -1.
<mgrwt>
<rscale>  0 0.91855574E+02</rscale>
<asrwt>0</asrwt>
<pdfrwt beam="2">  1        2 0.13892445E-01 0.91855574E+02</pdfrwt>
<pdfrwt beam="1">  1       -2 0.35937317E-02 0.91855574E+02</pdfrwt>
<totfact> 0.11655766E+05</totfact>
</mgrwt>
</event>
<event>
 5    1  0.6125604E+000  0.9120621E+02  0.7546771E-02  0.1299957E+00
          3   -1    0    0  501    0  0.00000000000E+00  0.00000000000E+00  0.12976351320E+03  0.12976351320E+03  0.00000000000E+00 0. -1.
         -3   -1    0    0    0  501 -0.00000000000E+00 -0.00000000000E+00 -0.16026410827E+02  0.16026410827E+02  0.00000000000E+00 0.  1.
         23    2    1    2    0    0  0.00000000000E+00  0.00000000000E+00  0.11373710238E+03  0.14578992403E+03  0.91206214107E+02 0.  0.
        -11    1    3    3    0    0  0.35665412294E+02  0.17564143358E+02  0.92579936798E+02  0.10075497736E+03  0.00000000000E+00 0.  1.
         11    1    3    3    0    0 -0.35665412294E+02 -0.17564143358E+02  0.21157165579E+02  0.45034946667E+02  0.00000000000E+00 0. -1.
<mgrwt>
<rscale>  0 0.91206214E+02</rscale>
<asrwt>0</asrwt>
<pdfrwt beam="1">  1        3 0.19963617E-01 0.91206214E+02</pdfrwt>
<pdfrwt beam="2">  1       -3 0.24656017E-02 0.91206214E+02</pdfrwt>
<totfact> 0.31538968E+04</totfact>
</mgrwt>
</event>
<event>
 5    1  0.6125604E+000  0.9029666E+02  0.7546771E-02  0.1302135E+00
          1   -1    0    0  501    0  0.00000000000E+00  0.00000000000E+00  0.19090431804E+03  0.19090431804E+03  0.00000000000E+00 0. -1.
         -1   -1    0    0    0  501 -0.00000000000E+00 -0.00000000000E+00 -0.10677451359E+02  0.10677451359E+02  0.00000000000E+00 0.  1.
         23    2    1    2    0    0  0.00000000000E+00  0.00000000000E+00  0.18022686668E+03  0.20158176940E+03  0.90296657081E+02 0.  0.
        -11    1    3    3    0    0  0.19471128097E+01 -0.32384921219E+02  0.20020639563E+02  0.38123488549E+02  0.00000000000E+00 0.  1.
         11    1    3    3    0    0 -0.19471128097E+01  0.32384921219E+02  0.16020622712E+03  0.16345828085E+03  0.00000000000E+00 0. -1.
<mgrwt>
<rscale>  0 0.90296657E+02</rscale>
<asrwt>0</asrwt>
<pdfrwt beam="1">  1        1 0.29369892E-01 0.90296657E+02</pdfrwt>
<pdfrwt beam="2">  1       -1 0.16426850E-02 0.90296657E+02</pdfrwt>
<totfact> 0.12043678E+05</totfact>
</mgrwt>
</event>
<event>
 5    1  0.6125604E+000  0.9104600E+02  0.7546771E-02  0.1300338E+00
         -2   -1    0    0    0  501 -0.00000000000E+00  0.00000000000E+00  0.97431359080E+01  0.97431359080E+01  0.00000000000E+00 0. -1.
          2   -1    0    0  501    0  0.00000000000E+00 -0.00000000000E+00 -0.21269778000E+03  0.21269778000E+03  0.00000000000E+00 0.  1.
         23    2    1    2    0    0  0.00000000000E+00  0.00000000000E+00 -0.20295464409E+03  0.22244091591E+03  0.91045996680E+02 0.  0.
        -11    1    3    3    0    0  0.39510436763E+02  0.22511448382E+02 -0.10666205987E+03  0.11595100231E+03  0.00000000000E+00 0. -1.
         11    1    3    3    0    0 -0.39510436763E+02 -0.22511448382E+02 -0.96292584221E+02  0.10648991359E+03  0.00000000000E+00 0.  1.
<mgrwt>
<rscale>  0 0.91045997E+02</rscale>
<asrwt>0</asrwt>
<pdfrwt beam="2">  1        2 0.32722736E-01 0.91045997E+02</pdfrwt>
<pdfrwt beam="1">  1       -2 0.14989440E-02 0.91045997E+02</pdfrwt>
<totfact> 0.15878909E+05</totfact>
</mgrwt>
</event>
<event>
 5    1  0.6125604E+000  0.9093586E+02  0.7546771E-02  0.1300601E+00
          1   -1    0    0  501    0  0.00000000000E+00  0.00000000000E+00  0.10560381781E+03  0.10560381781E+03  0.00000000000E+00 0. -1.
         -1   -1    0    0    0  501 -0.00000000000E+00 -0.00000000000E+00 -0.19576305864E+02  0.19576305864E+02  0.00000000000E+00 0.  1.
         23    2    1    2    0    0  0.00000000000E+00  0.00000000000E+00  0.86027511944E+02  0.12518012367E+03  0.90935859544E+02 0.  0.
        -11    1    3    3    0    0 -0.12052027298E+02 -0.23345754385E+02 -0.80692168025E+01  0.27484320432E+02  0.00000000000E+00 0.  1.
         11    1    3    3    0    0  0.12052027298E+02  0.23345754385E+02  0.94096728746E+02  0.97695803239E+02  0.00000000000E+00 0. -1.
<mgrwt>
<rscale>  0 0.90935860E+02</rscale>
<asrwt>0</asrwt>
<pdfrwt beam="1">  1        1 0.16246741E-01 0.90935860E+02</pdfrwt>
<pdfrwt beam="2">  1       -1 0.30117394E-02 0.90935860E+02</pdfrwt>
<totfact> 0.10617136E+05</totfact>
</mgrwt>
</event>
<event>
 5    1  0.6125604E+000  0.9297026E+02  0.7546771E-02  0.1295814E+00
         -2   -1    0    0    0  501 -0.00000000000E+00  0.00000000000E+00  0.11355546159E+02  0.11355546159E+02  0.00000000000E+00 0.  1.
          2   -1    0    0  501    0  0.00000000000E+00 -0.00000000000E+00 -0.19029180436E+03  0.19029180436E+03  0.00000000000E+00 0. -1.
         23    2    1    2    0    0  0.00000000000E+00  0.00000000000E+00 -0.17893625820E+03  0.20164735051E+03  0.92970261225E+02 0.  0.
        -11    1    3    3    0    0 -0.33685976740E+02 -0.23707085173E+02 -0.13619348229E+03  0.14228645591E+03  0.00000000000E+00 0. -1.
         11    1    3    3    0    0  0.33685976740E+02  0.23707085173E+02 -0.42742775905E+02  0.59360894606E+02  0.00000000000E+00 0.  1.
<mgrwt>
<rscale>  0 0.92970261E+02</rscale>
<asrwt>0</asrwt>
<pdfrwt beam="2">  1        2 0.29275664E-01 0.92970261E+02</pdfrwt>
<pdfrwt beam="1">  1       -2 0.17470070E-02 0.92970261E+02</pdfrwt>
<totfact> 0.14414516E+05</totfact>
</mgrwt>
</event>
<event>
 5    1  0.6125604E+000  0.8852247E+02  0.7546771E-02  0.1306470E+00
          2   -1    0    0  501    0  0.00000000000E+00  0.00000000000E+00  0.11966239351E+03  0.11966239351E+03  0.00000000000E+00 0.  1.
         -2   -1    0    0    0  501 -0.00000000000E+00 -0.00000000000E+00 -0.16371535536E+02  0.16371535536E+02  0.00000000000E+00 0. -1.
         23    2    1    2    0    0  0.00000000000E+00  0.00000000000E+00  0.10329085797E+03  0.13603392905E+03  0.88522474608E+02 0.  0.
        -11    1    3    3    0    0  0.42229649652E+02 -0.12992326753E+02  0.55685930290E+02  0.71084925943E+02  0.00000000000E+00 0.  1.
         11    1    3    3    0    0 -0.42229649652E+02  0.12992326753E+02  0.47604927684E+02  0.64949003102E+02  0.00000000000E+00 0. -1.
<mgrwt>
<rscale>  0 0.88522475E+02</rscale>
<asrwt>0</asrwt>
<pdfrwt beam="1">  1        2 0.18409598E-01 0.88522475E+02</pdfrwt>
<pdfrwt beam="2">  1       -2 0.25186979E-02 0.88522475E+02</pdfrwt>
<totfact> 0.14063138E+05</totfact>
</mgrwt>
</event>
<event>
 5    1  0.6125604E+000  0.8696931E+02  0.7546771E-02  0.1310361E+00
         -1   -1    0    0    0  501 -0.00000000000E+00  0.00000000000E+00  0.27432492699E+02  0.27432492699E+02  0.00000000000E+00 0.  1.
          1   -1    0    0  501    0  0.00000000000E+00 -0.00000000000E+00 -0.68929769314E+02  0.68929769314E+02  0.00000000000E+00 0. -1.
         23    2    1    2    0    0  0.00000000000E+00  0.00000000000E+00 -0.41497276616E+02  0.96362262013E+02  0.86969313978E+02 0.  0.
        -11    1    3    3    0    0  0.23181514026E+02 -0.21637842979E+02  0.12219554335E+02  0.33983765969E+02  0.00000000000E+00 0.  1.
         11    1    3    3    0    0 -0.23181514026E+02  0.21637842979E+02 -0.53716830951E+02  0.62378496044E+02  0.00000000000E+00 0. -1.
<mgrwt>
<rscale>  0 0.86969314E+02</rscale>
<asrwt>0</asrwt>
<pdfrwt beam="2">  1        1 0.10604580E-01 0.86969314E+02</pdfrwt>
<pdfrwt beam="1">  1       -1 0.42203835E-02 0.86969314E+02</pdfrwt>
<totfact> 0.11207817E+05</totfact>
</mgrwt>
</event>
<event>
 5    1  0.6125604E+000  0.9121984E+02  0.7546771E-02  0.1299924E+00
          2   -1    0    0  501    0  0.00000000000E+00  0.00000000000E+00  0.42753528456E+02  0.42753528456E+02  0.00000000000E+00 0. -1.
         -2   -1    0    0    0  501 -0.00000000000E+00 -0.00000000000E+00 -0.48657151758E+02  0.48657151758E+02  0.00000000000E+00 0.  1.
         23    2    1    2    0    0  0.00000000000E+00  0.00000000000E+00 -0.59036233022E+01  0.91410680214E+02  0.91219842628E+02 0.  0.
        -11    1    3    3    0    0  0.22525271832E+02 -0.77303135487E+01  0.36028401349E+02  0.43187860823E+02  0.00000000000E+00 0. -1.
         11    1    3    3    0    0 -0.22525271832E+02  0.77303135487E+01 -0.41932024652E+02  0.48222819391E+02  0.00000000000E+00 0.  1.
<mgrwt>
<rscale>  0 0.91219843E+02</rscale>
<asrwt>0</asrwt>
<pdfrwt beam="1">  1        2 0.65774660E-02 0.91219843E+02</pdfrwt>
<pdfrwt beam="2">  1       -2 0.74857156E-02 0.91219843E+02</pdfrwt>
<totfact> 0.96914255E+04</totfact>
</mgrwt>
</event>
<event>
 5    1  0.6125604E+000  0.9105914E+02  0.7546771E-02  0.1300307E+00
         -2   -1    0    0    0  501 -0.00000000000E+00  0.00000000000E+00  0.18749688729E+02  0.18749688729E+02  0.00000000000E+00 0.  1.
          2   -1    0    0  501    0  0.00000000000E+00 -0.00000000000E+00 -0.11055873541E+03  0.11055873541E+03  0.00000000000E+00 0. -1.
         23    2    1    2    0    0  0.00000000000E+00  0.00000000000E+00 -0.91809046682E+02  0.12930842414E+03  0.91059142873E+02 0.  0.
        -11    1    3    3    0    0 -0.26164706144E+02  0.37258455511E+02 -0.45340922147E+02  0.64254054936E+02  0.00000000000E+00 0.  1.
         11    1    3    3    0    0  0.26164706144E+02 -0.37258455511E+02 -0.46468124535E+02  0.65054369204E+02  0.00000000000E+00 0. -1.
<mgrwt>
<rscale>  0 0.91059143E+02</rscale>
<asrwt>0</asrwt>
<pdfrwt beam="2">  1        2 0.17009036E-01 0.91059143E+02</pdfrwt>
<pdfrwt beam="1">  1       -2 0.28845675E-02 0.91059143E+02</pdfrwt>
<totfact> 0.12698773E+05</totfact>
</mgrwt>
</event>
<event>
 5    1  0.6125604E+000  0.8637079E+02  0.7546771E-02  0.1311886E+00
          1   -1    0    0  501    0  0.00000000000E+00  0.00000000000E+00  0.95294303803E+01  0.95294303803E+01  0.00000000000E+00 0. -1.
         -1   -1    0    0    0  501 -0.00000000000E+00 -0.00000000000E+00 -0.19570720919E+03  0.19570720919E+03  0.00000000000E+00 0.  1.
         23    2    1    2    0    0  0.00000000000E+00  0.00000000000E+00 -0.18617777881E+03  0.20523663957E+03  0.86370787304E+02 0.  0.
        -11    1    3    3    0    0  0.28329207965E+02  0.93136398944E+01 -0.16731283098E+03  0.16994961407E+03  0.00000000000E+00 0.  1.
         11    1    3    3    0    0 -0.28329207965E+02 -0.93136398944E+01 -0.18864947829E+02  0.35287025499E+02  0.00000000000E+00 0. -1.
<mgrwt>
<rscale>  0 0.86370787E+02</rscale>
<asrwt>0</asrwt>
<pdfrwt beam="1">  1        1 0.14660662E-02 0.86370787E+02</pdfrwt>
<pdfrwt beam="2">  1       -1 0.30108801E-01 0.86370787E+02</pdfrwt>
<totfact> 0.80409425E+04</totfact>
</mgrwt>
</event>
<event>
 5    1  0.6125604E+000  0.9191075E+02  0.7546771E-02  0.1298289E+00
          1   -1    0    0  501    0  0.00000000000E+00  0.00000000000E+00  0.58793971120E+02  0.58793971120E+02  0.00000000000E+00 0. -1.
         -1   -1    0    0    0  501 -0.00000000000E+00 -0.00000000000E+00 -0.35920288842E+02  0.35920288842E+02  0.00000000000E+00 0.  1.
         23    2    1    2    0    0  0.00000000000E+00  0.00000000000E+00  0.22873682277E+02  0.94714259962E+02  0.91910748551E+02 0.  0.
        -11    1    3    3    0    0 -0.31534070051E+02 -0.23929491329E+02  0.35491478915E+02  0.53166372876E+02  0.00000000000E+00 0. -1.
         11    1    3    3    0    0  0.31534070051E+02  0.23929491329E+02 -0.12617796637E+02  0.41547887085E+02  0.00000000000E+00 0.  1.
<mgrwt>
<rscale>  0 0.91910749E+02</rscale>
<asrwt>0</asrwt>
<pdfrwt beam="1">  1        1 0.90452263E-02 0.91910749E+02</pdfrwt>
<pdfrwt beam="2">  1       -1 0.55261983E-02 0.91910749E+02</pdfrwt>
<totfact> 0.93957905E+04</totfact>
</mgrwt>
</event>
<event>
 5    1  0.6125604E+000  0.9353485E+02  0.7546771E-02  0.1294510E+00
          2   -1    0    0  501    0  0.00000000000E+00  0.00000000000E+00  0.20008299827E+03  0.20008299827E+03  0.00000000000E+00 0.  1.
         -2   -1    0    0    0  501 -0.00000000000E+00 -0.00000000000E+00 -0.10931422925E+02  0.10931422925E+02  0.00000000000E+00 0. -1.
         23    2    1    2    0    0  0.00000000000E+00  0.00000000000E+00  0.18915157535E+03  0.21101442120E+03  0.93534846433E+02 0.  0.
        -11    1    3    3    0    0 -0.27833174236E+02  0.28922062151E+02  0.14872070685E+03  0.15404226664E+03  0.00000000000E+00 0.  1.
         11    1    3    3    0    0  0.27833174236E+02 -0.28922062151E+02  0.40430868499E+02  0.56972154555E+02  0.00000000000E+00 0. -1.
<mgrwt>
<rscale>  0 0.93534846E+02</rscale>
<asrwt>0</asrwt>
<pdfrwt beam="1">  1        2 0.30781997E-01 0.93534846E+02</pdfrwt>
<pdfrwt beam="2">  1       -2 0.16817575E-02 0.93534846E+02</pdfrwt>
<totfact> 0.14440277E+05</totfact>
</mgrwt>
</event>
<event>
 5    1  0.6125604E+000  0.8952692E+02  0.7546771E-02  0.1304001E+00
          3   -1    0    0  501    0  0.00000000000E+00  0.00000000000E+00  0.20554353117E+03  0.20554353117E+03  0.00000000000E+00 0. -1.
         -3   -1    0    0    0  501 -0.00000000000E+00 -0.00000000000E+00 -0.97486269421E+01  0.97486269421E+01  0.00000000000E+00 0.  1.
         23    2    1    2    0    0  0.00000000000E+00  0.00000000000E+00  0.19579490423E+03  0.21529215811E+03  0.89526916751E+02 0.  0.
        -11    1    3    3    0    0  0.30071605800E+02  0.32831760025E+02  0.86736270486E+02  0.97495674568E+02  0.00000000000E+00 0.  1.
         11    1    3    3    0    0 -0.30071605800E+02 -0.32831760025E+02  0.10905863374E+03  0.11779648354E+03  0.00000000000E+00 0. -1.
<mgrwt>
<rscale>  0 0.89526917E+02</rscale>
<asrwt>0</asrwt>
<pdfrwt beam="1">  1        3 0.31622079E-01 0.89526917E+02</pdfrwt>
<pdfrwt beam="2">  1       -3 0.14997889E-02 0.89526917E+02</pdfrwt>
<totfact> 0.29122396E+04</totfact>
</mgrwt>
</event>
<event>
 5    1  0.6125604E+000  0.9221870E+02  0.7546771E-02  0.1297566E+00
          1   -1    0    0  501    0  0.00000000000E+00  0.00000000000E+00  0.35257941880E+02  0.35257941880E+02  0.00000000000E+00 0. -1.
         -1   -1    0    0    0  501 -0.00000000000E+00 -0.00000000000E+00 -0.60300512761E+02  0.60300512761E+02  0.00000000000E+00 0.  1.
         23    2    1    2    0    0  0.00000000000E+00  0.00000000000E+00 -0.25042570881E+02  0.95558454641E+02  0.92218696028E+02 0.  0.
        -11    1    3    3    0    0 -0.25300452525E+02 -0.17534331901E+02 -0.48093924972E+02  0.57101587652E+02  0.00000000000E+00 0.  1.
         11    1    3    3    0    0  0.25300452525E+02  0.17534331901E+02  0.23051354091E+02  0.38456866989E+02  0.00000000000E+00 0. -1.
<mgrwt>
<rscale>  0 0.92218696E+02</rscale>
<asrwt>0</asrwt>
<pdfrwt beam="1">  1        1 0.54242988E-02 0.92218696E+02</pdfrwt>
<pdfrwt beam="2">  1       -1 0.92770018E-02 0.92218696E+02</pdfrwt>
<totfact> 0.86092151E+04</totfact>
</mgrwt>
</event>
<event>
 5    1  0.6125604E+000  0.9093114E+02  0.7546771E-02  0.1300612E+00
         -2   -1    0    0    0  501 -0.00000000000E+00  0.00000000000E+00  0.13170008419E+03  0.13170008419E+03  0.00000000000E+00 0.  1.
          2   -1    0    0  501    0  0.00000000000E+00 -0.00000000000E+00 -0.15695647158E+02  0.15695647158E+02  0.00000000000E+00 0. -1.
         23    2    1    2    0    0  0.00000000000E+00  0.00000000000E+00  0.11600443703E+03  0.14739573135E+03  0.90931139929E+02 0.  0.
        -11    1    3    3    0    0 -0.12548201894E+02 -0.43691761912E+02  0.56655140863E+02  0.72637679037E+02  0.00000000000E+00 0.  1.
         11    1    3    3    0    0  0.12548201894E+02  0.43691761912E+02  0.59349296172E+02  0.74758052314E+02  0.00000000000E+00 0. -1.
<mgrwt>
<rscale>  0 0.90931140E+02</rscale>
<asrwt>0</asrwt>
<pdfrwt beam="2">  1        2 0.24147150E-02 0.90931140E+02</pdfrwt>
<pdfrwt beam="1">  1       -2 0.20261551E-01 0.90931140E+02</pdfrwt>
<totfact> 0.73624534E+04</totfact>
</mgrwt>
</event>
<event>
 5    1  0.6125604E+000  0.8698645E+02  0.7546771E-02  0.1310318E+00
          1   -1    0    0  501    0  0.00000000000E+00  0.00000000000E+00  0.12686719091E+03  0.12686719091E+03  0.00000000000E+00 0. -1.
         -1   -1    0    0    0  501 -0.00000000000E+00 -0.00000000000E+00 -0.14910556540E+02  0.14910556540E+02  0.00000000000E+00 0.  1.
         23    2    1    2    0    0  0.00000000000E+00  0.00000000000E+00  0.11195663437E+03  0.14177774745E+03  0.86986445451E+02 0.  0.
        -11    1    3    3    0    0 -0.11326017226E+02  0.32893786363E+02  0.13433039564E+02  0.37292444268E+02  0.00000000000E+00 0.  1.
         11    1    3    3    0    0  0.11326017226E+02 -0.32893786363E+02  0.98523594802E+02  0.10448530318E+03  0.00000000000E+00 0. -1.
<mgrwt>
<rscale>  0 0.86986445E+02</rscale>
<asrwt>0</asrwt>
<pdfrwt beam="1">  1        1 0.19518029E-01 0.86986445E+02</pdfrwt>
<pdfrwt beam="2">  1       -1 0.22939319E-02 0.86986445E+02</pdfrwt>
<totfact> 0.12352413E+05</totfact>
</mgrwt>
</event>
<event>
 5    1  0.6125604E+000  0.9093868E+02  0.7546771E-02  0.1300594E+00
         -1   -1    0    0    0  501 -0.00000000000E+00  0.00000000000E+00  0.48655332447E+02  0.48655332447E+02  0.00000000000E+00 0.  1.
          1   -1    0    0  501    0  0.00000000000E+00 -0.00000000000E+00 -0.42491972167E+02  0.42491972167E+02  0.00000000000E+00 0. -1.
         23    2    1    2    0    0  0.00000000000E+00  0.00000000000E+00  0.61633602799E+01  0.91147304613E+02  0.90938683344E+02 0.  0.
        -11    1    3    3    0    0  0.13741622870E+02 -0.68838749883E+01  0.45972853931E+02  0.48473943851E+02  0.00000000000E+00 0.  1.
         11    1    3    3    0    0 -0.13741622870E+02  0.68838749883E+01 -0.39809493651E+02  0.42673360762E+02  0.00000000000E+00 0. -1.
<mgrwt>
<rscale>  0 0.90938683E+02</rscale>
<asrwt>0</asrwt>
<pdfrwt beam="2">  1        1 0.65372264E-02 0.90938683E+02</pdfrwt>
<pdfrwt beam="1">  1       -1 0.74854358E-02 0.90938683E+02</pdfrwt>
<totfact> 0.92173952E+04</totfact>
</mgrwt>
</event>
<event>
 5    1  0.6125604E+000  0.1005176E+03  0.7546771E-02  0.1279211E+00
         -3   -1    0    0    0  501 -0.00000000000E+00  0.00000000000E+00  0.54089187407E+02  0.54089187407E+02  0.00000000000E+00 0.  1.
          3   -1    0    0  501    0  0.00000000000E+00 -0.00000000000E+00 -0.46699652524E+02  0.46699652524E+02  0.00000000000E+00 0. -1.
         23    2    1    2    0    0  0.00000000000E+00  0.00000000000E+00  0.73895348828E+01  0.10078883993E+03  0.10051758567E+03 0.  0.
        -11    1    3    3    0    0 -0.15584182675E+02 -0.16755394638E+02 -0.41173459061E+02  0.47104816423E+02  0.00000000000E+00 0. -1.
         11    1    3    3    0    0  0.15584182675E+02  0.16755394638E+02  0.48562993944E+02  0.53684023508E+02  0.00000000000E+00 0.  1.
<mgrwt>
<rscale>  0 0.10051759E+03</rscale>
<asrwt>0</asrwt>
<pdfrwt beam="2">  1        3 0.71845619E-02 0.10051759E+03</pdfrwt>
<pdfrwt beam="1">  1       -3 0.83214135E-02 0.10051759E+03</pdfrwt>
<totfact> 0.26495141E+04</totfact>
</mgrwt>
</event>
<event>
 5    1  0.6125604E+000  0.9127025E+02  0.7546771E-02  0.1299804E+00
         -2   -1    0    0    0  501 -0.00000000000E+00  0.00000000000E+00  0.40103248585E+02  0.40103248585E+02  0.00000000000E+00 0.  1.
          2   -1    0    0  501    0  0.00000000000E+00 -0.00000000000E+00 -0.51930067747E+02  0.51930067747E+02  0.00000000000E+00 0. -1.
         23    2    1    2    0    0  0.00000000000E+00  0.00000000000E+00 -0.11826819162E+02  0.92033316333E+02  0.91270245227E+02 0.  0.
        -11    1    3    3    0    0 -0.19659483045E+02 -0.23733618598E+02 -0.39851664030E+02  0.50377922261E+02  0.00000000000E+00 0. -1.
         11    1    3    3    0    0  0.19659483045E+02  0.23733618598E+02  0.28024844868E+02  0.41655394072E+02  0.00000000000E+00 0.  1.
<mgrwt>
<rscale>  0 0.91270245E+02</rscale>
<asrwt>0</asrwt>
<pdfrwt beam="2">  1        2 0.79892411E-02 0.91270245E+02</pdfrwt>
<pdfrwt beam="1">  1       -2 0.61697306E-02 0.91270245E+02</pdfrwt>
<totfact> 0.10178791E+05</totfact>
</mgrwt>
</event>
<event>
 5    1  0.6125604E+000  0.9467156E+02  0.7546771E-02  0.1291918E+00
         -2   -1    0    0    0  501 -0.00000000000E+00  0.00000000000E+00  0.35930320962E+02  0.35930320962E+02  0.00000000000E+00 0.  1.
          2   -1    0    0  501    0  0.00000000000E+00 -0.00000000000E+00 -0.62361710420E+02  0.62361710420E+02  0.00000000000E+00 0. -1.
         23    2    1    2    0    0  0.00000000000E+00  0.00000000000E+00 -0.26431389458E+02  0.98292031381E+02  0.94671564286E+02 0.  0.
        -11    1    3    3    0    0 -0.24324870107E+02 -0.29297057338E+01 -0.55266354642E+02  0.60453721448E+02  0.00000000000E+00 0. -1.
         11    1    3    3    0    0  0.24324870107E+02  0.29297057338E+01  0.28834965185E+02  0.37838309933E+02  0.00000000000E+00 0.  1.
<mgrwt>
<rscale>  0 0.94671564E+02</rscale>
<asrwt>0</asrwt>
<pdfrwt beam="2">  1        2 0.95941092E-02 0.94671564E+02</pdfrwt>
<pdfrwt beam="1">  1       -2 0.55277417E-02 0.94671564E+02</pdfrwt>
<totfact> 0.96367977E+04</totfact>
</mgrwt>
</event>
<event>
 5    1  0.6125604E+000  0.8928138E+02  0.7546771E-02  0.1304601E+00
          1   -1    0    0  501    0  0.00000000000E+00  0.00000000000E+00  0.21078858452E+03  0.21078858452E+03  0.00000000000E+00 0. -1.
         -1   -1    0    0    0  501 -0.00000000000E+00 -0.00000000000E+00 -0.94539809336E+01  0.94539809336E+01  0.00000000000E+00 0.  1.
         23    2    1    2    0    0  0.00000000000E+00  0.00000000000E+00  0.20133460359E+03  0.22024256546E+03  0.89281381242E+02 0.  0.
        -11    1    3    3    0    0  0.25896043862E+02 -0.35381419167E+02  0.79978006242E+02  0.91208176127E+02  0.00000000000E+00 0.  1.
         11    1    3    3    0    0 -0.25896043862E+02  0.35381419167E+02  0.12135659735E+03  0.12903438933E+03  0.00000000000E+00 0. -1.
<mgrwt>
<rscale>  0 0.89281381E+02</rscale>
<asrwt>0</asrwt>
<pdfrwt beam="1">  1        1 0.32429010E-01 0.89281381E+02</pdfrwt>
<pdfrwt beam="2">  1       -1 0.14544588E-02 0.89281381E+02</pdfrwt>
<totfact> 0.12653507E+05</totfact>
</mgrwt>
</event>
<event>
 5    1  0.6125604E+000  0.9134002E+02  0.7546771E-02  0.1299639E+00
         -1   -1    0    0    0  501 -0.00000000000E+00  0.00000000000E+00  0.20522559425E+02  0.20522559425E+02  0.00000000000E+00 0.  1.
          1   -1    0    0  501    0  0.00000000000E+00 -0.00000000000E+00 -0.10163205415E+03  0.10163205415E+03  0.00000000000E+00 0. -1.
         23    2    1    2    0    0  0.00000000000E+00  0.00000000000E+00 -0.81109494729E+02  0.12215461358E+03  0.91340021259E+02 0.  0.
        -11    1    3    3    0    0 -0.10358369881E+01 -0.45540200774E+02 -0.36166443940E+02  0.58163515300E+02  0.00000000000E+00 0. -1.
         11    1    3    3    0    0  0.10358369881E+01  0.45540200774E+02 -0.44943050789E+02  0.63991098280E+02  0.00000000000E+00 0.  1.
<mgrwt>
<rscale>  0 0.91340021E+02</rscale>
<asrwt>0</asrwt>
<pdfrwt beam="2">  1        1 0.15635701E-01 0.91340021E+02</pdfrwt>
<pdfrwt beam="1">  1       -1 0.31573168E-02 0.91340021E+02</pdfrwt>
<totfact> 0.10422420E+05</totfact>
</mgrwt>
</event>
<event>
 5    1  0.6125604E+000  0.9069030E+02  0.7546771E-02  0.1301189E+00
          4   -1    0    0  501    0  0.00000000000E+00  0.00000000000E+00  0.32377818566E+02  0.32377818566E+02  0.00000000000E+00 0. -1.
         -4   -1    0    0    0  501 -0.00000000000E+00 -0.00000000000E+00 -0.63505902030E+02  0.63505902030E+02  0.00000000000E+00 0.  1.
         23    2    1    2    0    0  0.00000000000E+00  0.00000000000E+00 -0.31128083464E+02  0.95883720596E+02  0.90690298793E+02 0.  0.
        -11    1    3    3    0    0  0.16479366445E+02  0.19636066706E+02  0.23981614885E+02  0.35103596491E+02  0.00000000000E+00 0. -1.
         11    1    3    3    0    0 -0.16479366445E+02 -0.19636066706E+02 -0.55109698349E+02  0.60780124105E+02  0.00000000000E+00 0.  1.
<mgrwt>
<rscale>  0 0.90690299E+02</rscale>
<asrwt>0</asrwt>
<pdfrwt beam="1">  1        4 0.49812029E-02 0.90690299E+02</pdfrwt>
<pdfrwt beam="2">  1       -4 0.97701387E-02 0.90690299E+02</pdfrwt>
<totfact> 0.27105697E+04</totfact>
</mgrwt>
</event>
<event>
 5    1  0.6125604E+000  0.9369582E+02  0.7546771E-02  0.1294141E+00
         -1   -1    0    0    0  501 -0.00000000000E+00  0.00000000000E+00  0.83046016642E+02  0.83046016642E+02  0.00000000000E+00 0.  1.
          1   -1    0    0  501    0  0.00000000000E+00 -0.00000000000E+00 -0.26427838603E+02  0.26427838603E+02  0.00000000000E+00 0. -1.
         23    2    1    2    0    0  0.00000000000E+00  0.00000000000E+00  0.56618178039E+02  0.10947385525E+03  0.93695821133E+02 0.  0.
        -11    1    3    3    0    0 -0.96447336198E+01  0.34152040113E+02 -0.74244369467E+01  0.36256102858E+02  0.00000000000E+00 0. -1.
         11    1    3    3    0    0  0.96447336198E+01 -0.34152040113E+02  0.64042614986E+02  0.73217752388E+02  0.00000000000E+00 0.  1.
<mgrwt>
<rscale>  0 0.93695821E+02</rscale>
<asrwt>0</asrwt>
<pdfrwt beam="2">  1        1 0.40658214E-02 0.93695821E+02</pdfrwt>
<pdfrwt beam="1">  1       -1 0.12776310E-01 0.93695821E+02</pdfrwt>
<totfact> 0.78432916E+04</totfact>
</mgrwt>
</event>
<event>
 5    1  0.6125604E+000  0.9159238E+02  0.7546771E-02  0.1299041E+00
          1   -1    0    0  501    0  0.00000000000E+00  0.00000000000E+00  0.47663394932E+02  0.47663394932E+02  0.00000000000E+00 0. -1.
         -1   -1    0    0    0  501 -0.00000000000E+00 -0.00000000000E+00 -0.44002133960E+02  0.44002133960E+02  0.00000000000E+00 0.  1.
         23    2    1    2    0    0  0.00000000000E+00  0.00000000000E+00  0.36612609722E+01  0.91665528892E+02  0.91592381534E+02 0.  0.
        -11    1    3    3    0    0 -0.86680924251E+01  0.37537439573E+02  0.26611178162E+02  0.46822537299E+02  0.00000000000E+00 0. -1.
         11    1    3    3    0    0  0.86680924251E+01 -0.37537439573E+02 -0.22949917189E+02  0.44842991593E+02  0.00000000000E+00 0.  1.
<mgrwt>
<rscale>  0 0.91592382E+02</rscale>
<asrwt>0</asrwt>
<pdfrwt beam="1">  1        1 0.73328300E-02 0.91592382E+02</pdfrwt>
<pdfrwt beam="2">  1       -1 0.67695591E-02 0.91592382E+02</pdfrwt>
<totfact> 0.91912873E+04</totfact>
</mgrwt>
</event>
<event>
 5    1  0.6125604E+000  0.9800024E+02  0.7546771E-02  0.1284558E+00
         -1   -1    0    0    0  501 -0.00000000000E+00  0.00000000000E+00  0.30116851270E+02  0.30116851270E+02  0.00000000000E+00 0.  1.
          1   -1    0    0  501    0  0.00000000000E+00 -0.00000000000E+00 -0.79723207712E+02  0.79723207712E+02  0.00000000000E+00 0. -1.
         23    2    1    2    0    0  0.00000000000E+00  0.00000000000E+00 -0.49606356442E+02  0.10984005898E+03  0.98000244682E+02 0.  0.
        -11    1    3    3    0    0  0.35698292463E+02 -0.18137843660E+02  0.68518856253E+01  0.40623857449E+02  0.00000000000E+00 0.  1.
         11    1    3    3    0    0 -0.35698292463E+02  0.18137843660E+02 -0.56458242067E+02  0.69216201534E+02  0.00000000000E+00 0. -1.
<mgrwt>
<rscale>  0 0.98000245E+02</rscale>
<asrwt>0</asrwt>
<pdfrwt beam="2">  1        1 0.12265109E-01 0.98000245E+02</pdfrwt>
<pdfrwt beam="1">  1       -1 0.46333617E-02 0.98000245E+02</pdfrwt>
<totfact> 0.82496641E+04</totfact>
</mgrwt>
</event>
<event>
 5    1  0.6125604E+000  0.9216220E+02  0.7546771E-02  0.1297699E+00
          2   -1    0    0  501    0  0.00000000000E+00  0.00000000000E+00  0.34691722296E+02  0.34691722296E+02  0.00000000000E+00 0. -1.
         -2   -1    0    0    0  501 -0.00000000000E+00 -0.00000000000E+00 -0.61209638026E+02  0.61209638026E+02  0.00000000000E+00 0.  1.
         23    2    1    2    0    0  0.00000000000E+00  0.00000000000E+00 -0.26517915730E+02  0.95901360322E+02  0.92162199718E+02 0.  0.
        -11    1    3    3    0    0  0.73233777115E+01  0.30688746467E+02  0.21689945963E+02  0.38286874732E+02  0.00000000000E+00 0. -1.
         11    1    3    3    0    0 -0.73233777115E+01 -0.30688746467E+02 -0.48207861692E+02  0.57614485590E+02  0.00000000000E+00 0.  1.
<mgrwt>
<rscale>  0 0.92162200E+02</rscale>
<asrwt>0</asrwt>
<pdfrwt beam="1">  1        2 0.53371880E-02 0.92162200E+02</pdfrwt>
<pdfrwt beam="2">  1       -2 0.94168674E-02 0.92162200E+02</pdfrwt>
<totfact> 0.89068373E+04</totfact>
</mgrwt>
</event>
<event>
 5    1  0.6125604E+000  0.9163498E+02  0.7546771E-02  0.1298940E+00
         -1   -1    0    0    0  501 -0.00000000000E+00  0.00000000000E+00  0.14677875582E+02  0.14677875582E+02  0.00000000000E+00 0.  1.
          1   -1    0    0  501    0  0.00000000000E+00 -0.00000000000E+00 -0.14302085276E+03  0.14302085276E+03  0.00000000000E+00 0. -1.
         23    2    1    2    0    0  0.00000000000E+00  0.00000000000E+00 -0.12834297718E+03  0.15769872834E+03  0.91634977654E+02 0.  0.
        -11    1    3    3    0    0  0.45670926305E+02  0.19252469022E+01 -0.69531947387E+02  0.83211969046E+02  0.00000000000E+00 0. -1.
         11    1    3    3    0    0 -0.45670926305E+02 -0.19252469022E+01 -0.58811029790E+02  0.74486759294E+02  0.00000000000E+00 0.  1.
<mgrwt>
<rscale>  0 0.91634978E+02</rscale>
<asrwt>0</asrwt>
<pdfrwt beam="2">  1        1 0.22003208E-01 0.91634978E+02</pdfrwt>
<pdfrwt beam="1">  1       -1 0.22581347E-02 0.91634978E+02</pdfrwt>
<totfact> 0.10966356E+05</totfact>
</mgrwt>
</event>
<event>
 5    1  0.6125604E+000  0.8432190E+02  0.7546771E-02  0.1317215E+00
         -1   -1    0    0    0  501 -0.00000000000E+00  0.00000000000E+00  0.70703561429E+02  0.70703561429E+02  0.00000000000E+00 0.  1.
          1   -1    0    0  501    0  0.00000000000E+00 -0.00000000000E+00 -0.25140825024E+02  0.25140825024E+02  0.00000000000E+00 0. -1.
         23    2    1    2    0    0  0.00000000000E+00  0.00000000000E+00  0.45562736405E+02  0.95844386453E+02  0.84321903832E+02 0.  0.
        -11    1    3    3    0    0 -0.19860852013E+02 -0.33772753113E+02  0.50812407930E+01  0.39507863819E+02  0.00000000000E+00 0. -1.
         11    1    3    3    0    0  0.19860852013E+02  0.33772753113E+02  0.40481495612E+02  0.56336522634E+02  0.00000000000E+00 0.  1.
<mgrwt>
<rscale>  0 0.84321904E+02</rscale>
<asrwt>0</asrwt>
<pdfrwt beam="2">  1        1 0.38678193E-02 0.84321904E+02</pdfrwt>
<pdfrwt beam="1">  1       -1 0.10877471E-01 0.84321904E+02</pdfrwt>
<totfact> 0.10542423E+05</totfact>
</mgrwt>
</event>
<event>
 5    1  0.6125604E+000  0.8068651E+02  0.7546771E-02  0.1327114E+00
          1   -1    0    0  501    0  0.00000000000E+00  0.00000000000E+00  0.23386251999E+03  0.23386251999E+03  0.00000000000E+00 0. -1.
         -1   -1    0    0    0  501 -0.00000000000E+00 -0.00000000000E+00 -0.69595521317E+01  0.69595521317E+01  0.00000000000E+00 0.  1.
         23    2    1    2    0    0  0.00000000000E+00  0.00000000000E+00  0.22690296786E+03  0.24082207212E+03  0.80686514350E+02 0.  0.
        -11    1    3    3    0    0 -0.32132262934E+02  0.10858076945E+01  0.18618896367E+03  0.18894441377E+03  0.00000000000E+00 0. -1.
         11    1    3    3    0    0  0.32132262934E+02 -0.10858076945E+01  0.40714004181E+02  0.51877658352E+02  0.00000000000E+00 0.  1.
<mgrwt>
<rscale>  0 0.80686514E+02</rscale>
<asrwt>0</asrwt>
<pdfrwt beam="1">  1        1 0.35978843E-01 0.80686514E+02</pdfrwt>
<pdfrwt beam="2">  1       -1 0.10707005E-02 0.80686514E+02</pdfrwt>
<totfact> 0.16888608E+05</totfact>
</mgrwt>
</event>
<event>
 5    1  0.6125604E+000  0.9105902E+02  0.7546771E-02  0.1300307E+00
          2   -1    0    0  501    0  0.00000000000E+00  0.00000000000E+00  0.61381408661E+02  0.61381408661E+02  0.00000000000E+00 0. -1.
         -2   -1    0    0    0  501 -0.00000000000E+00 -0.00000000000E+00 -0.33771401417E+02  0.33771401417E+02  0.00000000000E+00 0.  1.
         23    2    1    2    0    0  0.00000000000E+00  0.00000000000E+00  0.27610007244E+02  0.95152810078E+02  0.91059018037E+02 0.  0.
        -11    1    3    3    0    0  0.31745317468E+02 -0.23949596024E+02 -0.93635664563E+01  0.40853698824E+02  0.00000000000E+00 0. -1.
         11    1    3    3    0    0 -0.31745317468E+02  0.23949596024E+02  0.36973573700E+02  0.54299111254E+02  0.00000000000E+00 0.  1.
<mgrwt>
<rscale>  0 0.91059018E+02</rscale>
<asrwt>0</asrwt>
<pdfrwt beam="1">  1        2 0.94432936E-02 0.91059018E+02</pdfrwt>
<pdfrwt beam="2">  1       -2 0.51956002E-02 0.91059018E+02</pdfrwt>
<totfact> 0.10711028E+05</totfact>
</mgrwt>
</event>
<event>
 5    1  0.6125604E+000  0.9111333E+02  0.7546771E-02  0.1300178E+00
          1   -1    0    0  501    0  0.00000000000E+00  0.00000000000E+00  0.68211395901E+01  0.68211395901E+01  0.00000000000E+00 0. -1.
         -1   -1    0    0    0  501 -0.00000000000E+00 -0.00000000000E+00 -0.30426145280E+03  0.30426145280E+03  0.00000000000E+00 0.  1.
         23    2    1    2    0    0  0.00000000000E+00  0.00000000000E+00 -0.29744031321E+03  0.31108259239E+03  0.91113332536E+02 0.  0.
        -11    1    3    3    0    0  0.37654336075E+02 -0.14038047004E+02 -0.22198671484E+03  0.22559480791E+03  0.00000000000E+00 0.  1.
         11    1    3    3    0    0 -0.37654336075E+02  0.14038047004E+02 -0.75453598367E+02  0.85487784481E+02  0.00000000000E+00 0. -1.
<mgrwt>
<rscale>  0 0.91113333E+02</rscale>
<asrwt>0</asrwt>
<pdfrwt beam="1">  1        1 0.10494061E-02 0.91113333E+02</pdfrwt>
<pdfrwt beam="2">  1       -1 0.46809456E-01 0.91113333E+02</pdfrwt>
<totfact> 0.60358873E+04</totfact>
</mgrwt>
</event>
<event>
 5    1  0.6125604E+000  0.9010027E+02  0.7546771E-02  0.1302609E+00
          1   -1    0    0  501    0  0.00000000000E+00  0.00000000000E+00  0.35414632499E+02  0.35414632499E+02  0.00000000000E+00 0. -1.
         -1   -1    0    0    0  501 -0.00000000000E+00 -0.00000000000E+00 -0.57307233824E+02  0.57307233824E+02  0.00000000000E+00 0.  1.
         23    2    1    2    0    0  0.00000000000E+00  0.00000000000E+00 -0.21892601325E+02  0.92721866323E+02  0.90100269154E+02 0.  0.
        -11    1    3    3    0    0 -0.13874961869E+02 -0.35464068264E+02  0.13822661563E+02  0.40512722413E+02  0.00000000000E+00 0.  1.
         11    1    3    3    0    0  0.13874961869E+02  0.35464068264E+02 -0.35715262888E+02  0.52209143910E+02  0.00000000000E+00 0. -1.
<mgrwt>
<rscale>  0 0.90100269E+02</rscale>
<asrwt>0</asrwt>
<pdfrwt beam="1">  1        1 0.54484050E-02 0.90100269E+02</pdfrwt>
<pdfrwt beam="2">  1       -1 0.88164975E-02 0.90100269E+02</pdfrwt>
<totfact> 0.92037381E+04</totfact>
</mgrwt>
</event>
<event>
 5    1  0.6125604E+000  0.8693136E+02  0.7546771E-02  0.1310458E+00
          2   -1    0    0  501    0  0.00000000000E+00  0.00000000000E+00  0.17555868745E+02  0.17555868745E+02  0.00000000000E+00 0. -1.
         -2   -1    0    0    0  501 -0.00000000000E+00 -0.00000000000E+00 -0.10761446277E+03  0.10761446277E+03  0.00000000000E+00 0.  1.
         23    2    1    2    0    0  0.00000000000E+00  0.00000000000E+00 -0.90058594029E+02  0.12517033152E+03  0.86931361051E+02 0.  0.
        -11    1    3    3    0    0  0.33484967724E+02  0.10207359942E+02 -0.82127600984E+02  0.89276962896E+02  0.00000000000E+00 0.  1.
         11    1    3    3    0    0 -0.33484967724E+02 -0.10207359942E+02 -0.79309930450E+01  0.35893368624E+02  0.00000000000E+00 0. -1.
<mgrwt>
<rscale>  0 0.86931361E+02</rscale>
<asrwt>0</asrwt>
<pdfrwt beam="1">  1        2 0.27009029E-02 0.86931361E+02</pdfrwt>
<pdfrwt beam="2">  1       -2 0.16556071E-01 0.86931361E+02</pdfrwt>
<totfact> 0.87915353E+04</totfact>
</mgrwt>
</event>
<event>
 5    1  0.6125604E+000  0.8896120E+02  0.7546771E-02  0.1305387E+00
         -1   -1    0    0    0  501 -0.00000000000E+00  0.00000000000E+00  0.40059549066E+02  0.40059549066E+02  0.00000000000E+00 0.  1.
          1   -1    0    0  501    0  0.00000000000E+00 -0.00000000000E+00 -0.49389564579E+02  0.49389564579E+02  0.00000000000E+00 0. -1.
         23    2    1    2    0    0  0.00000000000E+00  0.00000000000E+00 -0.93300155124E+01  0.89449113645E+02  0.88961197959E+02 0.  0.
        -11    1    3    3    0    0  0.26977774603E+02  0.34813190084E+02  0.15953075178E+01  0.44071572838E+02  0.00000000000E+00 0. -1.
         11    1    3    3    0    0 -0.26977774603E+02 -0.34813190084E+02 -0.10925323030E+02  0.45377540807E+02  0.00000000000E+00 0.  1.
<mgrwt>
<rscale>  0 0.88961198E+02</rscale>
<asrwt>0</asrwt>
<pdfrwt beam="2">  1        1 0.75983945E-02 0.88961198E+02</pdfrwt>
<pdfrwt beam="1">  1       -1 0.61630076E-02 0.88961198E+02</pdfrwt>
<totfact> 0.10023773E+05</totfact>
</mgrwt>
</event>
<event>
 5    1  0.6125604E+000  0.8787390E+02  0.7546771E-02  0.1308084E+00
         -1   -1    0    0    0  501 -0.00000000000E+00  0.00000000000E+00  0.19861460300E+02  0.19861460300E+02  0.00000000000E+00 0.  1.
          1   -1    0    0  501    0  0.00000000000E+00 -0.00000000000E+00 -0.97196043511E+02  0.97196043511E+02  0.00000000000E+00 0. -1.
         23    2    1    2    0    0  0.00000000000E+00  0.00000000000E+00 -0.77334583211E+02  0.11705750381E+03  0.87873895089E+02 0.  0.
        -11    1    3    3    0    0 -0.19703355552E+01  0.43827425665E+02 -0.41855985162E+02  0.60635377104E+02  0.00000000000E+00 0.  1.
         11    1    3    3    0    0  0.19703355552E+01 -0.43827425665E+02 -0.35478598049E+02  0.56422126707E+02  0.00000000000E+00 0. -1.
<mgrwt>
<rscale>  0 0.87873895E+02</rscale>
<asrwt>0</asrwt>
<pdfrwt beam="2">  1        1 0.14953238E-01 0.87873895E+02</pdfrwt>
<pdfrwt beam="1">  1       -1 0.30556093E-02 0.87873895E+02</pdfrwt>
<totfact> 0.11493422E+05</totfact>
</mgrwt>
</event>
<event>
 5    1  0.6125604E+000  0.9134432E+02  0.7546771E-02  0.1299629E+00
          1   -1    0    0  501    0  0.00000000000E+00  0.00000000000E+00  0.66426881518E+01  0.66426881518E+01  0.00000000000E+00 0. -1.
         -1   -1    0    0    0  501 -0.00000000000E+00 -0.00000000000E+00 -0.31402140624E+03  0.31402140624E+03  0.00000000000E+00 0.  1.
         23    2    1    2    0    0  0.00000000000E+00  0.00000000000E+00 -0.30737871809E+03  0.32066409439E+03  0.91344321655E+02 0.  0.
        -11    1    3    3    0    0 -0.35820790386E+02 -0.26700978858E+02 -0.18696973158E+03  0.19223358661E+03  0.00000000000E+00 0. -1.
         11    1    3    3    0    0  0.35820790386E+02  0.26700978858E+02 -0.12040898651E+03  0.12843050778E+03  0.00000000000E+00 0.  1.
<mgrwt>
<rscale>  0 0.91344322E+02</rscale>
<asrwt>0</asrwt>
<pdfrwt beam="1">  1        1 0.10219520E-02 0.91344322E+02</pdfrwt>
<pdfrwt beam="2">  1       -1 0.48310986E-01 0.91344322E+02</pdfrwt>
<totfact> 0.59200982E+04</totfact>
</mgrwt>
</event>
<event>
 5    1  0.6125604E+000  0.9086179E+02  0.7546771E-02  0.1300778E+00
         -1   -1    0    0    0  501 -0.00000000000E+00  0.00000000000E+00  0.78883486577E+01  0.78883486577E+01  0.00000000000E+00 0.  1.
          1   -1    0    0  501    0  0.00000000000E+00 -0.00000000000E+00 -0.26164741890E+03  0.26164741890E+03  0.00000000000E+00 0. -1.
         23    2    1    2    0    0  0.00000000000E+00  0.00000000000E+00 -0.25375907025E+03  0.26953576756E+03  0.90861786592E+02 0.  0.
        -11    1    3    3    0    0 -0.11193863146E+02  0.43907484518E+02 -0.13662657047E+03  0.14394439734E+03  0.00000000000E+00 0. -1.
         11    1    3    3    0    0  0.11193863146E+02 -0.43907484518E+02 -0.11713249978E+03  0.12559137022E+03  0.00000000000E+00 0.  1.
<mgrwt>
<rscale>  0 0.90861787E+02</rscale>
<asrwt>0</asrwt>
<pdfrwt beam="2">  1        1 0.40253440E-01 0.90861787E+02</pdfrwt>
<pdfrwt beam="1">  1       -1 0.12135924E-02 0.90861787E+02</pdfrwt>
<totfact> 0.12593201E+05</totfact>
</mgrwt>
</event>
<event>
 5    1  0.6125604E+000  0.9266012E+02  0.7546771E-02  0.1296535E+00
         -3   -1    0    0    0  501 -0.00000000000E+00  0.00000000000E+00  0.28375838389E+02  0.28375838389E+02  0.00000000000E+00 0.  1.
          3   -1    0    0  501    0  0.00000000000E+00 -0.00000000000E+00 -0.75644437434E+02  0.75644437434E+02  0.00000000000E+00 0. -1.
         23    2    1    2    0    0  0.00000000000E+00  0.00000000000E+00 -0.47268599044E+02  0.10402027582E+03  0.92660117238E+02 0.  0.
        -11    1    3    3    0    0 -0.22032913103E+01 -0.37250248020E+02 -0.54460643499E+02  0.66018157809E+02  0.00000000000E+00 0. -1.
         11    1    3    3    0    0  0.22032913103E+01  0.37250248020E+02  0.71920444544E+01  0.38002118014E+02  0.00000000000E+00 0.  1.
<mgrwt>
<rscale>  0 0.92660117E+02</rscale>
<asrwt>0</asrwt>
<pdfrwt beam="2">  1        3 0.11637606E-01 0.92660117E+02</pdfrwt>
<pdfrwt beam="1">  1       -3 0.43655136E-02 0.92660117E+02</pdfrwt>
<totfact> 0.32895387E+04</totfact>
</mgrwt>
</event>
<event>
 5    1  0.6125604E+000  0.9228934E+02  0.7546771E-02  0.1297401E+00
          2   -1    0    0  501    0  0.00000000000E+00  0.00000000000E+00  0.83369661314E+02  0.83369661314E+02  0.00000000000E+00 0. -1.
         -2   -1    0    0    0  501 -0.00000000000E+00 -0.00000000000E+00 -0.25540835347E+02  0.25540835347E+02  0.00000000000E+00 0.  1.
         23    2    1    2    0    0  0.00000000000E+00  0.00000000000E+00  0.57828825967E+02  0.10891049666E+03  0.92289344836E+02 0.  0.
        -11    1    3    3    0    0 -0.27664837909E+02  0.32026179030E+02  0.72085784929E+01  0.42929977914E+02  0.00000000000E+00 0.  1.
         11    1    3    3    0    0  0.27664837909E+02 -0.32026179030E+02  0.50620247475E+02  0.65980518747E+02  0.00000000000E+00 0. -1.
<mgrwt>
<rscale>  0 0.92289345E+02</rscale>
<asrwt>0</asrwt>
<pdfrwt beam="1">  1        2 0.12826102E-01 0.92289345E+02</pdfrwt>
<pdfrwt beam="2">  1       -2 0.39293593E-02 0.92289345E+02</pdfrwt>
<totfact> 0.11237434E+05</totfact>
</mgrwt>
</event>
<event>
 5    1  0.6125604E+000  0.9051371E+02  0.7546771E-02  0.1301612E+00
          2   -1    0    0  501    0  0.00000000000E+00  0.00000000000E+00  0.79282986739E+02  0.79282986739E+02  0.00000000000E+00 0. -1.
         -2   -1    0    0    0  501 -0.00000000000E+00 -0.00000000000E+00 -0.25833828727E+02  0.25833828727E+02  0.00000000000E+00 0.  1.
         23    2    1    2    0    0  0.00000000000E+00  0.00000000000E+00  0.53449158012E+02  0.10511681547E+03  0.90513713887E+02 0.  0.
        -11    1    3    3    0    0  0.19376529926E+02 -0.40298274350E+02  0.18613309607E+02  0.48434038879E+02  0.00000000000E+00 0.  1.
         11    1    3    3    0    0 -0.19376529926E+02  0.40298274350E+02  0.34835848405E+02  0.56682776588E+02  0.00000000000E+00 0. -1.
<mgrwt>
<rscale>  0 0.90513714E+02</rscale>
<asrwt>0</asrwt>
<pdfrwt beam="1">  1        2 0.12197382E-01 0.90513714E+02</pdfrwt>
<pdfrwt beam="2">  1       -2 0.39744352E-02 0.90513714E+02</pdfrwt>
<totfact> 0.11690678E+05</totfact>
</mgrwt>
</event>
<event>
 5    1  0.6125604E+000  0.9185533E+02  0.7546771E-02  0.1298420E+00
         -2   -1    0    0    0  501 -0.00000000000E+00  0.00000000000E+00  0.72380020521E+02  0.72380020521E+02  0.00000000000E+00 0.  1.
          2   -1    0    0  501    0  0.00000000000E+00 -0.00000000000E+00 -0.29142715999E+02  0.29142715999E+02  0.00000000000E+00 0. -1.
         23    2    1    2    0    0  0.00000000000E+00  0.00000000000E+00  0.43237304522E+02  0.10152273652E+03  0.91855329341E+02 0.  0.
        -11    1    3    3    0    0  0.13930813184E+02 -0.43272860078E+02  0.14392810551E+02  0.47683969747E+02  0.00000000000E+00 0.  1.
         11    1    3    3    0    0 -0.13930813184E+02  0.43272860078E+02  0.28844493971E+02  0.53838766774E+02  0.00000000000E+00 0. -1.
<mgrwt>
<rscale>  0 0.91855329E+02</rscale>
<asrwt>0</asrwt>
<pdfrwt beam="2">  1        2 0.44834948E-02 0.91855329E+02</pdfrwt>
<pdfrwt beam="1">  1       -2 0.11135388E-01 0.91855329E+02</pdfrwt>
<totfact> 0.85862956E+04</totfact>
</mgrwt>
</event>
<event>
 5    1  0.6125604E+000  0.9046738E+02  0.7546771E-02  0.1301724E+00
          2   -1    0    0  501    0  0.00000000000E+00  0.00000000000E+00  0.28451903449E+02  0.28451903449E+02  0.00000000000E+00 0. -1.
         -2   -1    0    0    0  501 -0.00000000000E+00 -0.00000000000E+00 -0.71913884438E+02  0.71913884438E+02  0.00000000000E+00 0.  1.
         23    2    1    2    0    0  0.00000000000E+00  0.00000000000E+00 -0.43461980989E+02  0.10036578789E+03  0.90467384104E+02 0.  0.
        -11    1    3    3    0    0 -0.81353930423E+01  0.35665313244E+02  0.77862566118E+01  0.37400868717E+02  0.00000000000E+00 0. -1.
         11    1    3    3    0    0  0.81353930423E+01 -0.35665313244E+02 -0.51248237601E+02  0.62964919169E+02  0.00000000000E+00 0.  1.
<mgrwt>
<rscale>  0 0.90467384E+02</rscale>
<asrwt>0</asrwt>
<pdfrwt beam="1">  1        2 0.43772160E-02 0.90467384E+02</pdfrwt>
<pdfrwt beam="2">  1       -2 0.11063674E-01 0.90467384E+02</pdfrwt>
<totfact> 0.89269347E+04</totfact>
</mgrwt>
</event>
<event>
 5    1  0.6125604E+000  0.9430298E+02  0.7546771E-02  0.1292754E+00
          2   -1    0    0  501    0  0.00000000000E+00  0.00000000000E+00  0.25469751388E+03  0.25469751388E+03  0.00000000000E+00 0. -1.
         -2   -1    0    0    0  501 -0.00000000000E+00 -0.00000000000E+00 -0.87290331466E+01  0.87290331466E+01  0.00000000000E+00 0.  1.
         23    2    1    2    0    0  0.00000000000E+00  0.00000000000E+00  0.24596848074E+03  0.26342654703E+03  0.94302980675E+02 0.  0.
        -11    1    3    3    0    0  0.25247689314E+02 -0.31529247953E+02  0.19093489098E+03  0.19516063098E+03  0.00000000000E+00 0. -1.
         11    1    3    3    0    0 -0.25247689314E+02  0.31529247953E+02  0.55033589759E+02  0.68265916049E+02  0.00000000000E+00 0.  1.
<mgrwt>
<rscale>  0 0.94302981E+02</rscale>
<asrwt>0</asrwt>
<pdfrwt beam="1">  1        2 0.39184227E-01 0.94302981E+02</pdfrwt>
<pdfrwt beam="2">  1       -2 0.13429284E-02 0.94302981E+02</pdfrwt>
<totfact> 0.15440018E+05</totfact>
</mgrwt>
</event>
<event>
 5    1  0.6125604E+000  0.9108693E+02  0.7546771E-02  0.1300241E+00
          1   -1    0    0  501    0  0.00000000000E+00  0.00000000000E+00  0.26401586944E+03  0.26401586944E+03  0.00000000000E+00 0. -1.
         -1   -1    0    0    0  501 -0.00000000000E+00 -0.00000000000E+00 -0.78563737852E+01  0.78563737852E+01  0.00000000000E+00 0.  1.
         23    2    1    2    0    0  0.00000000000E+00  0.00000000000E+00  0.25615949565E+03  0.27187224322E+03  0.91086933322E+02 0.  0.
        -11    1    3    3    0    0 -0.25182802258E+02 -0.35413528544E+02  0.16877717601E+03  0.17428145821E+03  0.00000000000E+00 0. -1.
         11    1    3    3    0    0  0.25182802258E+02  0.35413528544E+02  0.87382319641E+02  0.97590785013E+02  0.00000000000E+00 0.  1.
<mgrwt>
<rscale>  0 0.91086933E+02</rscale>
<asrwt>0</asrwt>
<pdfrwt beam="1">  1        1 0.40617819E-01 0.91086933E+02</pdfrwt>
<pdfrwt beam="2">  1       -1 0.12086731E-02 0.91086933E+02</pdfrwt>
<totfact> 0.12532390E+05</totfact>
</mgrwt>
</event>
<event>
 5    1  0.6125604E+000  0.9034618E+02  0.7546771E-02  0.1302016E+00
          2   -1    0    0  501    0  0.00000000000E+00  0.00000000000E+00  0.21181004030E+03  0.21181004030E+03  0.00000000000E+00 0. -1.
         -2   -1    0    0    0  501 -0.00000000000E+00 -0.00000000000E+00 -0.96341421798E+01  0.96341421798E+01  0.00000000000E+00 0.  1.
         23    2    1    2    0    0  0.00000000000E+00  0.00000000000E+00  0.20217589812E+03  0.22144418248E+03  0.90346179629E+02 0.  0.
        -11    1    3    3    0    0  0.35049985797E+02 -0.25737128859E+02  0.71098039556E+02  0.83341661460E+02  0.00000000000E+00 0.  1.
         11    1    3    3    0    0 -0.35049985797E+02  0.25737128859E+02  0.13107785857E+03  0.13810252102E+03  0.00000000000E+00 0. -1.
<mgrwt>
<rscale>  0 0.90346180E+02</rscale>
<asrwt>0</asrwt>
<pdfrwt beam="1">  1        2 0.32586157E-01 0.90346180E+02</pdfrwt>
<pdfrwt beam="2">  1       -2 0.14821759E-02 0.90346180E+02</pdfrwt>
<totfact> 0.16186598E+05</totfact>
</mgrwt>
</event>
<event>
 5    1  0.6125604E+000  0.9159807E+02  0.7546771E-02  0.1299027E+00
         -2   -1    0    0    0  501 -0.00000000000E+00  0.00000000000E+00  0.57562020572E+02  0.57562020572E+02  0.00000000000E+00 0. -1.
          2   -1    0    0  501    0  0.00000000000E+00 -0.00000000000E+00 -0.36439854388E+02  0.36439854388E+02  0.00000000000E+00 0.  1.
         23    2    1    2    0    0  0.00000000000E+00  0.00000000000E+00  0.21122166184E+02  0.94001874959E+02  0.91598070894E+02 0.  0.
        -11    1    3    3    0    0 -0.35110987858E+02 -0.23787684493E+02 -0.71818309508E+01  0.43014115098E+02  0.00000000000E+00 0.  1.
         11    1    3    3    0    0  0.35110987858E+02  0.23787684493E+02  0.28303997135E+02  0.50987759861E+02  0.00000000000E+00 0. -1.
<mgrwt>
<rscale>  0 0.91598071E+02</rscale>
<asrwt>0</asrwt>
<pdfrwt beam="2">  1        2 0.56061315E-02 0.91598071E+02</pdfrwt>
<pdfrwt beam="1">  1       -2 0.88556954E-02 0.91598071E+02</pdfrwt>
<totfact> 0.91865155E+04</totfact>
</mgrwt>
</event>
<event>
 5    1  0.6125604E+000  0.9065607E+02  0.7546771E-02  0.1301271E+00
         -4   -1    0    0    0  501 -0.00000000000E+00  0.00000000000E+00  0.11417018784E+02  0.11417018784E+02  0.00000000000E+00 0.  1.
          4   -1    0    0  501    0  0.00000000000E+00 -0.00000000000E+00 -0.17996212517E+03  0.17996212517E+03  0.00000000000E+00 0. -1.
         23    2    1    2    0    0  0.00000000000E+00  0.00000000000E+00 -0.16854510639E+03  0.19137914396E+03  0.90656074557E+02 0.  0.
        -11    1    3    3    0    0 -0.20455719927E+02 -0.35044766117E+02 -0.12691666764E+03  0.13324568524E+03  0.00000000000E+00 0. -1.
         11    1    3    3    0    0  0.20455719927E+02  0.35044766117E+02 -0.41628438752E+02  0.58133458721E+02  0.00000000000E+00 0.  1.
<mgrwt>
<rscale>  0 0.90656075E+02</rscale>
<asrwt>0</asrwt>
<pdfrwt beam="2">  1        4 0.27686480E-01 0.90656075E+02</pdfrwt>
<pdfrwt beam="1">  1       -4 0.17564645E-02 0.90656075E+02</pdfrwt>
<totfact> 0.22087691E+04</totfact>
</mgrwt>
</event>
<event>
 5    1  0.6125604E+000  0.9186204E+02  0.7546771E-02  0.1298404E+00
          1   -1    0    0  501    0  0.00000000000E+00  0.00000000000E+00  0.18819016735E+03  0.18819016735E+03  0.00000000000E+00 0. -1.
         -1   -1    0    0    0  501 -0.00000000000E+00 -0.00000000000E+00 -0.11210249136E+02  0.11210249136E+02  0.00000000000E+00 0.  1.
         23    2    1    2    0    0  0.00000000000E+00  0.00000000000E+00  0.17697991822E+03  0.19940041649E+03  0.91862041367E+02 0.  0.
        -11    1    3    3    0    0 -0.43116448441E+02 -0.35474712622E+01  0.54999554289E+02  0.69975450341E+02  0.00000000000E+00 0.  1.
         11    1    3    3    0    0  0.43116448441E+02  0.35474712622E+01  0.12198036393E+03  0.12942496615E+03  0.00000000000E+00 0. -1.
<mgrwt>
<rscale>  0 0.91862041E+02</rscale>
<asrwt>0</asrwt>
<pdfrwt beam="1">  1        1 0.28952331E-01 0.91862041E+02</pdfrwt>
<pdfrwt beam="2">  1       -1 0.17246539E-02 0.91862041E+02</pdfrwt>
<totfact> 0.11468963E+05</totfact>
</mgrwt>
</event>
<event>
 5    1  0.6125604E+000  0.7863421E+02  0.7546771E-02  0.1332973E+00
          1   -1    0    0  501    0  0.00000000000E+00  0.00000000000E+00  0.86736781201E+01  0.86736781201E+01  0.00000000000E+00 0. -1.
         -1   -1    0    0    0  501 -0.00000000000E+00 -0.00000000000E+00 -0.17822134530E+03  0.17822134530E+03  0.00000000000E+00 0.  1.
         23    2    1    2    0    0  0.00000000000E+00  0.00000000000E+00 -0.16954766718E+03  0.18689502342E+03  0.78634205871E+02 0.  0.
        -11    1    3    3    0    0  0.21604283915E+02 -0.16262367794E+02 -0.15261058947E+03  0.15498774696E+03  0.00000000000E+00 0.  1.
         11    1    3    3    0    0 -0.21604283915E+02  0.16262367794E+02 -0.16937077714E+02  0.31907276463E+02  0.00000000000E+00 0. -1.
<mgrwt>
<rscale>  0 0.78634206E+02</rscale>
<asrwt>0</asrwt>
<pdfrwt beam="1">  1        1 0.13344121E-02 0.78634206E+02</pdfrwt>
<pdfrwt beam="2">  1       -1 0.27418667E-01 0.78634206E+02</pdfrwt>
<totfact> 0.10511923E+05</totfact>
</mgrwt>
</event>
<event>
 5    1  0.6125604E+000  0.9083535E+02  0.7546771E-02  0.1300841E+00
          4   -1    0    0  501    0  0.00000000000E+00  0.00000000000E+00  0.37023257242E+03  0.37023257242E+03  0.00000000000E+00 0. -1.
         -4   -1    0    0    0  501 -0.00000000000E+00 -0.00000000000E+00 -0.55715388229E+01  0.55715388229E+01  0.00000000000E+00 0.  1.
         23    2    1    2    0    0  0.00000000000E+00  0.00000000000E+00  0.36466103359E+03  0.37580411124E+03  0.90835348862E+02 0.  0.
        -11    1    3    3    0    0 -0.12591604111E+02  0.41811909705E+02  0.13066006030E+03  0.13776369494E+03  0.00000000000E+00 0.  1.
         11    1    3    3    0    0  0.12591604111E+02 -0.41811909705E+02  0.23400097330E+03  0.23804041630E+03  0.00000000000E+00 0. -1.
<mgrwt>
<rscale>  0 0.90835349E+02</rscale>
<asrwt>0</asrwt>
<pdfrwt beam="1">  1        4 0.56958838E-01 0.90835349E+02</pdfrwt>
<pdfrwt beam="2">  1       -4 0.85716011E-03 0.90835349E+02</pdfrwt>
<totfact> 0.15890315E+04</totfact>
</mgrwt>
</event>
<event>
 5    1  0.6125604E+000  0.9577255E+02  0.7546771E-02  0.1289446E+00
         -1   -1    0    0    0  501 -0.00000000000E+00  0.00000000000E+00  0.66246167198E+02  0.66246167198E+02  0.00000000000E+00 0.  1.
          1   -1    0    0  501    0  0.00000000000E+00 -0.00000000000E+00 -0.34614761985E+02  0.34614761985E+02  0.00000000000E+00 0. -1.
         23    2    1    2    0    0  0.00000000000E+00  0.00000000000E+00  0.31631405213E+02  0.10086092918E+03  0.95772549510E+02 0.  0.
        -11    1    3    3    0    0  0.15094337193E+02 -0.22946080673E+02  0.57126506423E+02  0.63386113382E+02  0.00000000000E+00 0.  1.
         11    1    3    3    0    0 -0.15094337193E+02  0.22946080673E+02 -0.25495101210E+02  0.37474815800E+02  0.00000000000E+00 0. -1.
<mgrwt>
<rscale>  0 0.95772550E+02</rscale>
<asrwt>0</asrwt>
<pdfrwt beam="2">  1        1 0.53253480E-02 0.95772550E+02</pdfrwt>
<pdfrwt beam="1">  1       -1 0.10191718E-01 0.95772550E+02</pdfrwt>
<totfact> 0.77028875E+04</totfact>
</mgrwt>
</event>
<event>
 5    1  0.6125604E+000  0.8917538E+02  0.7546771E-02  0.1304861E+00
         -2   -1    0    0    0  501 -0.00000000000E+00  0.00000000000E+00  0.53484689384E+02  0.53484689384E+02  0.00000000000E+00 0.  1.
          2   -1    0    0  501    0  0.00000000000E+00 -0.00000000000E+00 -0.37170675173E+02  0.37170675173E+02  0.00000000000E+00 0. -1.
         23    2    1    2    0    0  0.00000000000E+00  0.00000000000E+00  0.16314014212E+02  0.90655364557E+02  0.89175378122E+02 0.  0.
        -11    1    3    3    0    0  0.36098058771E+02 -0.17971188060E+02  0.27499835137E+02  0.48808548225E+02  0.00000000000E+00 0.  1.
         11    1    3    3    0    0 -0.36098058771E+02  0.17971188060E+02 -0.11185820925E+02  0.41846816332E+02  0.00000000000E+00 0. -1.
<mgrwt>
<rscale>  0 0.89175378E+02</rscale>
<asrwt>0</asrwt>
<pdfrwt beam="2">  1        2 0.57185655E-02 0.89175378E+02</pdfrwt>
<pdfrwt beam="1">  1       -2 0.82284137E-02 0.89175378E+02</pdfrwt>
<totfact> 0.99822432E+04</totfact>
</mgrwt>
</event>
<event>
 5    1  0.6125604E+000  0.8942068E+02  0.7546771E-02  0.1304261E+00
         -1   -1    0    0    0  501 -0.00000000000E+00  0.00000000000E+00  0.12449582168E+02  0.12449582168E+02  0.00000000000E+00 0.  1.
          1   -1    0    0  501    0  0.00000000000E+00 -0.00000000000E+00 -0.16056879684E+03  0.16056879684E+03  0.00000000000E+00 0. -1.
         23    2    1    2    0    0  0.00000000000E+00  0.00000000000E+00 -0.14811921468E+03  0.17301837901E+03  0.89420678368E+02 0.  0.
        -11    1    3    3    0    0  0.43439708237E+02  0.91497518579E+01 -0.63768619086E+02  0.77699182692E+02  0.00000000000E+00 0. -1.
         11    1    3    3    0    0 -0.43439708237E+02 -0.91497518579E+01 -0.84350595590E+02  0.95319196320E+02  0.00000000000E+00 0.  1.
<mgrwt>
<rscale>  0 0.89420678E+02</rscale>
<asrwt>0</asrwt>
<pdfrwt beam="2">  1        1 0.24702890E-01 0.89420678E+02</pdfrwt>
<pdfrwt beam="1">  1       -1 0.19153205E-02 0.89420678E+02</pdfrwt>
<totfact> 0.11965080E+05</totfact>
</mgrwt>
</event>
<event>
 5    1  0.6125604E+000  0.7580776E+02  0.7546771E-02  0.1341388E+00
         -3   -1    0    0    0  501 -0.00000000000E+00  0.00000000000E+00  0.16868493815E+03  0.16868493815E+03  0.00000000000E+00 0.  1.
          3   -1    0    0  501    0  0.00000000000E+00 -0.00000000000E+00 -0.85170864883E+01  0.85170864883E+01  0.00000000000E+00 0. -1.
         23    2    1    2    0    0  0.00000000000E+00  0.00000000000E+00  0.16016785166E+03  0.17720202464E+03  0.75807762334E+02 0.  0.
        -11    1    3    3    0    0  0.30638346848E+02  0.18597851895E+02  0.51254088881E+02  0.62542545676E+02  0.00000000000E+00 0. -1.
         11    1    3    3    0    0 -0.30638346848E+02 -0.18597851895E+02  0.10891376278E+03  0.11465947896E+03  0.00000000000E+00 0.  1.
<mgrwt>
<rscale>  0 0.75807762E+02</rscale>
<asrwt>0</asrwt>
<pdfrwt beam="2">  1        3 0.13103211E-02 0.75807762E+02</pdfrwt>
<pdfrwt beam="1">  1       -3 0.25951526E-01 0.75807762E+02</pdfrwt>
<totfact> 0.48661940E+04</totfact>
</mgrwt>
</event>
<event>
 5    1  0.6125604E+000  0.9181391E+02  0.7546771E-02  0.1298518E+00
          3   -1    0    0  501    0  0.00000000000E+00  0.00000000000E+00  0.18534911438E+03  0.18534911438E+03  0.00000000000E+00 0. -1.
         -3   -1    0    0    0  501 -0.00000000000E+00 -0.00000000000E+00 -0.11370156355E+02  0.11370156355E+02  0.00000000000E+00 0.  1.
         23    2    1    2    0    0  0.00000000000E+00  0.00000000000E+00  0.17397895803E+03  0.19671927074E+03  0.91813907679E+02 0.  0.
        -11    1    3    3    0    0  0.38828049760E+02  0.85318638824E+01  0.37801440275E+02  0.54857625143E+02  0.00000000000E+00 0.  1.
         11    1    3    3    0    0 -0.38828049760E+02 -0.85318638824E+01  0.13617751775E+03  0.14186164560E+03  0.00000000000E+00 0. -1.
<mgrwt>
<rscale>  0 0.91813908E+02</rscale>
<asrwt>0</asrwt>
<pdfrwt beam="1">  1        3 0.28515246E-01 0.91813908E+02</pdfrwt>
<pdfrwt beam="2">  1       -3 0.17492550E-02 0.91813908E+02</pdfrwt>
<totfact> 0.28134415E+04</totfact>
</mgrwt>
</event>
<event>
 5    1  0.6125604E+000  0.8476313E+02  0.7546771E-02  0.1316053E+00
         -1   -1    0    0    0  501 -0.00000000000E+00  0.00000000000E+00  0.19332041168E+02  0.19332041168E+02  0.00000000000E+00 0.  1.
          1   -1    0    0  501    0  0.00000000000E+00 -0.00000000000E+00 -0.92912955713E+02  0.92912955713E+02  0.00000000000E+00 0. -1.
         23    2    1    2    0    0  0.00000000000E+00  0.00000000000E+00 -0.73580914545E+02  0.11224499688E+03  0.84763130780E+02 0.  0.
        -11    1    3    3    0    0 -0.38693570121E+02 -0.12207450889E+02 -0.53007841897E+02  0.66753618093E+02  0.00000000000E+00 0. -1.
         11    1    3    3    0    0  0.38693570121E+02  0.12207450889E+02 -0.20573072648E+02  0.45491378789E+02  0.00000000000E+00 0.  1.
<mgrwt>
<rscale>  0 0.84763131E+02</rscale>
<asrwt>0</asrwt>
<pdfrwt beam="2">  1        1 0.14294301E-01 0.84763131E+02</pdfrwt>
<pdfrwt beam="1">  1       -1 0.29741602E-02 0.84763131E+02</pdfrwt>
<totfact> 0.12581132E+05</totfact>
</mgrwt>
</event>
<event>
 5    1  0.6125604E+000  0.9079539E+02  0.7546771E-02  0.1300937E+00
          1   -1    0    0  501    0  0.00000000000E+00  0.00000000000E+00  0.20343882262E+03  0.20343882262E+03  0.00000000000E+00 0. -1.
         -1   -1    0    0    0  501 -0.00000000000E+00 -0.00000000000E+00 -0.10130567869E+02  0.10130567869E+02  0.00000000000E+00 0.  1.
         23    2    1    2    0    0  0.00000000000E+00  0.00000000000E+00  0.19330825475E+03  0.21356939049E+03  0.90795391949E+02 0.  0.
        -11    1    3    3    0    0  0.11949901304E+02 -0.42212847563E+02  0.12410811646E+03  0.13163414911E+03  0.00000000000E+00 0. -1.
         11    1    3    3    0    0 -0.11949901304E+02  0.42212847563E+02  0.69200138292E+02  0.81935241381E+02  0.00000000000E+00 0.  1.
<mgrwt>
<rscale>  0 0.90795392E+02</rscale>
<asrwt>0</asrwt>
<pdfrwt beam="1">  1        1 0.31298277E-01 0.90795392E+02</pdfrwt>
<pdfrwt beam="2">  1       -1 0.15585491E-02 0.90795392E+02</pdfrwt>
<totfact> 0.12014071E+05</totfact>
</mgrwt>
</event>
<event>
 5    1  0.6125604E+000  0.9272141E+02  0.7546771E-02  0.1296392E+00
          1   -1    0    0  501    0  0.00000000000E+00  0.00000000000E+00  0.10932478037E+02  0.10932478037E+02  0.00000000000E+00 0. -1.
         -1   -1    0    0    0  501 -0.00000000000E+00 -0.00000000000E+00 -0.19659905611E+03  0.19659905611E+03  0.00000000000E+00 0.  1.
         23    2    1    2    0    0  0.00000000000E+00  0.00000000000E+00 -0.18566657808E+03  0.20753153415E+03  0.92721407736E+02 0.  0.
        -11    1    3    3    0    0  0.27720156500E+02 -0.27548676298E+02 -0.37013052973E+02  0.53826598746E+02  0.00000000000E+00 0. -1.
         11    1    3    3    0    0 -0.27720156500E+02  0.27548676298E+02 -0.14865352510E+03  0.15370493540E+03  0.00000000000E+00 0.  1.
<mgrwt>
<rscale>  0 0.92721408E+02</rscale>
<asrwt>0</asrwt>
<pdfrwt beam="1">  1        1 0.16819197E-02 0.92721408E+02</pdfrwt>
<pdfrwt beam="2">  1       -1 0.30246009E-01 0.92721408E+02</pdfrwt>
<totfact> 0.66773168E+04</totfact>
</mgrwt>
</event>
<event>
 5    1  0.6125604E+000  0.9136651E+02  0.7546771E-02  0.1299576E+00
          4   -1    0    0  501    0  0.00000000000E+00  0.00000000000E+00  0.12112763919E+02  0.12112763919E+02  0.00000000000E+00 0. -1.
         -4   -1    0    0    0  501 -0.00000000000E+00 -0.00000000000E+00 -0.17229427622E+03  0.17229427622E+03  0.00000000000E+00 0.  1.
         23    2    1    2    0    0  0.00000000000E+00  0.00000000000E+00 -0.16018151230E+03  0.18440704013E+03  0.91366512298E+02 0.  0.
        -11    1    3    3    0    0  0.62592800249E+01 -0.34368598712E+02 -0.13950560046E+03  0.14381304435E+03  0.00000000000E+00 0.  1.
         11    1    3    3    0    0 -0.62592800249E+01  0.34368598712E+02 -0.20675911834E+02  0.40593995788E+02  0.00000000000E+00 0. -1.
<mgrwt>
<rscale>  0 0.91366512E+02</rscale>
<asrwt>0</asrwt>
<pdfrwt beam="1">  1        4 0.18635024E-02 0.91366512E+02</pdfrwt>
<pdfrwt beam="2">  1       -4 0.26506808E-01 0.91366512E+02</pdfrwt>
<totfact> 0.21932719E+04</totfact>
</mgrwt>
</event>
<event>
 5    1  0.6125604E+000  0.8838702E+02  0.7546771E-02  0.1306805E+00
         -1   -1    0    0    0  501 -0.00000000000E+00  0.00000000000E+00  0.54450796633E+01  0.54450796633E+01  0.00000000000E+00 0.  1.
          1   -1    0    0  501    0  0.00000000000E+00 -0.00000000000E+00 -0.35868458699E+03  0.35868458699E+03  0.00000000000E+00 0. -1.
         23    2    1    2    0    0  0.00000000000E+00  0.00000000000E+00 -0.35323950733E+03  0.36412966666E+03  0.88387016018E+02 0.  0.
        -11    1    3    3    0    0  0.39376122767E+02 -0.17675639227E+02 -0.13750218490E+03  0.14411716802E+03  0.00000000000E+00 0.  1.
         11    1    3    3    0    0 -0.39376122767E+02  0.17675639227E+02 -0.21573732243E+03  0.22001249864E+03  0.00000000000E+00 0. -1.
<mgrwt>
<rscale>  0 0.88387016E+02</rscale>
<asrwt>0</asrwt>
<pdfrwt beam="2">  1        1 0.55182243E-01 0.88387016E+02</pdfrwt>
<pdfrwt beam="1">  1       -1 0.83770458E-03 0.88387016E+02</pdfrwt>
<totfact> 0.14378545E+05</totfact>
</mgrwt>
</event>
<event>
 5    1  0.6125604E+000  0.9010814E+02  0.7546771E-02  0.1302590E+00
          3   -1    0    0  501    0  0.00000000000E+00  0.00000000000E+00  0.28151317302E+02  0.28151317302E+02  0.00000000000E+00 0. -1.
         -3   -1    0    0    0  501 -0.00000000000E+00 -0.00000000000E+00 -0.72105649409E+02  0.72105649409E+02  0.00000000000E+00 0.  1.
         23    2    1    2    0    0  0.00000000000E+00  0.00000000000E+00 -0.43954332108E+02  0.10025696671E+03  0.90108135388E+02 0.  0.
        -11    1    3    3    0    0  0.12447787230E+02  0.21302761156E+02  0.19966367324E+02  0.31739736356E+02  0.00000000000E+00 0. -1.
         11    1    3    3    0    0 -0.12447787230E+02 -0.21302761156E+02 -0.63920699432E+02  0.68517230356E+02  0.00000000000E+00 0.  1.
<mgrwt>
<rscale>  0 0.90108135E+02</rscale>
<asrwt>0</asrwt>
<pdfrwt beam="1">  1        3 0.43309719E-02 0.90108135E+02</pdfrwt>
<pdfrwt beam="2">  1       -3 0.11093177E-01 0.90108135E+02</pdfrwt>
<totfact> 0.35781317E+04</totfact>
</mgrwt>
</event>
<event>
 5    1  0.6125604E+000  0.9789704E+02  0.7546771E-02  0.1284781E+00
         -3   -1    0    0    0  501 -0.00000000000E+00  0.00000000000E+00  0.21573292827E+02  0.21573292827E+02  0.00000000000E+00 0.  1.
          3   -1    0    0  501    0  0.00000000000E+00 -0.00000000000E+00 -0.11106129030E+03  0.11106129030E+03  0.00000000000E+00 0. -1.
         23    2    1    2    0    0  0.00000000000E+00  0.00000000000E+00 -0.89487997474E+02  0.13263458313E+03  0.97897042599E+02 0.  0.
        -11    1    3    3    0    0  0.23634514249E+02 -0.35471279890E+02 -0.12138946474E+02  0.44318799423E+02  0.00000000000E+00 0.  1.
         11    1    3    3    0    0 -0.23634514249E+02  0.35471279890E+02 -0.77349051000E+02  0.88315783705E+02  0.00000000000E+00 0. -1.
<mgrwt>
<rscale>  0 0.97897043E+02</rscale>
<asrwt>0</asrwt>
<pdfrwt beam="2">  1        3 0.17086353E-01 0.97897043E+02</pdfrwt>
<pdfrwt beam="1">  1       -3 0.33189681E-02 0.97897043E+02</pdfrwt>
<totfact> 0.26690372E+04</totfact>
</mgrwt>
</event>
<event>
 5    1  0.6125604E+000  0.8978533E+02  0.7546771E-02  0.1303372E+00
          1   -1    0    0  501    0  0.00000000000E+00  0.00000000000E+00  0.14811072840E+02  0.14811072840E+02  0.00000000000E+00 0. -1.
         -1   -1    0    0    0  501 -0.00000000000E+00 -0.00000000000E+00 -0.13607057835E+03  0.13607057835E+03  0.00000000000E+00 0.  1.
         23    2    1    2    0    0  0.00000000000E+00  0.00000000000E+00 -0.12125950551E+03  0.15088165119E+03  0.89785327249E+02 0.  0.
        -11    1    3    3    0    0 -0.26571231216E+02 -0.13314398208E+02 -0.40887605616E+01  0.30000358180E+02  0.00000000000E+00 0.  1.
         11    1    3    3    0    0  0.26571231216E+02  0.13314398208E+02 -0.11717074495E+03  0.12088129301E+03  0.00000000000E+00 0. -1.
<mgrwt>
<rscale>  0 0.89785327E+02</rscale>
<asrwt>0</asrwt>
<pdfrwt beam="1">  1        1 0.22786266E-02 0.89785327E+02</pdfrwt>
<pdfrwt beam="2">  1       -1 0.20933935E-01 0.89785327E+02</pdfrwt>
<totfact> 0.79567632E+04</totfact>
</mgrwt>
</event>
<event>
 5    1  0.6125604E+000  0.8242316E+02  0.7546771E-02  0.1322312E+00
         -1   -1    0    0    0  501 -0.00000000000E+00  0.00000000000E+00  0.73468748345E+01  0.73468748345E+01  0.00000000000E+00 0.  1.
          1   -1    0    0  501    0  0.00000000000E+00 -0.00000000000E+00 -0.23117233329E+03  0.23117233329E+03  0.00000000000E+00 0. -1.
         23    2    1    2    0    0  0.00000000000E+00  0.00000000000E+00 -0.22382545846E+03  0.23851920813E+03  0.82423156889E+02 0.  0.
        -11    1    3    3    0    0 -0.29459992135E+02  0.23222489747E+02 -0.62528987709E+02  0.72918101117E+02  0.00000000000E+00 0.  1.
         11    1    3    3    0    0  0.29459992135E+02 -0.23222489747E+02 -0.16129647075E+03  0.16560110701E+03  0.00000000000E+00 0. -1.
<mgrwt>
<rscale>  0 0.82423157E+02</rscale>
<asrwt>0</asrwt>
<pdfrwt beam="2">  1        1 0.35564976E-01 0.82423157E+02</pdfrwt>
<pdfrwt beam="1">  1       -1 0.11302884E-02 0.82423157E+02</pdfrwt>
<totfact> 0.15929328E+05</totfact>
</mgrwt>
</event>
<event>
 5    1  0.6125604E+000  0.9123109E+02  0.7546771E-02  0.1299898E+00
         -3   -1    0    0    0  501 -0.00000000000E+00  0.00000000000E+00  0.80719370646E+02  0.80719370646E+02  0.00000000000E+00 0.  1.
          3   -1    0    0  501    0  0.00000000000E+00 -0.00000000000E+00 -0.25777928497E+02  0.25777928497E+02  0.00000000000E+00 0. -1.
         23    2    1    2    0    0  0.00000000000E+00  0.00000000000E+00  0.54941442149E+02  0.10649729914E+03  0.91231094804E+02 0.  0.
        -11    1    3    3    0    0 -0.42880665482E+02  0.59612424070E+01  0.44245063934E+02  0.61902452017E+02  0.00000000000E+00 0.  1.
         11    1    3    3    0    0  0.42880665482E+02 -0.59612424070E+01  0.10696378215E+02  0.44594847125E+02  0.00000000000E+00 0. -1.
<mgrwt>
<rscale>  0 0.91231095E+02</rscale>
<asrwt>0</asrwt>
<pdfrwt beam="2">  1        3 0.39658352E-02 0.91231095E+02</pdfrwt>
<pdfrwt beam="1">  1       -3 0.12418365E-01 0.91231095E+02</pdfrwt>
<totfact> 0.34142141E+04</totfact>
</mgrwt>
</event>
<event>
 5    1  0.6125604E+000  0.9305333E+02  0.7546771E-02  0.1295622E+00
         -1   -1    0    0    0  501 -0.00000000000E+00  0.00000000000E+00  0.15540579102E+03  0.15540579102E+03  0.00000000000E+00 0.  1.
          1   -1    0    0  501    0  0.00000000000E+00 -0.00000000000E+00 -0.13929536292E+02  0.13929536292E+02  0.00000000000E+00 0. -1.
         23    2    1    2    0    0  0.00000000000E+00  0.00000000000E+00  0.14147625473E+03  0.16933532731E+03  0.93053331074E+02 0.  0.
        -11    1    3    3    0    0  0.13619855973E+02  0.36619331924E+02  0.24764090058E+02  0.46257281629E+02  0.00000000000E+00 0. -1.
         11    1    3    3    0    0 -0.13619855973E+02 -0.36619331924E+02  0.11671216467E+03  0.12307804568E+03  0.00000000000E+00 0.  1.
<mgrwt>
<rscale>  0 0.93053331E+02</rscale>
<asrwt>0</asrwt>
<pdfrwt beam="2">  1        1 0.21430057E-02 0.93053331E+02</pdfrwt>
<pdfrwt beam="1">  1       -1 0.23908582E-01 0.93053331E+02</pdfrwt>
<totfact> 0.70337251E+04</totfact>
</mgrwt>
</event>
<event>
 5    1  0.6125604E+000  0.9199697E+02  0.7546771E-02  0.1298087E+00
         -1   -1    0    0    0  501 -0.00000000000E+00  0.00000000000E+00  0.43832911991E+02  0.43832911991E+02  0.00000000000E+00 0.  1.
          1   -1    0    0  501    0  0.00000000000E+00 -0.00000000000E+00 -0.48271052796E+02  0.48271052796E+02  0.00000000000E+00 0. -1.
         23    2    1    2    0    0  0.00000000000E+00  0.00000000000E+00 -0.44381408053E+01  0.92103964787E+02  0.91996974057E+02 0.  0.
        -11    1    3    3    0    0  0.20761543209E+02 -0.23563505308E+02  0.31429246624E+02  0.44430597590E+02  0.00000000000E+00 0. -1.
         11    1    3    3    0    0 -0.20761543209E+02  0.23563505308E+02 -0.35867387430E+02  0.47673367197E+02  0.00000000000E+00 0.  1.
<mgrwt>
<rscale>  0 0.91996974E+02</rscale>
<asrwt>0</asrwt>
<pdfrwt beam="2">  1        1 0.74263158E-02 0.91996974E+02</pdfrwt>
<pdfrwt beam="1">  1       -1 0.67435250E-02 0.91996974E+02</pdfrwt>
<totfact> 0.90956858E+04</totfact>
</mgrwt>
</event>
<event>
 5    1  0.6125604E+000  0.8779646E+02  0.7546771E-02  0.1308277E+00
          2   -1    0    0  501    0  0.00000000000E+00  0.00000000000E+00  0.70842949000E+02  0.70842949000E+02  0.00000000000E+00 0. -1.
         -2   -1    0    0    0  501 -0.00000000000E+00 -0.00000000000E+00 -0.27201786548E+02  0.27201786548E+02  0.00000000000E+00 0.  1.
         23    2    1    2    0    0  0.00000000000E+00  0.00000000000E+00  0.43641162452E+02  0.98044735549E+02  0.87796464101E+02 0.  0.
        -11    1    3    3    0    0 -0.23669651031E+02  0.27835588534E+02 -0.53501705225E+01  0.36928264156E+02  0.00000000000E+00 0.  1.
         11    1    3    3    0    0  0.23669651031E+02 -0.27835588534E+02  0.48991332975E+02  0.61116471393E+02  0.00000000000E+00 0. -1.
<mgrwt>
<rscale>  0 0.87796464E+02</rscale>
<asrwt>0</asrwt>
<pdfrwt beam="1">  1        2 0.10898915E-01 0.87796464E+02</pdfrwt>
<pdfrwt beam="2">  1       -2 0.41848903E-02 0.87796464E+02</pdfrwt>
<totfact> 0.12330082E+05</totfact>
</mgrwt>
</event>
<event>
 5    1  0.6125604E+000  0.8861452E+02  0.7546771E-02  0.1306242E+00
         -4   -1    0    0    0  501 -0.00000000000E+00  0.00000000000E+00  0.95541873200E+01  0.95541873200E+01  0.00000000000E+00 0.  1.
          4   -1    0    0  501    0  0.00000000000E+00 -0.00000000000E+00 -0.20547361364E+03  0.20547361364E+03  0.00000000000E+00 0. -1.
         23    2    1    2    0    0  0.00000000000E+00  0.00000000000E+00 -0.19591942632E+03  0.21502780096E+03  0.88614522377E+02 0.  0.
        -11    1    3    3    0    0  0.92936602185E+01  0.41308661886E+02 -0.66288253346E+02  0.78656914501E+02  0.00000000000E+00 0.  1.
         11    1    3    3    0    0 -0.92936602185E+01 -0.41308661886E+02 -0.12963117297E+03  0.13637088646E+03  0.00000000000E+00 0. -1.
<mgrwt>
<rscale>  0 0.88614522E+02</rscale>
<asrwt>0</asrwt>
<pdfrwt beam="2">  1        4 0.31611325E-01 0.88614522E+02</pdfrwt>
<pdfrwt beam="1">  1       -4 0.14698750E-02 0.88614522E+02</pdfrwt>
<totfact> 0.22413476E+04</totfact>
</mgrwt>
</event>
<event>
 5    1  0.6125604E+000  0.9055666E+02  0.7546771E-02  0.1301509E+00
          2   -1    0    0  501    0  0.00000000000E+00  0.00000000000E+00  0.10077527764E+03  0.10077527764E+03  0.00000000000E+00 0. -1.
         -2   -1    0    0    0  501 -0.00000000000E+00 -0.00000000000E+00 -0.20343554428E+02  0.20343554428E+02  0.00000000000E+00 0.  1.
         23    2    1    2    0    0  0.00000000000E+00  0.00000000000E+00  0.80431723217E+02  0.12111883207E+03  0.90556663936E+02 0.  0.
        -11    1    3    3    0    0  0.34941080195E+02 -0.20209427875E+02  0.67653277407E+02  0.78779857859E+02  0.00000000000E+00 0. -1.
         11    1    3    3    0    0 -0.34941080195E+02  0.20209427875E+02  0.12778445809E+02  0.42338974215E+02  0.00000000000E+00 0.  1.
<mgrwt>
<rscale>  0 0.90556664E+02</rscale>
<asrwt>0</asrwt>
<pdfrwt beam="1">  1        2 0.15503889E-01 0.90556664E+02</pdfrwt>
<pdfrwt beam="2">  1       -2 0.31297777E-02 0.90556664E+02</pdfrwt>
<totfact> 0.12529454E+05</totfact>
</mgrwt>
</event>
<event>
 5    1  0.6125604E+000  0.9138365E+02  0.7546771E-02  0.1299535E+00
         -2   -1    0    0    0  501 -0.00000000000E+00  0.00000000000E+00  0.18080754468E+02  0.18080754468E+02  0.00000000000E+00 0.  1.
          2   -1    0    0  501    0  0.00000000000E+00 -0.00000000000E+00 -0.11546769381E+03  0.11546769381E+03  0.00000000000E+00 0. -1.
         23    2    1    2    0    0  0.00000000000E+00  0.00000000000E+00 -0.97386939340E+02  0.13354844828E+03  0.91383653259E+02 0.  0.
        -11    1    3    3    0    0 -0.44345526559E+02  0.76993645013E+01 -0.37192202343E+02  0.58387206258E+02  0.00000000000E+00 0. -1.
         11    1    3    3    0    0  0.44345526559E+02 -0.76993645013E+01 -0.60194736998E+02  0.75161242018E+02  0.00000000000E+00 0.  1.
<mgrwt>
<rscale>  0 0.91383653E+02</rscale>
<asrwt>0</asrwt>
<pdfrwt beam="2">  1        2 0.17764260E-01 0.91383653E+02</pdfrwt>
<pdfrwt beam="1">  1       -2 0.27816546E-02 0.91383653E+02</pdfrwt>
<totfact> 0.12748724E+05</totfact>
</mgrwt>
</event>
<event>
 5    1  0.6125604E+000  0.9093873E+02  0.7546771E-02  0.1300594E+00
          2   -1    0    0  501    0  0.00000000000E+00  0.00000000000E+00  0.23207129737E+02  0.23207129737E+02  0.00000000000E+00 0. -1.
         -2   -1    0    0    0  501 -0.00000000000E+00 -0.00000000000E+00 -0.89087420998E+02  0.89087420998E+02  0.00000000000E+00 0.  1.
         23    2    1    2    0    0  0.00000000000E+00  0.00000000000E+00 -0.65880291261E+02  0.11229455074E+03  0.90938734037E+02 0.  0.
        -11    1    3    3    0    0 -0.42505952596E+02  0.36247870300E+01 -0.52369449975E+02  0.67545942719E+02  0.00000000000E+00 0.  1.
         11    1    3    3    0    0  0.42505952596E+02 -0.36247870300E+01 -0.13510841286E+02  0.44748608016E+02  0.00000000000E+00 0. -1.
<mgrwt>
<rscale>  0 0.90938734E+02</rscale>
<asrwt>0</asrwt>
<pdfrwt beam="1">  1        2 0.35703277E-02 0.90938734E+02</pdfrwt>
<pdfrwt beam="2">  1       -2 0.13705757E-01 0.90938734E+02</pdfrwt>
<totfact> 0.83080781E+04</totfact>
</mgrwt>
</event>
<event>
 5    1  0.6125604E+000  0.8830573E+02  0.7546771E-02  0.1307007E+00
          1   -1    0    0  501    0  0.00000000000E+00  0.00000000000E+00  0.19024315398E+03  0.19024315398E+03  0.00000000000E+00 0. -1.
         -1   -1    0    0    0  501 -0.00000000000E+00 -0.00000000000E+00 -0.10247283485E+02  0.10247283485E+02  0.00000000000E+00 0.  1.
         23    2    1    2    0    0  0.00000000000E+00  0.00000000000E+00  0.17999587049E+03  0.20049043746E+03  0.88305730955E+02 0.  0.
        -11    1    3    3    0    0 -0.21649381330E+02  0.36109396183E+02  0.59801335573E+02  0.73135380911E+02  0.00000000000E+00 0.  1.
         11    1    3    3    0    0  0.21649381330E+02 -0.36109396183E+02  0.12019453492E+03  0.12735505655E+03  0.00000000000E+00 0. -1.
<mgrwt>
<rscale>  0 0.88305731E+02</rscale>
<asrwt>0</asrwt>
<pdfrwt beam="1">  1        1 0.29268175E-01 0.88305731E+02</pdfrwt>
<pdfrwt beam="2">  1       -1 0.15765053E-02 0.88305731E+02</pdfrwt>
<totfact> 0.12775623E+05</totfact>
</mgrwt>
</event>
<event>
 5    1  0.6125604E+000  0.9052816E+02  0.7546771E-02  0.1301578E+00
         -1   -1    0    0    0  501 -0.00000000000E+00  0.00000000000E+00  0.90034371791E+01  0.90034371791E+01  0.00000000000E+00 0.  1.
          1   -1    0    0  501    0  0.00000000000E+00 -0.00000000000E+00 -0.22756165446E+03  0.22756165446E+03  0.00000000000E+00 0. -1.
         23    2    1    2    0    0  0.00000000000E+00  0.00000000000E+00 -0.21855821728E+03  0.23656509164E+03  0.90528162696E+02 0.  0.
        -11    1    3    3    0    0 -0.19284534978E+02 -0.37318622228E+02 -0.65220777625E+02  0.77577849212E+02  0.00000000000E+00 0.  1.
         11    1    3    3    0    0  0.19284534978E+02  0.37318622228E+02 -0.15333743965E+03  0.15898724243E+03  0.00000000000E+00 0. -1.
<mgrwt>
<rscale>  0 0.90528163E+02</rscale>
<asrwt>0</asrwt>
<pdfrwt beam="2">  1        1 0.35009482E-01 0.90528163E+02</pdfrwt>
<pdfrwt beam="1">  1       -1 0.13851443E-02 0.90528163E+02</pdfrwt>
<totfact> 0.12376208E+05</totfact>
</mgrwt>
</event>
<event>
 5    1  0.6125604E+000  0.8409718E+02  0.7546771E-02  0.1317811E+00
         -3   -1    0    0    0  501 -0.00000000000E+00  0.00000000000E+00  0.15612761680E+03  0.15612761680E+03  0.00000000000E+00 0.  1.
          3   -1    0    0  501    0  0.00000000000E+00 -0.00000000000E+00 -0.11324606415E+02  0.11324606415E+02  0.00000000000E+00 0. -1.
         23    2    1    2    0    0  0.00000000000E+00  0.00000000000E+00  0.14480301039E+03  0.16745222321E+03  0.84097177378E+02 0.  0.
        -11    1    3    3    0    0  0.34884959419E+02 -0.23253527358E+02  0.65981120293E+02  0.78174133595E+02  0.00000000000E+00 0.  1.
         11    1    3    3    0    0 -0.34884959419E+02  0.23253527358E+02  0.78821890093E+02  0.89278089619E+02  0.00000000000E+00 0. -1.
<mgrwt>
<rscale>  0 0.84097177E+02</rscale>
<asrwt>0</asrwt>
<pdfrwt beam="2">  1        3 0.17422473E-02 0.84097177E+02</pdfrwt>
<pdfrwt beam="1">  1       -3 0.24019632E-01 0.84097177E+02</pdfrwt>
<totfact> 0.37618748E+04</totfact>
</mgrwt>
</event>
<event>
 5    1  0.6125604E+000  0.9036913E+02  0.7546771E-02  0.1301960E+00
         -1   -1    0    0    0  501 -0.00000000000E+00  0.00000000000E+00  0.86500002248E+02  0.86500002248E+02  0.00000000000E+00 0.  1.
          1   -1    0    0  501    0  0.00000000000E+00 -0.00000000000E+00 -0.23602828366E+02  0.23602828366E+02  0.00000000000E+00 0. -1.
         23    2    1    2    0    0  0.00000000000E+00  0.00000000000E+00  0.62897173882E+02  0.11010283061E+03  0.90369125407E+02 0.  0.
        -11    1    3    3    0    0 -0.22870130997E+02 -0.24043785794E+02  0.68812932915E+02  0.76396114191E+02  0.00000000000E+00 0.  1.
         11    1    3    3    0    0  0.22870130997E+02  0.24043785794E+02 -0.59157590326E+01  0.33706716423E+02  0.00000000000E+00 0. -1.
<mgrwt>
<rscale>  0 0.90369125E+02</rscale>
<asrwt>0</asrwt>
<pdfrwt beam="2">  1        1 0.36312044E-02 0.90369125E+02</pdfrwt>
<pdfrwt beam="1">  1       -1 0.13307693E-01 0.90369125E+02</pdfrwt>
<totfact> 0.85449925E+04</totfact>
</mgrwt>
</event>
<event>
 5    1  0.6125604E+000  0.8619746E+02  0.7546771E-02  0.1312330E+00
         -1   -1    0    0    0  501 -0.00000000000E+00  0.00000000000E+00  0.10494575561E+02  0.10494575561E+02  0.00000000000E+00 0.  1.
          1   -1    0    0  501    0  0.00000000000E+00 -0.00000000000E+00 -0.17699626488E+03  0.17699626488E+03  0.00000000000E+00 0. -1.
         23    2    1    2    0    0  0.00000000000E+00  0.00000000000E+00 -0.16650168932E+03  0.18749084044E+03  0.86197463438E+02 0.  0.
        -11    1    3    3    0    0  0.66491449457E+01  0.41951684237E+02 -0.99137608125E+02  0.10785369852E+03  0.00000000000E+00 0.  1.
         11    1    3    3    0    0 -0.66491449457E+01 -0.41951684237E+02 -0.67364081198E+02  0.79637141928E+02  0.00000000000E+00 0. -1.
<mgrwt>
<rscale>  0 0.86197463E+02</rscale>
<asrwt>0</asrwt>
<pdfrwt beam="2">  1        1 0.27230192E-01 0.86197463E+02</pdfrwt>
<pdfrwt beam="1">  1       -1 0.16145502E-02 0.86197463E+02</pdfrwt>
<totfact> 0.13442258E+05</totfact>
</mgrwt>
</event>
<event>
 5    1  0.6125604E+000  0.9164579E+02  0.7546771E-02  0.1298914E+00
          1   -1    0    0  501    0  0.00000000000E+00  0.00000000000E+00  0.63319948349E+02  0.63319948349E+02  0.00000000000E+00 0.  1.
         -1   -1    0    0    0  501 -0.00000000000E+00 -0.00000000000E+00 -0.33160759017E+02  0.33160759017E+02  0.00000000000E+00 0. -1.
         23    2    1    2    0    0  0.00000000000E+00  0.00000000000E+00  0.30159189332E+02  0.96480707366E+02  0.91645786552E+02 0.  0.
        -11    1    3    3    0    0  0.43217344619E+02  0.80957963292E+01  0.28662062550E+02  0.52486137443E+02  0.00000000000E+00 0.  1.
         11    1    3    3    0    0 -0.43217344619E+02 -0.80957963292E+01  0.14971267820E+01  0.43994569923E+02  0.00000000000E+00 0. -1.
<mgrwt>
<rscale>  0 0.91645787E+02</rscale>
<asrwt>0</asrwt>
<pdfrwt beam="1">  1        1 0.97415305E-02 0.91645787E+02</pdfrwt>
<pdfrwt beam="2">  1       -1 0.51016552E-02 0.91645787E+02</pdfrwt>
<totfact> 0.95790328E+04</totfact>
</mgrwt>
</event>
<event>
 5    1  0.6125604E+000  0.9057288E+02  0.7546771E-02  0.1301470E+00
          1   -1    0    0  501    0  0.00000000000E+00  0.00000000000E+00  0.15596807804E+02  0.15596807804E+02  0.00000000000E+00 0. -1.
         -1   -1    0    0    0  501 -0.00000000000E+00 -0.00000000000E+00 -0.13149239064E+03  0.13149239064E+03  0.00000000000E+00 0.  1.
         23    2    1    2    0    0  0.00000000000E+00  0.00000000000E+00 -0.11589558283E+03  0.14708919844E+03  0.90572877716E+02 0.  0.
        -11    1    3    3    0    0 -0.34292972039E+01 -0.42807410117E+02 -0.34603738476E+02  0.55151184545E+02  0.00000000000E+00 0. -1.
         11    1    3    3    0    0  0.34292972039E+01  0.42807410117E+02 -0.81291844356E+02  0.91938013895E+02  0.00000000000E+00 0.  1.
<mgrwt>
<rscale>  0 0.90572878E+02</rscale>
<asrwt>0</asrwt>
<pdfrwt beam="1">  1        1 0.23995090E-02 0.90572878E+02</pdfrwt>
<pdfrwt beam="2">  1       -1 0.20229598E-01 0.90572878E+02</pdfrwt>
<totfact> 0.78371820E+04</totfact>
</mgrwt>
</event>
<event>
 5    1  0.6125604E+000  0.9068104E+02  0.7546771E-02  0.1301211E+00
          1   -1    0    0  501    0  0.00000000000E+00  0.00000000000E+00  0.12219415411E+03  0.12219415411E+03  0.00000000000E+00 0. -1.
         -1   -1    0    0    0  501 -0.00000000000E+00 -0.00000000000E+00 -0.16823741301E+02  0.16823741301E+02  0.00000000000E+00 0.  1.
         23    2    1    2    0    0  0.00000000000E+00  0.00000000000E+00  0.10537041281E+03  0.13901789542E+03  0.90681041840E+02 0.  0.
        -11    1    3    3    0    0  0.21496786692E+01 -0.38393585465E+02  0.89512523426E+02  0.97422689212E+02  0.00000000000E+00 0. -1.
         11    1    3    3    0    0 -0.21496786692E+01  0.38393585465E+02  0.15857889388E+02  0.41595206204E+02  0.00000000000E+00 0.  1.
<mgrwt>
<rscale>  0 0.90681042E+02</rscale>
<asrwt>0</asrwt>
<pdfrwt beam="1">  1        1 0.18799100E-01 0.90681042E+02</pdfrwt>
<pdfrwt beam="2">  1       -1 0.25882680E-02 0.90681042E+02</pdfrwt>
<totfact> 0.10968771E+05</totfact>
</mgrwt>
</event>
<event>
 5    1  0.6125604E+000  0.9109876E+02  0.7546771E-02  0.1300213E+00
         -2   -1    0    0    0  501 -0.00000000000E+00  0.00000000000E+00  0.78098756580E+02  0.78098756580E+02  0.00000000000E+00 0.  1.
          2   -1    0    0  501    0  0.00000000000E+00 -0.00000000000E+00 -0.26565670662E+02  0.26565670662E+02  0.00000000000E+00 0. -1.
         23    2    1    2    0    0  0.00000000000E+00  0.00000000000E+00  0.51533085918E+02  0.10466442724E+03  0.91098756225E+02 0.  0.
        -11    1    3    3    0    0  0.43735735838E+02  0.10914404578E+02  0.18249548993E+02  0.48631109950E+02  0.00000000000E+00 0. -1.
         11    1    3    3    0    0 -0.43735735838E+02 -0.10914404578E+02  0.33283536925E+02  0.56033317293E+02  0.00000000000E+00 0.  1.
<mgrwt>
<rscale>  0 0.91098756E+02</rscale>
<asrwt>0</asrwt>
<pdfrwt beam="2">  1        2 0.40870263E-02 0.91098756E+02</pdfrwt>
<pdfrwt beam="1">  1       -2 0.12015193E-01 0.91098756E+02</pdfrwt>
<totfact> 0.85824340E+04</totfact>
</mgrwt>
</event>
<event>
 5    1  0.6125604E+000  0.9458741E+02  0.7546771E-02  0.1292108E+00
          1   -1    0    0  501    0  0.00000000000E+00  0.00000000000E+00  0.16101571344E+02  0.16101571344E+02  0.00000000000E+00 0. -1.
         -1   -1    0    0    0  501 -0.00000000000E+00 -0.00000000000E+00 -0.13891155596E+03  0.13891155596E+03  0.00000000000E+00 0.  1.
         23    2    1    2    0    0  0.00000000000E+00  0.00000000000E+00 -0.12280998462E+03  0.15501312731E+03  0.94587405693E+02 0.  0.
        -11    1    3    3    0    0  0.15600956566E+02  0.19484101563E+02  0.44279250477E+01  0.25350080468E+02  0.00000000000E+00 0. -1.
         11    1    3    3    0    0 -0.15600956566E+02 -0.19484101563E+02 -0.12723790967E+03  0.12966304684E+03  0.00000000000E+00 0.  1.
<mgrwt>
<rscale>  0 0.94587406E+02</rscale>
<asrwt>0</asrwt>
<pdfrwt beam="1">  1        1 0.24771649E-02 0.94587406E+02</pdfrwt>
<pdfrwt beam="2">  1       -1 0.21371008E-01 0.94587406E+02</pdfrwt>
<totfact> 0.69190437E+04</totfact>
</mgrwt>
</event>
<event>
 5    1  0.6125604E+000  0.1007798E+03  0.7546771E-02  0.1278665E+00
         -3   -1    0    0    0  501 -0.00000000000E+00  0.00000000000E+00  0.16851048594E+02  0.16851048594E+02  0.00000000000E+00 0.  1.
          3   -1    0    0  501    0  0.00000000000E+00 -0.00000000000E+00 -0.15068160296E+03  0.15068160296E+03  0.00000000000E+00 0. -1.
         23    2    1    2    0    0  0.00000000000E+00  0.00000000000E+00 -0.13383055437E+03  0.16753265156E+03  0.10077981968E+03 0.  0.
        -11    1    3    3    0    0  0.36781763226E+02 -0.82327708320E+01 -0.12251048458E+03  0.12817759341E+03  0.00000000000E+00 0. -1.
         11    1    3    3    0    0 -0.36781763226E+02  0.82327708320E+01 -0.11320069792E+02  0.39355058146E+02  0.00000000000E+00 0.  1.
<mgrwt>
<rscale>  0 0.10077982E+03</rscale>
<asrwt>0</asrwt>
<pdfrwt beam="2">  1        3 0.23181786E-01 0.10077982E+03</pdfrwt>
<pdfrwt beam="1">  1       -3 0.25924690E-02 0.10077982E+03</pdfrwt>
<totfact> 0.23043640E+04</totfact>
</mgrwt>
</event>
<event>
 5    1  0.6125604E+000  0.9009603E+02  0.7546771E-02  0.1302619E+00
         -1   -1    0    0    0  501 -0.00000000000E+00  0.00000000000E+00  0.47295866292E+02  0.47295866292E+02  0.00000000000E+00 0.  1.
          1   -1    0    0  501    0  0.00000000000E+00 -0.00000000000E+00 -0.42906998174E+02  0.42906998174E+02  0.00000000000E+00 0. -1.
         23    2    1    2    0    0  0.00000000000E+00  0.00000000000E+00  0.43888681180E+01  0.90202864467E+02  0.90096029850E+02 0.  0.
        -11    1    3    3    0    0 -0.76174479083E+01 -0.25076384912E+02  0.38877655225E+02  0.46886273777E+02  0.00000000000E+00 0.  1.
         11    1    3    3    0    0  0.76174479083E+01  0.25076384912E+02 -0.34488787107E+02  0.43316590690E+02  0.00000000000E+00 0. -1.
<mgrwt>
<rscale>  0 0.90096030E+02</rscale>
<asrwt>0</asrwt>
<pdfrwt beam="2">  1        1 0.66010767E-02 0.90096030E+02</pdfrwt>
<pdfrwt beam="1">  1       -1 0.72762871E-02 0.90096030E+02</pdfrwt>
<totfact> 0.94754451E+04</totfact>
</mgrwt>
</event>
<event>
 5    1  0.6125604E+000  0.8673488E+02  0.7546771E-02  0.1310957E+00
          1   -1    0    0  501    0  0.00000000000E+00  0.00000000000E+00  0.20728707177E+02  0.20728707177E+02  0.00000000000E+00 0. -1.
         -1   -1    0    0    0  501 -0.00000000000E+00 -0.00000000000E+00 -0.90730928966E+02  0.90730928966E+02  0.00000000000E+00 0.  1.
         23    2    1    2    0    0  0.00000000000E+00  0.00000000000E+00 -0.70002221789E+02  0.11145963614E+03  0.86734880145E+02 0.  0.
        -11    1    3    3    0    0 -0.39719817532E+02 -0.11718334439E+02 -0.51545574524E+02  0.66120568055E+02  0.00000000000E+00 0. -1.
         11    1    3    3    0    0  0.39719817532E+02  0.11718334439E+02 -0.18456647265E+02  0.45339068088E+02  0.00000000000E+00 0.  1.
<mgrwt>
<rscale>  0 0.86734880E+02</rscale>
<asrwt>0</asrwt>
<pdfrwt beam="1">  1        1 0.31890318E-02 0.86734880E+02</pdfrwt>
<pdfrwt beam="2">  1       -1 0.13958605E-01 0.86734880E+02</pdfrwt>
<totfact> 0.94141878E+04</totfact>
</mgrwt>
</event>
<event>
 5    1  0.6125604E+000  0.9237131E+02  0.7546771E-02  0.1297209E+00
         -3   -1    0    0    0  501 -0.00000000000E+00  0.00000000000E+00  0.14741274228E+02  0.14741274228E+02  0.00000000000E+00 0.  1.
          3   -1    0    0  501    0  0.00000000000E+00 -0.00000000000E+00 -0.14470354200E+03  0.14470354200E+03  0.00000000000E+00 0. -1.
         23    2    1    2    0    0  0.00000000000E+00  0.00000000000E+00 -0.12996226777E+03  0.15944481623E+03  0.92371307110E+02 0.  0.
        -11    1    3    3    0    0  0.36545608686E+02 -0.13485803456E+02 -0.22151341849E+02  0.44812167486E+02  0.00000000000E+00 0. -1.
         11    1    3    3    0    0 -0.36545608686E+02  0.13485803456E+02 -0.10781092592E+03  0.11463264874E+03  0.00000000000E+00 0.  1.
<mgrwt>
<rscale>  0 0.92371307E+02</rscale>
<asrwt>0</asrwt>
<pdfrwt beam="2">  1        3 0.22262083E-01 0.92371307E+02</pdfrwt>
<pdfrwt beam="1">  1       -3 0.22678884E-02 0.92371307E+02</pdfrwt>
<totfact> 0.29672838E+04</totfact>
</mgrwt>
</event>
<event>
 5    1  0.6125604E+000  0.9214537E+02  0.7546771E-02  0.1297738E+00
          2   -1    0    0  501    0  0.00000000000E+00  0.00000000000E+00  0.15821885198E+03  0.15821885198E+03  0.00000000000E+00 0. -1.
         -2   -1    0    0    0  501 -0.00000000000E+00 -0.00000000000E+00 -0.13416177040E+02  0.13416177040E+02  0.00000000000E+00 0.  1.
         23    2    1    2    0    0  0.00000000000E+00  0.00000000000E+00  0.14480267494E+03  0.17163502902E+03  0.92145366228E+02 0.  0.
        -11    1    3    3    0    0 -0.44615228090E+02 -0.11476921023E+02  0.73656158350E+02  0.86876164490E+02  0.00000000000E+00 0.  1.
         11    1    3    3    0    0  0.44615228090E+02  0.11476921023E+02  0.71146516594E+02  0.84758864534E+02  0.00000000000E+00 0. -1.
<mgrwt>
<rscale>  0 0.92145366E+02</rscale>
<asrwt>0</asrwt>
<pdfrwt beam="1">  1        2 0.24341361E-01 0.92145366E+02</pdfrwt>
<pdfrwt beam="2">  1       -2 0.20640273E-02 0.92145366E+02</pdfrwt>
<totfact> 0.13836064E+05</totfact>
</mgrwt>
</event>
<event>
 5    1  0.6125604E+000  0.9296076E+02  0.7546771E-02  0.1295836E+00
          2   -1    0    0  501    0  0.00000000000E+00  0.00000000000E+00  0.31296409963E+02  0.31296409963E+02  0.00000000000E+00 0. -1.
         -2   -1    0    0    0  501 -0.00000000000E+00 -0.00000000000E+00 -0.69031107337E+02  0.69031107337E+02  0.00000000000E+00 0.  1.
         23    2    1    2    0    0  0.00000000000E+00  0.00000000000E+00 -0.37734697373E+02  0.10032751730E+03  0.92960762377E+02 0.  0.
        -11    1    3    3    0    0  0.31589783901E+02 -0.19184115994E+02  0.11552858581E+02  0.38722258390E+02  0.00000000000E+00 0. -1.
         11    1    3    3    0    0 -0.31589783901E+02  0.19184115994E+02 -0.49287555955E+02  0.61605258910E+02  0.00000000000E+00 0.  1.
<mgrwt>
<rscale>  0 0.92960762E+02</rscale>
<asrwt>0</asrwt>
<pdfrwt beam="1">  1        2 0.48148323E-02 0.92960762E+02</pdfrwt>
<pdfrwt beam="2">  1       -2 0.10620170E-01 0.92960762E+02</pdfrwt>
<totfact> 0.84470173E+04</totfact>
</mgrwt>
</event>
<event>
 5    1  0.6125604E+000  0.9333154E+02  0.7546771E-02  0.1294979E+00
         -1   -1    0    0    0  501 -0.00000000000E+00  0.00000000000E+00  0.70460182859E+01  0.70460182859E+01  0.00000000000E+00 0.  1.
          1   -1    0    0  501    0  0.00000000000E+00 -0.00000000000E+00 -0.30906733537E+03  0.30906733537E+03  0.00000000000E+00 0. -1.
         23    2    1    2    0    0  0.00000000000E+00  0.00000000000E+00 -0.30202131708E+03  0.31611335365E+03  0.93331540148E+02 0.  0.
        -11    1    3    3    0    0 -0.36641884533E+02 -0.27781704775E+02 -0.12407537306E+03  0.13232214109E+03  0.00000000000E+00 0.  1.
         11    1    3    3    0    0  0.36641884533E+02  0.27781704775E+02 -0.17794594402E+03  0.18379121256E+03  0.00000000000E+00 0. -1.
<mgrwt>
<rscale>  0 0.93331540E+02</rscale>
<asrwt>0</asrwt>
<pdfrwt beam="2">  1        1 0.47548821E-01 0.93331540E+02</pdfrwt>
<pdfrwt beam="1">  1       -1 0.10840028E-02 0.93331540E+02</pdfrwt>
<totfact> 0.12106286E+05</totfact>
</mgrwt>
</event>
<event>
 5    1  0.6125604E+000  0.8860727E+02  0.7546771E-02  0.1306260E+00
          2   -1    0    0  501    0  0.00000000000E+00  0.00000000000E+00  0.14367655402E+02  0.14367655402E+02  0.00000000000E+00 0. -1.
         -2   -1    0    0    0  501 -0.00000000000E+00 -0.00000000000E+00 -0.13661324173E+03  0.13661324173E+03  0.00000000000E+00 0.  1.
         23    2    1    2    0    0  0.00000000000E+00  0.00000000000E+00 -0.12224558633E+03  0.15098089713E+03  0.88607267886E+02 0.  0.
        -11    1    3    3    0    0  0.40201857196E+02  0.14756395284E+02 -0.41779472795E+02  0.59828629191E+02  0.00000000000E+00 0. -1.
         11    1    3    3    0    0 -0.40201857196E+02 -0.14756395284E+02 -0.80466113533E+02  0.91152267942E+02  0.00000000000E+00 0.  1.
<mgrwt>
<rscale>  0 0.88607268E+02</rscale>
<asrwt>0</asrwt>
<pdfrwt beam="1">  1        2 0.22104085E-02 0.88607268E+02</pdfrwt>
<pdfrwt beam="2">  1       -2 0.21017422E-01 0.88607268E+02</pdfrwt>
<totfact> 0.77608730E+04</totfact>
</mgrwt>
</event>
<event>
 5    1  0.6125604E+000  0.9126459E+02  0.7546771E-02  0.1299818E+00
         -1   -1    0    0    0  501 -0.00000000000E+00  0.00000000000E+00  0.66590041943E+01  0.66590041943E+01  0.00000000000E+00 0.  1.
          1   -1    0    0  501    0  0.00000000000E+00 -0.00000000000E+00 -0.31270537575E+03  0.31270537575E+03  0.00000000000E+00 0. -1.
         23    2    1    2    0    0  0.00000000000E+00  0.00000000000E+00 -0.30604637156E+03  0.31936437994E+03  0.91264591353E+02 0.  0.
        -11    1    3    3    0    0  0.46237948451E+00 -0.43222861454E+02 -0.20419915349E+03  0.20872403750E+03  0.00000000000E+00 0. -1.
         11    1    3    3    0    0 -0.46237948451E+00  0.43222861454E+02 -0.10184721807E+03  0.11064034244E+03  0.00000000000E+00 0.  1.
<mgrwt>
<rscale>  0 0.91264591E+02</rscale>
<asrwt>0</asrwt>
<pdfrwt beam="2">  1        1 0.48108507E-01 0.91264591E+02</pdfrwt>
<pdfrwt beam="1">  1       -1 0.10244624E-02 0.91264591E+02</pdfrwt>
<totfact> 0.12880181E+05</totfact>
</mgrwt>
</event>
<event>
 5    1  0.6125604E+000  0.9118608E+02  0.7546771E-02  0.1300005E+00
         -3   -1    0    0    0  501 -0.00000000000E+00  0.00000000000E+00  0.85699608532E+01  0.85699608532E+01  0.00000000000E+00 0. -1.
          3   -1    0    0  501    0  0.00000000000E+00 -0.00000000000E+00 -0.24255947398E+03  0.24255947398E+03  0.00000000000E+00 0.  1.
         23    2    1    2    0    0  0.00000000000E+00  0.00000000000E+00 -0.23398951313E+03  0.25112943484E+03  0.91186077810E+02 0.  0.
        -11    1    3    3    0    0  0.38697885391E+02 -0.38906075324E+01 -0.18251886163E+03  0.18661671418E+03  0.00000000000E+00 0.  1.
         11    1    3    3    0    0 -0.38697885391E+02  0.38906075324E+01 -0.51470651503E+02  0.64512720660E+02  0.00000000000E+00 0. -1.
<mgrwt>
<rscale>  0 0.91186078E+02</rscale>
<asrwt>0</asrwt>
<pdfrwt beam="2">  1        3 0.37316841E-01 0.91186078E+02</pdfrwt>
<pdfrwt beam="1">  1       -3 0.13184556E-02 0.91186078E+02</pdfrwt>
<totfact> 0.26046621E+04</totfact>
</mgrwt>
</event>
<event>
 5    1  0.6125604E+000  0.8603474E+02  0.7546771E-02  0.1312749E+00
          2   -1    0    0  501    0  0.00000000000E+00  0.00000000000E+00  0.88046499526E+02  0.88046499526E+02  0.00000000000E+00 0. -1.
         -2   -1    0    0    0  501 -0.00000000000E+00 -0.00000000000E+00 -0.21017239129E+02  0.21017239129E+02  0.00000000000E+00 0.  1.
         23    2    1    2    0    0  0.00000000000E+00  0.00000000000E+00  0.67029260397E+02  0.10906373866E+03  0.86034744958E+02 0.  0.
        -11    1    3    3    0    0 -0.33909522373E+02  0.25304701675E+02  0.43359357532E+02  0.60582320194E+02  0.00000000000E+00 0. -1.
         11    1    3    3    0    0  0.33909522373E+02 -0.25304701675E+02  0.23669902865E+02  0.48481418462E+02  0.00000000000E+00 0.  1.
<mgrwt>
<rscale>  0 0.86034745E+02</rscale>
<asrwt>0</asrwt>
<pdfrwt beam="1">  1        2 0.13545615E-01 0.86034745E+02</pdfrwt>
<pdfrwt beam="2">  1       -2 0.32334215E-02 0.86034745E+02</pdfrwt>
<totfact> 0.13855689E+05</totfact>
</mgrwt>
</event>
<event>
 5    1  0.6125604E+000  0.8476564E+02  0.7546771E-02  0.1316047E+00
         -2   -1    0    0    0  501 -0.00000000000E+00  0.00000000000E+00  0.40499426485E+02  0.40499426485E+02  0.00000000000E+00 0.  1.
          2   -1    0    0  501    0  0.00000000000E+00 -0.00000000000E+00 -0.44353800236E+02  0.44353800236E+02  0.00000000000E+00 0. -1.
         23    2    1    2    0    0  0.00000000000E+00  0.00000000000E+00 -0.38543737511E+01  0.84853226721E+02  0.84765640964E+02 0.  0.
        -11    1    3    3    0    0  0.33504736128E+02 -0.21005430485E+02  0.13336782277E+02  0.41733262686E+02  0.00000000000E+00 0. -1.
         11    1    3    3    0    0 -0.33504736128E+02  0.21005430485E+02 -0.17191156028E+02  0.43119964036E+02  0.00000000000E+00 0.  1.
<mgrwt>
<rscale>  0 0.84765641E+02</rscale>
<asrwt>0</asrwt>
<pdfrwt beam="2">  1        2 0.68236616E-02 0.84765641E+02</pdfrwt>
<pdfrwt beam="1">  1       -2 0.62306810E-02 0.84765641E+02</pdfrwt>
<totfact> 0.12061881E+05</totfact>
</mgrwt>
</event>
<event>
 5    1  0.6125604E+000  0.9171426E+02  0.7546771E-02  0.1298753E+00
         -1   -1    0    0    0  501 -0.00000000000E+00  0.00000000000E+00  0.43572816279E+02  0.43572816279E+02  0.00000000000E+00 0.  1.
          1   -1    0    0  501    0  0.00000000000E+00 -0.00000000000E+00 -0.48261196514E+02  0.48261196514E+02  0.00000000000E+00 0. -1.
         23    2    1    2    0    0  0.00000000000E+00  0.00000000000E+00 -0.46883802353E+01  0.91834012793E+02  0.91714257324E+02 0.  0.
        -11    1    3    3    0    0  0.17567719911E+02  0.37419395699E+02 -0.22220557899E+02  0.46931749921E+02  0.00000000000E+00 0. -1.
         11    1    3    3    0    0 -0.17567719911E+02 -0.37419395699E+02  0.17532177663E+02  0.44902262871E+02  0.00000000000E+00 0.  1.
<mgrwt>
<rscale>  0 0.91714257E+02</rscale>
<asrwt>0</asrwt>
<pdfrwt beam="2">  1        1 0.74247995E-02 0.91714257E+02</pdfrwt>
<pdfrwt beam="1">  1       -1 0.67035102E-02 0.91714257E+02</pdfrwt>
<totfact> 0.91742881E+04</totfact>
</mgrwt>
</event>
<event>
 5    1  0.6125604E+000  0.9153736E+02  0.7546771E-02  0.1299171E+00
          2   -1    0    0  501    0  0.00000000000E+00  0.00000000000E+00  0.56122195920E+02  0.56122195920E+02  0.00000000000E+00 0. -1.
         -2   -1    0    0    0  501 -0.00000000000E+00 -0.00000000000E+00 -0.37325201005E+02  0.37325201005E+02  0.00000000000E+00 0.  1.
         23    2    1    2    0    0  0.00000000000E+00  0.00000000000E+00  0.18796994915E+02  0.93447396924E+02  0.91537363814E+02 0.  0.
        -11    1    3    3    0    0 -0.34418776784E+02  0.25580007416E+02  0.25725440349E+02  0.50007871940E+02  0.00000000000E+00 0. -1.
         11    1    3    3    0    0  0.34418776784E+02 -0.25580007416E+02 -0.69284454343E+01  0.43439524985E+02  0.00000000000E+00 0.  1.
<mgrwt>
<rscale>  0 0.91537364E+02</rscale>
<asrwt>0</asrwt>
<pdfrwt beam="1">  1        2 0.86341840E-02 0.91537364E+02</pdfrwt>
<pdfrwt beam="2">  1       -2 0.57423386E-02 0.91537364E+02</pdfrwt>
<totfact> 0.10303683E+05</totfact>
</mgrwt>
</event>
<event>
 5    1  0.6125604E+000  0.9063573E+02  0.7546771E-02  0.1301319E+00
         -2   -1    0    0    0  501 -0.00000000000E+00  0.00000000000E+00  0.55343823352E+02  0.55343823352E+02  0.00000000000E+00 0.  1.
          2   -1    0    0  501    0  0.00000000000E+00 -0.00000000000E+00 -0.37108185138E+02  0.37108185138E+02  0.00000000000E+00 0. -1.
         23    2    1    2    0    0  0.00000000000E+00  0.00000000000E+00  0.18235638213E+02  0.92452008490E+02  0.90635729008E+02 0.  0.
        -11    1    3    3    0    0 -0.25725309799E+01 -0.27442381950E+02 -0.27575345069E+02  0.38988484177E+02  0.00000000000E+00 0. -1.
         11    1    3    3    0    0  0.25725309799E+01  0.27442381950E+02  0.45810983282E+02  0.53463524313E+02  0.00000000000E+00 0.  1.
<mgrwt>
<rscale>  0 0.90635729E+02</rscale>
<asrwt>0</asrwt>
<pdfrwt beam="2">  1        2 0.57089515E-02 0.90635729E+02</pdfrwt>
<pdfrwt beam="1">  1       -2 0.85144344E-02 0.90635729E+02</pdfrwt>
<totfact> 0.95186029E+04</totfact>
</mgrwt>
</event>
<event>
 5    1  0.6125604E+000  0.9198474E+02  0.7546771E-02  0.1298115E+00
         -1   -1    0    0    0  501 -0.00000000000E+00  0.00000000000E+00  0.26426887459E+02  0.26426887459E+02  0.00000000000E+00 0.  1.
          1   -1    0    0  501    0  0.00000000000E+00 -0.00000000000E+00 -0.80043403107E+02  0.80043403107E+02  0.00000000000E+00 0. -1.
         23    2    1    2    0    0  0.00000000000E+00  0.00000000000E+00 -0.53616515648E+02  0.10647029057E+03  0.91984737990E+02 0.  0.
        -11    1    3    3    0    0  0.14400033706E+02 -0.40339492280E+02 -0.46199461997E+02  0.63000205531E+02  0.00000000000E+00 0.  1.
         11    1    3    3    0    0 -0.14400033706E+02  0.40339492280E+02 -0.74170536507E+01  0.43470085035E+02  0.00000000000E+00 0. -1.
<mgrwt>
<rscale>  0 0.91984738E+02</rscale>
<asrwt>0</asrwt>
<pdfrwt beam="2">  1        1 0.12314370E-01 0.91984738E+02</pdfrwt>
<pdfrwt beam="1">  1       -1 0.40656750E-02 0.91984738E+02</pdfrwt>
<totfact> 0.98338778E+04</totfact>
</mgrwt>
</event>
<event>
 5    1  0.6125604E+000  0.9187831E+02  0.7546771E-02  0.1298366E+00
          1   -1    0    0  501    0  0.00000000000E+00  0.00000000000E+00  0.98498216659E+02  0.98498216659E+02  0.00000000000E+00 0. -1.
         -1   -1    0    0    0  501 -0.00000000000E+00 -0.00000000000E+00 -0.21425830211E+02  0.21425830211E+02  0.00000000000E+00 0.  1.
         23    2    1    2    0    0  0.00000000000E+00  0.00000000000E+00  0.77072386448E+02  0.11992404687E+03  0.91878312266E+02 0.  0.
        -11    1    3    3    0    0  0.37385087045E+02 -0.19162687554E+02  0.14272861486E+02  0.44368546322E+02  0.00000000000E+00 0.  1.
         11    1    3    3    0    0 -0.37385087045E+02  0.19162687554E+02  0.62799524962E+02  0.75555500549E+02  0.00000000000E+00 0. -1.
<mgrwt>
<rscale>  0 0.91878312E+02</rscale>
<asrwt>0</asrwt>
<pdfrwt beam="1">  1        1 0.15153571E-01 0.91878312E+02</pdfrwt>
<pdfrwt beam="2">  1       -1 0.32962816E-02 0.91878312E+02</pdfrwt>
<totfact> 0.10203152E+05</totfact>
</mgrwt>
</event>
<event>
 5    1  0.6125604E+000  0.9181041E+02  0.7546771E-02  0.1298526E+00
          1   -1    0    0  501    0  0.00000000000E+00  0.00000000000E+00  0.19577314299E+03  0.19577314299E+03  0.00000000000E+00 0. -1.
         -1   -1    0    0    0  501 -0.00000000000E+00 -0.00000000000E+00 -0.10763927347E+02  0.10763927347E+02  0.00000000000E+00 0.  1.
         23    2    1    2    0    0  0.00000000000E+00  0.00000000000E+00  0.18500921564E+03  0.20653707034E+03  0.91810410903E+02 0.  0.
        -11    1    3    3    0    0  0.17629589435E+02  0.25553118004E+02  0.16431939140E+02  0.35125103378E+02  0.00000000000E+00 0.  1.
         11    1    3    3    0    0 -0.17629589435E+02 -0.25553118004E+02  0.16857727650E+03  0.17141196696E+03  0.00000000000E+00 0. -1.
<mgrwt>
<rscale>  0 0.91810411E+02</rscale>
<asrwt>0</asrwt>
<pdfrwt beam="1">  1        1 0.30118942E-01 0.91810411E+02</pdfrwt>
<pdfrwt beam="2">  1       -1 0.16559890E-02 0.91810411E+02</pdfrwt>
<totfact> 0.11574404E+05</totfact>
</mgrwt>
</event>
<event>
 5    1  0.6125604E+000  0.9032725E+02  0.7546771E-02  0.1302061E+00
         -1   -1    0    0    0  501 -0.00000000000E+00  0.00000000000E+00  0.11017846241E+03  0.11017846241E+03  0.00000000000E+00 0.  1.
          1   -1    0    0  501    0  0.00000000000E+00 -0.00000000000E+00 -0.18513173697E+02  0.18513173697E+02  0.00000000000E+00 0. -1.
         23    2    1    2    0    0  0.00000000000E+00  0.00000000000E+00  0.91665288714E+02  0.12869163611E+03  0.90327249760E+02 0.  0.
        -11    1    3    3    0    0 -0.41641927557E+02  0.14365270844E+02  0.31632338065E+02  0.54231134494E+02  0.00000000000E+00 0.  1.
         11    1    3    3    0    0  0.41641927557E+02 -0.14365270844E+02  0.60032950650E+02  0.74460501615E+02  0.00000000000E+00 0. -1.
<mgrwt>
<rscale>  0 0.90327250E+02</rscale>
<asrwt>0</asrwt>
<pdfrwt beam="2">  1        1 0.28481807E-02 0.90327250E+02</pdfrwt>
<pdfrwt beam="1">  1       -1 0.16950532E-01 0.90327250E+02</pdfrwt>
<totfact> 0.81833728E+04</totfact>
</mgrwt>
</event>
<event>
 5    1  0.6125604E+000  0.9191854E+02  0.7546771E-02  0.1298271E+00
         -2   -1    0    0    0  501 -0.00000000000E+00  0.00000000000E+00  0.56454644958E+02  0.56454644958E+02  0.00000000000E+00 0.  1.
          2   -1    0    0  501    0  0.00000000000E+00 -0.00000000000E+00 -0.37415068453E+02  0.37415068453E+02  0.00000000000E+00 0. -1.
         23    2    1    2    0    0  0.00000000000E+00  0.00000000000E+00  0.19039576505E+02  0.93869713411E+02  0.91918537969E+02 0.  0.
        -11    1    3    3    0    0  0.12633390864E+02  0.43902161028E+02  0.43879717780E+01  0.45893971325E+02  0.00000000000E+00 0. -1.
         11    1    3    3    0    0 -0.12633390864E+02 -0.43902161028E+02  0.14651604727E+02  0.47975742086E+02  0.00000000000E+00 0.  1.
<mgrwt>
<rscale>  0 0.91918538E+02</rscale>
<asrwt>0</asrwt>
<pdfrwt beam="2">  1        2 0.57561644E-02 0.91918538E+02</pdfrwt>
<pdfrwt beam="1">  1       -2 0.86853300E-02 0.91918538E+02</pdfrwt>
<totfact> 0.91561904E+04</totfact>
</mgrwt>
</event>
<event>
 5    1  0.6125604E+000  0.8707641E+02  0.7546771E-02  0.1310090E+00
         -1   -1    0    0    0  501 -0.00000000000E+00  0.00000000000E+00  0.10857608645E+03  0.10857608645E+03  0.00000000000E+00 0.  1.
          1   -1    0    0  501    0  0.00000000000E+00 -0.00000000000E+00 -0.17458497579E+02  0.17458497579E+02  0.00000000000E+00 0. -1.
         23    2    1    2    0    0  0.00000000000E+00  0.00000000000E+00  0.91117588872E+02  0.12603458403E+03  0.87076411099E+02 0.  0.
        -11    1    3    3    0    0  0.26395165881E+02  0.29171808595E+02  0.18562662933E+02  0.43500248893E+02  0.00000000000E+00 0. -1.
         11    1    3    3    0    0 -0.26395165881E+02 -0.29171808595E+02  0.72554925939E+02  0.82534335138E+02  0.00000000000E+00 0.  1.
<mgrwt>
<rscale>  0 0.87076411E+02</rscale>
<asrwt>0</asrwt>
<pdfrwt beam="2">  1        1 0.26859228E-02 0.87076411E+02</pdfrwt>
<pdfrwt beam="1">  1       -1 0.16704013E-01 0.87076411E+02</pdfrwt>
<totfact> 0.90188868E+04</totfact>
</mgrwt>
</event>
<event>
 5    1  0.6125604E+000  0.9108161E+02  0.7546771E-02  0.1300253E+00
          1   -1    0    0  501    0  0.00000000000E+00  0.00000000000E+00  0.36255246434E+02  0.36255246434E+02  0.00000000000E+00 0. -1.
         -1   -1    0    0    0  501 -0.00000000000E+00 -0.00000000000E+00 -0.57204543344E+02  0.57204543344E+02  0.00000000000E+00 0.  1.
         23    2    1    2    0    0  0.00000000000E+00  0.00000000000E+00 -0.20949296911E+02  0.93459789778E+02  0.91081607717E+02 0.  0.
        -11    1    3    3    0    0 -0.21538761219E+02 -0.32065341998E+02 -0.35226262327E+02  0.52278044625E+02  0.00000000000E+00 0.  1.
         11    1    3    3    0    0  0.21538761219E+02  0.32065341998E+02  0.14276965417E+02  0.41181745152E+02  0.00000000000E+00 0. -1.
<mgrwt>
<rscale>  0 0.91081608E+02</rscale>
<asrwt>0</asrwt>
<pdfrwt beam="1">  1        1 0.55777302E-02 0.91081608E+02</pdfrwt>
<pdfrwt beam="2">  1       -1 0.88006990E-02 0.91081608E+02</pdfrwt>
<totfact> 0.89575619E+04</totfact>
</mgrwt>
</event>
<event>
 5    1  0.6125604E+000  0.9332940E+02  0.7546771E-02  0.1294984E+00
          1   -1    0    0  501    0  0.00000000000E+00  0.00000000000E+00  0.10829989277E+03  0.10829989277E+03  0.00000000000E+00 0. -1.
         -1   -1    0    0    0  501 -0.00000000000E+00 -0.00000000000E+00 -0.20107075399E+02  0.20107075399E+02  0.00000000000E+00 0.  1.
         23    2    1    2    0    0  0.00000000000E+00  0.00000000000E+00  0.88192817371E+02  0.12840696817E+03  0.93329397504E+02 0.  0.
        -11    1    3    3    0    0  0.42334981570E+01  0.46190892010E+02  0.51121734175E+02  0.69028636930E+02  0.00000000000E+00 0.  1.
         11    1    3    3    0    0 -0.42334981570E+01 -0.46190892010E+02  0.37071083196E+02  0.59378331239E+02  0.00000000000E+00 0. -1.
<mgrwt>
<rscale>  0 0.93329398E+02</rscale>
<asrwt>0</asrwt>
<pdfrwt beam="1">  1        1 0.16661522E-01 0.93329398E+02</pdfrwt>
<pdfrwt beam="2">  1       -1 0.30933963E-02 0.93329398E+02</pdfrwt>
<totfact> 0.99334527E+04</totfact>
</mgrwt>
</event>
<event>
 5    1  0.6125604E+000  0.9035159E+02  0.7546771E-02  0.1302003E+00
          3   -1    0    0  501    0  0.00000000000E+00  0.00000000000E+00  0.15191559737E+02  0.15191559737E+02  0.00000000000E+00 0. -1.
         -3   -1    0    0    0  501 -0.00000000000E+00 -0.00000000000E+00 -0.13434120215E+03  0.13434120215E+03  0.00000000000E+00 0.  1.
         23    2    1    2    0    0  0.00000000000E+00  0.00000000000E+00 -0.11914964241E+03  0.14953276188E+03  0.90351588752E+02 0.  0.
        -11    1    3    3    0    0 -0.29188388548E+02  0.30608632618E+02 -0.85847390027E+02  0.95700704236E+02  0.00000000000E+00 0.  1.
         11    1    3    3    0    0  0.29188388548E+02 -0.30608632618E+02 -0.33302252384E+02  0.53832057648E+02  0.00000000000E+00 0. -1.
<mgrwt>
<rscale>  0 0.90351589E+02</rscale>
<asrwt>0</asrwt>
<pdfrwt beam="1">  1        3 0.23371630E-02 0.90351589E+02</pdfrwt>
<pdfrwt beam="2">  1       -3 0.20667877E-01 0.90351589E+02</pdfrwt>
<totfact> 0.32116628E+04</totfact>
</mgrwt>
</event>
<event>
 5    1  0.6125604E+000  0.8761786E+02  0.7546771E-02  0.1308725E+00
         -3   -1    0    0    0  501 -0.00000000000E+00  0.00000000000E+00  0.56428599345E+02  0.56428599345E+02  0.00000000000E+00 0.  1.
          3   -1    0    0  501    0  0.00000000000E+00 -0.00000000000E+00 -0.34011522291E+02  0.34011522291E+02  0.00000000000E+00 0. -1.
         23    2    1    2    0    0  0.00000000000E+00  0.00000000000E+00  0.22417077054E+02  0.90440121635E+02  0.87617864946E+02 0.  0.
        -11    1    3    3    0    0 -0.21172466848E+02  0.17436412173E+02 -0.24052017093E+02  0.36480150057E+02  0.00000000000E+00 0. -1.
         11    1    3    3    0    0  0.21172466848E+02 -0.17436412173E+02  0.46469094147E+02  0.53959971579E+02  0.00000000000E+00 0.  1.
<mgrwt>
<rscale>  0 0.87617865E+02</rscale>
<asrwt>0</asrwt>
<pdfrwt beam="2">  1        3 0.52325419E-02 0.87617865E+02</pdfrwt>
<pdfrwt beam="1">  1       -3 0.86813230E-02 0.87617865E+02</pdfrwt>
<totfact> 0.39436049E+04</totfact>
</mgrwt>
</event>
<event>
 5    1  0.6125604E+000  0.8846131E+02  0.7546771E-02  0.1306621E+00
          2   -1    0    0  501    0  0.00000000000E+00  0.00000000000E+00  0.16220280526E+02  0.16220280526E+02  0.00000000000E+00 0. -1.
         -2   -1    0    0    0  501 -0.00000000000E+00 -0.00000000000E+00 -0.12061139726E+03  0.12061139726E+03  0.00000000000E+00 0.  1.
         23    2    1    2    0    0  0.00000000000E+00  0.00000000000E+00 -0.10439111673E+03  0.13683167778E+03  0.88461306753E+02 0.  0.
        -11    1    3    3    0    0 -0.31551056903E+02 -0.33548269877E+01 -0.99861672321E+02  0.10478109398E+03  0.00000000000E+00 0.  1.
         11    1    3    3    0    0  0.31551056903E+02  0.33548269877E+01 -0.45294444122E+01  0.32050583809E+02  0.00000000000E+00 0. -1.
<mgrwt>
<rscale>  0 0.88461307E+02</rscale>
<asrwt>0</asrwt>
<pdfrwt beam="1">  1        2 0.24954277E-02 0.88461307E+02</pdfrwt>
<pdfrwt beam="2">  1       -2 0.18555600E-01 0.88461307E+02</pdfrwt>
<totfact> 0.81224480E+04</totfact>
</mgrwt>
</event>
<event>
 5    1  0.6125604E+000  0.8791940E+02  0.7546771E-02  0.1307970E+00
         -4   -1    0    0    0  501 -0.00000000000E+00  0.00000000000E+00  0.27604774710E+03  0.27604774710E+03  0.00000000000E+00 0.  1.
          4   -1    0    0  501    0  0.00000000000E+00 -0.00000000000E+00 -0.70004381398E+01  0.70004381398E+01  0.00000000000E+00 0. -1.
         23    2    1    2    0    0  0.00000000000E+00  0.00000000000E+00  0.26904730896E+03  0.28304818524E+03  0.87919398933E+02 0.  0.
        -11    1    3    3    0    0  0.13812789423E+01  0.37700052966E+02  0.20717481732E+03  0.21058159192E+03  0.00000000000E+00 0.  1.
         11    1    3    3    0    0 -0.13812789423E+01 -0.37700052966E+02  0.61872491638E+02  0.72466593315E+02  0.00000000000E+00 0. -1.
<mgrwt>
<rscale>  0 0.87919399E+02</rscale>
<asrwt>0</asrwt>
<pdfrwt beam="2">  1        4 0.10769907E-02 0.87919399E+02</pdfrwt>
<pdfrwt beam="1">  1       -4 0.42468876E-01 0.87919399E+02</pdfrwt>
<totfact> 0.20207357E+04</totfact>
</mgrwt>
</event>
<event>
 5    1  0.6125604E+000  0.9030263E+02  0.7546771E-02  0.1302120E+00
          2   -1    0    0  501    0  0.00000000000E+00  0.00000000000E+00  0.45178931645E+02  0.45178931645E+02  0.00000000000E+00 0. -1.
         -2   -1    0    0    0  501 -0.00000000000E+00 -0.00000000000E+00 -0.45123713454E+02  0.45123713454E+02  0.00000000000E+00 0.  1.
         23    2    1    2    0    0  0.00000000000E+00  0.00000000000E+00  0.55218190557E-01  0.90302645099E+02  0.90302628217E+02 0.  0.
        -11    1    3    3    0    0 -0.26731032158E+02 -0.22590913523E+02  0.28553807859E+02  0.45168765727E+02  0.00000000000E+00 0. -1.
         11    1    3    3    0    0  0.26731032158E+02  0.22590913523E+02 -0.28498589669E+02  0.45133879372E+02  0.00000000000E+00 0.  1.
<mgrwt>
<rscale>  0 0.90302628E+02</rscale>
<asrwt>0</asrwt>
<pdfrwt beam="1">  1        2 0.69506048E-02 0.90302628E+02</pdfrwt>
<pdfrwt beam="2">  1       -2 0.69421098E-02 0.90302628E+02</pdfrwt>
<totfact> 0.10120072E+05</totfact>
</mgrwt>
</event>
<event>
 5    1  0.6125604E+000  0.9543402E+02  0.7546771E-02  0.1290202E+00
          2   -1    0    0  501    0  0.00000000000E+00  0.00000000000E+00  0.16751517230E+03  0.16751517230E+03  0.00000000000E+00 0. -1.
         -2   -1    0    0    0  501 -0.00000000000E+00 -0.00000000000E+00 -0.13592280512E+02  0.13592280512E+02  0.00000000000E+00 0.  1.
         23    2    1    2    0    0  0.00000000000E+00  0.00000000000E+00  0.15392289178E+03  0.18110745281E+03  0.95434023533E+02 0.  0.
        -11    1    3    3    0    0  0.10170633242E+02  0.30275760605E+02  0.96831829330E+01  0.33374054181E+02  0.00000000000E+00 0.  1.
         11    1    3    3    0    0 -0.10170633242E+02 -0.30275760605E+02  0.14423970885E+03  0.14773339863E+03  0.00000000000E+00 0. -1.
<mgrwt>
<rscale>  0 0.95434024E+02</rscale>
<asrwt>0</asrwt>
<pdfrwt beam="1">  1        2 0.25771563E-01 0.95434024E+02</pdfrwt>
<pdfrwt beam="2">  1       -2 0.20911202E-02 0.95434024E+02</pdfrwt>
<totfact> 0.12830670E+05</totfact>
</mgrwt>
</event>
<event>
 5    1  0.6125604E+000  0.8952211E+02  0.7546771E-02  0.1304013E+00
         -4   -1    0    0    0  501 -0.00000000000E+00  0.00000000000E+00  0.26666902798E+02  0.26666902798E+02  0.00000000000E+00 0.  1.
          4   -1    0    0  501    0  0.00000000000E+00 -0.00000000000E+00 -0.75132532709E+02  0.75132532709E+02  0.00000000000E+00 0. -1.
         23    2    1    2    0    0  0.00000000000E+00  0.00000000000E+00 -0.48465629911E+02  0.10179943551E+03  0.89522107811E+02 0.  0.
        -11    1    3    3    0    0  0.40303083579E+01  0.43946450324E+02 -0.32743786193E+02  0.54951700754E+02  0.00000000000E+00 0.  1.
         11    1    3    3    0    0 -0.40303083579E+01 -0.43946450324E+02 -0.15721843718E+02  0.46847734753E+02  0.00000000000E+00 0. -1.
<mgrwt>
<rscale>  0 0.89522108E+02</rscale>
<asrwt>0</asrwt>
<pdfrwt beam="2">  1        4 0.11558851E-01 0.89522108E+02</pdfrwt>
<pdfrwt beam="1">  1       -4 0.41026005E-02 0.89522108E+02</pdfrwt>
<totfact> 0.27683658E+04</totfact>
</mgrwt>
</event>
<event>
 5    1  0.6125604E+000  0.9263723E+02  0.7546771E-02  0.1296588E+00
         -2   -1    0    0    0  501 -0.00000000000E+00  0.00000000000E+00  0.95778226252E+01  0.95778226252E+01  0.00000000000E+00 0.  1.
          2   -1    0    0  501    0  0.00000000000E+00 -0.00000000000E+00 -0.22399808399E+03  0.22399808399E+03  0.00000000000E+00 0. -1.
         23    2    1    2    0    0  0.00000000000E+00  0.00000000000E+00 -0.21442026136E+03  0.23357590661E+03  0.92637226142E+02 0.  0.
        -11    1    3    3    0    0  0.30488718467E+02 -0.34545617055E+02 -0.11915751876E+03  0.12775553174E+03  0.00000000000E+00 0.  1.
         11    1    3    3    0    0 -0.30488718467E+02  0.34545617055E+02 -0.95262742600E+02  0.10582037488E+03  0.00000000000E+00 0. -1.
<mgrwt>
<rscale>  0 0.92637226E+02</rscale>
<asrwt>0</asrwt>
<pdfrwt beam="2">  1        2 0.34461244E-01 0.92637226E+02</pdfrwt>
<pdfrwt beam="1">  1       -2 0.14735112E-02 0.92637226E+02</pdfrwt>
<totfact> 0.15445703E+05</totfact>
</mgrwt>
</event>
<event>
 5    1  0.6125604E+000  0.9040771E+02  0.7546771E-02  0.1301867E+00
          3   -1    0    0  501    0  0.00000000000E+00  0.00000000000E+00  0.12990421711E+03  0.12990421711E+03  0.00000000000E+00 0. -1.
         -3   -1    0    0    0  501 -0.00000000000E+00 -0.00000000000E+00 -0.15729962086E+02  0.15729962086E+02  0.00000000000E+00 0.  1.
         23    2    1    2    0    0  0.00000000000E+00  0.00000000000E+00  0.11417425503E+03  0.14563417920E+03  0.90407707859E+02 0.  0.
        -11    1    3    3    0    0 -0.33390368613E+02 -0.19529609960E+02  0.19410004987E+02  0.43278986528E+02  0.00000000000E+00 0.  1.
         11    1    3    3    0    0  0.33390368613E+02  0.19529609960E+02  0.94764250041E+02  0.10235519267E+03  0.00000000000E+00 0. -1.
<mgrwt>
<rscale>  0 0.90407708E+02</rscale>
<asrwt>0</asrwt>
<pdfrwt beam="1">  1        3 0.19985263E-01 0.90407708E+02</pdfrwt>
<pdfrwt beam="2">  1       -3 0.24199942E-02 0.90407708E+02</pdfrwt>
<totfact> 0.32308065E+04</totfact>
</mgrwt>
</event>
<event>
 5    1  0.6125604E+000  0.9037631E+02  0.7546771E-02  0.1301943E+00
          2   -1    0    0  501    0  0.00000000000E+00  0.00000000000E+00  0.83096373695E+02  0.83096373695E+02  0.00000000000E+00 0. -1.
         -2   -1    0    0    0  501 -0.00000000000E+00 -0.00000000000E+00 -0.24573507599E+02  0.24573507599E+02  0.00000000000E+00 0.  1.
         23    2    1    2    0    0  0.00000000000E+00  0.00000000000E+00  0.58522866096E+02  0.10766988129E+03  0.90376310401E+02 0.  0.
        -11    1    3    3    0    0  0.30935031747E+02 -0.15137555749E+02  0.64114246536E+02  0.72778832034E+02  0.00000000000E+00 0. -1.
         11    1    3    3    0    0 -0.30935031747E+02  0.15137555749E+02 -0.55913804406E+01  0.34891049260E+02  0.00000000000E+00 0.  1.
<mgrwt>
<rscale>  0 0.90376310E+02</rscale>
<asrwt>0</asrwt>
<pdfrwt beam="1">  1        2 0.12784057E-01 0.90376310E+02</pdfrwt>
<pdfrwt beam="2">  1       -2 0.37805397E-02 0.90376310E+02</pdfrwt>
<totfact> 0.11898869E+05</totfact>
</mgrwt>
</event>
<event>
 5    1  0.6125604E+000  0.9482690E+02  0.7546771E-02  0.1291566E+00
         -2   -1    0    0    0  501 -0.00000000000E+00  0.00000000000E+00  0.24090934957E+02  0.24090934957E+02  0.00000000000E+00 0.  1.
          2   -1    0    0  501    0  0.00000000000E+00 -0.00000000000E+00 -0.93314579421E+02  0.93314579421E+02  0.00000000000E+00 0. -1.
         23    2    1    2    0    0  0.00000000000E+00  0.00000000000E+00 -0.69223644464E+02  0.11740551438E+03  0.94826904691E+02 0.  0.
        -11    1    3    3    0    0  0.10068479938E+02 -0.11681789386E+02  0.20898816956E+02  0.25973044521E+02  0.00000000000E+00 0.  1.
         11    1    3    3    0    0 -0.10068479938E+02  0.11681789386E+02 -0.90122461421E+02  0.91432469856E+02  0.00000000000E+00 0. -1.
<mgrwt>
<rscale>  0 0.94826905E+02</rscale>
<asrwt>0</asrwt>
<pdfrwt beam="2">  1        2 0.14356089E-01 0.94826905E+02</pdfrwt>
<pdfrwt beam="1">  1       -2 0.37062976E-02 0.94826905E+02</pdfrwt>
<totfact> 0.10775968E+05</totfact>
</mgrwt>
</event>
<event>
 5    1  0.6125604E+000  0.9213929E+02  0.7546771E-02  0.1297752E+00
         -2   -1    0    0    0  501 -0.00000000000E+00  0.00000000000E+00  0.28190071921E+02  0.28190071921E+02  0.00000000000E+00 0. -1.
          2   -1    0    0  501    0  0.00000000000E+00 -0.00000000000E+00 -0.75289351522E+02  0.75289351522E+02  0.00000000000E+00 0.  1.
         23    2    1    2    0    0  0.00000000000E+00  0.00000000000E+00 -0.47099279601E+02  0.10347942344E+03  0.92139290952E+02 0.  0.
        -11    1    3    3    0    0  0.16980409610E+01 -0.18854954611E+02  0.23619812639E+02  0.30270252817E+02  0.00000000000E+00 0. -1.
         11    1    3    3    0    0 -0.16980409610E+01  0.18854954611E+02 -0.70719092240E+02  0.73209170626E+02  0.00000000000E+00 0.  1.
<mgrwt>
<rscale>  0 0.92139291E+02</rscale>
<asrwt>0</asrwt>
<pdfrwt beam="2">  1        2 0.11582977E-01 0.92139291E+02</pdfrwt>
<pdfrwt beam="1">  1       -2 0.43369342E-02 0.92139291E+02</pdfrwt>
<totfact> 0.10963166E+05</totfact>
</mgrwt>
</event>
<event>
 5    1  0.6125604E+000  0.9104087E+02  0.7546771E-02  0.1300350E+00
          1   -1    0    0  501    0  0.00000000000E+00  0.00000000000E+00  0.84859813406E+01  0.84859813406E+01  0.00000000000E+00 0. -1.
         -1   -1    0    0    0  501 -0.00000000000E+00 -0.00000000000E+00 -0.24418034256E+03  0.24418034256E+03  0.00000000000E+00 0.  1.
         23    2    1    2    0    0  0.00000000000E+00  0.00000000000E+00 -0.23569436122E+03  0.25266632390E+03  0.91040866225E+02 0.  0.
        -11    1    3    3    0    0 -0.14218809080E+02  0.42996983541E+02 -0.10507030480E+03  0.11441452738E+03  0.00000000000E+00 0. -1.
         11    1    3    3    0    0  0.14218809080E+02 -0.42996983541E+02 -0.13062405642E+03  0.13825179652E+03  0.00000000000E+00 0.  1.
<mgrwt>
<rscale>  0 0.91040866E+02</rscale>
<asrwt>0</asrwt>
<pdfrwt beam="1">  1        1 0.13055355E-02 0.91040866E+02</pdfrwt>
<pdfrwt beam="2">  1       -1 0.37566208E-01 0.91040866E+02</pdfrwt>
<totfact> 0.65534195E+04</totfact>
</mgrwt>
</event>
<event>
 5    1  0.6125604E+000  0.8548870E+02  0.7546771E-02  0.1314159E+00
         -2   -1    0    0    0  501 -0.00000000000E+00  0.00000000000E+00  0.12934234823E+02  0.12934234823E+02  0.00000000000E+00 0.  1.
          2   -1    0    0  501    0  0.00000000000E+00 -0.00000000000E+00 -0.14125917120E+03  0.14125917120E+03  0.00000000000E+00 0. -1.
         23    2    1    2    0    0  0.00000000000E+00  0.00000000000E+00 -0.12832493637E+03  0.15419340602E+03  0.85488696123E+02 0.  0.
        -11    1    3    3    0    0 -0.25819743864E+02 -0.32113775540E+02 -0.84658188287E+02  0.94153930331E+02  0.00000000000E+00 0.  1.
         11    1    3    3    0    0  0.25819743864E+02  0.32113775540E+02 -0.43666748086E+02  0.60039475689E+02  0.00000000000E+00 0. -1.
<mgrwt>
<rscale>  0 0.85488696E+02</rscale>
<asrwt>0</asrwt>
<pdfrwt beam="2">  1        2 0.21732180E-01 0.85488696E+02</pdfrwt>
<pdfrwt beam="1">  1       -2 0.19898823E-02 0.85488696E+02</pdfrwt>
<totfact> 0.16309197E+05</totfact>
</mgrwt>
</event>
<event>
 5    1  0.6125604E+000  0.9272145E+02  0.7546771E-02  0.1296392E+00
          2   -1    0    0  501    0  0.00000000000E+00  0.00000000000E+00  0.76387914932E+02  0.76387914932E+02  0.00000000000E+00 0.  1.
         -2   -1    0    0    0  501 -0.00000000000E+00 -0.00000000000E+00 -0.28136869482E+02  0.28136869482E+02  0.00000000000E+00 0. -1.
         23    2    1    2    0    0  0.00000000000E+00  0.00000000000E+00  0.48251045450E+02  0.10452478441E+03  0.92721449352E+02 0.  0.
        -11    1    3    3    0    0  0.43605201718E+02  0.11879517906E+02  0.12476634052E+02  0.46884997172E+02  0.00000000000E+00 0. -1.
         11    1    3    3    0    0 -0.43605201718E+02 -0.11879517906E+02  0.35774411398E+02  0.57639787243E+02  0.00000000000E+00 0.  1.
<mgrwt>
<rscale>  0 0.92721449E+02</rscale>
<asrwt>0</asrwt>
<pdfrwt beam="1">  1        2 0.11751987E-01 0.92721449E+02</pdfrwt>
<pdfrwt beam="2">  1       -2 0.43287492E-02 0.92721449E+02</pdfrwt>
<totfact> 0.10816276E+05</totfact>
</mgrwt>
</event>
<event>
 5    1  0.6125604E+000  0.8911359E+02  0.7546771E-02  0.1305013E+00
         -1   -1    0    0    0  501 -0.00000000000E+00  0.00000000000E+00  0.45583873033E+02  0.45583873033E+02  0.00000000000E+00 0.  1.
          1   -1    0    0  501    0  0.00000000000E+00 -0.00000000000E+00 -0.43552863443E+02  0.43552863443E+02  0.00000000000E+00 0. -1.
         23    2    1    2    0    0  0.00000000000E+00  0.00000000000E+00  0.20310095904E+01  0.89136736476E+02  0.89113594864E+02 0.  0.
        -11    1    3    3    0    0  0.35282550848E+02 -0.19001259112E+02 -0.18467796569E+02  0.44124434867E+02  0.00000000000E+00 0.  1.
         11    1    3    3    0    0 -0.35282550848E+02  0.19001259112E+02  0.20498806160E+02  0.45012301609E+02  0.00000000000E+00 0. -1.
<mgrwt>
<rscale>  0 0.89113595E+02</rscale>
<asrwt>0</asrwt>
<pdfrwt beam="2">  1        1 0.67004406E-02 0.89113595E+02</pdfrwt>
<pdfrwt beam="1">  1       -1 0.70129035E-02 0.89113595E+02</pdfrwt>
<totfact> 0.97928937E+04</totfact>
</mgrwt>
</event>
<event>
 5    1  0.6125604E+000  0.9100960E+02  0.7546771E-02  0.1300425E+00
          1   -1    0    0  501    0  0.00000000000E+00  0.00000000000E+00  0.22291004631E+03  0.22291004631E+03  0.00000000000E+00 0. -1.
         -1   -1    0    0    0  501 -0.00000000000E+00 -0.00000000000E+00 -0.92893376831E+01  0.92893376831E+01  0.00000000000E+00 0.  1.
         23    2    1    2    0    0  0.00000000000E+00  0.00000000000E+00  0.21362070863E+03  0.23219938399E+03  0.91009597146E+02 0.  0.
        -11    1    3    3    0    0  0.33637439751E+02 -0.11322255021E+02  0.17946920947E+03  0.18294498615E+03  0.00000000000E+00 0. -1.
         11    1    3    3    0    0 -0.33637439751E+02  0.11322255021E+02  0.34151499161E+02  0.49254397841E+02  0.00000000000E+00 0.  1.
<mgrwt>
<rscale>  0 0.91009597E+02</rscale>
<asrwt>0</asrwt>
<pdfrwt beam="1">  1        1 0.34293849E-01 0.91009597E+02</pdfrwt>
<pdfrwt beam="2">  1       -1 0.14291290E-02 0.91009597E+02</pdfrwt>
<totfact> 0.12152919E+05</totfact>
</mgrwt>
</event>
<event>
 5    1  0.6125604E+000  0.8353019E+02  0.7546771E-02  0.1319322E+00
          1   -1    0    0  501    0  0.00000000000E+00  0.00000000000E+00  0.38601602470E+03  0.38601602470E+03  0.00000000000E+00 0. -1.
         -1   -1    0    0    0  501 -0.00000000000E+00 -0.00000000000E+00 -0.45187841944E+01  0.45187841944E+01  0.00000000000E+00 0.  1.
         23    2    1    2    0    0  0.00000000000E+00  0.00000000000E+00  0.38149724050E+03  0.39053480889E+03  0.83530188823E+02 0.  0.
        -11    1    3    3    0    0  0.73890225187E+01 -0.41075191981E+02  0.19822053545E+03  0.20256640818E+03  0.00000000000E+00 0.  1.
         11    1    3    3    0    0 -0.73890225187E+01  0.41075191981E+02  0.18327670505E+03  0.18796840071E+03  0.00000000000E+00 0. -1.
<mgrwt>
<rscale>  0 0.83530189E+02</rscale>
<asrwt>0</asrwt>
<pdfrwt beam="1">  1        1 0.59387055E-01 0.83530189E+02</pdfrwt>
<pdfrwt beam="2">  1       -1 0.69519787E-03 0.83530189E+02</pdfrwt>
<totfact> 0.16903782E+05</totfact>
</mgrwt>
</event>
<event>
 5    1  0.6125604E+000  0.9132589E+02  0.7546771E-02  0.1299672E+00
         -2   -1    0    0    0  501 -0.00000000000E+00  0.00000000000E+00  0.75676521945E+01  0.75676521945E+01  0.00000000000E+00 0.  1.
          2   -1    0    0  501    0  0.00000000000E+00 -0.00000000000E+00 -0.27552860101E+03  0.27552860101E+03  0.00000000000E+00 0. -1.
         23    2    1    2    0    0  0.00000000000E+00  0.00000000000E+00 -0.26796094882E+03  0.28309625321E+03  0.91325891665E+02 0.  0.
        -11    1    3    3    0    0 -0.31640822196E+02  0.32878650136E+02 -0.13931127160E+03  0.14659392095E+03  0.00000000000E+00 0. -1.
         11    1    3    3    0    0  0.31640822196E+02 -0.32878650136E+02 -0.12864967722E+03  0.13650233226E+03  0.00000000000E+00 0.  1.
<mgrwt>
<rscale>  0 0.91325892E+02</rscale>
<asrwt>0</asrwt>
<pdfrwt beam="2">  1        2 0.42389019E-01 0.91325892E+02</pdfrwt>
<pdfrwt beam="1">  1       -2 0.11642541E-02 0.91325892E+02</pdfrwt>
<totfact> 0.17328944E+05</totfact>
</mgrwt>
</event>
<event>
 5    1  0.6125604E+000  0.9604487E+02  0.7546771E-02  0.1288840E+00
         -1   -1    0    0    0  501 -0.00000000000E+00  0.00000000000E+00  0.10109601796E+03  0.10109601796E+03  0.00000000000E+00 0.  1.
          1   -1    0    0  501    0  0.00000000000E+00 -0.00000000000E+00 -0.22811526237E+02  0.22811526237E+02  0.00000000000E+00 0. -1.
         23    2    1    2    0    0  0.00000000000E+00  0.00000000000E+00  0.78284491721E+02  0.12390754420E+03  0.96044874223E+02 0.  0.
        -11    1    3    3    0    0  0.41449462385E+02  0.83875231616E+01  0.68497235339E+02  0.80500184633E+02  0.00000000000E+00 0. -1.
         11    1    3    3    0    0 -0.41449462385E+02 -0.83875231616E+01  0.97872563820E+01  0.43407359563E+02  0.00000000000E+00 0.  1.
<mgrwt>
<rscale>  0 0.96044874E+02</rscale>
<asrwt>0</asrwt>
<pdfrwt beam="2">  1        1 0.35094656E-02 0.96044874E+02</pdfrwt>
<pdfrwt beam="1">  1       -1 0.15553233E-01 0.96044874E+02</pdfrwt>
<totfact> 0.71007133E+04</totfact>
</mgrwt>
</event>
<event>
 5    1  0.6125604E+000  0.9144164E+02  0.7546771E-02  0.1299398E+00
         -3   -1    0    0    0  501 -0.00000000000E+00  0.00000000000E+00  0.22692561661E+02  0.22692561661E+02  0.00000000000E+00 0.  1.
          3   -1    0    0  501    0  0.00000000000E+00 -0.00000000000E+00 -0.92118002436E+02  0.92118002436E+02  0.00000000000E+00 0. -1.
         23    2    1    2    0    0  0.00000000000E+00  0.00000000000E+00 -0.69425440775E+02  0.11481056410E+03  0.91441641507E+02 0.  0.
        -11    1    3    3    0    0  0.15095186926E+02 -0.29220448267E+02  0.51638312943E+01  0.33292107456E+02  0.00000000000E+00 0.  1.
         11    1    3    3    0    0 -0.15095186926E+02  0.29220448267E+02 -0.74589272069E+02  0.81518456641E+02  0.00000000000E+00 0. -1.
<mgrwt>
<rscale>  0 0.91441642E+02</rscale>
<asrwt>0</asrwt>
<pdfrwt beam="2">  1        3 0.14172001E-01 0.91441642E+02</pdfrwt>
<pdfrwt beam="1">  1       -3 0.34911633E-02 0.91441642E+02</pdfrwt>
<totfact> 0.33340800E+04</totfact>
</mgrwt>
</event>
<event>
 5    1  0.6125604E+000  0.8980648E+02  0.7546771E-02  0.1303321E+00
          1   -1    0    0  501    0  0.00000000000E+00  0.00000000000E+00  0.23518908382E+03  0.23518908382E+03  0.00000000000E+00 0. -1.
         -1   -1    0    0    0  501 -0.00000000000E+00 -0.00000000000E+00 -0.85731061323E+01  0.85731061323E+01  0.00000000000E+00 0.  1.
         23    2    1    2    0    0  0.00000000000E+00  0.00000000000E+00  0.22661597769E+03  0.24376218995E+03  0.89806480317E+02 0.  0.
        -11    1    3    3    0    0  0.39042746024E+02  0.20455772249E+02  0.13658247733E+03  0.14351845787E+03  0.00000000000E+00 0. -1.
         11    1    3    3    0    0 -0.39042746024E+02 -0.20455772249E+02  0.90033500357E+02  0.10024373208E+03  0.00000000000E+00 0.  1.
<mgrwt>
<rscale>  0 0.89806480E+02</rscale>
<asrwt>0</asrwt>
<pdfrwt beam="1">  1        1 0.36182931E-01 0.89806480E+02</pdfrwt>
<pdfrwt beam="2">  1       -1 0.13189396E-02 0.89806480E+02</pdfrwt>
<totfact> 0.12724928E+05</totfact>
</mgrwt>
</event>
<event>
 5    1  0.6125604E+000  0.9038463E+02  0.7546771E-02  0.1301923E+00
          1   -1    0    0  501    0  0.00000000000E+00  0.00000000000E+00  0.33466198259E+03  0.33466198259E+03  0.00000000000E+00 0. -1.
         -1   -1    0    0    0  501 -0.00000000000E+00 -0.00000000000E+00 -0.61027110122E+01  0.61027110122E+01  0.00000000000E+00 0.  1.
         23    2    1    2    0    0  0.00000000000E+00  0.00000000000E+00  0.32855927158E+03  0.34076469361E+03  0.90384630697E+02 0.  0.
        -11    1    3    3    0    0  0.24937029375E+02  0.33461000659E+02  0.22967334902E+03  0.23343380485E+03  0.00000000000E+00 0.  1.
         11    1    3    3    0    0 -0.24937029375E+02 -0.33461000659E+02  0.98885922563E+02  0.10733088875E+03  0.00000000000E+00 0. -1.
<mgrwt>
<rscale>  0 0.90384631E+02</rscale>
<asrwt>0</asrwt>
<pdfrwt beam="1">  1        1 0.51486444E-01 0.90384631E+02</pdfrwt>
<pdfrwt beam="2">  1       -1 0.93887888E-03 0.90384631E+02</pdfrwt>
<totfact> 0.13383832E+05</totfact>
</mgrwt>
</event>
<event>
 5    1  0.6125604E+000  0.9138755E+02  0.7546771E-02  0.1299526E+00
          2   -1    0    0  501    0  0.00000000000E+00  0.00000000000E+00  0.20175976645E+02  0.20175976645E+02  0.00000000000E+00 0. -1.
         -2   -1    0    0    0  501 -0.00000000000E+00 -0.00000000000E+00 -0.10348549627E+03  0.10348549627E+03  0.00000000000E+00 0.  1.
         23    2    1    2    0    0  0.00000000000E+00  0.00000000000E+00 -0.83309519621E+02  0.12366147291E+03  0.91387547417E+02 0.  0.
        -11    1    3    3    0    0  0.36675650694E+02  0.27060443078E+02 -0.46049913664E+02  0.64791708435E+02  0.00000000000E+00 0.  1.
         11    1    3    3    0    0 -0.36675650694E+02 -0.27060443078E+02 -0.37259605956E+02  0.58869764476E+02  0.00000000000E+00 0. -1.
<mgrwt>
<rscale>  0 0.91387547E+02</rscale>
<asrwt>0</asrwt>
<pdfrwt beam="1">  1        2 0.31039963E-02 0.91387547E+02</pdfrwt>
<pdfrwt beam="2">  1       -2 0.15920846E-01 0.91387547E+02</pdfrwt>
<totfact> 0.78535353E+04</totfact>
</mgrwt>
</event>
<event>
 5    1  0.6125604E+000  0.9094977E+02  0.7546771E-02  0.1300568E+00
         -3   -1    0    0    0  501 -0.00000000000E+00  0.00000000000E+00  0.18327700990E+03  0.18327700990E+03  0.00000000000E+00 0.  1.
          3   -1    0    0  501    0  0.00000000000E+00 -0.00000000000E+00 -0.11283276758E+02  0.11283276758E+02  0.00000000000E+00 0. -1.
         23    2    1    2    0    0  0.00000000000E+00  0.00000000000E+00  0.17199373315E+03  0.19456028666E+03  0.90949771329E+02 0.  0.
        -11    1    3    3    0    0  0.11106444788E+02  0.42896950066E+02  0.10786116093E+03  0.11660845371E+03  0.00000000000E+00 0.  1.
         11    1    3    3    0    0 -0.11106444788E+02 -0.42896950066E+02  0.64132572216E+02  0.77951832947E+02  0.00000000000E+00 0. -1.
<mgrwt>
<rscale>  0 0.90949771E+02</rscale>
<asrwt>0</asrwt>
<pdfrwt beam="2">  1        3 0.17358889E-02 0.90949771E+02</pdfrwt>
<pdfrwt beam="1">  1       -3 0.28196461E-01 0.90949771E+02</pdfrwt>
<totfact> 0.28975705E+04</totfact>
</mgrwt>
</event>
<event>
 5    1  0.6125604E+000  0.9572457E+02  0.7546771E-02  0.1289552E+00
          1   -1    0    0  501    0  0.00000000000E+00  0.00000000000E+00  0.16933451735E+02  0.16933451735E+02  0.00000000000E+00 0. -1.
         -1   -1    0    0    0  501 -0.00000000000E+00 -0.00000000000E+00 -0.13528240909E+03  0.13528240909E+03  0.00000000000E+00 0.  1.
         23    2    1    2    0    0  0.00000000000E+00  0.00000000000E+00 -0.11834895735E+03  0.15221586082E+03  0.95724566228E+02 0.  0.
        -11    1    3    3    0    0 -0.24251558924E+02  0.38798368187E+02 -0.36836113203E+02  0.58739686075E+02  0.00000000000E+00 0. -1.
         11    1    3    3    0    0  0.24251558924E+02 -0.38798368187E+02 -0.81512844147E+02  0.93476174747E+02  0.00000000000E+00 0.  1.
<mgrwt>
<rscale>  0 0.95724566E+02</rscale>
<asrwt>0</asrwt>
<pdfrwt beam="1">  1        1 0.26051464E-02 0.95724566E+02</pdfrwt>
<pdfrwt beam="2">  1       -1 0.20812678E-01 0.95724566E+02</pdfrwt>
<totfact> 0.67472933E+04</totfact>
</mgrwt>
</event>
<event>
 5    1  0.6125604E+000  0.8892719E+02  0.7546771E-02  0.1305471E+00
          2   -1    0    0  501    0  0.00000000000E+00  0.00000000000E+00  0.23522142392E+03  0.23522142392E+03  0.00000000000E+00 0. -1.
         -2   -1    0    0    0  501 -0.00000000000E+00 -0.00000000000E+00 -0.84048943767E+01  0.84048943767E+01  0.00000000000E+00 0.  1.
         23    2    1    2    0    0  0.00000000000E+00  0.00000000000E+00  0.22681652954E+03  0.24362631830E+03  0.88927188715E+02 0.  0.
        -11    1    3    3    0    0 -0.40221396639E+02  0.57307434419E+01  0.63912192365E+02  0.75732228944E+02  0.00000000000E+00 0.  1.
         11    1    3    3    0    0  0.40221396639E+02 -0.57307434419E+01  0.16290433718E+03  0.16789408935E+03  0.00000000000E+00 0. -1.
<mgrwt>
<rscale>  0 0.88927189E+02</rscale>
<asrwt>0</asrwt>
<pdfrwt beam="1">  1        2 0.36187906E-01 0.88927189E+02</pdfrwt>
<pdfrwt beam="2">  1       -2 0.12930608E-02 0.88927189E+02</pdfrwt>
<totfact> 0.17547335E+05</totfact>
</mgrwt>
</event>
<event>
 5    1  0.6125604E+000  0.9135192E+02  0.7546771E-02  0.1299610E+00
          1   -1    0    0  501    0  0.00000000000E+00  0.00000000000E+00  0.32345914433E+02  0.32345914433E+02  0.00000000000E+00 0. -1.
         -1   -1    0    0    0  501 -0.00000000000E+00 -0.00000000000E+00 -0.64499434720E+02  0.64499434720E+02  0.00000000000E+00 0.  1.
         23    2    1    2    0    0  0.00000000000E+00  0.00000000000E+00 -0.32153520286E+02  0.96845349153E+02  0.91351917253E+02 0.  0.
        -11    1    3    3    0    0  0.35266057404E+02 -0.28506564372E+02 -0.10272661922E+02  0.46495662164E+02  0.00000000000E+00 0. -1.
         11    1    3    3    0    0 -0.35266057404E+02  0.28506564372E+02 -0.21880858364E+02  0.50349686989E+02  0.00000000000E+00 0.  1.
<mgrwt>
<rscale>  0 0.91351917E+02</rscale>
<asrwt>0</asrwt>
<pdfrwt beam="1">  1        1 0.49762945E-02 0.91351917E+02</pdfrwt>
<pdfrwt beam="2">  1       -1 0.99229900E-02 0.91351917E+02</pdfrwt>
<totfact> 0.87252597E+04</totfact>
</mgrwt>
</event>
<event>
 5    1  0.6125604E+000  0.9069351E+02  0.7546771E-02  0.1301181E+00
          1   -1    0    0  501    0  0.00000000000E+00  0.00000000000E+00  0.11690414711E+03  0.11690414711E+03  0.00000000000E+00 0. -1.
         -1   -1    0    0    0  501 -0.00000000000E+00 -0.00000000000E+00 -0.17589866629E+02  0.17589866629E+02  0.00000000000E+00 0.  1.
         23    2    1    2    0    0  0.00000000000E+00  0.00000000000E+00  0.99314280478E+02  0.13449401374E+03  0.90693513682E+02 0.  0.
        -11    1    3    3    0    0 -0.15164821636E+02  0.32621545480E+02  0.90598166376E+02  0.97479047981E+02  0.00000000000E+00 0. -1.
         11    1    3    3    0    0  0.15164821636E+02 -0.32621545480E+02  0.87161141026E+01  0.37014965755E+02  0.00000000000E+00 0.  1.
<mgrwt>
<rscale>  0 0.90693514E+02</rscale>
<asrwt>0</asrwt>
<pdfrwt beam="1">  1        1 0.17985253E-01 0.90693514E+02</pdfrwt>
<pdfrwt beam="2">  1       -1 0.27061334E-02 0.90693514E+02</pdfrwt>
<totfact> 0.10880940E+05</totfact>
</mgrwt>
</event>
<event>
 5    1  0.6125604E+000  0.9371356E+02  0.7546771E-02  0.1294100E+00
         -3   -1    0    0    0  501 -0.00000000000E+00  0.00000000000E+00  0.26114195595E+02  0.26114195595E+02  0.00000000000E+00 0.  1.
          3   -1    0    0  501    0  0.00000000000E+00 -0.00000000000E+00 -0.84075264497E+02  0.84075264497E+02  0.00000000000E+00 0. -1.
         23    2    1    2    0    0  0.00000000000E+00  0.00000000000E+00 -0.57961068902E+02  0.11018946009E+03  0.93713561490E+02 0.  0.
        -11    1    3    3    0    0 -0.37577600757E+02  0.13735799656E+02 -0.57657065077E+02  0.70178952857E+02  0.00000000000E+00 0. -1.
         11    1    3    3    0    0  0.37577600757E+02 -0.13735799656E+02 -0.30400382440E+00  0.40010507235E+02  0.00000000000E+00 0.  1.
<mgrwt>
<rscale>  0 0.93713561E+02</rscale>
<asrwt>0</asrwt>
<pdfrwt beam="2">  1        3 0.12934656E-01 0.93713561E+02</pdfrwt>
<pdfrwt beam="1">  1       -3 0.40175686E-02 0.93713561E+02</pdfrwt>
<totfact> 0.31484974E+04</totfact>
</mgrwt>
</event>
<event>
 5    1  0.6125604E+000  0.1047183E+03  0.7546771E-02  0.1270676E+00
          1   -1    0    0  501    0  0.00000000000E+00  0.00000000000E+00  0.34861829796E+02  0.34861829796E+02  0.00000000000E+00 0. -1.
         -1   -1    0    0    0  501 -0.00000000000E+00 -0.00000000000E+00 -0.78638495300E+02  0.78638495300E+02  0.00000000000E+00 0.  1.
         23    2    1    2    0    0  0.00000000000E+00  0.00000000000E+00 -0.43776665504E+02  0.11350032510E+03  0.10471832387E+03 0.  0.
        -11    1    3    3    0    0 -0.76693709881E+01  0.41184933692E+02 -0.55930327851E+02  0.69880037121E+02  0.00000000000E+00 0.  1.
         11    1    3    3    0    0  0.76693709881E+01 -0.41184933692E+02  0.12153662347E+02  0.43620287975E+02  0.00000000000E+00 0. -1.
<mgrwt>
<rscale>  0 0.10471832E+03</rscale>
<asrwt>0</asrwt>
<pdfrwt beam="1">  1        1 0.53633584E-02 0.10471832E+03</pdfrwt>
<pdfrwt beam="2">  1       -1 0.12098230E-01 0.10471832E+03</pdfrwt>
<totfact> 0.59536699E+04</totfact>
</mgrwt>
</event>
<event>
 5    1  0.6125604E+000  0.9093199E+02  0.7546771E-02  0.1300610E+00
         -1   -1    0    0    0  501 -0.00000000000E+00  0.00000000000E+00  0.10210082820E+03  0.10210082820E+03  0.00000000000E+00 0.  1.
          1   -1    0    0  501    0  0.00000000000E+00 -0.00000000000E+00 -0.20246228099E+02  0.20246228099E+02  0.00000000000E+00 0. -1.
         23    2    1    2    0    0  0.00000000000E+00  0.00000000000E+00  0.81854600106E+02  0.12234705630E+03  0.90931989022E+02 0.  0.
        -11    1    3    3    0    0  0.10020442320E+02  0.27423816007E+02  0.87820306718E+02  0.92546643487E+02  0.00000000000E+00 0.  1.
         11    1    3    3    0    0 -0.10020442320E+02 -0.27423816007E+02 -0.59657066115E+01  0.29800412817E+02  0.00000000000E+00 0. -1.
<mgrwt>
<rscale>  0 0.90931989E+02</rscale>
<asrwt>0</asrwt>
<pdfrwt beam="2">  1        1 0.31148044E-02 0.90931989E+02</pdfrwt>
<pdfrwt beam="1">  1       -1 0.15707819E-01 0.90931989E+02</pdfrwt>
<totfact> 0.81618618E+04</totfact>
</mgrwt>
</event>
<event>
 5    1  0.6125604E+000  0.9570035E+02  0.7546771E-02  0.1289606E+00
         -1   -1    0    0    0  501 -0.00000000000E+00  0.00000000000E+00  0.23617485588E+03  0.23617485588E+03  0.00000000000E+00 0.  1.
          1   -1    0    0  501    0  0.00000000000E+00 -0.00000000000E+00 -0.96946782282E+01  0.96946782282E+01  0.00000000000E+00 0. -1.
         23    2    1    2    0    0  0.00000000000E+00  0.00000000000E+00  0.22648017765E+03  0.24586953411E+03  0.95700349704E+02 0.  0.
        -11    1    3    3    0    0  0.31513882109E+02 -0.32945180782E+02  0.15057075027E+03  0.15732151963E+03  0.00000000000E+00 0. -1.
         11    1    3    3    0    0 -0.31513882109E+02  0.32945180782E+02  0.75909427382E+02  0.88548014477E+02  0.00000000000E+00 0.  1.
<mgrwt>
<rscale>  0 0.95700350E+02</rscale>
<asrwt>0</asrwt>
<pdfrwt beam="2">  1        1 0.14914891E-02 0.95700350E+02</pdfrwt>
<pdfrwt beam="1">  1       -1 0.36334589E-01 0.95700350E+02</pdfrwt>
<totfact> 0.58146640E+04</totfact>
</mgrwt>
</event>
<event>
 5    1  0.6125604E+000  0.8909827E+02  0.7546771E-02  0.1305050E+00
          2   -1    0    0  501    0  0.00000000000E+00  0.00000000000E+00  0.18961669798E+02  0.18961669798E+02  0.00000000000E+00 0. -1.
         -2   -1    0    0    0  501 -0.00000000000E+00 -0.00000000000E+00 -0.10466512306E+03  0.10466512306E+03  0.00000000000E+00 0.  1.
         23    2    1    2    0    0  0.00000000000E+00  0.00000000000E+00 -0.85703453261E+02  0.12362679286E+03  0.89098271651E+02 0.  0.
        -11    1    3    3    0    0 -0.38463144669E+02 -0.16297603193E+02 -0.21374072093E+02  0.46924155033E+02  0.00000000000E+00 0. -1.
         11    1    3    3    0    0  0.38463144669E+02  0.16297603193E+02 -0.64329381168E+02  0.76702637824E+02  0.00000000000E+00 0.  1.
<mgrwt>
<rscale>  0 0.89098272E+02</rscale>
<asrwt>0</asrwt>
<pdfrwt beam="1">  1        2 0.29171799E-02 0.89098272E+02</pdfrwt>
<pdfrwt beam="2">  1       -2 0.16102327E-01 0.89098272E+02</pdfrwt>
<totfact> 0.83374814E+04</totfact>
</mgrwt>
</event>
<event>
 5    1  0.6125604E+000  0.9584626E+02  0.7546771E-02  0.1289281E+00
         -1   -1    0    0    0  501 -0.00000000000E+00  0.00000000000E+00  0.62226423611E+01  0.62226423611E+01  0.00000000000E+00 0.  1.
          1   -1    0    0  501    0  0.00000000000E+00 -0.00000000000E+00 -0.36907576656E+03  0.36907576656E+03  0.00000000000E+00 0. -1.
         23    2    1    2    0    0  0.00000000000E+00  0.00000000000E+00 -0.36285312420E+03  0.37529840892E+03  0.95846262305E+02 0.  0.
        -11    1    3    3    0    0  0.40272717131E+02  0.25632150691E+02 -0.16494013380E+03  0.17170948324E+03  0.00000000000E+00 0. -1.
         11    1    3    3    0    0 -0.40272717131E+02 -0.25632150691E+02 -0.19791299039E+03  0.20358892568E+03  0.00000000000E+00 0.  1.
<mgrwt>
<rscale>  0 0.95846262E+02</rscale>
<asrwt>0</asrwt>
<pdfrwt beam="2">  1        1 0.56780892E-01 0.95846262E+02</pdfrwt>
<pdfrwt beam="1">  1       -1 0.95732951E-03 0.95846262E+02</pdfrwt>
<totfact> 0.11648159E+05</totfact>
</mgrwt>
</event>
<event>
 5    1  0.6125604E+000  0.8984001E+02  0.7546771E-02  0.1303240E+00
         -2   -1    0    0    0  501 -0.00000000000E+00  0.00000000000E+00  0.80075158355E+01  0.80075158355E+01  0.00000000000E+00 0.  1.
          2   -1    0    0  501    0  0.00000000000E+00 -0.00000000000E+00 -0.25198911536E+03  0.25198911536E+03  0.00000000000E+00 0. -1.
         23    2    1    2    0    0  0.00000000000E+00  0.00000000000E+00 -0.24398159952E+03  0.25999663120E+03  0.89840009609E+02 0.  0.
        -11    1    3    3    0    0 -0.33812158366E+02  0.22305233625E+02 -0.65797971357E+02  0.77266800989E+02  0.00000000000E+00 0.  1.
         11    1    3    3    0    0  0.33812158366E+02 -0.22305233625E+02 -0.17818362817E+03  0.18272983021E+03  0.00000000000E+00 0. -1.
<mgrwt>
<rscale>  0 0.89840010E+02</rscale>
<asrwt>0</asrwt>
<pdfrwt beam="2">  1        2 0.38767547E-01 0.89840010E+02</pdfrwt>
<pdfrwt beam="1">  1       -2 0.12319258E-02 0.89840010E+02</pdfrwt>
<totfact> 0.17513551E+05</totfact>
</mgrwt>
</event>
<event>
 5    1  0.6125604E+000  0.9143598E+02  0.7546771E-02  0.1299411E+00
          4   -1    0    0  501    0  0.00000000000E+00  0.00000000000E+00  0.23154211535E+02  0.23154211535E+02  0.00000000000E+00 0. -1.
         -4   -1    0    0    0  501 -0.00000000000E+00 -0.00000000000E+00 -0.90270161864E+02  0.90270161864E+02  0.00000000000E+00 0.  1.
         23    2    1    2    0    0  0.00000000000E+00  0.00000000000E+00 -0.67115950329E+02  0.11342437340E+03  0.91435975920E+02 0.  0.
        -11    1    3    3    0    0 -0.27294943364E+02  0.33799408669E+02 -0.15896048410E+02  0.46261196641E+02  0.00000000000E+00 0. -1.
         11    1    3    3    0    0  0.27294943364E+02 -0.33799408669E+02 -0.51219901919E+02  0.67163176758E+02  0.00000000000E+00 0.  1.
<mgrwt>
<rscale>  0 0.91435976E+02</rscale>
<asrwt>0</asrwt>
<pdfrwt beam="1">  1        4 0.35621864E-02 0.91435976E+02</pdfrwt>
<pdfrwt beam="2">  1       -4 0.13887717E-01 0.91435976E+02</pdfrwt>
<totfact> 0.25454584E+04</totfact>
</mgrwt>
</event>
<event>
 5    1  0.6125604E+000  0.9231188E+02  0.7546771E-02  0.1297348E+00
          3   -1    0    0  501    0  0.00000000000E+00  0.00000000000E+00  0.12641803752E+03  0.12641803752E+03  0.00000000000E+00 0. -1.
         -3   -1    0    0    0  501 -0.00000000000E+00 -0.00000000000E+00 -0.16851796166E+02  0.16851796166E+02  0.00000000000E+00 0.  1.
         23    2    1    2    0    0  0.00000000000E+00  0.00000000000E+00  0.10956624135E+03  0.14326983368E+03  0.92311884389E+02 0.  0.
        -11    1    3    3    0    0 -0.39908429428E+02  0.18425642493E+02  0.76632111909E+02  0.88344029885E+02  0.00000000000E+00 0.  1.
         11    1    3    3    0    0  0.39908429428E+02 -0.18425642493E+02  0.32934129441E+02  0.54925803796E+02  0.00000000000E+00 0. -1.
<mgrwt>
<rscale>  0 0.92311884E+02</rscale>
<asrwt>0</asrwt>
<pdfrwt beam="1">  1        3 0.19448928E-01 0.92311884E+02</pdfrwt>
<pdfrwt beam="2">  1       -3 0.25925841E-02 0.92311884E+02</pdfrwt>
<totfact> 0.30675691E+04</totfact>
</mgrwt>
</event>
<event>
 5    1  0.6125604E+000  0.9152299E+02  0.7546771E-02  0.1299205E+00
          1   -1    0    0  501    0  0.00000000000E+00  0.00000000000E+00  0.36073689383E+02  0.36073689383E+02  0.00000000000E+00 0. -1.
         -1   -1    0    0    0  501 -0.00000000000E+00 -0.00000000000E+00 -0.58051013659E+02  0.58051013659E+02  0.00000000000E+00 0.  1.
         23    2    1    2    0    0  0.00000000000E+00  0.00000000000E+00 -0.21977324276E+02  0.94124703041E+02  0.91522985857E+02 0.  0.
        -11    1    3    3    0    0 -0.34941605700E+02 -0.13791879018E+02 -0.37865503418E+02  0.53337867270E+02  0.00000000000E+00 0.  1.
         11    1    3    3    0    0  0.34941605700E+02  0.13791879018E+02  0.15888179142E+02  0.40786835771E+02  0.00000000000E+00 0. -1.
<mgrwt>
<rscale>  0 0.91522986E+02</rscale>
<asrwt>0</asrwt>
<pdfrwt beam="1">  1        1 0.55497984E-02 0.91522986E+02</pdfrwt>
<pdfrwt beam="2">  1       -1 0.89309251E-02 0.91522986E+02</pdfrwt>
<totfact> 0.88284257E+04</totfact>
</mgrwt>
</event>
<event>
 5    1  0.6125604E+000  0.8190339E+02  0.7546771E-02  0.1323735E+00
         -2   -1    0    0    0  501 -0.00000000000E+00  0.00000000000E+00  0.56962145728E+02  0.56962145728E+02  0.00000000000E+00 0.  1.
          2   -1    0    0  501    0  0.00000000000E+00 -0.00000000000E+00 -0.29441327027E+02  0.29441327027E+02  0.00000000000E+00 0. -1.
         23    2    1    2    0    0  0.00000000000E+00  0.00000000000E+00  0.27520818701E+02  0.86403472755E+02  0.81903386023E+02 0.  0.
        -11    1    3    3    0    0  0.21239186687E+02  0.34889362053E+02  0.16866771158E+02  0.44191159804E+02  0.00000000000E+00 0. -1.
         11    1    3    3    0    0 -0.21239186687E+02 -0.34889362053E+02  0.10654047543E+02  0.42212312950E+02  0.00000000000E+00 0.  1.
<mgrwt>
<rscale>  0 0.81903386E+02</rscale>
<asrwt>0</asrwt>
<pdfrwt beam="2">  1        2 0.45294349E-02 0.81903386E+02</pdfrwt>
<pdfrwt beam="1">  1       -2 0.87634070E-02 0.81903386E+02</pdfrwt>
<totfact> 0.12055416E+05</totfact>
</mgrwt>
</event>
<event>
 5    1  0.6125604E+000  0.9239417E+02  0.7546771E-02  0.1297155E+00
         -2   -1    0    0    0  501 -0.00000000000E+00  0.00000000000E+00  0.26777383901E+03  0.26777383901E+03  0.00000000000E+00 0.  1.
          2   -1    0    0  501    0  0.00000000000E+00 -0.00000000000E+00 -0.79700487606E+01  0.79700487606E+01  0.00000000000E+00 0. -1.
         23    2    1    2    0    0  0.00000000000E+00  0.00000000000E+00  0.25980379025E+03  0.27574388778E+03  0.92394167646E+02 0.  0.
        -11    1    3    3    0    0 -0.41028974813E+02  0.42241874310E+01  0.67803522478E+02  0.79363330286E+02  0.00000000000E+00 0. -1.
         11    1    3    3    0    0  0.41028974813E+02 -0.42241874310E+01  0.19200026778E+03  0.19638055749E+03  0.00000000000E+00 0.  1.
<mgrwt>
<rscale>  0 0.92394168E+02</rscale>
<asrwt>0</asrwt>
<pdfrwt beam="2">  1        2 0.12261616E-02 0.92394168E+02</pdfrwt>
<pdfrwt beam="1">  1       -2 0.41195968E-01 0.92394168E+02</pdfrwt>
<totfact> 0.52421686E+04</totfact>
</mgrwt>
</event>
<event>
 5    1  0.6125604E+000  0.9815615E+02  0.7546771E-02  0.1284222E+00
         -1   -1    0    0    0  501 -0.00000000000E+00  0.00000000000E+00  0.50769214525E+02  0.50769214525E+02  0.00000000000E+00 0.  1.
          1   -1    0    0  501    0  0.00000000000E+00 -0.00000000000E+00 -0.47443272294E+02  0.47443272294E+02  0.00000000000E+00 0. -1.
         23    2    1    2    0    0  0.00000000000E+00  0.00000000000E+00  0.33259422311E+01  0.98212486820E+02  0.98156154548E+02 0.  0.
        -11    1    3    3    0    0 -0.13381393388E+02 -0.30692019133E+02 -0.34240709477E+02  0.47890373907E+02  0.00000000000E+00 0. -1.
         11    1    3    3    0    0  0.13381393388E+02  0.30692019133E+02  0.37566651708E+02  0.50322112913E+02  0.00000000000E+00 0.  1.
<mgrwt>
<rscale>  0 0.98156155E+02</rscale>
<asrwt>0</asrwt>
<pdfrwt beam="2">  1        1 0.72989650E-02 0.98156155E+02</pdfrwt>
<pdfrwt beam="1">  1       -1 0.78106484E-02 0.98156155E+02</pdfrwt>
<totfact> 0.75552921E+04</totfact>
</mgrwt>
</event>
<event>
 5    1  0.6125604E+000  0.9025534E+02  0.7546771E-02  0.1302235E+00
         -1   -1    0    0    0  501 -0.00000000000E+00  0.00000000000E+00  0.82044284473E+02  0.82044284473E+02  0.00000000000E+00 0.  1.
          1   -1    0    0  501    0  0.00000000000E+00 -0.00000000000E+00 -0.24822039994E+02  0.24822039994E+02  0.00000000000E+00 0. -1.
         23    2    1    2    0    0  0.00000000000E+00  0.00000000000E+00  0.57222244479E+02  0.10686632447E+03  0.90255338024E+02 0.  0.
        -11    1    3    3    0    0 -0.21311086609E+01 -0.45035116138E+02  0.30920221490E+02  0.54669583926E+02  0.00000000000E+00 0. -1.
         11    1    3    3    0    0  0.21311086609E+01  0.45035116138E+02  0.26302022989E+02  0.52196740540E+02  0.00000000000E+00 0.  1.
<mgrwt>
<rscale>  0 0.90255338E+02</rscale>
<asrwt>0</asrwt>
<pdfrwt beam="2">  1        1 0.38187754E-02 0.90255338E+02</pdfrwt>
<pdfrwt beam="1">  1       -1 0.12622197E-01 0.90255338E+02</pdfrwt>
<totfact> 0.86508785E+04</totfact>
</mgrwt>
</event>
<event>
 5    1  0.6125604E+000  0.8831139E+02  0.7546771E-02  0.1306993E+00
          1   -1    0    0  501    0  0.00000000000E+00  0.00000000000E+00  0.11483741807E+03  0.11483741807E+03  0.00000000000E+00 0. -1.
         -1   -1    0    0    0  501 -0.00000000000E+00 -0.00000000000E+00 -0.16978137991E+02  0.16978137991E+02  0.00000000000E+00 0.  1.
         23    2    1    2    0    0  0.00000000000E+00  0.00000000000E+00  0.97859280082E+02  0.13181555606E+03  0.88311392936E+02 0.  0.
        -11    1    3    3    0    0 -0.11931716277E+02 -0.39187859245E+02  0.73531722146E+02  0.84172253904E+02  0.00000000000E+00 0. -1.
         11    1    3    3    0    0  0.11931716277E+02  0.39187859245E+02  0.24327557936E+02  0.47643302160E+02  0.00000000000E+00 0.  1.
<mgrwt>
<rscale>  0 0.88311393E+02</rscale>
<asrwt>0</asrwt>
<pdfrwt beam="1">  1        1 0.17667295E-01 0.88311393E+02</pdfrwt>
<pdfrwt beam="2">  1       -1 0.26120213E-02 0.88311393E+02</pdfrwt>
<totfact> 0.11657947E+05</totfact>
</mgrwt>
</event>
<event>
 5    1  0.6125604E+000  0.9306675E+02  0.7546771E-02  0.1295591E+00
         -1   -1    0    0    0  501 -0.00000000000E+00  0.00000000000E+00  0.42401890345E+03  0.42401890345E+03  0.00000000000E+00 0.  1.
          1   -1    0    0  501    0  0.00000000000E+00 -0.00000000000E+00 -0.51067417406E+01  0.51067417406E+01  0.00000000000E+00 0. -1.
         23    2    1    2    0    0  0.00000000000E+00  0.00000000000E+00  0.41891216171E+03  0.42912564519E+03  0.93066750949E+02 0.  0.
        -11    1    3    3    0    0 -0.35706449608E+02 -0.29224036686E+02  0.23725979819E+03  0.24170479246E+03  0.00000000000E+00 0.  1.
         11    1    3    3    0    0  0.35706449608E+02  0.29224036686E+02  0.18165236352E+03  0.18742085272E+03  0.00000000000E+00 0. -1.
<mgrwt>
<rscale>  0 0.93066751E+02</rscale>
<asrwt>0</asrwt>
<pdfrwt beam="2">  1        1 0.78565291E-03 0.93066751E+02</pdfrwt>
<pdfrwt beam="1">  1       -1 0.65233650E-01 0.93066751E+02</pdfrwt>
<totfact> 0.48993114E+04</totfact>
</mgrwt>
</event>
<event>
 5    1  0.6125604E+000  0.9169317E+02  0.7546771E-02  0.1298802E+00
         -1   -1    0    0    0  501 -0.00000000000E+00  0.00000000000E+00  0.30268581399E+02  0.30268581399E+02  0.00000000000E+00 0.  1.
          1   -1    0    0  501    0  0.00000000000E+00 -0.00000000000E+00 -0.69441957211E+02  0.69441957211E+02  0.00000000000E+00 0. -1.
         23    2    1    2    0    0  0.00000000000E+00  0.00000000000E+00 -0.39173375812E+02  0.99710538610E+02  0.91693173886E+02 0.  0.
        -11    1    3    3    0    0  0.35133331694E+02  0.14340968291E+02  0.83901522423E+01  0.38863981037E+02  0.00000000000E+00 0.  1.
         11    1    3    3    0    0 -0.35133331694E+02 -0.14340968291E+02 -0.47563528054E+02  0.60846557572E+02  0.00000000000E+00 0. -1.
<mgrwt>
<rscale>  0 0.91693174E+02</rscale>
<asrwt>0</asrwt>
<pdfrwt beam="2">  1        1 0.10683378E-01 0.91693174E+02</pdfrwt>
<pdfrwt beam="1">  1       -1 0.46567049E-02 0.91693174E+02</pdfrwt>
<totfact> 0.97019845E+04</totfact>
</mgrwt>
</event>
<event>
 5    1  0.6125604E+000  0.9153195E+02  0.7546771E-02  0.1299184E+00
          2   -1    0    0  501    0  0.00000000000E+00  0.00000000000E+00  0.18452545564E+02  0.18452545564E+02  0.00000000000E+00 0. -1.
         -2   -1    0    0    0  501 -0.00000000000E+00 -0.00000000000E+00 -0.11350870062E+03  0.11350870062E+03  0.00000000000E+00 0.  1.
         23    2    1    2    0    0  0.00000000000E+00  0.00000000000E+00 -0.95056155056E+02  0.13196124618E+03  0.91531950052E+02 0.  0.
        -11    1    3    3    0    0 -0.40170631183E+02 -0.61674354678E+01 -0.77865677913E+02  0.87833824161E+02  0.00000000000E+00 0.  1.
         11    1    3    3    0    0  0.40170631183E+02  0.61674354678E+01 -0.17190477142E+02  0.44127422022E+02  0.00000000000E+00 0. -1.
<mgrwt>
<rscale>  0 0.91531950E+02</rscale>
<asrwt>0</asrwt>
<pdfrwt beam="1">  1        2 0.28388532E-02 0.91531950E+02</pdfrwt>
<pdfrwt beam="2">  1       -2 0.17462877E-01 0.91531950E+02</pdfrwt>
<totfact> 0.76023063E+04</totfact>
</mgrwt>
</event>
<event>
 5    1  0.6125604E+000  0.8497863E+02  0.7546771E-02  0.1315488E+00
          1   -1    0    0  501    0  0.00000000000E+00  0.00000000000E+00  0.34094245879E+02  0.34094245879E+02  0.00000000000E+00 0. -1.
         -1   -1    0    0    0  501 -0.00000000000E+00 -0.00000000000E+00 -0.52951512490E+02  0.52951512490E+02  0.00000000000E+00 0.  1.
         23    2    1    2    0    0  0.00000000000E+00  0.00000000000E+00 -0.18857266611E+02  0.87045758369E+02  0.84978629937E+02 0.  0.
        -11    1    3    3    0    0 -0.97009354253E+01 -0.82015801813E+01  0.32103529198E+02  0.34525507274E+02  0.00000000000E+00 0. -1.
         11    1    3    3    0    0  0.97009354253E+01  0.82015801813E+01 -0.50960795809E+02  0.52520251095E+02  0.00000000000E+00 0.  1.
<mgrwt>
<rscale>  0 0.84978630E+02</rscale>
<asrwt>0</asrwt>
<pdfrwt beam="1">  1        1 0.52452686E-02 0.84978630E+02</pdfrwt>
<pdfrwt beam="2">  1       -1 0.81463865E-02 0.84978630E+02</pdfrwt>
<totfact> 0.10795633E+05</totfact>
</mgrwt>
</event>
<event>
 5    1  0.6125604E+000  0.9196178E+02  0.7546771E-02  0.1298169E+00
          1   -1    0    0  501    0  0.00000000000E+00  0.00000000000E+00  0.52413646553E+02  0.52413646553E+02  0.00000000000E+00 0. -1.
         -1   -1    0    0    0  501 -0.00000000000E+00 -0.00000000000E+00 -0.40337628983E+02  0.40337628983E+02  0.00000000000E+00 0.  1.
         23    2    1    2    0    0  0.00000000000E+00  0.00000000000E+00  0.12076017570E+02  0.92751275536E+02  0.91961779632E+02 0.  0.
        -11    1    3    3    0    0  0.21577052529E+02 -0.78279013649E+01  0.46222206349E+02  0.51607534289E+02  0.00000000000E+00 0. -1.
         11    1    3    3    0    0 -0.21577052529E+02  0.78279013649E+01 -0.34146188779E+02  0.41143741247E+02  0.00000000000E+00 0.  1.
<mgrwt>
<rscale>  0 0.91961780E+02</rscale>
<asrwt>0</asrwt>
<pdfrwt beam="1">  1        1 0.80636379E-02 0.91961780E+02</pdfrwt>
<pdfrwt beam="2">  1       -1 0.62057891E-02 0.91961780E+02</pdfrwt>
<totfact> 0.92194982E+04</totfact>
</mgrwt>
</event>
<event>
 5    1  0.6125604E+000  0.9175079E+02  0.7546771E-02  0.1298666E+00
          4   -1    0    0  501    0  0.00000000000E+00  0.00000000000E+00  0.12627671587E+02  0.12627671587E+02  0.00000000000E+00 0. -1.
         -4   -1    0    0    0  501 -0.00000000000E+00 -0.00000000000E+00 -0.16666190480E+03  0.16666190480E+03  0.00000000000E+00 0.  1.
         23    2    1    2    0    0  0.00000000000E+00  0.00000000000E+00 -0.15403423321E+03  0.17928957639E+03  0.91750788551E+02 0.  0.
        -11    1    3    3    0    0  0.42768838445E+02 -0.11247870960E+02 -0.10085894607E+03  0.11012817598E+03  0.00000000000E+00 0. -1.
         11    1    3    3    0    0 -0.42768838445E+02  0.11247870960E+02 -0.53175287142E+02  0.69161400403E+02  0.00000000000E+00 0.  1.
<mgrwt>
<rscale>  0 0.91750789E+02</rscale>
<asrwt>0</asrwt>
<pdfrwt beam="1">  1        4 0.19427187E-02 0.91750789E+02</pdfrwt>
<pdfrwt beam="2">  1       -4 0.25640294E-01 0.91750789E+02</pdfrwt>
<totfact> 0.21910450E+04</totfact>
</mgrwt>
</event>
<event>
 5    1  0.6125604E+000  0.9404470E+02  0.7546771E-02  0.1293342E+00
          2   -1    0    0  501    0  0.00000000000E+00  0.00000000000E+00  0.20546189368E+03  0.20546189368E+03  0.00000000000E+00 0. -1.
         -2   -1    0    0    0  501 -0.00000000000E+00 -0.00000000000E+00 -0.10761612795E+02  0.10761612795E+02  0.00000000000E+00 0.  1.
         23    2    1    2    0    0  0.00000000000E+00  0.00000000000E+00  0.19470028088E+03  0.21622350647E+03  0.94044698817E+02 0.  0.
        -11    1    3    3    0    0 -0.44989210176E+02  0.13221601322E+02  0.89299292405E+02  0.10086229919E+03  0.00000000000E+00 0.  1.
         11    1    3    3    0    0  0.44989210176E+02 -0.13221601322E+02  0.10540098847E+03  0.11536120728E+03  0.00000000000E+00 0. -1.
<mgrwt>
<rscale>  0 0.94044699E+02</rscale>
<asrwt>0</asrwt>
<pdfrwt beam="1">  1        2 0.31609519E-01 0.94044699E+02</pdfrwt>
<pdfrwt beam="2">  1       -2 0.16556329E-02 0.94044699E+02</pdfrwt>
<totfact> 0.14367879E+05</totfact>
</mgrwt>
</event>
<event>
 5    1  0.6125604E+000  0.9102427E+02  0.7546771E-02  0.1300390E+00
         -2   -1    0    0    0  501 -0.00000000000E+00  0.00000000000E+00  0.10934272048E+02  0.10934272048E+02  0.00000000000E+00 0.  1.
          2   -1    0    0  501    0  0.00000000000E+00 -0.00000000000E+00 -0.18943689745E+03  0.18943689745E+03  0.00000000000E+00 0. -1.
         23    2    1    2    0    0  0.00000000000E+00  0.00000000000E+00 -0.17850262541E+03  0.20037116950E+03  0.91024273087E+02 0.  0.
        -11    1    3    3    0    0 -0.37949154616E+02  0.15529579493E+02 -0.45776545750E+02  0.61455661384E+02  0.00000000000E+00 0.  1.
         11    1    3    3    0    0  0.37949154616E+02 -0.15529579493E+02 -0.13272607965E+03  0.13891550812E+03  0.00000000000E+00 0. -1.
<mgrwt>
<rscale>  0 0.91024273E+02</rscale>
<asrwt>0</asrwt>
<pdfrwt beam="2">  1        2 0.29144137E-01 0.91024273E+02</pdfrwt>
<pdfrwt beam="1">  1       -2 0.16821958E-02 0.91024273E+02</pdfrwt>
<totfact> 0.15237384E+05</totfact>
</mgrwt>
</event>
<event>
 5    1  0.6125604E+000  0.1149262E+03  0.7546771E-02  0.1251710E+00
          1   -1    0    0  501    0  0.00000000000E+00  0.00000000000E+00  0.85721189842E+02  0.85721189842E+02  0.00000000000E+00 0. -1.
         -1   -1    0    0    0  501 -0.00000000000E+00 -0.00000000000E+00 -0.38520298824E+02  0.38520298824E+02  0.00000000000E+00 0.  1.
         23    2    1    2    0    0  0.00000000000E+00  0.00000000000E+00  0.47200891018E+02  0.12424148867E+03  0.11492616496E+03 0.  0.
        -11    1    3    3    0    0  0.43628423365E+02  0.28049890660E+02 -0.31383521965E+01  0.51962341613E+02  0.00000000000E+00 0.  1.
         11    1    3    3    0    0 -0.43628423365E+02 -0.28049890660E+02  0.50339243215E+02  0.72279147054E+02  0.00000000000E+00 0. -1.
<mgrwt>
<rscale>  0 0.11492616E+03</rscale>
<asrwt>0</asrwt>
<pdfrwt beam="1">  1        1 0.13187875E-01 0.11492616E+03</pdfrwt>
<pdfrwt beam="2">  1       -1 0.59261998E-02 0.11492616E+03</pdfrwt>
<totfact> 0.53454173E+04</totfact>
</mgrwt>
</event>
<event>
 5    1  0.6125604E+000  0.9009324E+02  0.7546771E-02  0.1302626E+00
          3   -1    0    0  501    0  0.00000000000E+00  0.00000000000E+00  0.49124578394E+02  0.49124578394E+02  0.00000000000E+00 0.  1.
         -3   -1    0    0    0  501 -0.00000000000E+00 -0.00000000000E+00 -0.41307180514E+02  0.41307180514E+02  0.00000000000E+00 0. -1.
         23    2    1    2    0    0  0.00000000000E+00  0.00000000000E+00  0.78173978798E+01  0.90431758908E+02  0.90093236759E+02 0.  0.
        -11    1    3    3    0    0  0.24922125178E+02  0.37041941885E+02  0.99295743676E+01  0.45736355660E+02  0.00000000000E+00 0.  1.
         11    1    3    3    0    0 -0.24922125178E+02 -0.37041941885E+02 -0.21121764878E+01  0.44695403248E+02  0.00000000000E+00 0. -1.
<mgrwt>
<rscale>  0 0.90093237E+02</rscale>
<asrwt>0</asrwt>
<pdfrwt beam="1">  1        3 0.75576274E-02 0.90093237E+02</pdfrwt>
<pdfrwt beam="2">  1       -3 0.63549509E-02 0.90093237E+02</pdfrwt>
<totfact> 0.36565963E+04</totfact>
</mgrwt>
</event>
<event>
 5    1  0.6125604E+000  0.9207054E+02  0.7546771E-02  0.1297914E+00
          2   -1    0    0  501    0  0.00000000000E+00  0.00000000000E+00  0.14312563385E+03  0.14312563385E+03  0.00000000000E+00 0. -1.
         -2   -1    0    0    0  501 -0.00000000000E+00 -0.00000000000E+00 -0.14806893909E+02  0.14806893909E+02  0.00000000000E+00 0.  1.
         23    2    1    2    0    0  0.00000000000E+00  0.00000000000E+00  0.12831873994E+03  0.15793252776E+03  0.92070539828E+02 0.  0.
        -11    1    3    3    0    0  0.16828541652E+02  0.20945038481E+02  0.12828088116E+03  0.13106440754E+03  0.00000000000E+00 0. -1.
         11    1    3    3    0    0 -0.16828541652E+02 -0.20945038481E+02  0.37858780937E-01  0.26868120224E+02  0.00000000000E+00 0.  1.
<mgrwt>
<rscale>  0 0.92070540E+02</rscale>
<asrwt>0</asrwt>
<pdfrwt beam="1">  1        2 0.22019327E-01 0.92070540E+02</pdfrwt>
<pdfrwt beam="2">  1       -2 0.22779838E-02 0.92070540E+02</pdfrwt>
<totfact> 0.13400295E+05</totfact>
</mgrwt>
</event>
<event>
 5    1  0.6125604E+000  0.9139340E+02  0.7546771E-02  0.1299512E+00
          3   -1    0    0  501    0  0.00000000000E+00  0.00000000000E+00  0.40509571249E+02  0.40509571249E+02  0.00000000000E+00 0. -1.
         -3   -1    0    0    0  501 -0.00000000000E+00 -0.00000000000E+00 -0.51548030133E+02  0.51548030133E+02  0.00000000000E+00 0.  1.
         23    2    1    2    0    0  0.00000000000E+00  0.00000000000E+00 -0.11038458884E+02  0.92057601382E+02  0.91393404564E+02 0.  0.
        -11    1    3    3    0    0  0.40354596680E+01 -0.28378529766E+02  0.30328210703E+02  0.41730399601E+02  0.00000000000E+00 0. -1.
         11    1    3    3    0    0 -0.40354596680E+01  0.28378529766E+02 -0.41366669587E+02  0.50327201782E+02  0.00000000000E+00 0.  1.
<mgrwt>
<rscale>  0 0.91393405E+02</rscale>
<asrwt>0</asrwt>
<pdfrwt beam="1">  1        3 0.62322418E-02 0.91393405E+02</pdfrwt>
<pdfrwt beam="2">  1       -3 0.79304661E-02 0.91393405E+02</pdfrwt>
<totfact> 0.35044002E+04</totfact>
</mgrwt>
</event>
<event>
 5    1  0.6125604E+000  0.9168927E+02  0.7546771E-02  0.1298812E+00
          1   -1    0    0  501    0  0.00000000000E+00  0.00000000000E+00  0.75492808655E+02  0.75492808655E+02  0.00000000000E+00 0. -1.
         -1   -1    0    0    0  501 -0.00000000000E+00 -0.00000000000E+00 -0.27840142876E+02  0.27840142876E+02  0.00000000000E+00 0.  1.
         23    2    1    2    0    0  0.00000000000E+00  0.00000000000E+00  0.47652665778E+02  0.10333295153E+03  0.91689270453E+02 0.  0.
        -11    1    3    3    0    0 -0.12963387609E+02 -0.30529534861E+02  0.59493916587E+02  0.68114815040E+02  0.00000000000E+00 0. -1.
         11    1    3    3    0    0  0.12963387609E+02  0.30529534861E+02 -0.11841250808E+02  0.35218136490E+02  0.00000000000E+00 0.  1.
<mgrwt>
<rscale>  0 0.91689270E+02</rscale>
<asrwt>0</asrwt>
<pdfrwt beam="1">  1        1 0.11614278E-01 0.91689270E+02</pdfrwt>
<pdfrwt beam="2">  1       -1 0.42830989E-02 0.91689270E+02</pdfrwt>
<totfact> 0.98302141E+04</totfact>
</mgrwt>
</event>
<event>
 5    1  0.6125604E+000  0.1088189E+03  0.7546771E-02  0.1262773E+00
         -1   -1    0    0    0  501 -0.00000000000E+00  0.00000000000E+00  0.26632313582E+02  0.26632313582E+02  0.00000000000E+00 0.  1.
          1   -1    0    0  501    0  0.00000000000E+00 -0.00000000000E+00 -0.11115769044E+03  0.11115769044E+03  0.00000000000E+00 0. -1.
         23    2    1    2    0    0  0.00000000000E+00  0.00000000000E+00 -0.84525376861E+02  0.13779000402E+03  0.10881886728E+03 0.  0.
        -11    1    3    3    0    0 -0.46130985372E+02 -0.92655871665E+01 -0.76672388334E+01  0.47672900775E+02  0.00000000000E+00 0.  1.
         11    1    3    3    0    0  0.46130985372E+02  0.92655871665E+01 -0.76858138028E+02  0.90117103249E+02  0.00000000000E+00 0. -1.
<mgrwt>
<rscale>  0 0.10881887E+03</rscale>
<asrwt>0</asrwt>
<pdfrwt beam="2">  1        1 0.17101183E-01 0.10881887E+03</pdfrwt>
<pdfrwt beam="1">  1       -1 0.40972791E-02 0.10881887E+03</pdfrwt>
<totfact> 0.65371162E+04</totfact>
</mgrwt>
</event>
<event>
 5    1  0.6125604E+000  0.9434384E+02  0.7546771E-02  0.1292661E+00
         -2   -1    0    0    0  501 -0.00000000000E+00  0.00000000000E+00  0.34009806042E+02  0.34009806042E+02  0.00000000000E+00 0.  1.
          2   -1    0    0  501    0  0.00000000000E+00 -0.00000000000E+00 -0.65427897689E+02  0.65427897689E+02  0.00000000000E+00 0. -1.
         23    2    1    2    0    0  0.00000000000E+00  0.00000000000E+00 -0.31418091646E+02  0.99437703731E+02  0.94343841562E+02 0.  0.
        -11    1    3    3    0    0  0.28390820642E+02  0.23730076765E+02  0.15128745019E+02  0.39975419521E+02  0.00000000000E+00 0.  1.
         11    1    3    3    0    0 -0.28390820642E+02 -0.23730076765E+02 -0.46546836665E+02  0.59462284211E+02  0.00000000000E+00 0. -1.
<mgrwt>
<rscale>  0 0.94343842E+02</rscale>
<asrwt>0</asrwt>
<pdfrwt beam="2">  1        2 0.10065830E-01 0.94343842E+02</pdfrwt>
<pdfrwt beam="1">  1       -2 0.52322779E-02 0.94343842E+02</pdfrwt>
<totfact> 0.98621963E+04</totfact>
</mgrwt>
</event>
<event>
 5    1  0.6125604E+000  0.9148757E+02  0.7546771E-02  0.1299289E+00
          2   -1    0    0  501    0  0.00000000000E+00  0.00000000000E+00  0.93632316115E+01  0.93632316115E+01  0.00000000000E+00 0.  1.
         -2   -1    0    0    0  501 -0.00000000000E+00 -0.00000000000E+00 -0.22347988106E+03  0.22347988106E+03  0.00000000000E+00 0. -1.
         23    2    1    2    0    0  0.00000000000E+00  0.00000000000E+00 -0.21411664944E+03  0.23284311267E+03  0.91487570453E+02 0.  0.
        -11    1    3    3    0    0  0.36880779016E+02 -0.17573961953E+02 -0.54685449738E+02  0.68260782390E+02  0.00000000000E+00 0.  1.
         11    1    3    3    0    0 -0.36880779016E+02  0.17573961953E+02 -0.15943119971E+03  0.16458233028E+03  0.00000000000E+00 0. -1.
<mgrwt>
<rscale>  0 0.91487570E+02</rscale>
<asrwt>0</asrwt>
<pdfrwt beam="1">  1        2 0.14404972E-02 0.91487570E+02</pdfrwt>
<pdfrwt beam="2">  1       -2 0.34381518E-01 0.91487570E+02</pdfrwt>
<totfact> 0.58778529E+04</totfact>
</mgrwt>
</event>
<event>
 5    1  0.6125604E+000  0.9137377E+02  0.7546771E-02  0.1299559E+00
         -2   -1    0    0    0  501 -0.00000000000E+00  0.00000000000E+00  0.23402462547E+02  0.23402462547E+02  0.00000000000E+00 0. -1.
          2   -1    0    0  501    0  0.00000000000E+00 -0.00000000000E+00 -0.89191109373E+02  0.89191109373E+02  0.00000000000E+00 0.  1.
         23    2    1    2    0    0  0.00000000000E+00  0.00000000000E+00 -0.65788646826E+02  0.11259357192E+03  0.91373772969E+02 0.  0.
        -11    1    3    3    0    0  0.83984158764E+01  0.14987397275E+02  0.19270475391E+02  0.25816790817E+02  0.00000000000E+00 0. -1.
         11    1    3    3    0    0 -0.83984158764E+01 -0.14987397275E+02 -0.85059122217E+02  0.86776781103E+02  0.00000000000E+00 0.  1.
<mgrwt>
<rscale>  0 0.91373773E+02</rscale>
<asrwt>0</asrwt>
<pdfrwt beam="2">  1        2 0.13721709E-01 0.91373773E+02</pdfrwt>
<pdfrwt beam="1">  1       -2 0.36003788E-02 0.91373773E+02</pdfrwt>
<totfact> 0.11783576E+05</totfact>
</mgrwt>
</event>
<event>
 4    1  0.6125604E+000  0.1347014E+03  0.7546771E-02  0.1220642E+00
          1   -1    0    0  501    0  0.00000000000E+00  0.00000000000E+00  0.43596067750E+02  0.43596067750E+02  0.00000000000E+00 0. -1.
         -1   -1    0    0    0  501 -0.00000000000E+00 -0.00000000000E+00 -0.10404872458E+03  0.10404872458E+03  0.00000000000E+00 0.  1.
        -11    1    1    2    0    0  0.61179140316E+02  0.25264156175E+02 -0.16582303067E+02  0.68235896506E+02  0.00000000000E+00 0. -1.
         11    1    1    2    0    0 -0.61179140316E+02 -0.25264156175E+02 -0.43870353766E+02  0.79408895828E+02  0.00000000000E+00 0.  1.
<mgrwt>
<rscale>  0 0.13470138E+03</rscale>
<asrwt>0</asrwt>
<pdfrwt beam="1">  1        1 0.67070874E-02 0.13470138E+03</pdfrwt>
<pdfrwt beam="2">  1       -1 0.16007496E-01 0.13470138E+03</pdfrwt>
<totfact> 0.29413963E+04</totfact>
</mgrwt>
</event>
<event>
 5    1  0.6125604E+000  0.9192323E+02  0.7546771E-02  0.1298260E+00
          2   -1    0    0  501    0  0.00000000000E+00  0.00000000000E+00  0.19892598312E+02  0.19892598312E+02  0.00000000000E+00 0.  1.
         -2   -1    0    0    0  501 -0.00000000000E+00 -0.00000000000E+00 -0.10619377363E+03  0.10619377363E+03  0.00000000000E+00 0. -1.
         23    2    1    2    0    0  0.00000000000E+00  0.00000000000E+00 -0.86301175320E+02  0.12608637194E+03  0.91923230623E+02 0.  0.
        -11    1    3    3    0    0  0.49773184462E+01 -0.30339312458E+02 -0.90012466307E+02  0.95118303549E+02  0.00000000000E+00 0. -1.
         11    1    3    3    0    0 -0.49773184462E+01  0.30339312458E+02  0.37112909867E+01  0.30968068395E+02  0.00000000000E+00 0.  1.
<mgrwt>
<rscale>  0 0.91923231E+02</rscale>
<asrwt>0</asrwt>
<pdfrwt beam="1">  1        2 0.30603997E-02 0.91923231E+02</pdfrwt>
<pdfrwt beam="2">  1       -2 0.16337504E-01 0.91923231E+02</pdfrwt>
<totfact> 0.76790687E+04</totfact>
</mgrwt>
</event>
<event>
 5    1  0.6125604E+000  0.9154541E+02  0.7546771E-02  0.1299152E+00
          2   -1    0    0  501    0  0.00000000000E+00  0.00000000000E+00  0.79589792690E+02  0.79589792690E+02  0.00000000000E+00 0. -1.
         -2   -1    0    0    0  501 -0.00000000000E+00 -0.00000000000E+00 -0.26324233967E+02  0.26324233967E+02  0.00000000000E+00 0.  1.
         23    2    1    2    0    0  0.00000000000E+00  0.00000000000E+00  0.53265558723E+02  0.10591402666E+03  0.91545405656E+02 0.  0.
        -11    1    3    3    0    0  0.42779912176E+02  0.24299058733E+01  0.45256360690E+02  0.62323057621E+02  0.00000000000E+00 0. -1.
         11    1    3    3    0    0 -0.42779912176E+02 -0.24299058733E+01  0.80091980323E+01  0.43590969036E+02  0.00000000000E+00 0.  1.
<mgrwt>
<rscale>  0 0.91545406E+02</rscale>
<asrwt>0</asrwt>
<pdfrwt beam="1">  1        2 0.12244583E-01 0.91545406E+02</pdfrwt>
<pdfrwt beam="2">  1       -2 0.40498822E-02 0.91545406E+02</pdfrwt>
<totfact> 0.11340643E+05</totfact>
</mgrwt>
</event>
<event>
 5    1  0.6125604E+000  0.9383770E+02  0.7546771E-02  0.1293816E+00
          2   -1    0    0  501    0  0.00000000000E+00  0.00000000000E+00  0.14132333319E+03  0.14132333319E+03  0.00000000000E+00 0.  1.
         -2   -1    0    0    0  501 -0.00000000000E+00 -0.00000000000E+00 -0.15576894280E+02  0.15576894280E+02  0.00000000000E+00 0. -1.
         23    2    1    2    0    0  0.00000000000E+00  0.00000000000E+00  0.12574643891E+03  0.15690022747E+03  0.93837702879E+02 0.  0.
        -11    1    3    3    0    0  0.23275104605E+01 -0.41827933783E+02  0.98199761911E+02  0.10676229011E+03  0.00000000000E+00 0.  1.
         11    1    3    3    0    0 -0.23275104605E+01  0.41827933783E+02  0.27546677002E+02  0.50137937366E+02  0.00000000000E+00 0. -1.
<mgrwt>
<rscale>  0 0.93837703E+02</rscale>
<asrwt>0</asrwt>
<pdfrwt beam="1">  1        2 0.21742050E-01 0.93837703E+02</pdfrwt>
<pdfrwt beam="2">  1       -2 0.23964454E-02 0.93837703E+02</pdfrwt>
<totfact> 0.12668809E+05</totfact>
</mgrwt>
</event>
<event>
 5    1  0.6125604E+000  0.9255036E+02  0.7546771E-02  0.1296791E+00
          3   -1    0    0  501    0  0.00000000000E+00  0.00000000000E+00  0.19628010741E+02  0.19628010741E+02  0.00000000000E+00 0. -1.
         -3   -1    0    0    0  501 -0.00000000000E+00 -0.00000000000E+00 -0.10909879539E+03  0.10909879539E+03  0.00000000000E+00 0.  1.
         23    2    1    2    0    0  0.00000000000E+00  0.00000000000E+00 -0.89470784652E+02  0.12872680613E+03  0.92550360946E+02 0.  0.
        -11    1    3    3    0    0 -0.32412876009E+01  0.22190213862E+02  0.11565017256E+02  0.25232145384E+02  0.00000000000E+00 0. -1.
         11    1    3    3    0    0  0.32412876009E+01 -0.22190213862E+02 -0.10103580191E+03  0.10349466075E+03  0.00000000000E+00 0.  1.
<mgrwt>
<rscale>  0 0.92550361E+02</rscale>
<asrwt>0</asrwt>
<pdfrwt beam="1">  1        3 0.30196941E-02 0.92550361E+02</pdfrwt>
<pdfrwt beam="2">  1       -3 0.16784429E-01 0.92550361E+02</pdfrwt>
<totfact> 0.31359600E+04</totfact>
</mgrwt>
</event>
<event>
 5    1  0.6125604E+000  0.9201480E+02  0.7546771E-02  0.1298045E+00
         -2   -1    0    0    0  501 -0.00000000000E+00  0.00000000000E+00  0.98924824343E+02  0.98924824343E+02  0.00000000000E+00 0.  1.
          2   -1    0    0  501    0  0.00000000000E+00 -0.00000000000E+00 -0.21396861298E+02  0.21396861298E+02  0.00000000000E+00 0. -1.
         23    2    1    2    0    0  0.00000000000E+00  0.00000000000E+00  0.77527963045E+02  0.12032168564E+03  0.92014797624E+02 0.  0.
        -11    1    3    3    0    0 -0.12563786130E+02 -0.31282877431E+02 -0.21759012590E+01  0.33781676818E+02  0.00000000000E+00 0. -1.
         11    1    3    3    0    0  0.12563786130E+02  0.31282877431E+02  0.79703864304E+02  0.86540008824E+02  0.00000000000E+00 0.  1.
<mgrwt>
<rscale>  0 0.92014798E+02</rscale>
<asrwt>0</asrwt>
<pdfrwt beam="2">  1        2 0.32918249E-02 0.92014798E+02</pdfrwt>
<pdfrwt beam="1">  1       -2 0.15219203E-01 0.92014798E+02</pdfrwt>
<totfact> 0.78260832E+04</totfact>
</mgrwt>
</event>
<event>
 5    1  0.6125604E+000  0.8799211E+02  0.7546771E-02  0.1307788E+00
          1   -1    0    0  501    0  0.00000000000E+00  0.00000000000E+00  0.18989698153E+03  0.18989698153E+03  0.00000000000E+00 0. -1.
         -1   -1    0    0    0  501 -0.00000000000E+00 -0.00000000000E+00 -0.10193173169E+02  0.10193173169E+02  0.00000000000E+00 0.  1.
         23    2    1    2    0    0  0.00000000000E+00  0.00000000000E+00  0.17970380836E+03  0.20009015469E+03  0.87992109122E+02 0.  0.
        -11    1    3    3    0    0  0.39932799042E+02  0.17995435113E+02  0.80424254948E+02  0.91577971741E+02  0.00000000000E+00 0.  1.
         11    1    3    3    0    0 -0.39932799042E+02 -0.17995435113E+02  0.99279553409E+02  0.10851218295E+03  0.00000000000E+00 0. -1.
<mgrwt>
<rscale>  0 0.87992109E+02</rscale>
<asrwt>0</asrwt>
<pdfrwt beam="1">  1        1 0.29214918E-01 0.87992109E+02</pdfrwt>
<pdfrwt beam="2">  1       -1 0.15681806E-02 0.87992109E+02</pdfrwt>
<totfact> 0.12893193E+05</totfact>
</mgrwt>
</event>
<event>
 5    1  0.6125604E+000  0.9246368E+02  0.7546771E-02  0.1296993E+00
          2   -1    0    0  501    0  0.00000000000E+00  0.00000000000E+00  0.15568961096E+03  0.15568961096E+03  0.00000000000E+00 0. -1.
         -2   -1    0    0    0  501 -0.00000000000E+00 -0.00000000000E+00 -0.13728487519E+02  0.13728487519E+02  0.00000000000E+00 0.  1.
         23    2    1    2    0    0  0.00000000000E+00  0.00000000000E+00  0.14196112344E+03  0.16941809848E+03  0.92463676780E+02 0.  0.
        -11    1    3    3    0    0  0.35914359704E+02 -0.79392647374E+01  0.19660424452E+02  0.41706179964E+02  0.00000000000E+00 0.  1.
         11    1    3    3    0    0 -0.35914359704E+02  0.79392647374E+01  0.12230069899E+03  0.12771191852E+03  0.00000000000E+00 0. -1.
<mgrwt>
<rscale>  0 0.92463677E+02</rscale>
<asrwt>0</asrwt>
<pdfrwt beam="1">  1        2 0.23952247E-01 0.92463677E+02</pdfrwt>
<pdfrwt beam="2">  1       -2 0.21120751E-02 0.92463677E+02</pdfrwt>
<totfact> 0.13631095E+05</totfact>
</mgrwt>
</event>
<event>
 5    1  0.6125604E+000  0.8707579E+02  0.7546771E-02  0.1310092E+00
          1   -1    0    0  501    0  0.00000000000E+00  0.00000000000E+00  0.12971154125E+03  0.12971154125E+03  0.00000000000E+00 0. -1.
         -1   -1    0    0    0  501 -0.00000000000E+00 -0.00000000000E+00 -0.14613567067E+02  0.14613567067E+02  0.00000000000E+00 0.  1.
         23    2    1    2    0    0  0.00000000000E+00  0.00000000000E+00  0.11509797418E+03  0.14432510831E+03  0.87075790146E+02 0.  0.
        -11    1    3    3    0    0  0.36798040290E+01 -0.29136145795E+02  0.42751421203E+01  0.29677142545E+02  0.00000000000E+00 0.  1.
         11    1    3    3    0    0 -0.36798040290E+01  0.29136145795E+02  0.11082283206E+03  0.11464796577E+03  0.00000000000E+00 0. -1.
<mgrwt>
<rscale>  0 0.87075790E+02</rscale>
<asrwt>0</asrwt>
<pdfrwt beam="1">  1        1 0.19955621E-01 0.87075790E+02</pdfrwt>
<pdfrwt beam="2">  1       -1 0.22482412E-02 0.87075790E+02</pdfrwt>
<totfact> 0.12366044E+05</totfact>
</mgrwt>
</event>
<event>
 5    1  0.6125604E+000  0.9214922E+02  0.7546771E-02  0.1297729E+00
          1   -1    0    0  501    0  0.00000000000E+00  0.00000000000E+00  0.87672277673E+02  0.87672277673E+02  0.00000000000E+00 0. -1.
         -1   -1    0    0    0  501 -0.00000000000E+00 -0.00000000000E+00 -0.24213696287E+02  0.24213696287E+02  0.00000000000E+00 0.  1.
         23    2    1    2    0    0  0.00000000000E+00  0.00000000000E+00  0.63458581385E+02  0.11188597396E+03  0.92149224726E+02 0.  0.
        -11    1    3    3    0    0 -0.30521725797E+02 -0.31007718948E+02  0.13322687826E+02  0.45503278903E+02  0.00000000000E+00 0.  1.
         11    1    3    3    0    0  0.30521725797E+02  0.31007718948E+02  0.50135893559E+02  0.66382695057E+02  0.00000000000E+00 0. -1.
<mgrwt>
<rscale>  0 0.92149225E+02</rscale>
<asrwt>0</asrwt>
<pdfrwt beam="1">  1        1 0.13488043E-01 0.92149225E+02</pdfrwt>
<pdfrwt beam="2">  1       -1 0.37251841E-02 0.92149225E+02</pdfrwt>
<totfact> 0.99296328E+04</totfact>
</mgrwt>
</event>
<event>
 5    1  0.6125604E+000  0.9123810E+02  0.7546771E-02  0.1299881E+00
          2   -1    0    0  501    0  0.00000000000E+00  0.00000000000E+00  0.30974360111E+03  0.30974360111E+03  0.00000000000E+00 0. -1.
         -2   -1    0    0    0  501 -0.00000000000E+00 -0.00000000000E+00 -0.67187760045E+01  0.67187760045E+01  0.00000000000E+00 0.  1.
         23    2    1    2    0    0  0.00000000000E+00  0.00000000000E+00  0.30302482510E+03  0.31646237711E+03  0.91238103326E+02 0.  0.
        -11    1    3    3    0    0  0.44236495289E+02 -0.18460123362E+01  0.11338652858E+03  0.12172419702E+03  0.00000000000E+00 0. -1.
         11    1    3    3    0    0 -0.44236495289E+02  0.18460123362E+01  0.18963829652E+03  0.19473818009E+03  0.00000000000E+00 0.  1.
<mgrwt>
<rscale>  0 0.91238103E+02</rscale>
<asrwt>0</asrwt>
<pdfrwt beam="1">  1        2 0.47652851E-01 0.91238103E+02</pdfrwt>
<pdfrwt beam="2">  1       -2 0.10336581E-02 0.91238103E+02</pdfrwt>
<totfact> 0.18148347E+05</totfact>
</mgrwt>
</event>
<event>
 5    1  0.6125604E+000  0.9891015E+02  0.7546771E-02  0.1282605E+00
          1   -1    0    0  501    0  0.00000000000E+00  0.00000000000E+00  0.21535887939E+02  0.21535887939E+02  0.00000000000E+00 0. -1.
         -1   -1    0    0    0  501 -0.00000000000E+00 -0.00000000000E+00 -0.11356876754E+03  0.11356876754E+03  0.00000000000E+00 0.  1.
         23    2    1    2    0    0  0.00000000000E+00  0.00000000000E+00 -0.92032879597E+02  0.13510465548E+03  0.98910146114E+02 0.  0.
        -11    1    3    3    0    0 -0.20069507537E+02 -0.44494362315E+02 -0.56881478382E+02  0.74953558911E+02  0.00000000000E+00 0.  1.
         11    1    3    3    0    0  0.20069507537E+02  0.44494362315E+02 -0.35151401215E+02  0.60151096565E+02  0.00000000000E+00 0. -1.
<mgrwt>
<rscale>  0 0.98910146E+02</rscale>
<asrwt>0</asrwt>
<pdfrwt beam="1">  1        1 0.33132136E-02 0.98910146E+02</pdfrwt>
<pdfrwt beam="2">  1       -1 0.17472118E-01 0.98910146E+02</pdfrwt>
<totfact> 0.64321501E+04</totfact>
</mgrwt>
</event>
<event>
 5    1  0.6125604E+000  0.9026623E+02  0.7546771E-02  0.1302208E+00
          1   -1    0    0  501    0  0.00000000000E+00  0.00000000000E+00  0.47047884631E+03  0.47047884631E+03  0.00000000000E+00 0. -1.
         -1   -1    0    0    0  501 -0.00000000000E+00 -0.00000000000E+00 -0.43296271103E+01  0.43296271103E+01  0.00000000000E+00 0.  1.
         23    2    1    2    0    0  0.00000000000E+00  0.00000000000E+00  0.46614921920E+03  0.47480847342E+03  0.90266227745E+02 0.  0.
        -11    1    3    3    0    0  0.84890211972E+01 -0.44069443085E+02  0.25820147775E+03  0.26207285705E+03  0.00000000000E+00 0. -1.
         11    1    3    3    0    0 -0.84890211972E+01  0.44069443085E+02  0.20794774146E+03  0.21273561637E+03  0.00000000000E+00 0.  1.
<mgrwt>
<rscale>  0 0.90266228E+02</rscale>
<asrwt>0</asrwt>
<pdfrwt beam="1">  1        1 0.72381321E-01 0.90266228E+02</pdfrwt>
<pdfrwt beam="2">  1       -1 0.66609685E-03 0.90266228E+02</pdfrwt>
<totfact> 0.14192805E+05</totfact>
</mgrwt>
</event>
<event>
 5    1  0.6125604E+000  0.7868012E+02  0.7546771E-02  0.1332839E+00
         -1   -1    0    0    0  501 -0.00000000000E+00  0.00000000000E+00  0.58499132358E+01  0.58499132358E+01  0.00000000000E+00 0.  1.
          1   -1    0    0  501    0  0.00000000000E+00 -0.00000000000E+00 -0.26455782991E+03  0.26455782991E+03  0.00000000000E+00 0. -1.
         23    2    1    2    0    0  0.00000000000E+00  0.00000000000E+00 -0.25870791667E+03  0.27040774314E+03  0.78680120762E+02 0.  0.
        -11    1    3    3    0    0 -0.32256781372E+02  0.12180210610E+02 -0.64255611633E+02  0.72922157821E+02  0.00000000000E+00 0. -1.
         11    1    3    3    0    0  0.32256781372E+02 -0.12180210610E+02 -0.19445230504E+03  0.19748558532E+03  0.00000000000E+00 0.  1.
<mgrwt>
<rscale>  0 0.78680121E+02</rscale>
<asrwt>0</asrwt>
<pdfrwt beam="2">  1        1 0.40701194E-01 0.78680121E+02</pdfrwt>
<pdfrwt beam="1">  1       -1 0.89998688E-03 0.78680121E+02</pdfrwt>
<totfact> 0.18474502E+05</totfact>
</mgrwt>
</event>
<event>
 5    1  0.6125604E+000  0.8987418E+02  0.7546771E-02  0.1303157E+00
         -2   -1    0    0    0  501 -0.00000000000E+00  0.00000000000E+00  0.10919369684E+03  0.10919369684E+03  0.00000000000E+00 0. -1.
          2   -1    0    0  501    0  0.00000000000E+00 -0.00000000000E+00 -0.18493210796E+02  0.18493210796E+02  0.00000000000E+00 0.  1.
         23    2    1    2    0    0  0.00000000000E+00  0.00000000000E+00  0.90700486048E+02  0.12768690764E+03  0.89874179904E+02 0.  0.
        -11    1    3    3    0    0 -0.33875969266E+02  0.29490925950E+02  0.47382455680E+02  0.65287005700E+02  0.00000000000E+00 0.  1.
         11    1    3    3    0    0  0.33875969266E+02 -0.29490925950E+02  0.43318030369E+02  0.62399901940E+02  0.00000000000E+00 0. -1.
<mgrwt>
<rscale>  0 0.89874180E+02</rscale>
<asrwt>0</asrwt>
<pdfrwt beam="2">  1        2 0.28451094E-02 0.89874180E+02</pdfrwt>
<pdfrwt beam="1">  1       -2 0.16799030E-01 0.89874180E+02</pdfrwt>
<totfact> 0.80544849E+04</totfact>
</mgrwt>
</event>
<event>
 5    1  0.6125604E+000  0.8994213E+02  0.7546771E-02  0.1302992E+00
         -1   -1    0    0    0  501 -0.00000000000E+00  0.00000000000E+00  0.95804578793E+01  0.95804578793E+01  0.00000000000E+00 0.  1.
          1   -1    0    0  501    0  0.00000000000E+00 -0.00000000000E+00 -0.21109602929E+03  0.21109602929E+03  0.00000000000E+00 0. -1.
         23    2    1    2    0    0  0.00000000000E+00  0.00000000000E+00 -0.20151557141E+03  0.22067648717E+03  0.89942128440E+02 0.  0.
        -11    1    3    3    0    0  0.33332956206E+02 -0.12912582506E+02 -0.16770729179E+03  0.17147465257E+03  0.00000000000E+00 0. -1.
         11    1    3    3    0    0 -0.33332956206E+02  0.12912582506E+02 -0.33808279620E+02  0.49201834593E+02  0.00000000000E+00 0.  1.
<mgrwt>
<rscale>  0 0.89942128E+02</rscale>
<asrwt>0</asrwt>
<pdfrwt beam="2">  1        1 0.32476312E-01 0.89942128E+02</pdfrwt>
<pdfrwt beam="1">  1       -1 0.14739166E-02 0.89942128E+02</pdfrwt>
<totfact> 0.12410126E+05</totfact>
</mgrwt>
</event>
<event>
 5    1  0.6125604E+000  0.8965266E+02  0.7546771E-02  0.1303695E+00
         -4   -1    0    0    0  501 -0.00000000000E+00  0.00000000000E+00  0.70686502071E+02  0.70686502071E+02  0.00000000000E+00 0.  1.
          4   -1    0    0  501    0  0.00000000000E+00 -0.00000000000E+00 -0.28426923933E+02  0.28426923933E+02  0.00000000000E+00 0. -1.
         23    2    1    2    0    0  0.00000000000E+00  0.00000000000E+00  0.42259578138E+02  0.99113426003E+02  0.89652659022E+02 0.  0.
        -11    1    3    3    0    0 -0.41085447451E+02 -0.17610300127E+02  0.17419571851E+02  0.47974765724E+02  0.00000000000E+00 0.  1.
         11    1    3    3    0    0  0.41085447451E+02  0.17610300127E+02  0.24840006287E+02  0.51138660279E+02  0.00000000000E+00 0. -1.
<mgrwt>
<rscale>  0 0.89652659E+02</rscale>
<asrwt>0</asrwt>
<pdfrwt beam="2">  1        4 0.43733729E-02 0.89652659E+02</pdfrwt>
<pdfrwt beam="1">  1       -4 0.10874846E-01 0.89652659E+02</pdfrwt>
<totfact> 0.27749374E+04</totfact>
</mgrwt>
</event>
<event>
 5    1  0.6125604E+000  0.9075507E+02  0.7546771E-02  0.1301033E+00
          4   -1    0    0  501    0  0.00000000000E+00  0.00000000000E+00  0.19476921205E+02  0.19476921205E+02  0.00000000000E+00 0.  1.
         -4   -1    0    0    0  501 -0.00000000000E+00 -0.00000000000E+00 -0.10572106421E+03  0.10572106421E+03  0.00000000000E+00 0. -1.
         23    2    1    2    0    0  0.00000000000E+00  0.00000000000E+00 -0.86244143009E+02  0.12519798542E+03  0.90755073411E+02 0.  0.
        -11    1    3    3    0    0 -0.42087790671E+02 -0.11523659888E+01 -0.19775608293E+02  0.46516499807E+02  0.00000000000E+00 0.  1.
         11    1    3    3    0    0  0.42087790671E+02  0.11523659888E+01 -0.66468534715E+02  0.78681485612E+02  0.00000000000E+00 0. -1.
<mgrwt>
<rscale>  0 0.90755073E+02</rscale>
<asrwt>0</asrwt>
<pdfrwt beam="1">  1        4 0.29964495E-02 0.90755073E+02</pdfrwt>
<pdfrwt beam="2">  1       -4 0.16264779E-01 0.90755073E+02</pdfrwt>
<totfact> 0.25295697E+04</totfact>
</mgrwt>
</event>
<event>
 5    1  0.6125604E+000  0.8855767E+02  0.7546771E-02  0.1306383E+00
         -1   -1    0    0    0  501 -0.00000000000E+00  0.00000000000E+00  0.14571349321E+02  0.14571349321E+02  0.00000000000E+00 0.  1.
          1   -1    0    0  501    0  0.00000000000E+00 -0.00000000000E+00 -0.13455275823E+03  0.13455275823E+03  0.00000000000E+00 0. -1.
         23    2    1    2    0    0  0.00000000000E+00  0.00000000000E+00 -0.11998140891E+03  0.14912410755E+03  0.88557670300E+02 0.  0.
        -11    1    3    3    0    0 -0.43202911697E-01  0.40597619740E+02 -0.30225449355E+02  0.50613697590E+02  0.00000000000E+00 0.  1.
         11    1    3    3    0    0  0.43202911697E-01 -0.40597619740E+02 -0.89755959554E+02  0.98510409960E+02  0.00000000000E+00 0. -1.
<mgrwt>
<rscale>  0 0.88557670E+02</rscale>
<asrwt>0</asrwt>
<pdfrwt beam="2">  1        1 0.20700424E-01 0.88557670E+02</pdfrwt>
<pdfrwt beam="1">  1       -1 0.22417461E-02 0.88557670E+02</pdfrwt>
<totfact> 0.11893478E+05</totfact>
</mgrwt>
</event>
<event>
 5    1  0.6125604E+000  0.9184530E+02  0.7546771E-02  0.1298444E+00
         -1   -1    0    0    0  501 -0.00000000000E+00  0.00000000000E+00  0.79626297087E+01  0.79626297087E+01  0.00000000000E+00 0.  1.
          1   -1    0    0  501    0  0.00000000000E+00 -0.00000000000E+00 -0.26484842241E+03  0.26484842241E+03  0.00000000000E+00 0. -1.
         23    2    1    2    0    0  0.00000000000E+00  0.00000000000E+00 -0.25688579270E+03  0.27281105212E+03  0.91845302908E+02 0.  0.
        -11    1    3    3    0    0 -0.42483399340E+02 -0.14955707783E+02 -0.15507296351E+03  0.16148107141E+03  0.00000000000E+00 0. -1.
         11    1    3    3    0    0  0.42483399340E+02  0.14955707783E+02 -0.10181282919E+03  0.11132998070E+03  0.00000000000E+00 0.  1.
<mgrwt>
<rscale>  0 0.91845303E+02</rscale>
<asrwt>0</asrwt>
<pdfrwt beam="2">  1        1 0.40745910E-01 0.91845303E+02</pdfrwt>
<pdfrwt beam="1">  1       -1 0.12250200E-02 0.91845303E+02</pdfrwt>
<totfact> 0.12265353E+05</totfact>
</mgrwt>
</event>
<event>
 5    1  0.6125604E+000  0.9104184E+02  0.7546771E-02  0.1300348E+00
         -2   -1    0    0    0  501 -0.00000000000E+00  0.00000000000E+00  0.28044268280E+02  0.28044268280E+02  0.00000000000E+00 0.  1.
          2   -1    0    0  501    0  0.00000000000E+00 -0.00000000000E+00 -0.73888691615E+02  0.73888691615E+02  0.00000000000E+00 0. -1.
         23    2    1    2    0    0  0.00000000000E+00  0.00000000000E+00 -0.45844423334E+02  0.10193295989E+03  0.91041842919E+02 0.  0.
        -11    1    3    3    0    0 -0.20511730909E+02 -0.40637457672E+02 -0.23081417789E+02  0.51038083017E+02  0.00000000000E+00 0. -1.
         11    1    3    3    0    0  0.20511730909E+02  0.40637457672E+02 -0.22763005545E+02  0.50894876878E+02  0.00000000000E+00 0.  1.
<mgrwt>
<rscale>  0 0.91041843E+02</rscale>
<asrwt>0</asrwt>
<pdfrwt beam="2">  1        2 0.11367491E-01 0.91041843E+02</pdfrwt>
<pdfrwt beam="1">  1       -2 0.43145027E-02 0.91041843E+02</pdfrwt>
<totfact> 0.11276515E+05</totfact>
</mgrwt>
</event>
<event>
 5    1  0.6125604E+000  0.9028642E+02  0.7546771E-02  0.1302160E+00
         -1   -1    0    0    0  501 -0.00000000000E+00  0.00000000000E+00  0.26652374122E+02  0.26652374122E+02  0.00000000000E+00 0.  1.
          1   -1    0    0  501    0  0.00000000000E+00 -0.00000000000E+00 -0.76462591703E+02  0.76462591703E+02  0.00000000000E+00 0. -1.
         23    2    1    2    0    0  0.00000000000E+00  0.00000000000E+00 -0.49810217581E+02  0.10311496583E+03  0.90286424238E+02 0.  0.
        -11    1    3    3    0    0  0.24633132587E+02  0.32279129060E+02 -0.23745278926E+01  0.40673969275E+02  0.00000000000E+00 0.  1.
         11    1    3    3    0    0 -0.24633132587E+02 -0.32279129060E+02 -0.47435689689E+02  0.62440996550E+02  0.00000000000E+00 0. -1.
<mgrwt>
<rscale>  0 0.90286424E+02</rscale>
<asrwt>0</asrwt>
<pdfrwt beam="2">  1        1 0.11763475E-01 0.90286424E+02</pdfrwt>
<pdfrwt beam="1">  1       -1 0.41003653E-02 0.90286424E+02</pdfrwt>
<totfact> 0.10276228E+05</totfact>
</mgrwt>
</event>
<event>
 5    1  0.6125604E+000  0.9131006E+02  0.7546771E-02  0.1299710E+00
         -3   -1    0    0    0  501 -0.00000000000E+00  0.00000000000E+00  0.76892075763E+02  0.76892075763E+02  0.00000000000E+00 0.  1.
          3   -1    0    0  501    0  0.00000000000E+00 -0.00000000000E+00 -0.27107889820E+02  0.27107889820E+02  0.00000000000E+00 0. -1.
         23    2    1    2    0    0  0.00000000000E+00  0.00000000000E+00  0.49784185943E+02  0.10399996558E+03  0.91310063361E+02 0.  0.
        -11    1    3    3    0    0  0.27514682249E+02  0.71930125105E+01  0.65570993904E+02  0.71472738928E+02  0.00000000000E+00 0.  1.
         11    1    3    3    0    0 -0.27514682249E+02 -0.71930125105E+01 -0.15786807961E+02  0.32527226654E+02  0.00000000000E+00 0. -1.
<mgrwt>
<rscale>  0 0.91310063E+02</rscale>
<asrwt>0</asrwt>
<pdfrwt beam="2">  1        3 0.41704446E-02 0.91310063E+02</pdfrwt>
<pdfrwt beam="1">  1       -3 0.11829550E-01 0.91310063E+02</pdfrwt>
<totfact> 0.34242140E+04</totfact>
</mgrwt>
</event>
<event>
 5    1  0.6125604E+000  0.9061961E+02  0.7546771E-02  0.1301358E+00
         -1   -1    0    0    0  501 -0.00000000000E+00  0.00000000000E+00  0.47139403719E+02  0.47139403719E+02  0.00000000000E+00 0.  1.
          1   -1    0    0  501    0  0.00000000000E+00 -0.00000000000E+00 -0.43551217317E+02  0.43551217317E+02  0.00000000000E+00 0. -1.
         23    2    1    2    0    0  0.00000000000E+00  0.00000000000E+00  0.35881864022E+01  0.90690621036E+02  0.90619609700E+02 0.  0.
        -11    1    3    3    0    0  0.85772592654E+01  0.34517472533E+02  0.29886592635E+02  0.46456793969E+02  0.00000000000E+00 0.  1.
         11    1    3    3    0    0 -0.85772592654E+01 -0.34517472533E+02 -0.26298406233E+02  0.44233827066E+02  0.00000000000E+00 0. -1.
<mgrwt>
<rscale>  0 0.90619610E+02</rscale>
<asrwt>0</asrwt>
<pdfrwt beam="2">  1        1 0.67001873E-02 0.90619610E+02</pdfrwt>
<pdfrwt beam="1">  1       -1 0.72522159E-02 0.90619610E+02</pdfrwt>
<totfact> 0.93433860E+04</totfact>
</mgrwt>
</event>
<event>
 5    1  0.6125604E+000  0.9154420E+02  0.7546771E-02  0.1299155E+00
          2   -1    0    0  501    0  0.00000000000E+00  0.00000000000E+00  0.14510818135E+03  0.14510818135E+03  0.00000000000E+00 0. -1.
         -2   -1    0    0    0  501 -0.00000000000E+00 -0.00000000000E+00 -0.14438090326E+02  0.14438090326E+02  0.00000000000E+00 0.  1.
         23    2    1    2    0    0  0.00000000000E+00  0.00000000000E+00  0.13067009103E+03  0.15954627168E+03  0.91544197617E+02 0.  0.
        -11    1    3    3    0    0 -0.18799113567E+02 -0.26206453569E+02  0.87291696690E+01  0.33412322318E+02  0.00000000000E+00 0.  1.
         11    1    3    3    0    0  0.18799113567E+02  0.26206453569E+02  0.12194092136E+03  0.12613394936E+03  0.00000000000E+00 0. -1.
<mgrwt>
<rscale>  0 0.91544198E+02</rscale>
<asrwt>0</asrwt>
<pdfrwt beam="1">  1        2 0.22324335E-01 0.91544198E+02</pdfrwt>
<pdfrwt beam="2">  1       -2 0.22212448E-02 0.91544198E+02</pdfrwt>
<totfact> 0.13674412E+05</totfact>
</mgrwt>
</event>
<event>
 5    1  0.6125604E+000  0.9155821E+02  0.7546771E-02  0.1299122E+00
          2   -1    0    0  501    0  0.00000000000E+00  0.00000000000E+00  0.32393781109E+03  0.32393781109E+03  0.00000000000E+00 0. -1.
         -2   -1    0    0    0  501 -0.00000000000E+00 -0.00000000000E+00 -0.64695337170E+01  0.64695337170E+01  0.00000000000E+00 0.  1.
         23    2    1    2    0    0  0.00000000000E+00  0.00000000000E+00  0.31746827737E+03  0.33040734480E+03  0.91558212980E+02 0.  0.
        -11    1    3    3    0    0  0.45702918044E+02 -0.66008588658E+00  0.16795873280E+03  0.17406702259E+03  0.00000000000E+00 0.  1.
         11    1    3    3    0    0 -0.45702918044E+02  0.66008588658E+00  0.14950954457E+03  0.15634032221E+03  0.00000000000E+00 0. -1.
<mgrwt>
<rscale>  0 0.91558213E+02</rscale>
<asrwt>0</asrwt>
<pdfrwt beam="1">  1        2 0.49836574E-01 0.91558213E+02</pdfrwt>
<pdfrwt beam="2">  1       -2 0.99531313E-03 0.91558213E+02</pdfrwt>
<totfact> 0.18280907E+05</totfact>
</mgrwt>
</event>
<event>
 5    1  0.6125604E+000  0.8161019E+02  0.7546771E-02  0.1324543E+00
          2   -1    0    0  501    0  0.00000000000E+00  0.00000000000E+00  0.35568315125E+02  0.35568315125E+02  0.00000000000E+00 0. -1.
         -2   -1    0    0    0  501 -0.00000000000E+00 -0.00000000000E+00 -0.46812895775E+02  0.46812895775E+02  0.00000000000E+00 0.  1.
         23    2    1    2    0    0  0.00000000000E+00  0.00000000000E+00 -0.11244580651E+02  0.82381210900E+02  0.81610191246E+02 0.  0.
        -11    1    3    3    0    0  0.17005472971E+02  0.27973153888E+02  0.18967081776E+02  0.37834291859E+02  0.00000000000E+00 0.  1.
         11    1    3    3    0    0 -0.17005472971E+02 -0.27973153888E+02 -0.30211662427E+02  0.44546919040E+02  0.00000000000E+00 0. -1.
<mgrwt>
<rscale>  0 0.81610191E+02</rscale>
<asrwt>0</asrwt>
<pdfrwt beam="1">  1        2 0.54720485E-02 0.81610191E+02</pdfrwt>
<pdfrwt beam="2">  1       -2 0.72019839E-02 0.81610191E+02</pdfrwt>
<totfact> 0.12740302E+05</totfact>
</mgrwt>
</event>
<event>
 5    1  0.6125604E+000  0.8663162E+02  0.7546771E-02  0.1311220E+00
         -2   -1    0    0    0  501 -0.00000000000E+00  0.00000000000E+00  0.16746907200E+02  0.16746907200E+02  0.00000000000E+00 0.  1.
          2   -1    0    0  501    0  0.00000000000E+00 -0.00000000000E+00 -0.11203617789E+03  0.11203617789E+03  0.00000000000E+00 0. -1.
         23    2    1    2    0    0  0.00000000000E+00  0.00000000000E+00 -0.95289270687E+02  0.12878308509E+03  0.86631621804E+02 0.  0.
        -11    1    3    3    0    0 -0.38382035156E+02 -0.18090972806E+02 -0.34702550381E+02  0.54815425956E+02  0.00000000000E+00 0.  1.
         11    1    3    3    0    0  0.38382035156E+02  0.18090972806E+02 -0.60586720306E+02  0.73967659131E+02  0.00000000000E+00 0. -1.
<mgrwt>
<rscale>  0 0.86631622E+02</rscale>
<asrwt>0</asrwt>
<pdfrwt beam="2">  1        2 0.17236335E-01 0.86631622E+02</pdfrwt>
<pdfrwt beam="1">  1       -2 0.25764473E-02 0.86631622E+02</pdfrwt>
<totfact> 0.14609375E+05</totfact>
</mgrwt>
</event>
<event>
 5    1  0.6125604E+000  0.9331307E+02  0.7546771E-02  0.1295021E+00
         -1   -1    0    0    0  501 -0.00000000000E+00  0.00000000000E+00  0.54532480648E+01  0.54532480648E+01  0.00000000000E+00 0.  1.
          1   -1    0    0  501    0  0.00000000000E+00 -0.00000000000E+00 -0.39918088430E+03  0.39918088430E+03  0.00000000000E+00 0. -1.
         23    2    1    2    0    0  0.00000000000E+00  0.00000000000E+00 -0.39372763624E+03  0.40463413237E+03  0.93313072714E+02 0.  0.
        -11    1    3    3    0    0 -0.29155104100E+02 -0.36400589851E+02 -0.19103096411E+03  0.19664143075E+03  0.00000000000E+00 0. -1.
         11    1    3    3    0    0  0.29155104100E+02  0.36400589851E+02 -0.20269667212E+03  0.20799270162E+03  0.00000000000E+00 0.  1.
<mgrwt>
<rscale>  0 0.93313073E+02</rscale>
<asrwt>0</asrwt>
<pdfrwt beam="2">  1        1 0.61412453E-01 0.93313073E+02</pdfrwt>
<pdfrwt beam="1">  1       -1 0.83896111E-03 0.93313073E+02</pdfrwt>
<totfact> 0.12679077E+05</totfact>
</mgrwt>
</event>
<event>
 5    1  0.6125604E+000  0.9841711E+02  0.7546771E-02  0.1283660E+00
          2   -1    0    0  501    0  0.00000000000E+00  0.00000000000E+00  0.63172253938E+02  0.63172253938E+02  0.00000000000E+00 0. -1.
         -2   -1    0    0    0  501 -0.00000000000E+00 -0.00000000000E+00 -0.38331414800E+02  0.38331414800E+02  0.00000000000E+00 0.  1.
         23    2    1    2    0    0  0.00000000000E+00  0.00000000000E+00  0.24840839138E+02  0.10150366874E+03  0.98417109682E+02 0.  0.
        -11    1    3    3    0    0  0.24607619530E+02 -0.53278266427E+01 -0.31185112707E+02  0.40080318489E+02  0.00000000000E+00 0.  1.
         11    1    3    3    0    0 -0.24607619530E+02  0.53278266427E+01  0.56025951845E+02  0.61423350249E+02  0.00000000000E+00 0. -1.
<mgrwt>
<rscale>  0 0.98417110E+02</rscale>
<asrwt>0</asrwt>
<pdfrwt beam="1">  1        2 0.97188083E-02 0.98417110E+02</pdfrwt>
<pdfrwt beam="2">  1       -2 0.58971407E-02 0.98417110E+02</pdfrwt>
<totfact> 0.86610311E+04</totfact>
</mgrwt>
</event>
<event>
 5    1  0.6125604E+000  0.8924396E+02  0.7546771E-02  0.1304693E+00
         -3   -1    0    0    0  501 -0.00000000000E+00  0.00000000000E+00  0.54281761429E+02  0.54281761429E+02  0.00000000000E+00 0.  1.
          3   -1    0    0  501    0  0.00000000000E+00 -0.00000000000E+00 -0.36681220619E+02  0.36681220619E+02  0.00000000000E+00 0. -1.
         23    2    1    2    0    0  0.00000000000E+00  0.00000000000E+00  0.17600540810E+02  0.90962982049E+02  0.89243963753E+02 0.  0.
        -11    1    3    3    0    0 -0.34207977863E+02 -0.20682942512E+00  0.38003376438E+02  0.51132036421E+02  0.00000000000E+00 0.  1.
         11    1    3    3    0    0  0.34207977863E+02  0.20682942512E+00 -0.20402835628E+02  0.39830945627E+02  0.00000000000E+00 0. -1.
<mgrwt>
<rscale>  0 0.89243964E+02</rscale>
<asrwt>0</asrwt>
<pdfrwt beam="2">  1        3 0.56432647E-02 0.89243964E+02</pdfrwt>
<pdfrwt beam="1">  1       -3 0.83510402E-02 0.89243964E+02</pdfrwt>
<totfact> 0.37475368E+04</totfact>
</mgrwt>
</event>
<event>
 5    1  0.6125604E+000  0.9594475E+02  0.7546771E-02  0.1289062E+00
          1   -1    0    0  501    0  0.00000000000E+00  0.00000000000E+00  0.31716147542E+03  0.31716147542E+03  0.00000000000E+00 0. -1.
         -1   -1    0    0    0  501 -0.00000000000E+00 -0.00000000000E+00 -0.72560798391E+01  0.72560798391E+01  0.00000000000E+00 0.  1.
         23    2    1    2    0    0  0.00000000000E+00  0.00000000000E+00  0.30990539558E+03  0.32441755526E+03  0.95944754677E+02 0.  0.
        -11    1    3    3    0    0  0.26057214781E+02 -0.35850272596E+02  0.92868532753E+02  0.10290182148E+03  0.00000000000E+00 0.  1.
         11    1    3    3    0    0 -0.26057214781E+02  0.35850272596E+02  0.21703686283E+03  0.22151573378E+03  0.00000000000E+00 0. -1.
<mgrwt>
<rscale>  0 0.95944755E+02</rscale>
<asrwt>0</asrwt>
<pdfrwt beam="1">  1        1 0.48794062E-01 0.95944755E+02</pdfrwt>
<pdfrwt beam="2">  1       -1 0.11163202E-02 0.95944755E+02</pdfrwt>
<totfact> 0.11299584E+05</totfact>
</mgrwt>
</event>
<event>
 4    1  0.6125604E+000  0.3611598E+03  0.7546771E-02  0.1058126E+00
          1   -1    0    0  501    0  0.00000000000E+00  0.00000000000E+00  0.97242881180E+02  0.97242881180E+02  0.00000000000E+00 0. -1.
         -1   -1    0    0    0  501 -0.00000000000E+00 -0.00000000000E+00 -0.33533665505E+03  0.33533665505E+03  0.00000000000E+00 0.  1.
        -11    1    1    2    0    0  0.16225251714E+03  0.21907960057E+02 -0.27803219373E+02  0.16606883224E+03  0.00000000000E+00 0.  1.
         11    1    1    2    0    0 -0.16225251714E+03 -0.21907960057E+02 -0.21029055450E+03  0.26651070400E+03  0.00000000000E+00 0. -1.
<mgrwt>
<rscale>  0 0.36115981E+03</rscale>
<asrwt>0</asrwt>
<pdfrwt beam="1">  1        1 0.14960443E-01 0.36115981E+03</pdfrwt>
<pdfrwt beam="2">  1       -1 0.51590255E-01 0.36115981E+03</pdfrwt>
<totfact> 0.14545497E+03</totfact>
</mgrwt>
</event>
<event>
 5    1  0.6125604E+000  0.1059515E+03  0.7546771E-02  0.1268256E+00
          1   -1    0    0  501    0  0.00000000000E+00  0.00000000000E+00  0.18411825892E+02  0.18411825892E+02  0.00000000000E+00 0. -1.
         -1   -1    0    0    0  501 -0.00000000000E+00 -0.00000000000E+00 -0.15242552934E+03  0.15242552934E+03  0.00000000000E+00 0.  1.
         23    2    1    2    0    0  0.00000000000E+00  0.00000000000E+00 -0.13401370344E+03  0.17083735523E+03  0.10595154190E+03 0.  0.
        -11    1    3    3    0    0  0.20973845586E+02 -0.37816957017E+02 -0.17665835966E+02  0.46713019567E+02  0.00000000000E+00 0.  1.
         11    1    3    3    0    0 -0.20973845586E+02  0.37816957017E+02 -0.11634786748E+03  0.12412433566E+03  0.00000000000E+00 0. -1.
<mgrwt>
<rscale>  0 0.10595154E+03</rscale>
<asrwt>0</asrwt>
<pdfrwt beam="1">  1        1 0.28325887E-02 0.10595154E+03</pdfrwt>
<pdfrwt beam="2">  1       -1 0.23450081E-01 0.10595154E+03</pdfrwt>
<totfact> 0.50376488E+04</totfact>
</mgrwt>
</event>
<event>
 5    1  0.6125604E+000  0.9079917E+02  0.7546771E-02  0.1300928E+00
         -1   -1    0    0    0  501 -0.00000000000E+00  0.00000000000E+00  0.80962680862E+02  0.80962680862E+02  0.00000000000E+00 0.  1.
          1   -1    0    0  501    0  0.00000000000E+00 -0.00000000000E+00 -0.25457684848E+02  0.25457684848E+02  0.00000000000E+00 0. -1.
         23    2    1    2    0    0  0.00000000000E+00  0.00000000000E+00  0.55504996014E+02  0.10642036571E+03  0.90799172108E+02 0.  0.
        -11    1    3    3    0    0 -0.98283938015E+01  0.21601822262E+02 -0.17608467710E+02  0.29551551310E+02  0.00000000000E+00 0. -1.
         11    1    3    3    0    0  0.98283938015E+01 -0.21601822262E+02  0.73113463724E+02  0.76868814401E+02  0.00000000000E+00 0.  1.
<mgrwt>
<rscale>  0 0.90799172E+02</rscale>
<asrwt>0</asrwt>
<pdfrwt beam="2">  1        1 0.39165669E-02 0.90799172E+02</pdfrwt>
<pdfrwt beam="1">  1       -1 0.12455797E-01 0.90799172E+02</pdfrwt>
<totfact> 0.85381644E+04</totfact>
</mgrwt>
</event>
<event>
 5    1  0.6125604E+000  0.8189535E+02  0.7546771E-02  0.1323757E+00
          3   -1    0    0  501    0  0.00000000000E+00  0.00000000000E+00  0.31541393355E+02  0.31541393355E+02  0.00000000000E+00 0. -1.
         -3   -1    0    0    0  501 -0.00000000000E+00 -0.00000000000E+00 -0.53159095360E+02  0.53159095360E+02  0.00000000000E+00 0.  1.
         23    2    1    2    0    0  0.00000000000E+00  0.00000000000E+00 -0.21617702005E+02  0.84700488715E+02  0.81895346319E+02 0.  0.
        -11    1    3    3    0    0 -0.22620095540E+02 -0.19196203330E+02 -0.39998773289E+02  0.49800249087E+02  0.00000000000E+00 0.  1.
         11    1    3    3    0    0  0.22620095540E+02  0.19196203330E+02  0.18381071284E+02  0.34900239628E+02  0.00000000000E+00 0. -1.
<mgrwt>
<rscale>  0 0.81895346E+02</rscale>
<asrwt>0</asrwt>
<pdfrwt beam="1">  1        3 0.48525221E-02 0.81895346E+02</pdfrwt>
<pdfrwt beam="2">  1       -3 0.81783223E-02 0.81895346E+02</pdfrwt>
<totfact> 0.47929365E+04</totfact>
</mgrwt>
</event>
<event>
 5    1  0.6125604E+000  0.8928569E+02  0.7546771E-02  0.1304591E+00
         -1   -1    0    0    0  501 -0.00000000000E+00  0.00000000000E+00  0.61279847167E+02  0.61279847167E+02  0.00000000000E+00 0.  1.
          1   -1    0    0  501    0  0.00000000000E+00 -0.00000000000E+00 -0.32522660968E+02  0.32522660968E+02  0.00000000000E+00 0. -1.
         23    2    1    2    0    0  0.00000000000E+00  0.00000000000E+00  0.28757186199E+02  0.93802508135E+02  0.89285691880E+02 0.  0.
        -11    1    3    3    0    0 -0.19840404899E+02  0.10167227769E+02 -0.26255816413E+02  0.34443897610E+02  0.00000000000E+00 0. -1.
         11    1    3    3    0    0  0.19840404899E+02 -0.10167227769E+02  0.55013002612E+02  0.59358610525E+02  0.00000000000E+00 0.  1.
<mgrwt>
<rscale>  0 0.89285692E+02</rscale>
<asrwt>0</asrwt>
<pdfrwt beam="2">  1        1 0.50034863E-02 0.89285692E+02</pdfrwt>
<pdfrwt beam="1">  1       -1 0.94276688E-02 0.89285692E+02</pdfrwt>
<totfact> 0.93211985E+04</totfact>
</mgrwt>
</event>
<event>
 5    1  0.6125604E+000  0.9134720E+02  0.7546771E-02  0.1299622E+00
         -2   -1    0    0    0  501 -0.00000000000E+00  0.00000000000E+00  0.82053638768E+01  0.82053638768E+01  0.00000000000E+00 0.  1.
          2   -1    0    0  501    0  0.00000000000E+00 -0.00000000000E+00 -0.25423341170E+03  0.25423341170E+03  0.00000000000E+00 0. -1.
         23    2    1    2    0    0  0.00000000000E+00  0.00000000000E+00 -0.24602804782E+03  0.26243877557E+03  0.91347198153E+02 0.  0.
        -11    1    3    3    0    0 -0.27996164678E+02 -0.31638200932E+02 -0.73143452698E+02  0.84467305317E+02  0.00000000000E+00 0.  1.
         11    1    3    3    0    0  0.27996164678E+02  0.31638200932E+02 -0.17288459512E+03  0.17797147026E+03  0.00000000000E+00 0. -1.
<mgrwt>
<rscale>  0 0.91347198E+02</rscale>
<asrwt>0</asrwt>
<pdfrwt beam="2">  1        2 0.39112827E-01 0.91347198E+02</pdfrwt>
<pdfrwt beam="1">  1       -2 0.12623638E-02 0.91347198E+02</pdfrwt>
<totfact> 0.16806460E+05</totfact>
</mgrwt>
</event>
<event>
 5    1  0.6125604E+000  0.9351380E+02  0.7546771E-02  0.1294559E+00
         -3   -1    0    0    0  501 -0.00000000000E+00  0.00000000000E+00  0.11685550563E+03  0.11685550563E+03  0.00000000000E+00 0.  1.
          3   -1    0    0  501    0  0.00000000000E+00 -0.00000000000E+00 -0.18708641401E+02  0.18708641401E+02  0.00000000000E+00 0. -1.
         23    2    1    2    0    0  0.00000000000E+00  0.00000000000E+00  0.98146864227E+02  0.13556414703E+03  0.93513801131E+02 0.  0.
        -11    1    3    3    0    0  0.22294594065E+02  0.33015925996E+02  0.13590336800E+02  0.42092725597E+02  0.00000000000E+00 0.  1.
         11    1    3    3    0    0 -0.22294594065E+02 -0.33015925996E+02  0.84556527427E+02  0.93471421431E+02  0.00000000000E+00 0. -1.
<mgrwt>
<rscale>  0 0.93513801E+02</rscale>
<asrwt>0</asrwt>
<pdfrwt beam="2">  1        3 0.28782526E-02 0.93513801E+02</pdfrwt>
<pdfrwt beam="1">  1       -3 0.17977770E-01 0.93513801E+02</pdfrwt>
<totfact> 0.30072428E+04</totfact>
</mgrwt>
</event>
<event>
 5    1  0.6125604E+000  0.9296674E+02  0.7546771E-02  0.1295822E+00
          4   -1    0    0  501    0  0.00000000000E+00  0.00000000000E+00  0.22209412152E+02  0.22209412152E+02  0.00000000000E+00 0. -1.
         -4   -1    0    0    0  501 -0.00000000000E+00 -0.00000000000E+00 -0.97287757736E+02  0.97287757736E+02  0.00000000000E+00 0.  1.
         23    2    1    2    0    0  0.00000000000E+00  0.00000000000E+00 -0.75078345584E+02  0.11949716989E+03  0.92966744784E+02 0.  0.
        -11    1    3    3    0    0 -0.35270020863E+02 -0.30072076081E+02 -0.33012939439E+02  0.56904817915E+02  0.00000000000E+00 0.  1.
         11    1    3    3    0    0  0.35270020863E+02  0.30072076081E+02 -0.42065406145E+02  0.62592351974E+02  0.00000000000E+00 0. -1.
<mgrwt>
<rscale>  0 0.92966745E+02</rscale>
<asrwt>0</asrwt>
<pdfrwt beam="1">  1        4 0.34168326E-02 0.92966745E+02</pdfrwt>
<pdfrwt beam="2">  1       -4 0.14967348E-01 0.92966745E+02</pdfrwt>
<totfact> 0.24002502E+04</totfact>
</mgrwt>
</event>
<event>
 5    1  0.6125604E+000  0.9170101E+02  0.7546771E-02  0.1298784E+00
         -4   -1    0    0    0  501 -0.00000000000E+00  0.00000000000E+00  0.45131353787E+03  0.45131353787E+03  0.00000000000E+00 0.  1.
          4   -1    0    0  501    0  0.00000000000E+00 -0.00000000000E+00 -0.46581120638E+01  0.46581120638E+01  0.00000000000E+00 0. -1.
         23    2    1    2    0    0  0.00000000000E+00  0.00000000000E+00  0.44665542580E+03  0.45597164993E+03  0.91701014941E+02 0.  0.
        -11    1    3    3    0    0 -0.91907914426E+01 -0.44138939572E+02  0.26479635013E+03  0.26860719215E+03  0.00000000000E+00 0.  1.
         11    1    3    3    0    0  0.91907914426E+01  0.44138939572E+02  0.18185907567E+03  0.18736445778E+03  0.00000000000E+00 0. -1.
<mgrwt>
<rscale>  0 0.91701015E+02</rscale>
<asrwt>0</asrwt>
<pdfrwt beam="2">  1        4 0.71663298E-03 0.91701015E+02</pdfrwt>
<pdfrwt beam="1">  1       -4 0.69432818E-01 0.91701015E+02</pdfrwt>
<totfact> 0.13716849E+04</totfact>
</mgrwt>
</event>
<event>
 5    1  0.6125604E+000  0.8974894E+02  0.7546771E-02  0.1303461E+00
          3   -1    0    0  501    0  0.00000000000E+00  0.00000000000E+00  0.36133918591E+02  0.36133918591E+02  0.00000000000E+00 0. -1.
         -3   -1    0    0    0  501 -0.00000000000E+00 -0.00000000000E+00 -0.55729300429E+02  0.55729300429E+02  0.00000000000E+00 0.  1.
         23    2    1    2    0    0  0.00000000000E+00  0.00000000000E+00 -0.19595381838E+02  0.91863219020E+02  0.89748938821E+02 0.  0.
        -11    1    3    3    0    0  0.14255658312E+02  0.39635566040E+02 -0.25638585629E+02  0.49310637415E+02  0.00000000000E+00 0.  1.
         11    1    3    3    0    0 -0.14255658312E+02 -0.39635566040E+02  0.60432037911E+01  0.42552581605E+02  0.00000000000E+00 0. -1.
<mgrwt>
<rscale>  0 0.89748939E+02</rscale>
<asrwt>0</asrwt>
<pdfrwt beam="1">  1        3 0.55590644E-02 0.89748939E+02</pdfrwt>
<pdfrwt beam="2">  1       -3 0.85737385E-02 0.89748939E+02</pdfrwt>
<totfact> 0.36833509E+04</totfact>
</mgrwt>
</event>
<event>
 5    1  0.6125604E+000  0.9219222E+02  0.7546771E-02  0.1297628E+00
          1   -1    0    0  501    0  0.00000000000E+00  0.00000000000E+00  0.23963352932E+02  0.23963352932E+02  0.00000000000E+00 0. -1.
         -1   -1    0    0    0  501 -0.00000000000E+00 -0.00000000000E+00 -0.88670867154E+02  0.88670867154E+02  0.00000000000E+00 0.  1.
         23    2    1    2    0    0  0.00000000000E+00  0.00000000000E+00 -0.64707514222E+02  0.11263422009E+03  0.92192218423E+02 0.  0.
        -11    1    3    3    0    0 -0.89842687661E+01 -0.19707879297E+02  0.17359398777E+02  0.27757275038E+02  0.00000000000E+00 0. -1.
         11    1    3    3    0    0  0.89842687661E+01  0.19707879297E+02 -0.82066912999E+02  0.84876945049E+02  0.00000000000E+00 0.  1.
<mgrwt>
<rscale>  0 0.92192218E+02</rscale>
<asrwt>0</asrwt>
<pdfrwt beam="1">  1        1 0.36866697E-02 0.92192218E+02</pdfrwt>
<pdfrwt beam="2">  1       -1 0.13641672E-01 0.92192218E+02</pdfrwt>
<totfact> 0.80826733E+04</totfact>
</mgrwt>
</event>
<event>
 5    1  0.6125604E+000  0.8892714E+02  0.7546771E-02  0.1305471E+00
         -1   -1    0    0    0  501 -0.00000000000E+00  0.00000000000E+00  0.23918029856E+02  0.23918029856E+02  0.00000000000E+00 0.  1.
          1   -1    0    0  501    0  0.00000000000E+00 -0.00000000000E+00 -0.82657690079E+02  0.82657690079E+02  0.00000000000E+00 0. -1.
         23    2    1    2    0    0  0.00000000000E+00  0.00000000000E+00 -0.58739660222E+02  0.10657571994E+03  0.88927140945E+02 0.  0.
        -11    1    3    3    0    0 -0.27829695007E+02  0.28532060934E+02 -0.52990117462E+02  0.66306281558E+02  0.00000000000E+00 0. -1.
         11    1    3    3    0    0  0.27829695007E+02 -0.28532060934E+02 -0.57495427601E+01  0.40269438378E+02  0.00000000000E+00 0.  1.
<mgrwt>
<rscale>  0 0.88927141E+02</rscale>
<asrwt>0</asrwt>
<pdfrwt beam="2">  1        1 0.12716568E-01 0.88927141E+02</pdfrwt>
<pdfrwt beam="1">  1       -1 0.36796969E-02 0.88927141E+02</pdfrwt>
<totfact> 0.10842828E+05</totfact>
</mgrwt>
</event>
<event>
 5    1  0.6125604E+000  0.9166844E+02  0.7546771E-02  0.1298861E+00
         -1   -1    0    0    0  501 -0.00000000000E+00  0.00000000000E+00  0.99617039271E+01  0.99617039271E+01  0.00000000000E+00 0.  1.
          1   -1    0    0  501    0  0.00000000000E+00 -0.00000000000E+00 -0.21088518300E+03  0.21088518300E+03  0.00000000000E+00 0. -1.
         23    2    1    2    0    0  0.00000000000E+00  0.00000000000E+00 -0.20092347907E+03  0.22084688692E+03  0.91668440712E+02 0.  0.
        -11    1    3    3    0    0  0.31771953820E+02 -0.13892173447E+02 -0.17267026498E+03  0.17611777292E+03  0.00000000000E+00 0. -1.
         11    1    3    3    0    0 -0.31771953820E+02  0.13892173447E+02 -0.28253214093E+02  0.44729114000E+02  0.00000000000E+00 0.  1.
<mgrwt>
<rscale>  0 0.91668441E+02</rscale>
<asrwt>0</asrwt>
<pdfrwt beam="2">  1        1 0.32443874E-01 0.91668441E+02</pdfrwt>
<pdfrwt beam="1">  1       -1 0.15325699E-02 0.91668441E+02</pdfrwt>
<totfact> 0.11791908E+05</totfact>
</mgrwt>
</event>
<event>
 5    1  0.6125604E+000  0.9231143E+02  0.7546771E-02  0.1297349E+00
          1   -1    0    0  501    0  0.00000000000E+00  0.00000000000E+00  0.18732774569E+03  0.18732774569E+03  0.00000000000E+00 0. -1.
         -1   -1    0    0    0  501 -0.00000000000E+00 -0.00000000000E+00 -0.11372314331E+02  0.11372314331E+02  0.00000000000E+00 0.  1.
         23    2    1    2    0    0  0.00000000000E+00  0.00000000000E+00  0.17595543136E+03  0.19870006003E+03  0.92311429564E+02 0.  0.
        -11    1    3    3    0    0 -0.39180547745E+02  0.19158119185E+02  0.12049403955E+03  0.12814430311E+03  0.00000000000E+00 0. -1.
         11    1    3    3    0    0  0.39180547745E+02 -0.19158119185E+02  0.55461391814E+02  0.70555756918E+02  0.00000000000E+00 0.  1.
<mgrwt>
<rscale>  0 0.92311430E+02</rscale>
<asrwt>0</asrwt>
<pdfrwt beam="1">  1        1 0.28819651E-01 0.92311430E+02</pdfrwt>
<pdfrwt beam="2">  1       -1 0.17495870E-02 0.92311430E+02</pdfrwt>
<totfact> 0.11309358E+05</totfact>
</mgrwt>
</event>
<event>
 5    1  0.6125604E+000  0.9326733E+02  0.7546771E-02  0.1295127E+00
         -2   -1    0    0    0  501 -0.00000000000E+00  0.00000000000E+00  0.81241022933E+02  0.81241022933E+02  0.00000000000E+00 0. -1.
          2   -1    0    0  501    0  0.00000000000E+00 -0.00000000000E+00 -0.26768478475E+02  0.26768478475E+02  0.00000000000E+00 0.  1.
         23    2    1    2    0    0  0.00000000000E+00  0.00000000000E+00  0.54472544458E+02  0.10800950141E+03  0.93267327047E+02 0.  0.
        -11    1    3    3    0    0 -0.43597893104E+02  0.12137293977E+02  0.14205694655E+02  0.47433025930E+02  0.00000000000E+00 0.  1.
         11    1    3    3    0    0  0.43597893104E+02 -0.12137293977E+02  0.40266849803E+02  0.60576475478E+02  0.00000000000E+00 0. -1.
<mgrwt>
<rscale>  0 0.93267327E+02</rscale>
<asrwt>0</asrwt>
<pdfrwt beam="2">  1        2 0.41182275E-02 0.93267327E+02</pdfrwt>
<pdfrwt beam="1">  1       -2 0.12498619E-01 0.93267327E+02</pdfrwt>
<totfact> 0.80121023E+04</totfact>
</mgrwt>
</event>
<event>
 5    1  0.6125604E+000  0.9250842E+02  0.7546771E-02  0.1296888E+00
         -1   -1    0    0    0  501 -0.00000000000E+00  0.00000000000E+00  0.10644013152E+03  0.10644013152E+03  0.00000000000E+00 0.  1.
          1   -1    0    0  501    0  0.00000000000E+00 -0.00000000000E+00 -0.20100048631E+02  0.20100048631E+02  0.00000000000E+00 0. -1.
         23    2    1    2    0    0  0.00000000000E+00  0.00000000000E+00  0.86340082886E+02  0.12654018015E+03  0.92508417341E+02 0.  0.
        -11    1    3    3    0    0 -0.40123737248E+02 -0.60401574817E+01  0.73543514371E+02  0.83994323017E+02  0.00000000000E+00 0.  1.
         11    1    3    3    0    0  0.40123737248E+02  0.60401574817E+01  0.12796568516E+02  0.42545857130E+02  0.00000000000E+00 0. -1.
<mgrwt>
<rscale>  0 0.92508417E+02</rscale>
<asrwt>0</asrwt>
<pdfrwt beam="2">  1        1 0.30923152E-02 0.92508417E+02</pdfrwt>
<pdfrwt beam="1">  1       -1 0.16375404E-01 0.92508417E+02</pdfrwt>
<totfact> 0.77462393E+04</totfact>
</mgrwt>
</event>
<event>
 5    1  0.6125604E+000  0.8954008E+02  0.7546771E-02  0.1303969E+00
         -1   -1    0    0    0  501 -0.00000000000E+00  0.00000000000E+00  0.16390506033E+02  0.16390506033E+02  0.00000000000E+00 0.  1.
          1   -1    0    0  501    0  0.00000000000E+00 -0.00000000000E+00 -0.12228765275E+03  0.12228765275E+03  0.00000000000E+00 0. -1.
         23    2    1    2    0    0  0.00000000000E+00  0.00000000000E+00 -0.10589714671E+03  0.13867815878E+03  0.89540080638E+02 0.  0.
        -11    1    3    3    0    0 -0.16904417742E+02 -0.38762498843E+02 -0.30182734607E+02  0.51954673747E+02  0.00000000000E+00 0.  1.
         11    1    3    3    0    0  0.16904417742E+02  0.38762498843E+02 -0.75714412105E+02  0.86723485032E+02  0.00000000000E+00 0. -1.
<mgrwt>
<rscale>  0 0.89540081E+02</rscale>
<asrwt>0</asrwt>
<pdfrwt beam="2">  1        1 0.18813485E-01 0.89540081E+02</pdfrwt>
<pdfrwt beam="1">  1       -1 0.25216163E-02 0.89540081E+02</pdfrwt>
<totfact> 0.11352409E+05</totfact>
</mgrwt>
</event>
<event>
 5    1  0.6125604E+000  0.9082223E+02  0.7546771E-02  0.1300873E+00
          3   -1    0    0  501    0  0.00000000000E+00  0.00000000000E+00  0.70343647684E+02  0.70343647684E+02  0.00000000000E+00 0. -1.
         -3   -1    0    0    0  501 -0.00000000000E+00 -0.00000000000E+00 -0.29315646669E+02  0.29315646669E+02  0.00000000000E+00 0.  1.
         23    2    1    2    0    0  0.00000000000E+00  0.00000000000E+00  0.41028001015E+02  0.99659294353E+02  0.90822233422E+02 0.  0.
        -11    1    3    3    0    0 -0.22924691523E+01 -0.32071523677E+02 -0.14673805964E+02  0.35343438249E+02  0.00000000000E+00 0.  1.
         11    1    3    3    0    0  0.22924691523E+01  0.32071523677E+02  0.55701806979E+02  0.64315856105E+02  0.00000000000E+00 0. -1.
<mgrwt>
<rscale>  0 0.90822233E+02</rscale>
<asrwt>0</asrwt>
<pdfrwt beam="1">  1        3 0.10822100E-01 0.90822233E+02</pdfrwt>
<pdfrwt beam="2">  1       -3 0.45100995E-02 0.90822233E+02</pdfrwt>
<totfact> 0.35066065E+04</totfact>
</mgrwt>
</event>
<event>
 5    1  0.6125604E+000  0.9197808E+02  0.7546771E-02  0.1298131E+00
          2   -1    0    0  501    0  0.00000000000E+00  0.00000000000E+00  0.13233101490E+02  0.13233101490E+02  0.00000000000E+00 0. -1.
         -2   -1    0    0    0  501 -0.00000000000E+00 -0.00000000000E+00 -0.15982584311E+03  0.15982584311E+03  0.00000000000E+00 0.  1.
         23    2    1    2    0    0  0.00000000000E+00  0.00000000000E+00 -0.14659274162E+03  0.17305894460E+03  0.91978075705E+02 0.  0.
        -11    1    3    3    0    0  0.41589469733E+02 -0.21720940945E+01 -0.11000246710E+03  0.11762204195E+03  0.00000000000E+00 0.  1.
         11    1    3    3    0    0 -0.41589469733E+02  0.21720940945E+01 -0.36590274518E+02  0.55436902644E+02  0.00000000000E+00 0. -1.
<mgrwt>
<rscale>  0 0.91978076E+02</rscale>
<asrwt>0</asrwt>
<pdfrwt beam="1">  1        2 0.20358619E-02 0.91978076E+02</pdfrwt>
<pdfrwt beam="2">  1       -2 0.24588590E-01 0.91978076E+02</pdfrwt>
<totfact> 0.66733590E+04</totfact>
</mgrwt>
</event>
<event>
 5    1  0.6125604E+000  0.8629316E+02  0.7546771E-02  0.1312085E+00
          2   -1    0    0  501    0  0.00000000000E+00  0.00000000000E+00  0.12298722162E+03  0.12298722162E+03  0.00000000000E+00 0. -1.
         -2   -1    0    0    0  501 -0.00000000000E+00 -0.00000000000E+00 -0.15136754808E+02  0.15136754808E+02  0.00000000000E+00 0.  1.
         23    2    1    2    0    0  0.00000000000E+00  0.00000000000E+00  0.10785046681E+03  0.13812397643E+03  0.86293161215E+02 0.  0.
        -11    1    3    3    0    0  0.17703444946E+02 -0.20970563732E+02  0.63459460407E+00  0.27451397350E+02  0.00000000000E+00 0.  1.
         11    1    3    3    0    0 -0.17703444946E+02  0.20970563732E+02  0.10721587221E+03  0.11067257908E+03  0.00000000000E+00 0. -1.
<mgrwt>
<rscale>  0 0.86293161E+02</rscale>
<asrwt>0</asrwt>
<pdfrwt beam="1">  1        2 0.18921110E-01 0.86293161E+02</pdfrwt>
<pdfrwt beam="2">  1       -2 0.23287316E-02 0.86293161E+02</pdfrwt>
<totfact> 0.15203392E+05</totfact>
</mgrwt>
</event>
<event>
 5    1  0.6125604E+000  0.8774097E+02  0.7546771E-02  0.1308416E+00
          1   -1    0    0  501    0  0.00000000000E+00  0.00000000000E+00  0.66431661710E+02  0.66431661710E+02  0.00000000000E+00 0. -1.
         -1   -1    0    0    0  501 -0.00000000000E+00 -0.00000000000E+00 -0.28971415902E+02  0.28971415902E+02  0.00000000000E+00 0.  1.
         23    2    1    2    0    0  0.00000000000E+00  0.00000000000E+00  0.37460245808E+02  0.95403077612E+02  0.87740966496E+02 0.  0.
        -11    1    3    3    0    0 -0.17423767422E+02  0.16867567711E+01  0.62469667314E+02  0.64875975167E+02  0.00000000000E+00 0. -1.
         11    1    3    3    0    0  0.17423767422E+02 -0.16867567711E+01 -0.25009421506E+02  0.30527102444E+02  0.00000000000E+00 0.  1.
<mgrwt>
<rscale>  0 0.87740966E+02</rscale>
<asrwt>0</asrwt>
<pdfrwt beam="1">  1        1 0.10220256E-01 0.87740966E+02</pdfrwt>
<pdfrwt beam="2">  1       -1 0.44571409E-02 0.87740966E+02</pdfrwt>
<totfact> 0.10879434E+05</totfact>
</mgrwt>
</event>
<event>
 5    1  0.6125604E+000  0.8719574E+02  0.7546771E-02  0.1309788E+00
         -2   -1    0    0    0  501 -0.00000000000E+00  0.00000000000E+00  0.19157078610E+02  0.19157078610E+02  0.00000000000E+00 0.  1.
          2   -1    0    0  501    0  0.00000000000E+00 -0.00000000000E+00 -0.99220463568E+02  0.99220463568E+02  0.00000000000E+00 0. -1.
         23    2    1    2    0    0  0.00000000000E+00  0.00000000000E+00 -0.80063384958E+02  0.11837754218E+03  0.87195738893E+02 0.  0.
        -11    1    3    3    0    0  0.21341190285E+02  0.31408733787E+02 -0.69111724219E+02  0.78856739632E+02  0.00000000000E+00 0. -1.
         11    1    3    3    0    0 -0.21341190285E+02 -0.31408733787E+02 -0.10951660739E+02  0.39520802546E+02  0.00000000000E+00 0.  1.
<mgrwt>
<rscale>  0 0.87195739E+02</rscale>
<asrwt>0</asrwt>
<pdfrwt beam="2">  1        2 0.15264686E-01 0.87195739E+02</pdfrwt>
<pdfrwt beam="1">  1       -2 0.29472429E-02 0.87195739E+02</pdfrwt>
<totfact> 0.13832652E+05</totfact>
</mgrwt>
</event>
<event>
 5    1  0.6125604E+000  0.8948111E+02  0.7546771E-02  0.1304113E+00
          2   -1    0    0  501    0  0.00000000000E+00  0.00000000000E+00  0.44689259921E+02  0.44689259921E+02  0.00000000000E+00 0. -1.
         -2   -1    0    0    0  501 -0.00000000000E+00 -0.00000000000E+00 -0.44791907642E+02  0.44791907642E+02  0.00000000000E+00 0.  1.
         23    2    1    2    0    0  0.00000000000E+00  0.00000000000E+00 -0.10264772095E+00  0.89481167564E+02  0.89481108688E+02 0.  0.
        -11    1    3    3    0    0 -0.30023115088E+02  0.32475411692E+02 -0.68098339756E+01  0.44748336761E+02  0.00000000000E+00 0.  1.
         11    1    3    3    0    0  0.30023115088E+02 -0.32475411692E+02  0.67071862547E+01  0.44732830802E+02  0.00000000000E+00 0. -1.
<mgrwt>
<rscale>  0 0.89481109E+02</rscale>
<asrwt>0</asrwt>
<pdfrwt beam="1">  1        2 0.68752708E-02 0.89481109E+02</pdfrwt>
<pdfrwt beam="2">  1       -2 0.68910627E-02 0.89481109E+02</pdfrwt>
<totfact> 0.10359216E+05</totfact>
</mgrwt>
</event>
<event>
 5    1  0.6125604E+000  0.9233200E+02  0.7546771E-02  0.1297301E+00
         -2   -1    0    0    0  501 -0.00000000000E+00  0.00000000000E+00  0.28029908712E+02  0.28029908712E+02  0.00000000000E+00 0.  1.
          2   -1    0    0  501    0  0.00000000000E+00 -0.00000000000E+00 -0.76036616664E+02  0.76036616664E+02  0.00000000000E+00 0. -1.
         23    2    1    2    0    0  0.00000000000E+00  0.00000000000E+00 -0.48006707952E+02  0.10406652538E+03  0.92331997138E+02 0.  0.
        -11    1    3    3    0    0  0.40573820691E+02  0.10016930424E+02 -0.46110586013E+02  0.62231502979E+02  0.00000000000E+00 0. -1.
         11    1    3    3    0    0 -0.40573820691E+02 -0.10016930424E+02 -0.18961219389E+01  0.41835022397E+02  0.00000000000E+00 0.  1.
<mgrwt>
<rscale>  0 0.92331997E+02</rscale>
<asrwt>0</asrwt>
<pdfrwt beam="2">  1        2 0.11697941E-01 0.92331997E+02</pdfrwt>
<pdfrwt beam="1">  1       -2 0.43122936E-02 0.92331997E+02</pdfrwt>
<totfact> 0.10929929E+05</totfact>
</mgrwt>
</event>
<event>
 5    1  0.6125604E+000  0.9149446E+02  0.7546771E-02  0.1299272E+00
         -3   -1    0    0    0  501 -0.00000000000E+00  0.00000000000E+00  0.34031106629E+02  0.34031106629E+02  0.00000000000E+00 0.  1.
          3   -1    0    0  501    0  0.00000000000E+00 -0.00000000000E+00 -0.61496944950E+02  0.61496944950E+02  0.00000000000E+00 0. -1.
         23    2    1    2    0    0  0.00000000000E+00  0.00000000000E+00 -0.27465838321E+02  0.95528051579E+02  0.91494460837E+02 0.  0.
        -11    1    3    3    0    0 -0.18989669669E+01 -0.30859362703E+02 -0.48937386357E+02  0.57885871553E+02  0.00000000000E+00 0. -1.
         11    1    3    3    0    0  0.18989669669E+01  0.30859362703E+02  0.21471548037E+02  0.37642180026E+02  0.00000000000E+00 0.  1.
<mgrwt>
<rscale>  0 0.91494461E+02</rscale>
<asrwt>0</asrwt>
<pdfrwt beam="2">  1        3 0.94610684E-02 0.91494461E+02</pdfrwt>
<pdfrwt beam="1">  1       -3 0.52355549E-02 0.91494461E+02</pdfrwt>
<totfact> 0.34675750E+04</totfact>
</mgrwt>
</event>
<event>
 5    1  0.6125604E+000  0.9333046E+02  0.7546771E-02  0.1294981E+00
         -1   -1    0    0    0  501 -0.00000000000E+00  0.00000000000E+00  0.80677435016E+02  0.80677435016E+02  0.00000000000E+00 0.  1.
          1   -1    0    0  501    0  0.00000000000E+00 -0.00000000000E+00 -0.26991979425E+02  0.26991979425E+02  0.00000000000E+00 0. -1.
         23    2    1    2    0    0  0.00000000000E+00  0.00000000000E+00  0.53685455591E+02  0.10766941444E+03  0.93330459465E+02 0.  0.
        -11    1    3    3    0    0  0.40286015407E+02  0.11063463296E+02  0.28570649950E+01  0.41875124810E+02  0.00000000000E+00 0.  1.
         11    1    3    3    0    0 -0.40286015407E+02 -0.11063463296E+02  0.50828390596E+02  0.65794289631E+02  0.00000000000E+00 0. -1.
<mgrwt>
<rscale>  0 0.93330459E+02</rscale>
<asrwt>0</asrwt>
<pdfrwt beam="2">  1        1 0.41526122E-02 0.93330459E+02</pdfrwt>
<pdfrwt beam="1">  1       -1 0.12411913E-01 0.93330459E+02</pdfrwt>
<totfact> 0.79619219E+04</totfact>
</mgrwt>
</event>
<event>
 5    1  0.6125604E+000  0.9002128E+02  0.7546771E-02  0.1302800E+00
          2   -1    0    0  501    0  0.00000000000E+00  0.00000000000E+00  0.17383229787E+03  0.17383229787E+03  0.00000000000E+00 0. -1.
         -2   -1    0    0    0  501 -0.00000000000E+00 -0.00000000000E+00 -0.11654669192E+02  0.11654669192E+02  0.00000000000E+00 0.  1.
         23    2    1    2    0    0  0.00000000000E+00  0.00000000000E+00  0.16217762867E+03  0.18548696706E+03  0.90021284741E+02 0.  0.
        -11    1    3    3    0    0 -0.22342696727E+02  0.37202416412E+02  0.56471302978E+02  0.71219547485E+02  0.00000000000E+00 0.  1.
         11    1    3    3    0    0  0.22342696727E+02 -0.37202416412E+02  0.10570632570E+03  0.11426741957E+03  0.00000000000E+00 0. -1.
<mgrwt>
<rscale>  0 0.90021285E+02</rscale>
<asrwt>0</asrwt>
<pdfrwt beam="1">  1        2 0.26743429E-01 0.90021285E+02</pdfrwt>
<pdfrwt beam="2">  1       -2 0.17930261E-02 0.90021285E+02</pdfrwt>
<totfact> 0.15227532E+05</totfact>
</mgrwt>
</event>
<event>
 5    1  0.6125604E+000  0.9086772E+02  0.7546771E-02  0.1300764E+00
         -1   -1    0    0    0  501 -0.00000000000E+00  0.00000000000E+00  0.14792804026E+02  0.14792804026E+02  0.00000000000E+00 0.  1.
          1   -1    0    0  501    0  0.00000000000E+00 -0.00000000000E+00 -0.13954321404E+03  0.13954321404E+03  0.00000000000E+00 0. -1.
         23    2    1    2    0    0  0.00000000000E+00  0.00000000000E+00 -0.12475041001E+03  0.15433601806E+03  0.90867715243E+02 0.  0.
        -11    1    3    3    0    0 -0.40845728088E+02  0.61171183294E+01 -0.30218791824E+02  0.51175853867E+02  0.00000000000E+00 0.  1.
         11    1    3    3    0    0  0.40845728088E+02 -0.61171183294E+01 -0.94531618187E+02  0.10316016420E+03  0.00000000000E+00 0. -1.
<mgrwt>
<rscale>  0 0.90867715E+02</rscale>
<asrwt>0</asrwt>
<pdfrwt beam="2">  1        1 0.21468187E-01 0.90867715E+02</pdfrwt>
<pdfrwt beam="1">  1       -1 0.22758160E-02 0.90867715E+02</pdfrwt>
<totfact> 0.11168455E+05</totfact>
</mgrwt>
</event>
<event>
 5    1  0.6125604E+000  0.9239904E+02  0.7546771E-02  0.1297144E+00
         -2   -1    0    0    0  501 -0.00000000000E+00  0.00000000000E+00  0.20866435739E+02  0.20866435739E+02  0.00000000000E+00 0.  1.
          2   -1    0    0  501    0  0.00000000000E+00 -0.00000000000E+00 -0.10228846644E+03  0.10228846644E+03  0.00000000000E+00 0. -1.
         23    2    1    2    0    0  0.00000000000E+00  0.00000000000E+00 -0.81422030698E+02  0.12315490218E+03  0.92399041376E+02 0.  0.
        -11    1    3    3    0    0 -0.19024289278E+02  0.26490036802E+02 -0.84325254009E+02  0.90412355881E+02  0.00000000000E+00 0. -1.
         11    1    3    3    0    0  0.19024289278E+02 -0.26490036802E+02  0.29032233104E+01  0.32742546296E+02  0.00000000000E+00 0.  1.
<mgrwt>
<rscale>  0 0.92399041E+02</rscale>
<asrwt>0</asrwt>
<pdfrwt beam="2">  1        2 0.15736687E-01 0.92399041E+02</pdfrwt>
<pdfrwt beam="1">  1       -2 0.32102209E-02 0.92399041E+02</pdfrwt>
<totfact> 0.11907646E+05</totfact>
</mgrwt>
</event>
<event>
 5    1  0.6125604E+000  0.9171483E+02  0.7546771E-02  0.1298751E+00
         -4   -1    0    0    0  501 -0.00000000000E+00  0.00000000000E+00  0.47940454490E+02  0.47940454490E+02  0.00000000000E+00 0.  1.
          4   -1    0    0  501    0  0.00000000000E+00 -0.00000000000E+00 -0.43864888127E+02  0.43864888127E+02  0.00000000000E+00 0. -1.
         23    2    1    2    0    0  0.00000000000E+00  0.00000000000E+00  0.40755663629E+01  0.91805342617E+02  0.91714833543E+02 0.  0.
        -11    1    3    3    0    0 -0.30559832539E+02 -0.21878439026E+02 -0.24262338515E+02  0.44735115170E+02  0.00000000000E+00 0. -1.
         11    1    3    3    0    0  0.30559832539E+02  0.21878439026E+02  0.28337904878E+02  0.47070227447E+02  0.00000000000E+00 0.  1.
<mgrwt>
<rscale>  0 0.91714834E+02</rscale>
<asrwt>0</asrwt>
<pdfrwt beam="2">  1        4 0.67484444E-02 0.91714834E+02</pdfrwt>
<pdfrwt beam="1">  1       -4 0.73754545E-02 0.91714834E+02</pdfrwt>
<totfact> 0.26547366E+04</totfact>
</mgrwt>
</event>
<event>
 5    1  0.6125604E+000  0.8914439E+02  0.7546771E-02  0.1304937E+00
          2   -1    0    0  501    0  0.00000000000E+00  0.00000000000E+00  0.20885711435E+03  0.20885711435E+03  0.00000000000E+00 0. -1.
         -2   -1    0    0    0  501 -0.00000000000E+00 -0.00000000000E+00 -0.95121513911E+01  0.95121513911E+01  0.00000000000E+00 0.  1.
         23    2    1    2    0    0  0.00000000000E+00  0.00000000000E+00  0.19934496296E+03  0.21836926574E+03  0.89144388288E+02 0.  0.
        -11    1    3    3    0    0 -0.25094695349E+02 -0.35734873886E+02  0.12157639908E+03  0.12918028394E+03  0.00000000000E+00 0.  1.
         11    1    3    3    0    0  0.25094695349E+02  0.35734873886E+02  0.77768563877E+02  0.89188981796E+02  0.00000000000E+00 0. -1.
<mgrwt>
<rscale>  0 0.89144388E+02</rscale>
<asrwt>0</asrwt>
<pdfrwt beam="1">  1        2 0.32131860E-01 0.89144388E+02</pdfrwt>
<pdfrwt beam="2">  1       -2 0.14634081E-02 0.89144388E+02</pdfrwt>
<totfact> 0.16693185E+05</totfact>
</mgrwt>
</event>
<event>
 5    1  0.6125604E+000  0.9106690E+02  0.7546771E-02  0.1300288E+00
          1   -1    0    0  501    0  0.00000000000E+00  0.00000000000E+00  0.17368965622E+03  0.17368965622E+03  0.00000000000E+00 0. -1.
         -1   -1    0    0    0  501 -0.00000000000E+00 -0.00000000000E+00 -0.11936779243E+02  0.11936779243E+02  0.00000000000E+00 0.  1.
         23    2    1    2    0    0  0.00000000000E+00  0.00000000000E+00  0.16175287698E+03  0.18562643546E+03  0.91066900310E+02 0.  0.
        -11    1    3    3    0    0  0.26501320125E+02 -0.19658288735E+02  0.16918708440E+02  0.37081140484E+02  0.00000000000E+00 0.  1.
         11    1    3    3    0    0 -0.26501320125E+02  0.19658288735E+02  0.14483416854E+03  0.14854529498E+03  0.00000000000E+00 0. -1.
<mgrwt>
<rscale>  0 0.91066900E+02</rscale>
<asrwt>0</asrwt>
<pdfrwt beam="1">  1        1 0.26721484E-01 0.91066900E+02</pdfrwt>
<pdfrwt beam="2">  1       -1 0.18364277E-02 0.91066900E+02</pdfrwt>
<totfact> 0.11561618E+05</totfact>
</mgrwt>
</event>
<event>
 5    1  0.6125604E+000  0.9048913E+02  0.7546771E-02  0.1301671E+00
          2   -1    0    0  501    0  0.00000000000E+00  0.00000000000E+00  0.12959952673E+03  0.12959952673E+03  0.00000000000E+00 0. -1.
         -2   -1    0    0    0  501 -0.00000000000E+00 -0.00000000000E+00 -0.15795357382E+02  0.15795357382E+02  0.00000000000E+00 0.  1.
         23    2    1    2    0    0  0.00000000000E+00  0.00000000000E+00  0.11380416935E+03  0.14539488412E+03  0.90489133962E+02 0.  0.
        -11    1    3    3    0    0  0.44211088316E+02  0.92745992053E+01  0.60977168465E+02  0.75887110859E+02  0.00000000000E+00 0.  1.
         11    1    3    3    0    0 -0.44211088316E+02 -0.92745992053E+01  0.52827000886E+02  0.69507773257E+02  0.00000000000E+00 0. -1.
<mgrwt>
<rscale>  0 0.90489134E+02</rscale>
<asrwt>0</asrwt>
<pdfrwt beam="1">  1        2 0.19938388E-01 0.90489134E+02</pdfrwt>
<pdfrwt beam="2">  1       -2 0.24300551E-02 0.90489134E+02</pdfrwt>
<totfact> 0.13592027E+05</totfact>
</mgrwt>
</event>
<event>
 5    1  0.6125604E+000  0.8980207E+02  0.7546771E-02  0.1303332E+00
          2   -1    0    0  501    0  0.00000000000E+00  0.00000000000E+00  0.14361782935E+03  0.14361782935E+03  0.00000000000E+00 0. -1.
         -2   -1    0    0    0  501 -0.00000000000E+00 -0.00000000000E+00 -0.14037971922E+02  0.14037971922E+02  0.00000000000E+00 0.  1.
         23    2    1    2    0    0  0.00000000000E+00  0.00000000000E+00  0.12957985743E+03  0.15765580128E+03  0.89802072494E+02 0.  0.
        -11    1    3    3    0    0 -0.26404296491E+01  0.44749989316E+02  0.60290115372E+02  0.75129431144E+02  0.00000000000E+00 0.  1.
         11    1    3    3    0    0  0.26404296491E+01 -0.44749989316E+02  0.69289742061E+02  0.82526370133E+02  0.00000000000E+00 0. -1.
<mgrwt>
<rscale>  0 0.89802072E+02</rscale>
<asrwt>0</asrwt>
<pdfrwt beam="1">  1        2 0.22095050E-01 0.89802072E+02</pdfrwt>
<pdfrwt beam="2">  1       -2 0.21596881E-02 0.89802072E+02</pdfrwt>
<totfact> 0.14356551E+05</totfact>
</mgrwt>
</event>
<event>
 5    1  0.6125604E+000  0.9195816E+02  0.7546771E-02  0.1298178E+00
          4   -1    0    0  501    0  0.00000000000E+00  0.00000000000E+00  0.19822334847E+02  0.19822334847E+02  0.00000000000E+00 0. -1.
         -4   -1    0    0    0  501 -0.00000000000E+00 -0.00000000000E+00 -0.10665119648E+03  0.10665119648E+03  0.00000000000E+00 0.  1.
         23    2    1    2    0    0  0.00000000000E+00  0.00000000000E+00 -0.86828861637E+02  0.12647353133E+03  0.91958158498E+02 0.  0.
        -11    1    3    3    0    0 -0.25678682556E+02 -0.37298479028E+02 -0.32454407735E+02  0.55712295385E+02  0.00000000000E+00 0. -1.
         11    1    3    3    0    0  0.25678682556E+02  0.37298479028E+02 -0.54374453902E+02  0.70761235947E+02  0.00000000000E+00 0.  1.
<mgrwt>
<rscale>  0 0.91958158E+02</rscale>
<asrwt>0</asrwt>
<pdfrwt beam="1">  1        4 0.30495900E-02 0.91958158E+02</pdfrwt>
<pdfrwt beam="2">  1       -4 0.16407876E-01 0.91958158E+02</pdfrwt>
<totfact> 0.24342210E+04</totfact>
</mgrwt>
</event>
<event>
 5    1  0.6125604E+000  0.9646866E+02  0.7546771E-02  0.1287902E+00
          2   -1    0    0  501    0  0.00000000000E+00  0.00000000000E+00  0.42383909032E+02  0.42383909032E+02  0.00000000000E+00 0. -1.
         -2   -1    0    0    0  501 -0.00000000000E+00 -0.00000000000E+00 -0.54892304391E+02  0.54892304391E+02  0.00000000000E+00 0.  1.
         23    2    1    2    0    0  0.00000000000E+00  0.00000000000E+00 -0.12508395359E+02  0.97276213423E+02  0.96468656793E+02 0.  0.
        -11    1    3    3    0    0 -0.91367691031E+01 -0.14063148387E+02  0.39349356880E+02  0.42774111084E+02  0.00000000000E+00 0. -1.
         11    1    3    3    0    0  0.91367691031E+01  0.14063148387E+02 -0.51857752238E+02  0.54502102339E+02  0.00000000000E+00 0.  1.
<mgrwt>
<rscale>  0 0.96468657E+02</rscale>
<asrwt>0</asrwt>
<pdfrwt beam="1">  1        2 0.65206014E-02 0.96468657E+02</pdfrwt>
<pdfrwt beam="2">  1       -2 0.84449699E-02 0.96468657E+02</pdfrwt>
<totfact> 0.82194710E+04</totfact>
</mgrwt>
</event>
<event>
 5    1  0.6125604E+000  0.9093459E+02  0.7546771E-02  0.1300604E+00
          1   -1    0    0  501    0  0.00000000000E+00  0.00000000000E+00  0.86452828638E+01  0.86452828638E+01  0.00000000000E+00 0. -1.
         -1   -1    0    0    0  501 -0.00000000000E+00 -0.00000000000E+00 -0.23912170376E+03  0.23912170376E+03  0.00000000000E+00 0.  1.
         23    2    1    2    0    0  0.00000000000E+00  0.00000000000E+00 -0.23047642090E+03  0.24776698663E+03  0.90934586773E+02 0.  0.
        -11    1    3    3    0    0  0.19838285890E+02 -0.40353896977E+02 -0.13357268262E+03  0.14093848350E+03  0.00000000000E+00 0.  1.
         11    1    3    3    0    0 -0.19838285890E+02  0.40353896977E+02 -0.96903738276E+02  0.10682850313E+03  0.00000000000E+00 0. -1.
<mgrwt>
<rscale>  0 0.90934587E+02</rscale>
<asrwt>0</asrwt>
<pdfrwt beam="1">  1        1 0.13300436E-02 0.90934587E+02</pdfrwt>
<pdfrwt beam="2">  1       -1 0.36787953E-01 0.90934587E+02</pdfrwt>
<totfact> 0.66189719E+04</totfact>
</mgrwt>
</event>
<event>
 5    1  0.6125604E+000  0.9211202E+02  0.7546771E-02  0.1297816E+00
         -2   -1    0    0    0  501 -0.00000000000E+00  0.00000000000E+00  0.18795075692E+03  0.18795075692E+03  0.00000000000E+00 0. -1.
          2   -1    0    0  501    0  0.00000000000E+00 -0.00000000000E+00 -0.11285700456E+02  0.11285700456E+02  0.00000000000E+00 0.  1.
         23    2    1    2    0    0  0.00000000000E+00  0.00000000000E+00  0.17666505646E+03  0.19923645738E+03  0.92112017525E+02 0.  0.
        -11    1    3    3    0    0 -0.44764000442E+02  0.99836346011E+01  0.79240998452E+02  0.91556673875E+02  0.00000000000E+00 0. -1.
         11    1    3    3    0    0  0.44764000442E+02 -0.99836346011E+01  0.97424058012E+02  0.10767978350E+03  0.00000000000E+00 0.  1.
<mgrwt>
<rscale>  0 0.92112018E+02</rscale>
<asrwt>0</asrwt>
<pdfrwt beam="2">  1        2 0.17362617E-02 0.92112018E+02</pdfrwt>
<pdfrwt beam="1">  1       -2 0.28915499E-01 0.92112018E+02</pdfrwt>
<totfact> 0.62341246E+04</totfact>
</mgrwt>
</event>
<event>
 5    1  0.6125604E+000  0.9339640E+02  0.7546771E-02  0.1294829E+00
          1   -1    0    0  501    0  0.00000000000E+00  0.00000000000E+00  0.26911124886E+02  0.26911124886E+02  0.00000000000E+00 0. -1.
         -1   -1    0    0    0  501 -0.00000000000E+00 -0.00000000000E+00 -0.81034221859E+02  0.81034221859E+02  0.00000000000E+00 0.  1.
         23    2    1    2    0    0  0.00000000000E+00  0.00000000000E+00 -0.54123096972E+02  0.10794534675E+03  0.93396403882E+02 0.  0.
        -11    1    3    3    0    0 -0.14635871742E+02 -0.43086178858E+02 -0.39188638778E+02  0.60053117816E+02  0.00000000000E+00 0.  1.
         11    1    3    3    0    0  0.14635871742E+02  0.43086178858E+02 -0.14934458194E+02  0.47892228929E+02  0.00000000000E+00 0. -1.
<mgrwt>
<rscale>  0 0.93396404E+02</rscale>
<asrwt>0</asrwt>
<pdfrwt beam="1">  1        1 0.41401731E-02 0.93396404E+02</pdfrwt>
<pdfrwt beam="2">  1       -1 0.12466803E-01 0.93396404E+02</pdfrwt>
<totfact> 0.79415011E+04</totfact>
</mgrwt>
</event>
<event>
 5    1  0.6125604E+000  0.9301583E+02  0.7546771E-02  0.1295708E+00
         -3   -1    0    0    0  501 -0.00000000000E+00  0.00000000000E+00  0.13435223595E+02  0.13435223595E+02  0.00000000000E+00 0.  1.
          3   -1    0    0  501    0  0.00000000000E+00 -0.00000000000E+00 -0.16099369959E+03  0.16099369959E+03  0.00000000000E+00 0. -1.
         23    2    1    2    0    0  0.00000000000E+00  0.00000000000E+00 -0.14755847599E+03  0.17442892318E+03  0.93015834166E+02 0.  0.
        -11    1    3    3    0    0 -0.89034854405E+01 -0.31021554086E+02 -0.10982435652E+02  0.34091388411E+02  0.00000000000E+00 0.  1.
         11    1    3    3    0    0  0.89034854405E+01  0.31021554086E+02 -0.13657604034E+03  0.14033753477E+03  0.00000000000E+00 0. -1.
<mgrwt>
<rscale>  0 0.93015834E+02</rscale>
<asrwt>0</asrwt>
<pdfrwt beam="2">  1        3 0.24768261E-01 0.93015834E+02</pdfrwt>
<pdfrwt beam="1">  1       -3 0.20669575E-02 0.93015834E+02</pdfrwt>
<totfact> 0.28302228E+04</totfact>
</mgrwt>
</event>
<event>
 5    1  0.6125604E+000  0.9093595E+02  0.7546771E-02  0.1300601E+00
         -4   -1    0    0    0  501 -0.00000000000E+00  0.00000000000E+00  0.43006043540E+02  0.43006043540E+02  0.00000000000E+00 0.  1.
          4   -1    0    0  501    0  0.00000000000E+00 -0.00000000000E+00 -0.48070837710E+02  0.48070837710E+02  0.00000000000E+00 0. -1.
         23    2    1    2    0    0  0.00000000000E+00  0.00000000000E+00 -0.50647941701E+01  0.91076881250E+02  0.90935945359E+02 0.  0.
        -11    1    3    3    0    0  0.40228046165E+02  0.19666116514E+02  0.53719001284E+01  0.45098881893E+02  0.00000000000E+00 0.  1.
         11    1    3    3    0    0 -0.40228046165E+02 -0.19666116514E+02 -0.10436694299E+02  0.45977999357E+02  0.00000000000E+00 0. -1.
<mgrwt>
<rscale>  0 0.90935945E+02</rscale>
<asrwt>0</asrwt>
<pdfrwt beam="2">  1        4 0.73955135E-02 0.90935945E+02</pdfrwt>
<pdfrwt beam="1">  1       -4 0.66163144E-02 0.90935945E+02</pdfrwt>
<totfact> 0.27217541E+04</totfact>
</mgrwt>
</event>
<event>
 5    1  0.6125604E+000  0.9086879E+02  0.7546771E-02  0.1300761E+00
         -2   -1    0    0    0  501 -0.00000000000E+00  0.00000000000E+00  0.55604517051E+01  0.55604517051E+01  0.00000000000E+00 0.  1.
          2   -1    0    0  501    0  0.00000000000E+00 -0.00000000000E+00 -0.37124395265E+03  0.37124395265E+03  0.00000000000E+00 0. -1.
         23    2    1    2    0    0  0.00000000000E+00  0.00000000000E+00 -0.36568350095E+03  0.37680440436E+03  0.90868786050E+02 0.  0.
        -11    1    3    3    0    0 -0.17536983607E+02  0.41702306638E+02 -0.16541781988E+03  0.17149251677E+03  0.00000000000E+00 0.  1.
         11    1    3    3    0    0  0.17536983607E+02 -0.41702306638E+02 -0.20026568107E+03  0.20531188759E+03  0.00000000000E+00 0. -1.
<mgrwt>
<rscale>  0 0.90868786E+02</rscale>
<asrwt>0</asrwt>
<pdfrwt beam="2">  1        2 0.57114458E-01 0.90868786E+02</pdfrwt>
<pdfrwt beam="1">  1       -2 0.85545406E-03 0.90868786E+02</pdfrwt>
<totfact> 0.19607663E+05</totfact>
</mgrwt>
</event>
<event>
 5    1  0.6125604E+000  0.6116729E+02  0.7546771E-02  0.1392997E+00
          3   -1    0    0  501    0  0.00000000000E+00  0.00000000000E+00  0.20760242729E+02  0.20760242729E+02  0.00000000000E+00 0. -1.
         -3   -1    0    0    0  501 -0.00000000000E+00 -0.00000000000E+00 -0.45055319155E+02  0.45055319155E+02  0.00000000000E+00 0.  1.
         23    2    1    2    0    0  0.00000000000E+00  0.00000000000E+00 -0.24295076426E+02  0.65815561884E+02  0.61167290667E+02 0.  0.
        -11    1    3    3    0    0  0.15657109340E+02  0.20303942976E+02 -0.30086767166E+02  0.39529846088E+02  0.00000000000E+00 0.  1.
         11    1    3    3    0    0 -0.15657109340E+02 -0.20303942976E+02  0.57916907402E+01  0.26285715796E+02  0.00000000000E+00 0. -1.
<mgrwt>
<rscale>  0 0.61167291E+02</rscale>
<asrwt>0</asrwt>
<pdfrwt beam="1">  1        3 0.31938835E-02 0.61167291E+02</pdfrwt>
<pdfrwt beam="2">  1       -3 0.69315876E-02 0.61167291E+02</pdfrwt>
<totfact> 0.10833814E+05</totfact>
</mgrwt>
</event>
<event>
 5    1  0.6125604E+000  0.8856231E+02  0.7546771E-02  0.1306371E+00
         -1   -1    0    0    0  501 -0.00000000000E+00  0.00000000000E+00  0.18653821588E+02  0.18653821588E+02  0.00000000000E+00 0.  1.
          1   -1    0    0  501    0  0.00000000000E+00 -0.00000000000E+00 -0.10511629182E+03  0.10511629182E+03  0.00000000000E+00 0. -1.
         23    2    1    2    0    0  0.00000000000E+00  0.00000000000E+00 -0.86462470233E+02  0.12377011341E+03  0.88562306963E+02 0.  0.
        -11    1    3    3    0    0  0.29152104989E+02  0.23174030595E+02 -0.97501152080E+01  0.38496047406E+02  0.00000000000E+00 0.  1.
         11    1    3    3    0    0 -0.29152104989E+02 -0.23174030595E+02 -0.76712355025E+02  0.85274066003E+02  0.00000000000E+00 0. -1.
<mgrwt>
<rscale>  0 0.88562307E+02</rscale>
<asrwt>0</asrwt>
<pdfrwt beam="2">  1        1 0.16171737E-01 0.88562307E+02</pdfrwt>
<pdfrwt beam="1">  1       -1 0.28698187E-02 0.88562307E+02</pdfrwt>
<totfact> 0.11398414E+05</totfact>
</mgrwt>
</event>
<event>
 5    1  0.6125604E+000  0.9163136E+02  0.7546771E-02  0.1298949E+00
         -4   -1    0    0    0  501 -0.00000000000E+00  0.00000000000E+00  0.43218473203E+03  0.43218473203E+03  0.00000000000E+00 0.  1.
          4   -1    0    0  501    0  0.00000000000E+00 -0.00000000000E+00 -0.48568966773E+01  0.48568966773E+01  0.00000000000E+00 0. -1.
         23    2    1    2    0    0  0.00000000000E+00  0.00000000000E+00  0.42732783536E+03  0.43704162871E+03  0.91631361203E+02 0.  0.
        -11    1    3    3    0    0 -0.16497785808E+02  0.41469421923E+02  0.26304369346E+03  0.26680306325E+03  0.00000000000E+00 0.  1.
         11    1    3    3    0    0  0.16497785808E+02 -0.41469421923E+02  0.16428414189E+03  0.17023856546E+03  0.00000000000E+00 0. -1.
<mgrwt>
<rscale>  0 0.91631361E+02</rscale>
<asrwt>0</asrwt>
<pdfrwt beam="2">  1        4 0.74721522E-03 0.91631361E+02</pdfrwt>
<pdfrwt beam="1">  1       -4 0.66489928E-01 0.91631361E+02</pdfrwt>
<totfact> 0.14134791E+04</totfact>
</mgrwt>
</event>
<event>
 5    1  0.6125604E+000  0.9124144E+02  0.7546771E-02  0.1299873E+00
          1   -1    0    0  501    0  0.00000000000E+00  0.00000000000E+00  0.29624859399E+03  0.29624859399E+03  0.00000000000E+00 0. -1.
         -1   -1    0    0    0  501 -0.00000000000E+00 -0.00000000000E+00 -0.70253498780E+01  0.70253498780E+01  0.00000000000E+00 0.  1.
         23    2    1    2    0    0  0.00000000000E+00  0.00000000000E+00  0.28922324412E+03  0.30327394387E+03  0.91241438474E+02 0.  0.
        -11    1    3    3    0    0 -0.22484444999E+01 -0.41387954440E+02  0.20795990911E+03  0.21205032910E+03  0.00000000000E+00 0. -1.
         11    1    3    3    0    0  0.22484444999E+01  0.41387954440E+02  0.81263335008E+02  0.91223614771E+02  0.00000000000E+00 0.  1.
<mgrwt>
<rscale>  0 0.91241438E+02</rscale>
<asrwt>0</asrwt>
<pdfrwt beam="1">  1        1 0.45576697E-01 0.91241438E+02</pdfrwt>
<pdfrwt beam="2">  1       -1 0.10808233E-02 0.91241438E+02</pdfrwt>
<totfact> 0.12757319E+05</totfact>
</mgrwt>
</event>
<event>
 5    1  0.6125604E+000  0.8794006E+02  0.7546771E-02  0.1307918E+00
          2   -1    0    0  501    0  0.00000000000E+00  0.00000000000E+00  0.42701789100E+02  0.42701789100E+02  0.00000000000E+00 0. -1.
         -2   -1    0    0    0  501 -0.00000000000E+00 -0.00000000000E+00 -0.45275937092E+02  0.45275937092E+02  0.00000000000E+00 0.  1.
         23    2    1    2    0    0  0.00000000000E+00  0.00000000000E+00 -0.25741479920E+01  0.87977726191E+02  0.87940059517E+02 0.  0.
        -11    1    3    3    0    0  0.24588063859E+01  0.31297089535E+02  0.29512635168E+02  0.43087691709E+02  0.00000000000E+00 0. -1.
         11    1    3    3    0    0 -0.24588063859E+01 -0.31297089535E+02 -0.32086783160E+02  0.44890034482E+02  0.00000000000E+00 0.  1.
<mgrwt>
<rscale>  0 0.87940060E+02</rscale>
<asrwt>0</asrwt>
<pdfrwt beam="1">  1        2 0.65695060E-02 0.87940060E+02</pdfrwt>
<pdfrwt beam="2">  1       -2 0.69655288E-02 0.87940060E+02</pdfrwt>
<totfact> 0.10761920E+05</totfact>
</mgrwt>
</event>
<event>
 5    1  0.6125604E+000  0.9079994E+02  0.7546771E-02  0.1300926E+00
          2   -1    0    0  501    0  0.00000000000E+00  0.00000000000E+00  0.13598103738E+03  0.13598103738E+03  0.00000000000E+00 0. -1.
         -2   -1    0    0    0  501 -0.00000000000E+00 -0.00000000000E+00 -0.15157682268E+02  0.15157682268E+02  0.00000000000E+00 0.  1.
         23    2    1    2    0    0  0.00000000000E+00  0.00000000000E+00  0.12082335511E+03  0.15113871965E+03  0.90799941828E+02 0.  0.
        -11    1    3    3    0    0  0.15666795869E+02 -0.29165204009E+02  0.87014715252E+01  0.34231173284E+02  0.00000000000E+00 0.  1.
         11    1    3    3    0    0 -0.15666795869E+02  0.29165204009E+02  0.11212188359E+03  0.11690754636E+03  0.00000000000E+00 0. -1.
<mgrwt>
<rscale>  0 0.90799942E+02</rscale>
<asrwt>0</asrwt>
<pdfrwt beam="1">  1        2 0.20920159E-01 0.90799942E+02</pdfrwt>
<pdfrwt beam="2">  1       -2 0.23319512E-02 0.90799942E+02</pdfrwt>
<totfact> 0.13680750E+05</totfact>
</mgrwt>
</event>
<event>
 5    1  0.6125604E+000  0.8988923E+02  0.7546771E-02  0.1303120E+00
         -2   -1    0    0    0  501 -0.00000000000E+00  0.00000000000E+00  0.10179100229E+03  0.10179100229E+03  0.00000000000E+00 0.  1.
          2   -1    0    0  501    0  0.00000000000E+00 -0.00000000000E+00 -0.19844763208E+02  0.19844763208E+02  0.00000000000E+00 0. -1.
         23    2    1    2    0    0  0.00000000000E+00  0.00000000000E+00  0.81946239086E+02  0.12163576550E+03  0.89889228214E+02 0.  0.
        -11    1    3    3    0    0 -0.10452586460E+02 -0.32780118063E+02  0.80103617909E+02  0.87180171519E+02  0.00000000000E+00 0.  1.
         11    1    3    3    0    0  0.10452586460E+02  0.32780118063E+02  0.18426211763E+01  0.34455593983E+02  0.00000000000E+00 0. -1.
<mgrwt>
<rscale>  0 0.89889228E+02</rscale>
<asrwt>0</asrwt>
<pdfrwt beam="2">  1        2 0.30530406E-02 0.89889228E+02</pdfrwt>
<pdfrwt beam="1">  1       -2 0.15660154E-01 0.89889228E+02</pdfrwt>
<totfact> 0.82243533E+04</totfact>
</mgrwt>
</event>
<event>
 5    1  0.6125604E+000  0.9240920E+02  0.7546771E-02  0.1297120E+00
         -2   -1    0    0    0  501 -0.00000000000E+00  0.00000000000E+00  0.15260828052E+02  0.15260828052E+02  0.00000000000E+00 0.  1.
          2   -1    0    0  501    0  0.00000000000E+00 -0.00000000000E+00 -0.13989183154E+03  0.13989183154E+03  0.00000000000E+00 0. -1.
         23    2    1    2    0    0  0.00000000000E+00  0.00000000000E+00 -0.12463100349E+03  0.15515265959E+03  0.92409202722E+02 0.  0.
        -11    1    3    3    0    0  0.35810202669E+02  0.43053734044E+01 -0.11080148165E+03  0.11652413995E+03  0.00000000000E+00 0. -1.
         11    1    3    3    0    0 -0.35810202669E+02 -0.43053734044E+01 -0.13829521837E+02  0.38628519640E+02  0.00000000000E+00 0.  1.
<mgrwt>
<rscale>  0 0.92409203E+02</rscale>
<asrwt>0</asrwt>
<pdfrwt beam="2">  1        2 0.21521820E-01 0.92409203E+02</pdfrwt>
<pdfrwt beam="1">  1       -2 0.23478197E-02 0.92409203E+02</pdfrwt>
<totfact> 0.13165281E+05</totfact>
</mgrwt>
</event>
<event>
 5    1  0.6125604E+000  0.8977351E+02  0.7546771E-02  0.1303401E+00
          2   -1    0    0  501    0  0.00000000000E+00  0.00000000000E+00  0.36290846494E+03  0.36290846494E+03  0.00000000000E+00 0. -1.
         -2   -1    0    0    0  501 -0.00000000000E+00 -0.00000000000E+00 -0.55518699839E+01  0.55518699839E+01  0.00000000000E+00 0.  1.
         23    2    1    2    0    0  0.00000000000E+00  0.00000000000E+00  0.35735659496E+03  0.36846033493E+03  0.89773506413E+02 0.  0.
        -11    1    3    3    0    0 -0.25078890320E+02 -0.35009662889E+02  0.12673077567E+03  0.13384811069E+03  0.00000000000E+00 0.  1.
         11    1    3    3    0    0  0.25078890320E+02  0.35009662889E+02  0.23062581929E+03  0.23461222423E+03  0.00000000000E+00 0. -1.
<mgrwt>
<rscale>  0 0.89773506E+02</rscale>
<asrwt>0</asrwt>
<pdfrwt beam="1">  1        2 0.55832053E-01 0.89773506E+02</pdfrwt>
<pdfrwt beam="2">  1       -2 0.85413413E-03 0.89773506E+02</pdfrwt>
<totfact> 0.20083068E+05</totfact>
</mgrwt>
</event>
<event>
 5    1  0.6125604E+000  0.9137312E+02  0.7546771E-02  0.1299560E+00
          2   -1    0    0  501    0  0.00000000000E+00  0.00000000000E+00  0.17015763988E+03  0.17015763988E+03  0.00000000000E+00 0. -1.
         -2   -1    0    0    0  501 -0.00000000000E+00 -0.00000000000E+00 -0.12266636087E+02  0.12266636087E+02  0.00000000000E+00 0.  1.
         23    2    1    2    0    0  0.00000000000E+00  0.00000000000E+00  0.15789100379E+03  0.18242427596E+03  0.91373121777E+02 0.  0.
        -11    1    3    3    0    0  0.27354820280E+02  0.22413705567E+02  0.13669171063E+03  0.14119236574E+03  0.00000000000E+00 0. -1.
         11    1    3    3    0    0 -0.27354820280E+02 -0.22413705567E+02  0.21199293160E+02  0.41231910219E+02  0.00000000000E+00 0.  1.
<mgrwt>
<rscale>  0 0.91373122E+02</rscale>
<asrwt>0</asrwt>
<pdfrwt beam="1">  1        2 0.26178097E-01 0.91373122E+02</pdfrwt>
<pdfrwt beam="2">  1       -2 0.18871749E-02 0.91373122E+02</pdfrwt>
<totfact> 0.14517837E+05</totfact>
</mgrwt>
</event>
<event>
 5    1  0.6125604E+000  0.9093439E+02  0.7546771E-02  0.1300605E+00
         -1   -1    0    0    0  501 -0.00000000000E+00  0.00000000000E+00  0.16632355496E+02  0.16632355496E+02  0.00000000000E+00 0.  1.
          1   -1    0    0  501    0  0.00000000000E+00 -0.00000000000E+00 -0.12429183547E+03  0.12429183547E+03  0.00000000000E+00 0. -1.
         23    2    1    2    0    0  0.00000000000E+00  0.00000000000E+00 -0.10765947997E+03  0.14092419097E+03  0.90934393775E+02 0.  0.
        -11    1    3    3    0    0  0.37845928581E+02 -0.24339238156E+02 -0.63939092173E+02  0.78185166957E+02  0.00000000000E+00 0. -1.
         11    1    3    3    0    0 -0.37845928581E+02  0.24339238156E+02 -0.43720387801E+02  0.62739024010E+02  0.00000000000E+00 0.  1.
<mgrwt>
<rscale>  0 0.90934394E+02</rscale>
<asrwt>0</asrwt>
<pdfrwt beam="2">  1        1 0.19121822E-01 0.90934394E+02</pdfrwt>
<pdfrwt beam="1">  1       -1 0.25588238E-02 0.90934394E+02</pdfrwt>
<totfact> 0.10918777E+05</totfact>
</mgrwt>
</event>
<event>
 5    1  0.6125604E+000  0.9058859E+02  0.7546771E-02  0.1301433E+00
          1   -1    0    0  501    0  0.00000000000E+00  0.00000000000E+00  0.41732358671E+03  0.41732358671E+03  0.00000000000E+00 0. -1.
         -1   -1    0    0    0  501 -0.00000000000E+00 -0.00000000000E+00 -0.49160248820E+01  0.49160248820E+01  0.00000000000E+00 0.  1.
         23    2    1    2    0    0  0.00000000000E+00  0.00000000000E+00  0.41240756182E+03  0.42223961159E+03  0.90588589483E+02 0.  0.
        -11    1    3    3    0    0  0.36030923231E+02 -0.27314935350E+02  0.19366211632E+03  0.19887017981E+03  0.00000000000E+00 0. -1.
         11    1    3    3    0    0 -0.36030923231E+02  0.27314935350E+02  0.21874544551E+03  0.22336943177E+03  0.00000000000E+00 0.  1.
<mgrwt>
<rscale>  0 0.90588589E+02</rscale>
<asrwt>0</asrwt>
<pdfrwt beam="1">  1        1 0.64203601E-01 0.90588589E+02</pdfrwt>
<pdfrwt beam="2">  1       -1 0.75631185E-03 0.90588589E+02</pdfrwt>
<totfact> 0.13816407E+05</totfact>
</mgrwt>
</event>
<event>
 5    1  0.6125604E+000  0.9020959E+02  0.7546771E-02  0.1302345E+00
          1   -1    0    0  501    0  0.00000000000E+00  0.00000000000E+00  0.30289261051E+02  0.30289261051E+02  0.00000000000E+00 0. -1.
         -1   -1    0    0    0  501 -0.00000000000E+00 -0.00000000000E+00 -0.67167126717E+02  0.67167126717E+02  0.00000000000E+00 0.  1.
         23    2    1    2    0    0  0.00000000000E+00  0.00000000000E+00 -0.36877865667E+02  0.97456387768E+02  0.90209592287E+02 0.  0.
        -11    1    3    3    0    0 -0.40998273594E+02  0.18156093092E+02 -0.23724894715E+02  0.50728421849E+02  0.00000000000E+00 0.  1.
         11    1    3    3    0    0  0.40998273594E+02 -0.18156093092E+02 -0.13152970952E+02  0.46727965919E+02  0.00000000000E+00 0. -1.
<mgrwt>
<rscale>  0 0.90209592E+02</rscale>
<asrwt>0</asrwt>
<pdfrwt beam="1">  1        1 0.46598864E-02 0.90209592E+02</pdfrwt>
<pdfrwt beam="2">  1       -1 0.10333404E-01 0.90209592E+02</pdfrwt>
<totfact> 0.89511795E+04</totfact>
</mgrwt>
</event>
<event>
 5    1  0.6125604E+000  0.8947047E+02  0.7546771E-02  0.1304139E+00
         -2   -1    0    0    0  501 -0.00000000000E+00  0.00000000000E+00  0.17134688918E+02  0.17134688918E+02  0.00000000000E+00 0.  1.
          2   -1    0    0  501    0  0.00000000000E+00 -0.00000000000E+00 -0.11679471455E+03  0.11679471455E+03  0.00000000000E+00 0. -1.
         23    2    1    2    0    0  0.00000000000E+00  0.00000000000E+00 -0.99660025632E+02  0.13392940347E+03  0.89470466661E+02 0.  0.
        -11    1    3    3    0    0 -0.34899377643E+02 -0.27612758475E+02 -0.56658640386E+02  0.72046044450E+02  0.00000000000E+00 0. -1.
         11    1    3    3    0    0  0.34899377643E+02  0.27612758475E+02 -0.43001385247E+02  0.61883359020E+02  0.00000000000E+00 0.  1.
<mgrwt>
<rscale>  0 0.89470467E+02</rscale>
<asrwt>0</asrwt>
<pdfrwt beam="2">  1        2 0.17968417E-01 0.89470467E+02</pdfrwt>
<pdfrwt beam="1">  1       -2 0.26361061E-02 0.89470467E+02</pdfrwt>
<totfact> 0.13556421E+05</totfact>
</mgrwt>
</event>
<event>
 5    1  0.6125604E+000  0.8968405E+02  0.7546771E-02  0.1303619E+00
          3   -1    0    0  501    0  0.00000000000E+00  0.00000000000E+00  0.17044335526E+03  0.17044335526E+03  0.00000000000E+00 0. -1.
         -3   -1    0    0    0  501 -0.00000000000E+00 -0.00000000000E+00 -0.11797509175E+02  0.11797509175E+02  0.00000000000E+00 0.  1.
         23    2    1    2    0    0  0.00000000000E+00  0.00000000000E+00  0.15864584609E+03  0.18224086444E+03  0.89684046463E+02 0.  0.
        -11    1    3    3    0    0 -0.39831447234E+02 -0.20254770686E+02  0.86928025097E+02  0.97740889455E+02  0.00000000000E+00 0. -1.
         11    1    3    3    0    0  0.39831447234E+02  0.20254770686E+02  0.71717820990E+02  0.84499974981E+02  0.00000000000E+00 0.  1.
<mgrwt>
<rscale>  0 0.89684046E+02</rscale>
<asrwt>0</asrwt>
<pdfrwt beam="1">  1        3 0.26222053E-01 0.89684046E+02</pdfrwt>
<pdfrwt beam="2">  1       -3 0.18150015E-02 0.89684046E+02</pdfrwt>
<totfact> 0.30782487E+04</totfact>
</mgrwt>
</event>
<event>
 5    1  0.6125604E+000  0.8301781E+02  0.7546771E-02  0.1320699E+00
          2   -1    0    0  501    0  0.00000000000E+00  0.00000000000E+00  0.53112289509E+02  0.53112289509E+02  0.00000000000E+00 0. -1.
         -2   -1    0    0    0  501 -0.00000000000E+00 -0.00000000000E+00 -0.32440497270E+02  0.32440497270E+02  0.00000000000E+00 0.  1.
         23    2    1    2    0    0  0.00000000000E+00  0.00000000000E+00  0.20671792239E+02  0.85552786778E+02  0.83017807314E+02 0.  0.
        -11    1    3    3    0    0 -0.20202501908E+02 -0.80443177536E+01 -0.26101027170E+02  0.33972279152E+02  0.00000000000E+00 0.  1.
         11    1    3    3    0    0  0.20202501908E+02  0.80443177536E+01  0.46772819409E+02  0.51580507626E+02  0.00000000000E+00 0. -1.
<mgrwt>
<rscale>  0 0.83017807E+02</rscale>
<asrwt>0</asrwt>
<pdfrwt beam="1">  1        2 0.81711215E-02 0.83017807E+02</pdfrwt>
<pdfrwt beam="2">  1       -2 0.49908457E-02 0.83017807E+02</pdfrwt>
<totfact> 0.13369303E+05</totfact>
</mgrwt>
</event>
<event>
 5    1  0.6125604E+000  0.9252192E+02  0.7546771E-02  0.1296857E+00
         -1   -1    0    0    0  501 -0.00000000000E+00  0.00000000000E+00  0.67248960011E+02  0.67248960011E+02  0.00000000000E+00 0.  1.
          1   -1    0    0  501    0  0.00000000000E+00 -0.00000000000E+00 -0.31823191934E+02  0.31823191934E+02  0.00000000000E+00 0. -1.
         23    2    1    2    0    0  0.00000000000E+00  0.00000000000E+00  0.35425768077E+02  0.99072151945E+02  0.92521923062E+02 0.  0.
        -11    1    3    3    0    0  0.36001976022E+02  0.15154959586E+02  0.44251824969E+02  0.59025749387E+02  0.00000000000E+00 0.  1.
         11    1    3    3    0    0 -0.36001976022E+02 -0.15154959586E+02 -0.88260568921E+01  0.40046402558E+02  0.00000000000E+00 0. -1.
<mgrwt>
<rscale>  0 0.92521923E+02</rscale>
<asrwt>0</asrwt>
<pdfrwt beam="2">  1        1 0.48958757E-02 0.92521923E+02</pdfrwt>
<pdfrwt beam="1">  1       -1 0.10345994E-01 0.92521923E+02</pdfrwt>
<totfact> 0.83908074E+04</totfact>
</mgrwt>
</event>
<event>
 5    1  0.6125604E+000  0.9065014E+02  0.7546771E-02  0.1301285E+00
          2   -1    0    0  501    0  0.00000000000E+00  0.00000000000E+00  0.12247294264E+03  0.12247294264E+03  0.00000000000E+00 0. -1.
         -2   -1    0    0    0  501 -0.00000000000E+00 -0.00000000000E+00 -0.16774005052E+02  0.16774005052E+02  0.00000000000E+00 0.  1.
         23    2    1    2    0    0  0.00000000000E+00  0.00000000000E+00  0.10569893758E+03  0.13924694769E+03  0.90650135322E+02 0.  0.
        -11    1    3    3    0    0  0.41096626843E+02  0.11652552417E+02  0.29571362009E+02  0.51953634779E+02  0.00000000000E+00 0. -1.
         11    1    3    3    0    0 -0.41096626843E+02 -0.11652552417E+02  0.76127575575E+02  0.87293312909E+02  0.00000000000E+00 0.  1.
<mgrwt>
<rscale>  0 0.90650135E+02</rscale>
<asrwt>0</asrwt>
<pdfrwt beam="1">  1        2 0.18841991E-01 0.90650135E+02</pdfrwt>
<pdfrwt beam="2">  1       -2 0.25806162E-02 0.90650135E+02</pdfrwt>
<totfact> 0.13280193E+05</totfact>
</mgrwt>
</event>
<event>
 5    1  0.6125604E+000  0.9119596E+02  0.7546771E-02  0.1299981E+00
          2   -1    0    0  501    0  0.00000000000E+00  0.00000000000E+00  0.18162567308E+03  0.18162567308E+03  0.00000000000E+00 0. -1.
         -2   -1    0    0    0  501 -0.00000000000E+00 -0.00000000000E+00 -0.11447586549E+02  0.11447586549E+02  0.00000000000E+00 0.  1.
         23    2    1    2    0    0  0.00000000000E+00  0.00000000000E+00  0.17017808653E+03  0.19307325963E+03  0.91195956317E+02 0.  0.
        -11    1    3    3    0    0  0.56482948913E+01 -0.29659756860E+02  0.12747422629E+02  0.32773483121E+02  0.00000000000E+00 0.  1.
         11    1    3    3    0    0 -0.56482948913E+01  0.29659756860E+02  0.15743066390E+03  0.16029977651E+03  0.00000000000E+00 0. -1.
<mgrwt>
<rscale>  0 0.91195956E+02</rscale>
<asrwt>0</asrwt>
<pdfrwt beam="1">  1        2 0.27942409E-01 0.91195956E+02</pdfrwt>
<pdfrwt beam="2">  1       -2 0.17611673E-02 0.91195956E+02</pdfrwt>
<totfact> 0.14933861E+05</totfact>
</mgrwt>
</event>
<event>
 5    1  0.6125604E+000  0.9183332E+02  0.7546771E-02  0.1298472E+00
          1   -1    0    0  501    0  0.00000000000E+00  0.00000000000E+00  0.79846400720E+02  0.79846400720E+02  0.00000000000E+00 0. -1.
         -1   -1    0    0    0  501 -0.00000000000E+00 -0.00000000000E+00 -0.26404942143E+02  0.26404942143E+02  0.00000000000E+00 0.  1.
         23    2    1    2    0    0  0.00000000000E+00  0.00000000000E+00  0.53441458576E+02  0.10625134286E+03  0.91833318384E+02 0.  0.
        -11    1    3    3    0    0 -0.29519797875E+02  0.82184389820E+01 -0.12844317252E+02  0.33225557807E+02  0.00000000000E+00 0.  1.
         11    1    3    3    0    0  0.29519797875E+02 -0.82184389820E+01  0.66285775828E+02  0.73025785056E+02  0.00000000000E+00 0. -1.
<mgrwt>
<rscale>  0 0.91833318E+02</rscale>
<asrwt>0</asrwt>
<pdfrwt beam="1">  1        1 0.12284062E-01 0.91833318E+02</pdfrwt>
<pdfrwt beam="2">  1       -1 0.40622988E-02 0.91833318E+02</pdfrwt>
<totfact> 0.98746811E+04</totfact>
</mgrwt>
</event>
<event>
 5    1  0.6125604E+000  0.9085604E+02  0.7546771E-02  0.1300792E+00
          1   -1    0    0  501    0  0.00000000000E+00  0.00000000000E+00  0.37799939899E+02  0.37799939899E+02  0.00000000000E+00 0. -1.
         -1   -1    0    0    0  501 -0.00000000000E+00 -0.00000000000E+00 -0.54595454743E+02  0.54595454743E+02  0.00000000000E+00 0.  1.
         23    2    1    2    0    0  0.00000000000E+00  0.00000000000E+00 -0.16795514844E+02  0.92395394642E+02  0.90856037951E+02 0.  0.
        -11    1    3    3    0    0  0.29055107035E+02  0.18233047476E+02  0.21890440240E+02  0.40691948085E+02  0.00000000000E+00 0. -1.
         11    1    3    3    0    0 -0.29055107035E+02 -0.18233047476E+02 -0.38685955084E+02  0.51703446557E+02  0.00000000000E+00 0.  1.
<mgrwt>
<rscale>  0 0.90856038E+02</rscale>
<asrwt>0</asrwt>
<pdfrwt beam="1">  1        1 0.58153754E-02 0.90856038E+02</pdfrwt>
<pdfrwt beam="2">  1       -1 0.83993006E-02 0.90856038E+02</pdfrwt>
<totfact> 0.90786196E+04</totfact>
</mgrwt>
</event>
<event>
 5    1  0.6125604E+000  0.9148795E+02  0.7546771E-02  0.1299288E+00
          1   -1    0    0  501    0  0.00000000000E+00  0.00000000000E+00  0.14362597929E+03  0.14362597929E+03  0.00000000000E+00 0. -1.
         -1   -1    0    0    0  501 -0.00000000000E+00 -0.00000000000E+00 -0.14569168325E+02  0.14569168325E+02  0.00000000000E+00 0.  1.
         23    2    1    2    0    0  0.00000000000E+00  0.00000000000E+00  0.12905681097E+03  0.15819514762E+03  0.91487946050E+02 0.  0.
        -11    1    3    3    0    0  0.15535749387E+02 -0.28112817197E+02  0.82100002113E+01  0.33152588183E+02  0.00000000000E+00 0.  1.
         11    1    3    3    0    0 -0.15535749387E+02  0.28112817197E+02  0.12084681076E+03  0.12504255944E+03  0.00000000000E+00 0. -1.
<mgrwt>
<rscale>  0 0.91487946E+02</rscale>
<asrwt>0</asrwt>
<pdfrwt beam="1">  1        1 0.22096304E-01 0.91487946E+02</pdfrwt>
<pdfrwt beam="2">  1       -1 0.22414106E-02 0.91487946E+02</pdfrwt>
<totfact> 0.11022561E+05</totfact>
</mgrwt>
</event>
<event>
 5    1  0.6125604E+000  0.9232597E+02  0.7546771E-02  0.1297315E+00
         -4   -1    0    0    0  501 -0.00000000000E+00  0.00000000000E+00  0.22713581585E+02  0.22713581585E+02  0.00000000000E+00 0.  1.
          4   -1    0    0  501    0  0.00000000000E+00 -0.00000000000E+00 -0.93821442839E+02  0.93821442839E+02  0.00000000000E+00 0. -1.
         23    2    1    2    0    0  0.00000000000E+00  0.00000000000E+00 -0.71107861255E+02  0.11653502442E+03  0.92325965932E+02 0.  0.
        -11    1    3    3    0    0  0.26129299532E+02  0.31230748255E+02 -0.81049044547E+01  0.41518542927E+02  0.00000000000E+00 0.  1.
         11    1    3    3    0    0 -0.26129299532E+02 -0.31230748255E+02 -0.63002956800E+02  0.75016481497E+02  0.00000000000E+00 0. -1.
<mgrwt>
<rscale>  0 0.92325966E+02</rscale>
<asrwt>0</asrwt>
<pdfrwt beam="2">  1        4 0.14434068E-01 0.92325966E+02</pdfrwt>
<pdfrwt beam="1">  1       -4 0.34943971E-02 0.92325966E+02</pdfrwt>
<totfact> 0.24620548E+04</totfact>
</mgrwt>
</event>
<event>
 5    1  0.6125604E+000  0.8871158E+02  0.7546771E-02  0.1306002E+00
          2   -1    0    0  501    0  0.00000000000E+00  0.00000000000E+00  0.26565322743E+03  0.26565322743E+03  0.00000000000E+00 0. -1.
         -2   -1    0    0    0  501 -0.00000000000E+00 -0.00000000000E+00 -0.74060308397E+01  0.74060308397E+01  0.00000000000E+00 0.  1.
         23    2    1    2    0    0  0.00000000000E+00  0.00000000000E+00  0.25824719659E+03  0.27305925827E+03  0.88711577485E+02 0.  0.
        -11    1    3    3    0    0 -0.14848886869E+02 -0.32506528059E+02  0.20999347699E+03  0.21301273245E+03  0.00000000000E+00 0. -1.
         11    1    3    3    0    0  0.14848886869E+02  0.32506528059E+02  0.48253719600E+02  0.60046525818E+02  0.00000000000E+00 0.  1.
<mgrwt>
<rscale>  0 0.88711577E+02</rscale>
<asrwt>0</asrwt>
<pdfrwt beam="1">  1        2 0.40869720E-01 0.88711577E+02</pdfrwt>
<pdfrwt beam="2">  1       -2 0.11393896E-02 0.88711577E+02</pdfrwt>
<totfact> 0.18472499E+05</totfact>
</mgrwt>
</event>
<event>
 5    1  0.6125604E+000  0.8974646E+02  0.7546771E-02  0.1303467E+00
          2   -1    0    0  501    0  0.00000000000E+00  0.00000000000E+00  0.15837899680E+03  0.15837899680E+03  0.00000000000E+00 0. -1.
         -2   -1    0    0    0  501 -0.00000000000E+00 -0.00000000000E+00 -0.12713851011E+02  0.12713851011E+02  0.00000000000E+00 0.  1.
         23    2    1    2    0    0  0.00000000000E+00  0.00000000000E+00  0.14566514579E+03  0.17109284781E+03  0.89746464412E+02 0.  0.
        -11    1    3    3    0    0  0.37323340986E+02 -0.24282836773E+02  0.83433098484E+02  0.94571506632E+02  0.00000000000E+00 0.  1.
         11    1    3    3    0    0 -0.37323340986E+02  0.24282836773E+02  0.62232047305E+02  0.76521341179E+02  0.00000000000E+00 0. -1.
<mgrwt>
<rscale>  0 0.89746464E+02</rscale>
<asrwt>0</asrwt>
<pdfrwt beam="1">  1        2 0.24365998E-01 0.89746464E+02</pdfrwt>
<pdfrwt beam="2">  1       -2 0.19559772E-02 0.89746464E+02</pdfrwt>
<totfact> 0.14865976E+05</totfact>
</mgrwt>
</event>
<event>
 5    1  0.6125604E+000  0.8907558E+02  0.7546771E-02  0.1305106E+00
          1   -1    0    0  501    0  0.00000000000E+00  0.00000000000E+00  0.24819266738E+03  0.24819266738E+03  0.00000000000E+00 0. -1.
         -1   -1    0    0    0  501 -0.00000000000E+00 -0.00000000000E+00 -0.79922380848E+01  0.79922380848E+01  0.00000000000E+00 0.  1.
         23    2    1    2    0    0  0.00000000000E+00  0.00000000000E+00  0.24020042929E+03  0.25618490546E+03  0.89075583379E+02 0.  0.
        -11    1    3    3    0    0 -0.39717449442E+02  0.16873491254E+02  0.88408347295E+02  0.98377977051E+02  0.00000000000E+00 0.  1.
         11    1    3    3    0    0  0.39717449442E+02 -0.16873491254E+02  0.15179208200E+03  0.15780692841E+03  0.00000000000E+00 0. -1.
<mgrwt>
<rscale>  0 0.89075583E+02</rscale>
<asrwt>0</asrwt>
<pdfrwt beam="1">  1        1 0.38183481E-01 0.89075583E+02</pdfrwt>
<pdfrwt beam="2">  1       -1 0.12295753E-02 0.89075583E+02</pdfrwt>
<totfact> 0.13141818E+05</totfact>
</mgrwt>
</event>
<event>
 5    1  0.6125604E+000  0.8860616E+02  0.7546771E-02  0.1306263E+00
          2   -1    0    0  501    0  0.00000000000E+00  0.00000000000E+00  0.43395080051E+02  0.43395080051E+02  0.00000000000E+00 0. -1.
         -2   -1    0    0    0  501 -0.00000000000E+00 -0.00000000000E+00 -0.45230077099E+02  0.45230077099E+02  0.00000000000E+00 0.  1.
         23    2    1    2    0    0  0.00000000000E+00  0.00000000000E+00 -0.18349970479E+01  0.88625157151E+02  0.88606158171E+02 0.  0.
        -11    1    3    3    0    0  0.17002008281E+02  0.24815702711E+02 -0.33449469551E+02  0.44986157869E+02  0.00000000000E+00 0.  1.
         11    1    3    3    0    0 -0.17002008281E+02 -0.24815702711E+02  0.31614472503E+02  0.43638999281E+02  0.00000000000E+00 0. -1.
<mgrwt>
<rscale>  0 0.88606158E+02</rscale>
<asrwt>0</asrwt>
<pdfrwt beam="1">  1        2 0.66761662E-02 0.88606158E+02</pdfrwt>
<pdfrwt beam="2">  1       -2 0.69584734E-02 0.88606158E+02</pdfrwt>
<totfact> 0.10575101E+05</totfact>
</mgrwt>
</event>
<event>
 5    1  0.6125604E+000  0.9096256E+02  0.7546771E-02  0.1300537E+00
         -2   -1    0    0    0  501 -0.00000000000E+00  0.00000000000E+00  0.53845724267E+02  0.53845724267E+02  0.00000000000E+00 0.  1.
          2   -1    0    0  501    0  0.00000000000E+00 -0.00000000000E+00 -0.38416175348E+02  0.38416175348E+02  0.00000000000E+00 0. -1.
         23    2    1    2    0    0  0.00000000000E+00  0.00000000000E+00  0.15429548919E+02  0.92261899615E+02  0.90962559005E+02 0.  0.
        -11    1    3    3    0    0  0.32053295426E+02 -0.24278799464E+02 -0.13841403286E+02  0.42525972017E+02  0.00000000000E+00 0. -1.
         11    1    3    3    0    0 -0.32053295426E+02  0.24278799464E+02  0.29270952204E+02  0.49735927598E+02  0.00000000000E+00 0.  1.
<mgrwt>
<rscale>  0 0.90962559E+02</rscale>
<asrwt>0</asrwt>
<pdfrwt beam="2">  1        2 0.59101808E-02 0.90962559E+02</pdfrwt>
<pdfrwt beam="1">  1       -2 0.82839576E-02 0.90962559E+02</pdfrwt>
<totfact> 0.95043238E+04</totfact>
</mgrwt>
</event>
<event>
 5    1  0.6125604E+000  0.5636486E+02  0.7546771E-02  0.1413752E+00
         -1   -1    0    0    0  501 -0.00000000000E+00  0.00000000000E+00  0.45924732102E+02  0.45924732102E+02  0.00000000000E+00 0.  1.
          1   -1    0    0  501    0  0.00000000000E+00 -0.00000000000E+00 -0.17294587204E+02  0.17294587204E+02  0.00000000000E+00 0. -1.
         23    2    1    2    0    0  0.00000000000E+00  0.00000000000E+00  0.28630144898E+02  0.63219319306E+02  0.56364857284E+02 0.  0.
        -11    1    3    3    0    0  0.25637013807E+01 -0.18143216100E+02 -0.97015138340E+01  0.20733263754E+02  0.00000000000E+00 0. -1.
         11    1    3    3    0    0 -0.25637013807E+01  0.18143216100E+02  0.38331658732E+02  0.42486055552E+02  0.00000000000E+00 0.  1.
<mgrwt>
<rscale>  0 0.56364857E+02</rscale>
<asrwt>0</asrwt>
<pdfrwt beam="2">  1        1 0.26607057E-02 0.56364857E+02</pdfrwt>
<pdfrwt beam="1">  1       -1 0.70653434E-02 0.56364857E+02</pdfrwt>
<totfact> 0.30699355E+05</totfact>
</mgrwt>
</event>
<event>
 5    1  0.6125604E+000  0.9334555E+02  0.7546771E-02  0.1294946E+00
          1   -1    0    0  501    0  0.00000000000E+00  0.00000000000E+00  0.57470100995E+02  0.57470100995E+02  0.00000000000E+00 0. -1.
         -1   -1    0    0    0  501 -0.00000000000E+00 -0.00000000000E+00 -0.37904022104E+02  0.37904022104E+02  0.00000000000E+00 0.  1.
         23    2    1    2    0    0  0.00000000000E+00  0.00000000000E+00  0.19566078891E+02  0.95374123099E+02  0.93345551119E+02 0.  0.
        -11    1    3    3    0    0 -0.12068960544E+02 -0.44841851528E+02  0.50019761140E+01  0.46706222520E+02  0.00000000000E+00 0.  1.
         11    1    3    3    0    0  0.12068960544E+02  0.44841851528E+02  0.14564102777E+02  0.48667900579E+02  0.00000000000E+00 0. -1.
<mgrwt>
<rscale>  0 0.93345551E+02</rscale>
<asrwt>0</asrwt>
<pdfrwt beam="1">  1        1 0.88415541E-02 0.93345551E+02</pdfrwt>
<pdfrwt beam="2">  1       -1 0.58313880E-02 0.93345551E+02</pdfrwt>
<totfact> 0.89676343E+04</totfact>
</mgrwt>
</event>
<event>
 5    1  0.6125604E+000  0.9120401E+02  0.7546771E-02  0.1299962E+00
         -3   -1    0    0    0  501 -0.00000000000E+00  0.00000000000E+00  0.79841399293E+02  0.79841399293E+02  0.00000000000E+00 0.  1.
          3   -1    0    0  501    0  0.00000000000E+00 -0.00000000000E+00 -0.26045921615E+02  0.26045921615E+02  0.00000000000E+00 0. -1.
         23    2    1    2    0    0  0.00000000000E+00  0.00000000000E+00  0.53795477678E+02  0.10588732091E+03  0.91204009290E+02 0.  0.
        -11    1    3    3    0    0  0.13554347607E+02  0.37798138751E+02  0.51990343640E+02  0.65691821895E+02  0.00000000000E+00 0.  1.
         11    1    3    3    0    0 -0.13554347607E+02 -0.37798138751E+02  0.18051340387E+01  0.40195499014E+02  0.00000000000E+00 0. -1.
<mgrwt>
<rscale>  0 0.91204009E+02</rscale>
<asrwt>0</asrwt>
<pdfrwt beam="2">  1        3 0.40070649E-02 0.91204009E+02</pdfrwt>
<pdfrwt beam="1">  1       -3 0.12283292E-01 0.91204009E+02</pdfrwt>
<totfact> 0.34213791E+04</totfact>
</mgrwt>
</event>
<event>
 5    1  0.6125604E+000  0.8587564E+02  0.7546771E-02  0.1313158E+00
         -1   -1    0    0    0  501 -0.00000000000E+00  0.00000000000E+00  0.42399368833E+02  0.42399368833E+02  0.00000000000E+00 0.  1.
          1   -1    0    0  501    0  0.00000000000E+00 -0.00000000000E+00 -0.43483109109E+02  0.43483109109E+02  0.00000000000E+00 0. -1.
         23    2    1    2    0    0  0.00000000000E+00  0.00000000000E+00 -0.10837402754E+01  0.85882477942E+02  0.85875639878E+02 0.  0.
        -11    1    3    3    0    0 -0.91989385560E+00  0.14864205564E+02 -0.40817469077E+02  0.43449471730E+02  0.00000000000E+00 0. -1.
         11    1    3    3    0    0  0.91989385560E+00 -0.14864205564E+02  0.39733728802E+02  0.42433006212E+02  0.00000000000E+00 0.  1.
<mgrwt>
<rscale>  0 0.85875640E+02</rscale>
<asrwt>0</asrwt>
<pdfrwt beam="2">  1        1 0.66897091E-02 0.85875640E+02</pdfrwt>
<pdfrwt beam="1">  1       -1 0.65229798E-02 0.85875640E+02</pdfrwt>
<totfact> 0.10856348E+05</totfact>
</mgrwt>
</event>
<event>
 5    1  0.6125604E+000  0.9066985E+02  0.7546771E-02  0.1301238E+00
          3   -1    0    0  501    0  0.00000000000E+00  0.00000000000E+00  0.16116482989E+03  0.16116482989E+03  0.00000000000E+00 0. -1.
         -3   -1    0    0    0  501 -0.00000000000E+00 -0.00000000000E+00 -0.12752505570E+02  0.12752505570E+02  0.00000000000E+00 0.  1.
         23    2    1    2    0    0  0.00000000000E+00  0.00000000000E+00  0.14841232432E+03  0.17391733546E+03  0.90669849252E+02 0.  0.
        -11    1    3    3    0    0  0.39478355526E+02  0.69271120608E+01  0.33573758904E+02  0.52285014330E+02  0.00000000000E+00 0.  1.
         11    1    3    3    0    0 -0.39478355526E+02 -0.69271120608E+01  0.11483856542E+03  0.12163232113E+03  0.00000000000E+00 0. -1.
<mgrwt>
<rscale>  0 0.90669849E+02</rscale>
<asrwt>0</asrwt>
<pdfrwt beam="1">  1        3 0.24794588E-01 0.90669849E+02</pdfrwt>
<pdfrwt beam="2">  1       -3 0.19619241E-02 0.90669849E+02</pdfrwt>
<totfact> 0.30358354E+04</totfact>
</mgrwt>
</event>
<event>
 4    1  0.6125604E+000  0.1661219E+03  0.7546771E-02  0.1181953E+00
          2   -1    0    0  501    0  0.00000000000E+00  0.00000000000E+00  0.11273066702E+03  0.11273066702E+03  0.00000000000E+00 0. -1.
         -2   -1    0    0    0  501 -0.00000000000E+00 -0.00000000000E+00 -0.61200072844E+02  0.61200072844E+02  0.00000000000E+00 0.  1.
        -11    1    1    2    0    0  0.40064858537E+02 -0.39665280156E+02  0.89629235451E+02  0.10588638811E+03  0.00000000000E+00 0. -1.
         11    1    1    2    0    0 -0.40064858537E+02  0.39665280156E+02 -0.38098641272E+02  0.68044351758E+02  0.00000000000E+00 0.  1.
<mgrwt>
<rscale>  0 0.16612194E+03</rscale>
<asrwt>0</asrwt>
<pdfrwt beam="1">  1        2 0.17343180E-01 0.16612194E+03</pdfrwt>
<pdfrwt beam="2">  1       -2 0.94153958E-02 0.16612194E+03</pdfrwt>
<totfact> 0.22616943E+04</totfact>
</mgrwt>
</event>
<event>
 5    1  0.6125604E+000  0.8956062E+02  0.7546771E-02  0.1303919E+00
          1   -1    0    0  501    0  0.00000000000E+00  0.00000000000E+00  0.74178264274E+02  0.74178264274E+02  0.00000000000E+00 0. -1.
         -1   -1    0    0    0  501 -0.00000000000E+00 -0.00000000000E+00 -0.27033202206E+02  0.27033202206E+02  0.00000000000E+00 0.  1.
         23    2    1    2    0    0  0.00000000000E+00  0.00000000000E+00  0.47145062068E+02  0.10121146648E+03  0.89560616733E+02 0.  0.
        -11    1    3    3    0    0 -0.10567964547E+02 -0.40422445842E+02  0.53637142046E+01  0.42123929454E+02  0.00000000000E+00 0. -1.
         11    1    3    3    0    0  0.10567964547E+02  0.40422445842E+02  0.41781347863E+02  0.59087537026E+02  0.00000000000E+00 0.  1.
<mgrwt>
<rscale>  0 0.89560617E+02</rscale>
<asrwt>0</asrwt>
<pdfrwt beam="1">  1        1 0.11412041E-01 0.89560617E+02</pdfrwt>
<pdfrwt beam="2">  1       -1 0.41589542E-02 0.89560617E+02</pdfrwt>
<totfact> 0.10457036E+05</totfact>
</mgrwt>
</event>
<event>
 5    1  0.6125604E+000  0.9393900E+02  0.7546771E-02  0.1293584E+00
          2   -1    0    0  501    0  0.00000000000E+00  0.00000000000E+00  0.27048541410E+02  0.27048541410E+02  0.00000000000E+00 0. -1.
         -2   -1    0    0    0  501 -0.00000000000E+00 -0.00000000000E+00 -0.81562020863E+02  0.81562020863E+02  0.00000000000E+00 0.  1.
         23    2    1    2    0    0  0.00000000000E+00  0.00000000000E+00 -0.54513479453E+02  0.10861056227E+03  0.93938995073E+02 0.  0.
        -11    1    3    3    0    0 -0.24387130148E+02  0.30000070625E+02  0.35809810637E+01  0.38827307140E+02  0.00000000000E+00 0. -1.
         11    1    3    3    0    0  0.24387130148E+02 -0.30000070625E+02 -0.58094460516E+02  0.69783255134E+02  0.00000000000E+00 0.  1.
<mgrwt>
<rscale>  0 0.93938995E+02</rscale>
<asrwt>0</asrwt>
<pdfrwt beam="1">  1        2 0.41613141E-02 0.93938995E+02</pdfrwt>
<pdfrwt beam="2">  1       -2 0.12548003E-01 0.93938995E+02</pdfrwt>
<totfact> 0.78632395E+04</totfact>
</mgrwt>
</event>
<event>
 5    1  0.6125604E+000  0.8576189E+02  0.7546771E-02  0.1313452E+00
          4   -1    0    0  501    0  0.00000000000E+00  0.00000000000E+00  0.40677713603E+01  0.40677713603E+01  0.00000000000E+00 0. -1.
         -4   -1    0    0    0  501 -0.00000000000E+00 -0.00000000000E+00 -0.45203513538E+03  0.45203513538E+03  0.00000000000E+00 0.  1.
         23    2    1    2    0    0  0.00000000000E+00  0.00000000000E+00 -0.44796736402E+03  0.45610290674E+03  0.85761893112E+02 0.  0.
        -11    1    3    3    0    0  0.42500076093E+02  0.45115977935E+01 -0.24253254565E+03  0.24626945950E+03  0.00000000000E+00 0.  1.
         11    1    3    3    0    0 -0.42500076093E+02 -0.45115977935E+01 -0.20543481837E+03  0.20983344724E+03  0.00000000000E+00 0. -1.
<mgrwt>
<rscale>  0 0.85761893E+02</rscale>
<asrwt>0</asrwt>
<pdfrwt beam="1">  1        4 0.62581063E-03 0.85761893E+02</pdfrwt>
<pdfrwt beam="2">  1       -4 0.69543906E-01 0.85761893E+02</pdfrwt>
<totfact> 0.16352369E+04</totfact>
</mgrwt>
</event>
<event>
 5    1  0.6125604E+000  0.9106893E+02  0.7546771E-02  0.1300284E+00
         -3   -1    0    0    0  501 -0.00000000000E+00  0.00000000000E+00  0.61857061397E+02  0.61857061397E+02  0.00000000000E+00 0.  1.
          3   -1    0    0  501    0  0.00000000000E+00 -0.00000000000E+00 -0.33519010677E+02  0.33519010677E+02  0.00000000000E+00 0. -1.
         23    2    1    2    0    0  0.00000000000E+00  0.00000000000E+00  0.28338050721E+02  0.95376072074E+02  0.91068929969E+02 0.  0.
        -11    1    3    3    0    0  0.18487177411E+02 -0.29046360202E+02 -0.17038281908E+02  0.38415749635E+02  0.00000000000E+00 0. -1.
         11    1    3    3    0    0 -0.18487177411E+02  0.29046360202E+02  0.45376332628E+02  0.56960322440E+02  0.00000000000E+00 0.  1.
<mgrwt>
<rscale>  0 0.91068930E+02</rscale>
<asrwt>0</asrwt>
<pdfrwt beam="2">  1        3 0.51567709E-02 0.91068930E+02</pdfrwt>
<pdfrwt beam="1">  1       -3 0.95164710E-02 0.91068930E+02</pdfrwt>
<totfact> 0.35132042E+04</totfact>
</mgrwt>
</event>
<event>
 5    1  0.6125604E+000  0.9211884E+02  0.7546771E-02  0.1297800E+00
         -2   -1    0    0    0  501 -0.00000000000E+00  0.00000000000E+00  0.14638780554E+03  0.14638780554E+03  0.00000000000E+00 0.  1.
          2   -1    0    0  501    0  0.00000000000E+00 -0.00000000000E+00 -0.14492123876E+02  0.14492123876E+02  0.00000000000E+00 0. -1.
         23    2    1    2    0    0  0.00000000000E+00  0.00000000000E+00  0.13189568166E+03  0.16087992941E+03  0.92118840892E+02 0.  0.
        -11    1    3    3    0    0 -0.63419040721E+00 -0.45124536320E+02  0.49861229290E+02  0.67251529067E+02  0.00000000000E+00 0.  1.
         11    1    3    3    0    0  0.63419040721E+00  0.45124536320E+02  0.82034452370E+02  0.93628400345E+02  0.00000000000E+00 0. -1.
<mgrwt>
<rscale>  0 0.92118841E+02</rscale>
<asrwt>0</asrwt>
<pdfrwt beam="2">  1        2 0.22295576E-02 0.92118841E+02</pdfrwt>
<pdfrwt beam="1">  1       -2 0.22521200E-01 0.92118841E+02</pdfrwt>
<totfact> 0.68664565E+04</totfact>
</mgrwt>
</event>
<event>
 5    1  0.6125604E+000  0.9140865E+02  0.7546771E-02  0.1299476E+00
          3   -1    0    0  501    0  0.00000000000E+00  0.00000000000E+00  0.42622963743E+02  0.42622963743E+02  0.00000000000E+00 0. -1.
         -3   -1    0    0    0  501 -0.00000000000E+00 -0.00000000000E+00 -0.49008451214E+02  0.49008451214E+02  0.00000000000E+00 0.  1.
         23    2    1    2    0    0  0.00000000000E+00  0.00000000000E+00 -0.63854874709E+01  0.91631414957E+02  0.91408652527E+02 0.  0.
        -11    1    3    3    0    0  0.20742382373E+02  0.57913200102E+01 -0.43603509578E+02  0.48631798872E+02  0.00000000000E+00 0.  1.
         11    1    3    3    0    0 -0.20742382373E+02 -0.57913200102E+01  0.37218022107E+02  0.42999616086E+02  0.00000000000E+00 0. -1.
<mgrwt>
<rscale>  0 0.91408653E+02</rscale>
<asrwt>0</asrwt>
<pdfrwt beam="1">  1        3 0.65573790E-02 0.91408653E+02</pdfrwt>
<pdfrwt beam="2">  1       -3 0.75397617E-02 0.91408653E+02</pdfrwt>
<totfact> 0.35060052E+04</totfact>
</mgrwt>
</event>
<event>
 5    1  0.6125604E+000  0.8854230E+02  0.7546771E-02  0.1306421E+00
         -2   -1    0    0    0  501 -0.00000000000E+00  0.00000000000E+00  0.11285831380E+02  0.11285831380E+02  0.00000000000E+00 0.  1.
          2   -1    0    0  501    0  0.00000000000E+00 -0.00000000000E+00 -0.17366329085E+03  0.17366329085E+03  0.00000000000E+00 0. -1.
         23    2    1    2    0    0  0.00000000000E+00  0.00000000000E+00 -0.16237745947E+03  0.18494912223E+03  0.88542297631E+02 0.  0.
        -11    1    3    3    0    0  0.35626417706E+02  0.89806624681E+01 -0.29596905376E+02  0.47179134634E+02  0.00000000000E+00 0.  1.
         11    1    3    3    0    0 -0.35626417706E+02 -0.89806624681E+01 -0.13278055409E+03  0.13776998760E+03  0.00000000000E+00 0. -1.
<mgrwt>
<rscale>  0 0.88542298E+02</rscale>
<asrwt>0</asrwt>
<pdfrwt beam="2">  1        2 0.26717428E-01 0.88542298E+02</pdfrwt>
<pdfrwt beam="1">  1       -2 0.17362819E-02 0.88542298E+02</pdfrwt>
<totfact> 0.15916893E+05</totfact>
</mgrwt>
</event>
<event>
 5    1  0.6125604E+000  0.9034999E+02  0.7546771E-02  0.1302006E+00
          2   -1    0    0  501    0  0.00000000000E+00  0.00000000000E+00  0.15419485264E+02  0.15419485264E+02  0.00000000000E+00 0. -1.
         -2   -1    0    0    0  501 -0.00000000000E+00 -0.00000000000E+00 -0.13235073500E+03  0.13235073500E+03  0.00000000000E+00 0.  1.
         23    2    1    2    0    0  0.00000000000E+00  0.00000000000E+00 -0.11693124973E+03  0.14777022026E+03  0.90349990770E+02 0.  0.
        -11    1    3    3    0    0  0.31156138908E+02 -0.79910422823E+01 -0.65850298491E+01  0.32831758505E+02  0.00000000000E+00 0. -1.
         11    1    3    3    0    0 -0.31156138908E+02  0.79910422823E+01 -0.11034621988E+03  0.11493846176E+03  0.00000000000E+00 0.  1.
<mgrwt>
<rscale>  0 0.90349991E+02</rscale>
<asrwt>0</asrwt>
<pdfrwt beam="1">  1        2 0.23722285E-02 0.90349991E+02</pdfrwt>
<pdfrwt beam="2">  1       -2 0.20361652E-01 0.90349991E+02</pdfrwt>
<totfact> 0.74697236E+04</totfact>
</mgrwt>
</event>
<event>
 5    1  0.6125604E+000  0.8912383E+02  0.7546771E-02  0.1304987E+00
          2   -1    0    0  501    0  0.00000000000E+00  0.00000000000E+00  0.25580674774E+02  0.25580674774E+02  0.00000000000E+00 0.  1.
         -2   -1    0    0    0  501 -0.00000000000E+00 -0.00000000000E+00 -0.77627515807E+02  0.77627515807E+02  0.00000000000E+00 0. -1.
         23    2    1    2    0    0  0.00000000000E+00  0.00000000000E+00 -0.52046841033E+02  0.10320819058E+03  0.89123829257E+02 0.  0.
        -11    1    3    3    0    0 -0.91565652141E+01  0.43181280017E+02 -0.18951023689E+02  0.48037557486E+02  0.00000000000E+00 0. -1.
         11    1    3    3    0    0  0.91565652141E+01 -0.43181280017E+02 -0.33095817343E+02  0.55170633094E+02  0.00000000000E+00 0.  1.
<mgrwt>
<rscale>  0 0.89123829E+02</rscale>
<asrwt>0</asrwt>
<pdfrwt beam="1">  1        2 0.39354885E-02 0.89123829E+02</pdfrwt>
<pdfrwt beam="2">  1       -2 0.11942695E-01 0.89123829E+02</pdfrwt>
<totfact> 0.90711127E+04</totfact>
</mgrwt>
</event>
<event>
 5    1  0.6125604E+000  0.8601550E+02  0.7546771E-02  0.1312798E+00
         -2   -1    0    0    0  501 -0.00000000000E+00  0.00000000000E+00  0.30138474153E+02  0.30138474153E+02  0.00000000000E+00 0.  1.
          2   -1    0    0  501    0  0.00000000000E+00 -0.00000000000E+00 -0.61372270780E+02  0.61372270780E+02  0.00000000000E+00 0. -1.
         23    2    1    2    0    0  0.00000000000E+00  0.00000000000E+00 -0.31233796627E+02  0.91510744934E+02  0.86015500850E+02 0.  0.
        -11    1    3    3    0    0  0.11067392430E+02  0.26098568919E+01  0.28510269545E+02  0.30694201370E+02  0.00000000000E+00 0.  1.
         11    1    3    3    0    0 -0.11067392430E+02 -0.26098568919E+01 -0.59744066172E+02  0.60816543563E+02  0.00000000000E+00 0. -1.
<mgrwt>
<rscale>  0 0.86015501E+02</rscale>
<asrwt>0</asrwt>
<pdfrwt beam="2">  1        2 0.94418878E-02 0.86015501E+02</pdfrwt>
<pdfrwt beam="1">  1       -2 0.46366883E-02 0.86015501E+02</pdfrwt>
<totfact> 0.12563332E+05</totfact>
</mgrwt>
</event>
<event>
 5    1  0.6125604E+000  0.9021679E+02  0.7546771E-02  0.1302328E+00
         -1   -1    0    0    0  501 -0.00000000000E+00  0.00000000000E+00  0.43752742976E+02  0.43752742976E+02  0.00000000000E+00 0.  1.
          1   -1    0    0  501    0  0.00000000000E+00 -0.00000000000E+00 -0.46506054040E+02  0.46506054040E+02  0.00000000000E+00 0. -1.
         23    2    1    2    0    0  0.00000000000E+00  0.00000000000E+00 -0.27533110645E+01  0.90258797016E+02  0.90216792877E+02 0.  0.
        -11    1    3    3    0    0 -0.76947692385E+01  0.31218778546E+02 -0.33029113599E+02  0.46094944980E+02  0.00000000000E+00 0. -1.
         11    1    3    3    0    0  0.76947692385E+01 -0.31218778546E+02  0.30275802535E+02  0.44163852036E+02  0.00000000000E+00 0.  1.
<mgrwt>
<rscale>  0 0.90216793E+02</rscale>
<asrwt>0</asrwt>
<pdfrwt beam="2">  1        1 0.71547775E-02 0.90216793E+02</pdfrwt>
<pdfrwt beam="1">  1       -1 0.67311913E-02 0.90216793E+02</pdfrwt>
<totfact> 0.95539747E+04</totfact>
</mgrwt>
</event>
<event>
 5    1  0.6125604E+000  0.9058337E+02  0.7546771E-02  0.1301445E+00
          2   -1    0    0  501    0  0.00000000000E+00  0.00000000000E+00  0.15769977923E+03  0.15769977923E+03  0.00000000000E+00 0. -1.
         -2   -1    0    0    0  501 -0.00000000000E+00 -0.00000000000E+00 -0.13007859460E+02  0.13007859460E+02  0.00000000000E+00 0.  1.
         23    2    1    2    0    0  0.00000000000E+00  0.00000000000E+00  0.14469191977E+03  0.17070763868E+03  0.90583366353E+02 0.  0.
        -11    1    3    3    0    0 -0.25799595574E+02  0.34361464215E+02  0.99328887382E+02  0.10822456848E+03  0.00000000000E+00 0. -1.
         11    1    3    3    0    0  0.25799595574E+02 -0.34361464215E+02  0.45363032384E+02  0.62483070202E+02  0.00000000000E+00 0.  1.
<mgrwt>
<rscale>  0 0.90583366E+02</rscale>
<asrwt>0</asrwt>
<pdfrwt beam="1">  1        2 0.24261503E-01 0.90583366E+02</pdfrwt>
<pdfrwt beam="2">  1       -2 0.20012093E-02 0.90583366E+02</pdfrwt>
<totfact> 0.14476203E+05</totfact>
</mgrwt>
</event>
<event>
 5    1  0.6125604E+000  0.9106359E+02  0.7546771E-02  0.1300296E+00
         -3   -1    0    0    0  501 -0.00000000000E+00  0.00000000000E+00  0.85135227491E+02  0.85135227491E+02  0.00000000000E+00 0.  1.
          3   -1    0    0  501    0  0.00000000000E+00 -0.00000000000E+00 -0.24351193379E+02  0.24351193379E+02  0.00000000000E+00 0. -1.
         23    2    1    2    0    0  0.00000000000E+00  0.00000000000E+00  0.60784034113E+02  0.10948642087E+03  0.91063590704E+02 0.  0.
        -11    1    3    3    0    0  0.43979073693E+02 -0.85742521874E+01  0.40120136898E+02  0.60144011407E+02  0.00000000000E+00 0.  1.
         11    1    3    3    0    0 -0.43979073693E+02  0.85742521874E+01  0.20663897215E+02  0.49342409463E+02  0.00000000000E+00 0. -1.
<mgrwt>
<rscale>  0 0.91063591E+02</rscale>
<asrwt>0</asrwt>
<pdfrwt beam="2">  1        3 0.37463375E-02 0.91063591E+02</pdfrwt>
<pdfrwt beam="1">  1       -3 0.13097727E-01 0.91063591E+02</pdfrwt>
<totfact> 0.34098285E+04</totfact>
</mgrwt>
</event>
<event>
 5    1  0.6125604E+000  0.9102375E+02  0.7546771E-02  0.1300391E+00
         -2   -1    0    0    0  501 -0.00000000000E+00  0.00000000000E+00  0.88008456500E+01  0.88008456500E+01  0.00000000000E+00 0.  1.
          2   -1    0    0  501    0  0.00000000000E+00 -0.00000000000E+00 -0.23535587949E+03  0.23535587949E+03  0.00000000000E+00 0. -1.
         23    2    1    2    0    0  0.00000000000E+00  0.00000000000E+00 -0.22655503384E+03  0.24415672514E+03  0.91023750047E+02 0.  0.
        -11    1    3    3    0    0  0.16218529364E+02 -0.41809397441E+02 -0.13410056195E+03  0.14140023735E+03  0.00000000000E+00 0. -1.
         11    1    3    3    0    0 -0.16218529364E+02  0.41809397441E+02 -0.92454471889E+02  0.10275648778E+03  0.00000000000E+00 0.  1.
<mgrwt>
<rscale>  0 0.91023750E+02</rscale>
<asrwt>0</asrwt>
<pdfrwt beam="2">  1        2 0.36208590E-01 0.91023750E+02</pdfrwt>
<pdfrwt beam="1">  1       -2 0.13539765E-02 0.91023750E+02</pdfrwt>
<totfact> 0.16490161E+05</totfact>
</mgrwt>
</event>
<event>
 5    1  0.6125604E+000  0.9430757E+02  0.7546771E-02  0.1292743E+00
         -2   -1    0    0    0  501 -0.00000000000E+00  0.00000000000E+00  0.15636122565E+02  0.15636122565E+02  0.00000000000E+00 0.  1.
          2   -1    0    0  501    0  0.00000000000E+00 -0.00000000000E+00 -0.14220145023E+03  0.14220145023E+03  0.00000000000E+00 0. -1.
         23    2    1    2    0    0  0.00000000000E+00  0.00000000000E+00 -0.12656532766E+03  0.15783757279E+03  0.94307567135E+02 0.  0.
        -11    1    3    3    0    0  0.21983425323E+02 -0.40560182489E+02 -0.46963111610E+02  0.65832615356E+02  0.00000000000E+00 0.  1.
         11    1    3    3    0    0 -0.21983425323E+02  0.40560182489E+02 -0.79602216054E+02  0.92004957439E+02  0.00000000000E+00 0. -1.
<mgrwt>
<rscale>  0 0.94307567E+02</rscale>
<asrwt>0</asrwt>
<pdfrwt beam="2">  1        2 0.21877146E-01 0.94307567E+02</pdfrwt>
<pdfrwt beam="1">  1       -2 0.24055573E-02 0.94307567E+02</pdfrwt>
<totfact> 0.12523317E+05</totfact>
</mgrwt>
</event>
<event>
 5    1  0.6125604E+000  0.8981510E+02  0.7546771E-02  0.1303300E+00
          3   -1    0    0  501    0  0.00000000000E+00  0.00000000000E+00  0.59482892208E+01  0.59482892208E+01  0.00000000000E+00 0. -1.
         -3   -1    0    0    0  501 -0.00000000000E+00 -0.00000000000E+00 -0.33903665376E+03  0.33903665376E+03  0.00000000000E+00 0.  1.
         23    2    1    2    0    0  0.00000000000E+00  0.00000000000E+00 -0.33308836454E+03  0.34498494298E+03  0.89815100579E+02 0.  0.
        -11    1    3    3    0    0 -0.43477644212E+02  0.10453592597E+02 -0.15065829732E+03  0.15715440082E+03  0.00000000000E+00 0. -1.
         11    1    3    3    0    0  0.43477644212E+02 -0.10453592597E+02 -0.18243006721E+03  0.18783054216E+03  0.00000000000E+00 0.  1.
<mgrwt>
<rscale>  0 0.89815101E+02</rscale>
<asrwt>0</asrwt>
<pdfrwt beam="1">  1        3 0.91512139E-03 0.89815101E+02</pdfrwt>
<pdfrwt beam="2">  1       -3 0.52159487E-01 0.89815101E+02</pdfrwt>
<totfact> 0.23296962E+04</totfact>
</mgrwt>
</event>
<event>
 5    1  0.6125604E+000  0.9667397E+02  0.7546771E-02  0.1287450E+00
         -2   -1    0    0    0  501 -0.00000000000E+00  0.00000000000E+00  0.61847464886E+02  0.61847464886E+02  0.00000000000E+00 0.  1.
          2   -1    0    0  501    0  0.00000000000E+00 -0.00000000000E+00 -0.37777844853E+02  0.37777844853E+02  0.00000000000E+00 0. -1.
         23    2    1    2    0    0  0.00000000000E+00  0.00000000000E+00  0.24069620034E+02  0.99625309739E+02  0.96673966154E+02 0.  0.
        -11    1    3    3    0    0  0.36201626162E+01 -0.14248030384E+02  0.59487859734E+02  0.61277380843E+02  0.00000000000E+00 0.  1.
         11    1    3    3    0    0 -0.36201626162E+01  0.14248030384E+02 -0.35418239700E+02  0.38347928896E+02  0.00000000000E+00 0. -1.
<mgrwt>
<rscale>  0 0.96673966E+02</rscale>
<asrwt>0</asrwt>
<pdfrwt beam="2">  1        2 0.58119761E-02 0.96673966E+02</pdfrwt>
<pdfrwt beam="1">  1       -2 0.95149946E-02 0.96673966E+02</pdfrwt>
<totfact> 0.79164330E+04</totfact>
</mgrwt>
</event>
<event>
 5    1  0.6125604E+000  0.9550118E+02  0.7546771E-02  0.1290051E+00
         -1   -1    0    0    0  501 -0.00000000000E+00  0.00000000000E+00  0.48674347171E+02  0.48674347171E+02  0.00000000000E+00 0.  1.
          1   -1    0    0  501    0  0.00000000000E+00 -0.00000000000E+00 -0.46844364299E+02  0.46844364299E+02  0.00000000000E+00 0. -1.
         23    2    1    2    0    0  0.00000000000E+00  0.00000000000E+00  0.18299828725E+01  0.95518711470E+02  0.95501180116E+02 0.  0.
        -11    1    3    3    0    0 -0.15239829682E+02 -0.30373898610E+02 -0.32636549632E+02  0.47116562877E+02  0.00000000000E+00 0. -1.
         11    1    3    3    0    0  0.15239829682E+02  0.30373898610E+02  0.34466532504E+02  0.48402148593E+02  0.00000000000E+00 0.  1.
<mgrwt>
<rscale>  0 0.95501180E+02</rscale>
<asrwt>0</asrwt>
<pdfrwt beam="2">  1        1 0.72068252E-02 0.95501180E+02</pdfrwt>
<pdfrwt beam="1">  1       -1 0.74883612E-02 0.95501180E+02</pdfrwt>
<totfact> 0.81490302E+04</totfact>
</mgrwt>
</event>
<event>
 5    1  0.6125604E+000  0.9268287E+02  0.7546771E-02  0.1296482E+00
          1   -1    0    0  501    0  0.00000000000E+00  0.00000000000E+00  0.26109316679E+02  0.26109316679E+02  0.00000000000E+00 0. -1.
         -1   -1    0    0    0  501 -0.00000000000E+00 -0.00000000000E+00 -0.82251423114E+02  0.82251423114E+02  0.00000000000E+00 0.  1.
         23    2    1    2    0    0  0.00000000000E+00  0.00000000000E+00 -0.56142106435E+02  0.10836073979E+03  0.92682866883E+02 0.  0.
        -11    1    3    3    0    0 -0.27309018930E+02  0.59154127767E+01 -0.71294326442E+02  0.76574510159E+02  0.00000000000E+00 0.  1.
         11    1    3    3    0    0  0.27309018930E+02 -0.59154127767E+01  0.15152220007E+02  0.31786229635E+02  0.00000000000E+00 0. -1.
<mgrwt>
<rscale>  0 0.92682867E+02</rscale>
<asrwt>0</asrwt>
<pdfrwt beam="1">  1        1 0.40168179E-02 0.92682867E+02</pdfrwt>
<pdfrwt beam="2">  1       -1 0.12654065E-01 0.92682867E+02</pdfrwt>
<totfact> 0.80785255E+04</totfact>
</mgrwt>
</event>
<event>
 5    1  0.6125604E+000  0.9519657E+02  0.7546771E-02  0.1290734E+00
          2   -1    0    0  501    0  0.00000000000E+00  0.00000000000E+00  0.18262596818E+03  0.18262596818E+03  0.00000000000E+00 0.  1.
         -2   -1    0    0    0  501 -0.00000000000E+00 -0.00000000000E+00 -0.12405665539E+02  0.12405665539E+02  0.00000000000E+00 0. -1.
         23    2    1    2    0    0  0.00000000000E+00  0.00000000000E+00  0.17022030264E+03  0.19503163372E+03  0.95196568847E+02 0.  0.
        -11    1    3    3    0    0 -0.79094057346E+01 -0.31149514162E+02  0.15704188372E+03  0.16029661311E+03  0.00000000000E+00 0.  1.
         11    1    3    3    0    0  0.79094057346E+01  0.31149514162E+02  0.13178418922E+02  0.34735020612E+02  0.00000000000E+00 0. -1.
<mgrwt>
<rscale>  0 0.95196569E+02</rscale>
<asrwt>0</asrwt>
<pdfrwt beam="1">  1        2 0.28096301E-01 0.95196569E+02</pdfrwt>
<pdfrwt beam="2">  1       -2 0.19085641E-02 0.95196569E+02</pdfrwt>
<totfact> 0.13320858E+05</totfact>
</mgrwt>
</event>
<event>
 5    1  0.6125604E+000  0.9202690E+02  0.7546771E-02  0.1298016E+00
          3   -1    0    0  501    0  0.00000000000E+00  0.00000000000E+00  0.11823801918E+03  0.11823801918E+03  0.00000000000E+00 0. -1.
         -3   -1    0    0    0  501 -0.00000000000E+00 -0.00000000000E+00 -0.17906571220E+02  0.17906571220E+02  0.00000000000E+00 0.  1.
         23    2    1    2    0    0  0.00000000000E+00  0.00000000000E+00  0.10033144796E+03  0.13614459040E+03  0.92026898487E+02 0.  0.
        -11    1    3    3    0    0 -0.36317975928E+02  0.88149664673E+01  0.89877032736E+02  0.97337454367E+02  0.00000000000E+00 0. -1.
         11    1    3    3    0    0  0.36317975928E+02 -0.88149664673E+01  0.10454415224E+02  0.38807136032E+02  0.00000000000E+00 0.  1.
<mgrwt>
<rscale>  0 0.92026898E+02</rscale>
<asrwt>0</asrwt>
<pdfrwt beam="1">  1        3 0.18190464E-01 0.92026898E+02</pdfrwt>
<pdfrwt beam="2">  1       -3 0.27548572E-02 0.92026898E+02</pdfrwt>
<totfact> 0.31375140E+04</totfact>
</mgrwt>
</event>
<event>
 5    1  0.6125604E+000  0.1175397E+03  0.7546771E-02  0.1247212E+00
          2   -1    0    0  501    0  0.00000000000E+00  0.00000000000E+00  0.77513625354E+02  0.77513625354E+02  0.00000000000E+00 0.  1.
         -2   -1    0    0    0  501 -0.00000000000E+00 -0.00000000000E+00 -0.44558541572E+02  0.44558541572E+02  0.00000000000E+00 0. -1.
         23    2    1    2    0    0  0.00000000000E+00  0.00000000000E+00  0.32955083782E+02  0.12207216693E+03  0.11753968007E+03 0.  0.
        -11    1    3    3    0    0 -0.13762067741E+02  0.24348819160E+00 -0.42860951468E+02  0.45016829694E+02  0.00000000000E+00 0. -1.
         11    1    3    3    0    0  0.13762067741E+02 -0.24348819160E+00  0.75816035250E+02  0.77055337232E+02  0.00000000000E+00 0.  1.
<mgrwt>
<rscale>  0 0.11753968E+03</rscale>
<asrwt>0</asrwt>
<pdfrwt beam="1">  1        2 0.11925173E-01 0.11753968E+03</pdfrwt>
<pdfrwt beam="2">  1       -2 0.68551603E-02 0.11753968E+03</pdfrwt>
<totfact> 0.55231294E+04</totfact>
</mgrwt>
</event>
<event>
 5    1  0.6125604E+000  0.9158842E+02  0.7546771E-02  0.1299050E+00
         -3   -1    0    0    0  501 -0.00000000000E+00  0.00000000000E+00  0.82689074368E+02  0.82689074368E+02  0.00000000000E+00 0.  1.
          3   -1    0    0  501    0  0.00000000000E+00 -0.00000000000E+00 -0.25361387730E+02  0.25361387730E+02  0.00000000000E+00 0. -1.
         23    2    1    2    0    0  0.00000000000E+00  0.00000000000E+00  0.57327686639E+02  0.10805046210E+03  0.91588420143E+02 0.  0.
        -11    1    3    3    0    0 -0.11069286503E+02 -0.17505451212E+02 -0.19520093036E+02  0.28460568476E+02  0.00000000000E+00 0. -1.
         11    1    3    3    0    0  0.11069286503E+02  0.17505451212E+02  0.76847779675E+02  0.79589893622E+02  0.00000000000E+00 0.  1.
<mgrwt>
<rscale>  0 0.91588420E+02</rscale>
<asrwt>0</asrwt>
<pdfrwt beam="2">  1        3 0.39017520E-02 0.91588420E+02</pdfrwt>
<pdfrwt beam="1">  1       -3 0.12721396E-01 0.91588420E+02</pdfrwt>
<totfact> 0.33670158E+04</totfact>
</mgrwt>
</event>
<event>
 5    1  0.6125604E+000  0.8976664E+02  0.7546771E-02  0.1303418E+00
          2   -1    0    0  501    0  0.00000000000E+00  0.00000000000E+00  0.12414089009E+03  0.12414089009E+03  0.00000000000E+00 0. -1.
         -2   -1    0    0    0  501 -0.00000000000E+00 -0.00000000000E+00 -0.16227629965E+02  0.16227629965E+02  0.00000000000E+00 0.  1.
         23    2    1    2    0    0  0.00000000000E+00  0.00000000000E+00  0.10791326013E+03  0.14036852006E+03  0.89766640304E+02 0.  0.
        -11    1    3    3    0    0  0.17883542885E+02  0.10635507774E+02  0.11614368084E+03  0.11799275288E+03  0.00000000000E+00 0. -1.
         11    1    3    3    0    0 -0.17883542885E+02 -0.10635507774E+02 -0.82304207153E+01  0.22375767180E+02  0.00000000000E+00 0.  1.
<mgrwt>
<rscale>  0 0.89766640E+02</rscale>
<asrwt>0</asrwt>
<pdfrwt beam="1">  1        2 0.19098598E-01 0.89766640E+02</pdfrwt>
<pdfrwt beam="2">  1       -2 0.24965585E-02 0.89766640E+02</pdfrwt>
<totfact> 0.13699015E+05</totfact>
</mgrwt>
</event>
<event>
 5    1  0.6125604E+000  0.9148966E+02  0.7546771E-02  0.1299284E+00
         -2   -1    0    0    0  501 -0.00000000000E+00  0.00000000000E+00  0.10414086937E+02  0.10414086937E+02  0.00000000000E+00 0.  1.
          2   -1    0    0  501    0  0.00000000000E+00 -0.00000000000E+00 -0.20093834034E+03  0.20093834034E+03  0.00000000000E+00 0. -1.
         23    2    1    2    0    0  0.00000000000E+00  0.00000000000E+00 -0.19052425340E+03  0.21135242727E+03  0.91489657233E+02 0.  0.
        -11    1    3    3    0    0  0.24454137415E+02  0.29169729126E+02 -0.36650895640E+02  0.52840950835E+02  0.00000000000E+00 0.  1.
         11    1    3    3    0    0 -0.24454137415E+02 -0.29169729126E+02 -0.15387335776E+03  0.15851147644E+03  0.00000000000E+00 0. -1.
<mgrwt>
<rscale>  0 0.91489657E+02</rscale>
<asrwt>0</asrwt>
<pdfrwt beam="2">  1        2 0.30913589E-01 0.91489657E+02</pdfrwt>
<pdfrwt beam="1">  1       -2 0.16021673E-02 0.91489657E+02</pdfrwt>
<totfact> 0.15351830E+05</totfact>
</mgrwt>
</event>
<event>
 5    1  0.6125604E+000  0.9311582E+02  0.7546771E-02  0.1295477E+00
         -3   -1    0    0    0  501 -0.00000000000E+00  0.00000000000E+00  0.17318209649E+02  0.17318209649E+02  0.00000000000E+00 0.  1.
          3   -1    0    0  501    0  0.00000000000E+00 -0.00000000000E+00 -0.12516531356E+03  0.12516531356E+03  0.00000000000E+00 0. -1.
         23    2    1    2    0    0  0.00000000000E+00  0.00000000000E+00 -0.10784710391E+03  0.14248352321E+03  0.93115823382E+02 0.  0.
        -11    1    3    3    0    0  0.22110840702E+02 -0.32201023594E+02 -0.15157115457E+02  0.41899085265E+02  0.00000000000E+00 0.  1.
         11    1    3    3    0    0 -0.22110840702E+02  0.32201023594E+02 -0.92689988451E+02  0.10058443794E+03  0.00000000000E+00 0. -1.
<mgrwt>
<rscale>  0 0.93115823E+02</rscale>
<asrwt>0</asrwt>
<pdfrwt beam="2">  1        3 0.19256202E-01 0.93115823E+02</pdfrwt>
<pdfrwt beam="1">  1       -3 0.26643400E-02 0.93115823E+02</pdfrwt>
<totfact> 0.30007511E+04</totfact>
</mgrwt>
</event>
<event>
 5    1  0.6125604E+000  0.9024038E+02  0.7546771E-02  0.1302271E+00
          3   -1    0    0  501    0  0.00000000000E+00  0.00000000000E+00  0.35403254863E+03  0.35403254863E+03  0.00000000000E+00 0. -1.
         -3   -1    0    0    0  501 -0.00000000000E+00 -0.00000000000E+00 -0.57504080453E+01  0.57504080453E+01  0.00000000000E+00 0.  1.
         23    2    1    2    0    0  0.00000000000E+00  0.00000000000E+00  0.34828214058E+03  0.35978295667E+03  0.90240381558E+02 0.  0.
        -11    1    3    3    0    0 -0.42220523288E+02 -0.14395321223E+02  0.14709041005E+03  0.15370551906E+03  0.00000000000E+00 0.  1.
         11    1    3    3    0    0  0.42220523288E+02  0.14395321223E+02  0.20119173053E+03  0.20607743762E+03  0.00000000000E+00 0. -1.
<mgrwt>
<rscale>  0 0.90240382E+02</rscale>
<asrwt>0</asrwt>
<pdfrwt beam="1">  1        3 0.54466529E-01 0.90240382E+02</pdfrwt>
<pdfrwt beam="2">  1       -3 0.88467844E-03 0.90240382E+02</pdfrwt>
<totfact> 0.22500906E+04</totfact>
</mgrwt>
</event>
<event>
 5    1  0.6125604E+000  0.9023319E+02  0.7546771E-02  0.1302288E+00
          2   -1    0    0  501    0  0.00000000000E+00  0.00000000000E+00  0.22035025036E+03  0.22035025036E+03  0.00000000000E+00 0. -1.
         -2   -1    0    0    0  501 -0.00000000000E+00 -0.00000000000E+00 -0.92375977053E+01  0.92375977053E+01  0.00000000000E+00 0.  1.
         23    2    1    2    0    0  0.00000000000E+00  0.00000000000E+00  0.21111265266E+03  0.22958784807E+03  0.90233186070E+02 0.  0.
        -11    1    3    3    0    0  0.26331404439E+02 -0.33804462651E+02  0.69625302872E+02  0.81754310925E+02  0.00000000000E+00 0. -1.
         11    1    3    3    0    0 -0.26331404439E+02  0.33804462651E+02  0.14148734978E+03  0.14783353714E+03  0.00000000000E+00 0.  1.
<mgrwt>
<rscale>  0 0.90233186E+02</rscale>
<asrwt>0</asrwt>
<pdfrwt beam="1">  1        2 0.33900035E-01 0.90233186E+02</pdfrwt>
<pdfrwt beam="2">  1       -2 0.14211690E-02 0.90233186E+02</pdfrwt>
<totfact> 0.16476905E+05</totfact>
</mgrwt>
</event>
<event>
 5    1  0.6125604E+000  0.9302060E+02  0.7546771E-02  0.1295697E+00
         -4   -1    0    0    0  501 -0.00000000000E+00  0.00000000000E+00  0.15394496832E+02  0.15394496832E+02  0.00000000000E+00 0.  1.
          4   -1    0    0  501    0  0.00000000000E+00 -0.00000000000E+00 -0.14051825300E+03  0.14051825300E+03  0.00000000000E+00 0. -1.
         23    2    1    2    0    0  0.00000000000E+00  0.00000000000E+00 -0.12512375616E+03  0.15591274983E+03  0.93020595583E+02 0.  0.
        -11    1    3    3    0    0 -0.15513147977E+02 -0.30017405850E+02 -0.89917301157E+01  0.34965034314E+02  0.00000000000E+00 0.  1.
         11    1    3    3    0    0  0.15513147977E+02  0.30017405850E+02 -0.11613202605E+03  0.12094771551E+03  0.00000000000E+00 0. -1.
<mgrwt>
<rscale>  0 0.93020596E+02</rscale>
<asrwt>0</asrwt>
<pdfrwt beam="2">  1        4 0.21618191E-01 0.93020596E+02</pdfrwt>
<pdfrwt beam="1">  1       -4 0.23683843E-02 0.93020596E+02</pdfrwt>
<totfact> 0.22150639E+04</totfact>
</mgrwt>
</event>
<event>
 5    1  0.6125604E+000  0.9462717E+02  0.7546771E-02  0.1292018E+00
         -2   -1    0    0    0  501 -0.00000000000E+00  0.00000000000E+00  0.12642797993E+02  0.12642797993E+02  0.00000000000E+00 0.  1.
          2   -1    0    0  501    0  0.00000000000E+00 -0.00000000000E+00 -0.17706329751E+03  0.17706329751E+03  0.00000000000E+00 0. -1.
         23    2    1    2    0    0  0.00000000000E+00  0.00000000000E+00 -0.16442049951E+03  0.18970609550E+03  0.94627173739E+02 0.  0.
        -11    1    3    3    0    0 -0.21519153323E+02 -0.21411430424E+02 -0.94545689627E+01  0.31794845287E+02  0.00000000000E+00 0.  1.
         11    1    3    3    0    0  0.21519153323E+02  0.21411430424E+02 -0.15496593055E+03  0.15791125021E+03  0.00000000000E+00 0. -1.
<mgrwt>
<rscale>  0 0.94627174E+02</rscale>
<asrwt>0</asrwt>
<pdfrwt beam="2">  1        2 0.27240506E-01 0.94627174E+02</pdfrwt>
<pdfrwt beam="1">  1       -2 0.19450460E-02 0.94627174E+02</pdfrwt>
<totfact> 0.13390474E+05</totfact>
</mgrwt>
</event>
<event>
 5    1  0.6125604E+000  0.9125918E+02  0.7546771E-02  0.1299831E+00
         -1   -1    0    0    0  501 -0.00000000000E+00  0.00000000000E+00  0.82287586929E+02  0.82287586929E+02  0.00000000000E+00 0.  1.
          1   -1    0    0  501    0  0.00000000000E+00 -0.00000000000E+00 -0.25302230238E+02  0.25302230238E+02  0.00000000000E+00 0. -1.
         23    2    1    2    0    0  0.00000000000E+00  0.00000000000E+00  0.56985356691E+02  0.10758981717E+03  0.91259179707E+02 0.  0.
        -11    1    3    3    0    0 -0.31654480006E+02  0.18302432095E+02  0.60673298831E+02  0.70839496865E+02  0.00000000000E+00 0.  1.
         11    1    3    3    0    0  0.31654480006E+02 -0.18302432095E+02 -0.36879421400E+01  0.36750320301E+02  0.00000000000E+00 0. -1.
<mgrwt>
<rscale>  0 0.91259180E+02</rscale>
<asrwt>0</asrwt>
<pdfrwt beam="2">  1        1 0.38926509E-02 0.91259180E+02</pdfrwt>
<pdfrwt beam="1">  1       -1 0.12659629E-01 0.91259180E+02</pdfrwt>
<totfact> 0.84051135E+04</totfact>
</mgrwt>
</event>
<event>
 5    1  0.6125604E+000  0.9112863E+02  0.7546771E-02  0.1300141E+00
          2   -1    0    0  501    0  0.00000000000E+00  0.00000000000E+00  0.43144718778E+02  0.43144718778E+02  0.00000000000E+00 0. -1.
         -2   -1    0    0    0  501 -0.00000000000E+00 -0.00000000000E+00 -0.48119606498E+02  0.48119606498E+02  0.00000000000E+00 0.  1.
         23    2    1    2    0    0  0.00000000000E+00  0.00000000000E+00 -0.49748877197E+01  0.91264325276E+02  0.91128631946E+02 0.  0.
        -11    1    3    3    0    0 -0.40144447084E+02 -0.20953056310E+02  0.25697970733E+01  0.45356488592E+02  0.00000000000E+00 0.  1.
         11    1    3    3    0    0  0.40144447084E+02  0.20953056310E+02 -0.75446847929E+01  0.45907836684E+02  0.00000000000E+00 0. -1.
<mgrwt>
<rscale>  0 0.91128632E+02</rscale>
<asrwt>0</asrwt>
<pdfrwt beam="1">  1        2 0.66376490E-02 0.91128632E+02</pdfrwt>
<pdfrwt beam="2">  1       -2 0.74030164E-02 0.91128632E+02</pdfrwt>
<totfact> 0.97423813E+04</totfact>
</mgrwt>
</event>
<event>
 5    1  0.6125604E+000  0.9108145E+02  0.7546771E-02  0.1300254E+00
          4   -1    0    0  501    0  0.00000000000E+00  0.00000000000E+00  0.58054345026E+02  0.58054345026E+02  0.00000000000E+00 0. -1.
         -4   -1    0    0    0  501 -0.00000000000E+00 -0.00000000000E+00 -0.35724413616E+02  0.35724413616E+02  0.00000000000E+00 0.  1.
         23    2    1    2    0    0  0.00000000000E+00  0.00000000000E+00  0.22329931410E+02  0.93778758642E+02  0.91081445617E+02 0.  0.
        -11    1    3    3    0    0 -0.24155221569E+02 -0.20918233876E+02  0.44574485264E+02  0.54844616637E+02  0.00000000000E+00 0. -1.
         11    1    3    3    0    0  0.24155221569E+02  0.20918233876E+02 -0.22244553854E+02  0.38934142005E+02  0.00000000000E+00 0.  1.
<mgrwt>
<rscale>  0 0.91081446E+02</rscale>
<asrwt>0</asrwt>
<pdfrwt beam="1">  1        4 0.89314377E-02 0.91081446E+02</pdfrwt>
<pdfrwt beam="2">  1       -4 0.54960636E-02 0.91081446E+02</pdfrwt>
<totfact> 0.26926276E+04</totfact>
</mgrwt>
</event>
<event>
 5    1  0.6125604E+000  0.8387447E+02  0.7546771E-02  0.1318402E+00
         -1   -1    0    0    0  501 -0.00000000000E+00  0.00000000000E+00  0.48014687917E+01  0.48014687917E+01  0.00000000000E+00 0.  1.
          1   -1    0    0  501    0  0.00000000000E+00 -0.00000000000E+00 -0.36629034029E+03  0.36629034029E+03  0.00000000000E+00 0. -1.
         23    2    1    2    0    0  0.00000000000E+00  0.00000000000E+00 -0.36148887150E+03  0.37109180909E+03  0.83874469003E+02 0.  0.
        -11    1    3    3    0    0  0.28444388227E+02 -0.29967115851E+02 -0.14895650938E+03  0.15458057103E+03  0.00000000000E+00 0.  1.
         11    1    3    3    0    0 -0.28444388227E+02  0.29967115851E+02 -0.21253236212E+03  0.21651123806E+03  0.00000000000E+00 0. -1.
<mgrwt>
<rscale>  0 0.83874469E+02</rscale>
<asrwt>0</asrwt>
<pdfrwt beam="2">  1        1 0.56352382E-01 0.83874469E+02</pdfrwt>
<pdfrwt beam="1">  1       -1 0.73868722E-03 0.83874469E+02</pdfrwt>
<totfact> 0.16573712E+05</totfact>
</mgrwt>
</event>
<event>
 5    1  0.6125604E+000  0.9116767E+02  0.7546771E-02  0.1300048E+00
         -1   -1    0    0    0  501 -0.00000000000E+00  0.00000000000E+00  0.12684728219E+02  0.12684728219E+02  0.00000000000E+00 0.  1.
          1   -1    0    0  501    0  0.00000000000E+00 -0.00000000000E+00 -0.16381006414E+03  0.16381006414E+03  0.00000000000E+00 0. -1.
         23    2    1    2    0    0  0.00000000000E+00  0.00000000000E+00 -0.15112533592E+03  0.17649479236E+03  0.91167672851E+02 0.  0.
        -11    1    3    3    0    0  0.27570511539E+02  0.30347554258E+02 -0.37000152204E+02  0.55227877192E+02  0.00000000000E+00 0.  1.
         11    1    3    3    0    0 -0.27570511539E+02 -0.30347554258E+02 -0.11412518372E+03  0.12126691517E+03  0.00000000000E+00 0. -1.
<mgrwt>
<rscale>  0 0.91167673E+02</rscale>
<asrwt>0</asrwt>
<pdfrwt beam="2">  1        1 0.25201548E-01 0.91167673E+02</pdfrwt>
<pdfrwt beam="1">  1       -1 0.19514967E-02 0.91167673E+02</pdfrwt>
<totfact> 0.11401033E+05</totfact>
</mgrwt>
</event>
<event>
 5    1  0.6125604E+000  0.9541450E+02  0.7546771E-02  0.1290245E+00
         -2   -1    0    0    0  501 -0.00000000000E+00  0.00000000000E+00  0.63120574179E+02  0.63120574179E+02  0.00000000000E+00 0. -1.
          2   -1    0    0  501    0  0.00000000000E+00 -0.00000000000E+00 -0.36057686776E+02  0.36057686776E+02  0.00000000000E+00 0.  1.
         23    2    1    2    0    0  0.00000000000E+00  0.00000000000E+00  0.27062887402E+02  0.99178260955E+02  0.95414503989E+02 0.  0.
        -11    1    3    3    0    0 -0.31821285166E+02  0.11262505164E+02  0.48573949809E+02  0.59151219870E+02  0.00000000000E+00 0.  1.
         11    1    3    3    0    0  0.31821285166E+02 -0.11262505164E+02 -0.21511062406E+02  0.40027041085E+02  0.00000000000E+00 0. -1.
<mgrwt>
<rscale>  0 0.95414504E+02</rscale>
<asrwt>0</asrwt>
<pdfrwt beam="2">  1        2 0.55473364E-02 0.95414504E+02</pdfrwt>
<pdfrwt beam="1">  1       -2 0.97108576E-02 0.95414504E+02</pdfrwt>
<totfact> 0.81250542E+04</totfact>
</mgrwt>
</event>
<event>
 5    1  0.6125604E+000  0.9098074E+02  0.7546771E-02  0.1300494E+00
          3   -1    0    0  501    0  0.00000000000E+00  0.00000000000E+00  0.77778227038E+01  0.77778227038E+01  0.00000000000E+00 0. -1.
         -3   -1    0    0    0  501 -0.00000000000E+00 -0.00000000000E+00 -0.26606078696E+03  0.26606078696E+03  0.00000000000E+00 0.  1.
         23    2    1    2    0    0  0.00000000000E+00  0.00000000000E+00 -0.25828296426E+03  0.27383860967E+03  0.90980737069E+02 0.  0.
        -11    1    3    3    0    0  0.31883982384E+02 -0.19472597977E+02 -0.51024166862E+02  0.63239513033E+02  0.00000000000E+00 0. -1.
         11    1    3    3    0    0 -0.31883982384E+02  0.19472597977E+02 -0.20725879740E+03  0.21059909663E+03  0.00000000000E+00 0.  1.
<mgrwt>
<rscale>  0 0.90980737E+02</rscale>
<asrwt>0</asrwt>
<pdfrwt beam="1">  1        3 0.11965884E-02 0.90980737E+02</pdfrwt>
<pdfrwt beam="2">  1       -3 0.40932419E-01 0.90980737E+02</pdfrwt>
<totfact> 0.25219634E+04</totfact>
</mgrwt>
</event>
<event>
 5    1  0.6125604E+000  0.8864496E+02  0.7546771E-02  0.1306167E+00
         -2   -1    0    0    0  501 -0.00000000000E+00  0.00000000000E+00  0.70989677342E+02  0.70989677342E+02  0.00000000000E+00 0.  1.
          2   -1    0    0  501    0  0.00000000000E+00 -0.00000000000E+00 -0.27672788791E+02  0.27672788791E+02  0.00000000000E+00 0. -1.
         23    2    1    2    0    0  0.00000000000E+00  0.00000000000E+00  0.43316888551E+02  0.98662466133E+02  0.88644962574E+02 0.  0.
        -11    1    3    3    0    0 -0.30790715984E+00 -0.14044276588E+02  0.68446403372E+02  0.69873075260E+02  0.00000000000E+00 0.  1.
         11    1    3    3    0    0  0.30790715984E+00  0.14044276588E+02 -0.25129514821E+02  0.28789390873E+02  0.00000000000E+00 0. -1.
<mgrwt>
<rscale>  0 0.88644963E+02</rscale>
<asrwt>0</asrwt>
<pdfrwt beam="2">  1        2 0.42573521E-02 0.88644963E+02</pdfrwt>
<pdfrwt beam="1">  1       -2 0.10921489E-01 0.88644963E+02</pdfrwt>
<totfact> 0.94134334E+04</totfact>
</mgrwt>
</event>
<event>
 5    1  0.6125604E+000  0.1040018E+03  0.7546771E-02  0.1272099E+00
         -1   -1    0    0    0  501 -0.00000000000E+00  0.00000000000E+00  0.18969487025E+02  0.18969487025E+02  0.00000000000E+00 0.  1.
          1   -1    0    0  501    0  0.00000000000E+00 -0.00000000000E+00 -0.14254952955E+03  0.14254952955E+03  0.00000000000E+00 0. -1.
         23    2    1    2    0    0  0.00000000000E+00  0.00000000000E+00 -0.12358004253E+03  0.16151901658E+03  0.10400175866E+03 0.  0.
        -11    1    3    3    0    0  0.65119325505E+01  0.28940330560E+02  0.45403568279E+01  0.30009379177E+02  0.00000000000E+00 0.  1.
         11    1    3    3    0    0 -0.65119325505E+01 -0.28940330560E+02 -0.12812039936E+03  0.13150963740E+03  0.00000000000E+00 0. -1.
<mgrwt>
<rscale>  0 0.10400176E+03</rscale>
<asrwt>0</asrwt>
<pdfrwt beam="2">  1        1 0.21930696E-01 0.10400176E+03</pdfrwt>
<pdfrwt beam="1">  1       -1 0.29183827E-02 0.10400176E+03</pdfrwt>
<totfact> 0.77627682E+04</totfact>
</mgrwt>
</event>
<event>
 5    1  0.6125604E+000  0.9176357E+02  0.7546771E-02  0.1298636E+00
         -3   -1    0    0    0  501 -0.00000000000E+00  0.00000000000E+00  0.78473731005E+02  0.78473731005E+02  0.00000000000E+00 0.  1.
          3   -1    0    0  501    0  0.00000000000E+00 -0.00000000000E+00 -0.26826026321E+02  0.26826026321E+02  0.00000000000E+00 0. -1.
         23    2    1    2    0    0  0.00000000000E+00  0.00000000000E+00  0.51647704684E+02  0.10529975733E+03  0.91763573894E+02 0.  0.
        -11    1    3    3    0    0 -0.26320735328E+01 -0.21666566350E+02 -0.20487449928E+02  0.29934988108E+02  0.00000000000E+00 0. -1.
         11    1    3    3    0    0  0.26320735328E+01  0.21666566350E+02  0.72135154612E+02  0.75364769218E+02  0.00000000000E+00 0.  1.
<mgrwt>
<rscale>  0 0.91763574E+02</rscale>
<asrwt>0</asrwt>
<pdfrwt beam="2">  1        3 0.41270810E-02 0.91763574E+02</pdfrwt>
<pdfrwt beam="1">  1       -3 0.12072882E-01 0.91763574E+02</pdfrwt>
<totfact> 0.33689964E+04</totfact>
</mgrwt>
</event>
<event>
 5    1  0.6125604E+000  0.8864844E+02  0.7546771E-02  0.1306158E+00
         -3   -1    0    0    0  501 -0.00000000000E+00  0.00000000000E+00  0.21762454852E+03  0.21762454852E+03  0.00000000000E+00 0.  1.
          3   -1    0    0  501    0  0.00000000000E+00 -0.00000000000E+00 -0.90276420013E+01  0.90276420013E+01  0.00000000000E+00 0. -1.
         23    2    1    2    0    0  0.00000000000E+00  0.00000000000E+00  0.20859690652E+03  0.22665219053E+03  0.88648440816E+02 0.  0.
        -11    1    3    3    0    0 -0.43208852963E+02  0.82777273203E+01  0.11809326162E+03  0.12602199881E+03  0.00000000000E+00 0.  1.
         11    1    3    3    0    0  0.43208852963E+02 -0.82777273203E+01  0.90503644898E+02  0.10063019171E+03  0.00000000000E+00 0. -1.
<mgrwt>
<rscale>  0 0.88648441E+02</rscale>
<asrwt>0</asrwt>
<pdfrwt beam="2">  1        3 0.13888682E-02 0.88648441E+02</pdfrwt>
<pdfrwt beam="1">  1       -3 0.33480696E-01 0.88648441E+02</pdfrwt>
<totfact> 0.29306054E+04</totfact>
</mgrwt>
</event>
<event>
 5    1  0.6125604E+000  0.9343515E+02  0.7546771E-02  0.1294740E+00
          3   -1    0    0  501    0  0.00000000000E+00  0.00000000000E+00  0.23602231877E+02  0.23602231877E+02  0.00000000000E+00 0.  1.
         -3   -1    0    0    0  501 -0.00000000000E+00 -0.00000000000E+00 -0.92471426044E+02  0.92471426044E+02  0.00000000000E+00 0. -1.
         23    2    1    2    0    0  0.00000000000E+00  0.00000000000E+00 -0.68869194167E+02  0.11607365792E+03  0.93435154830E+02 0.  0.
        -11    1    3    3    0    0  0.20989452640E+02  0.11312203211E+02  0.15474111701E+02  0.28424834151E+02  0.00000000000E+00 0.  1.
         11    1    3    3    0    0 -0.20989452640E+02 -0.11312203211E+02 -0.84343305868E+02  0.87648823770E+02  0.00000000000E+00 0. -1.
<mgrwt>
<rscale>  0 0.93435155E+02</rscale>
<asrwt>0</asrwt>
<pdfrwt beam="1">  1        3 0.36311127E-02 0.93435155E+02</pdfrwt>
<pdfrwt beam="2">  1       -3 0.14226373E-01 0.93435155E+02</pdfrwt>
<totfact> 0.31356846E+04</totfact>
</mgrwt>
</event>
<event>
 5    1  0.6125604E+000  0.9079887E+02  0.7546771E-02  0.1300929E+00
          2   -1    0    0  501    0  0.00000000000E+00  0.00000000000E+00  0.28660827481E+02  0.28660827481E+02  0.00000000000E+00 0. -1.
         -2   -1    0    0    0  501 -0.00000000000E+00 -0.00000000000E+00 -0.71913792351E+02  0.71913792351E+02  0.00000000000E+00 0.  1.
         23    2    1    2    0    0  0.00000000000E+00  0.00000000000E+00 -0.43252964870E+02  0.10057461983E+03  0.90798872153E+02 0.  0.
        -11    1    3    3    0    0 -0.20837581586E+02  0.17754340361E+02 -0.61742989956E+02  0.67539752862E+02  0.00000000000E+00 0.  1.
         11    1    3    3    0    0  0.20837581586E+02 -0.17754340361E+02  0.18490025086E+02  0.33034866969E+02  0.00000000000E+00 0. -1.
<mgrwt>
<rscale>  0 0.90798872E+02</rscale>
<asrwt>0</asrwt>
<pdfrwt beam="1">  1        2 0.44093582E-02 0.90798872E+02</pdfrwt>
<pdfrwt beam="2">  1       -2 0.11063660E-01 0.90798872E+02</pdfrwt>
<totfact> 0.88476904E+04</totfact>
</mgrwt>
</event>
<event>
 5    1  0.6125604E+000  0.9093583E+02  0.7546771E-02  0.1300601E+00
          2   -1    0    0  501    0  0.00000000000E+00  0.00000000000E+00  0.19399171455E+02  0.19399171455E+02  0.00000000000E+00 0.  1.
         -2   -1    0    0    0  501 -0.00000000000E+00 -0.00000000000E+00 -0.10656801266E+03  0.10656801266E+03  0.00000000000E+00 0. -1.
         23    2    1    2    0    0  0.00000000000E+00  0.00000000000E+00 -0.87168841207E+02  0.12596718412E+03  0.90935826808E+02 0.  0.
        -11    1    3    3    0    0 -0.36554696841E+02  0.26220207642E+02 -0.34439163792E+02  0.56655107030E+02  0.00000000000E+00 0.  1.
         11    1    3    3    0    0  0.36554696841E+02 -0.26220207642E+02 -0.52729677416E+02  0.69312077088E+02  0.00000000000E+00 0. -1.
<mgrwt>
<rscale>  0 0.90935827E+02</rscale>
<asrwt>0</asrwt>
<pdfrwt beam="1">  1        2 0.29844880E-02 0.90935827E+02</pdfrwt>
<pdfrwt beam="2">  1       -2 0.16395079E-01 0.90935827E+02</pdfrwt>
<totfact> 0.78805579E+04</totfact>
</mgrwt>
</event>
<event>
 5    1  0.6125604E+000  0.9184362E+02  0.7546771E-02  0.1298448E+00
         -2   -1    0    0    0  501 -0.00000000000E+00  0.00000000000E+00  0.31362995868E+02  0.31362995868E+02  0.00000000000E+00 0.  1.
          2   -1    0    0  501    0  0.00000000000E+00 -0.00000000000E+00 -0.67238878400E+02  0.67238878400E+02  0.00000000000E+00 0. -1.
         23    2    1    2    0    0  0.00000000000E+00  0.00000000000E+00 -0.35875882532E+02  0.98601874268E+02  0.91843620692E+02 0.  0.
        -11    1    3    3    0    0  0.34624786636E+02  0.27429106717E+02 -0.44611038047E+01  0.44397445783E+02  0.00000000000E+00 0.  1.
         11    1    3    3    0    0 -0.34624786636E+02 -0.27429106717E+02 -0.31414778727E+02  0.54204428485E+02  0.00000000000E+00 0. -1.
<mgrwt>
<rscale>  0 0.91843621E+02</rscale>
<asrwt>0</asrwt>
<pdfrwt beam="2">  1        2 0.10344443E-01 0.91843621E+02</pdfrwt>
<pdfrwt beam="1">  1       -2 0.48250764E-02 0.91843621E+02</pdfrwt>
<totfact> 0.10718310E+05</totfact>
</mgrwt>
</event>
<event>
 5    1  0.6125604E+000  0.9619974E+02  0.7546771E-02  0.1288497E+00
          1   -1    0    0  501    0  0.00000000000E+00  0.00000000000E+00  0.20554715363E+02  0.20554715363E+02  0.00000000000E+00 0. -1.
         -1   -1    0    0    0  501 -0.00000000000E+00 -0.00000000000E+00 -0.11255798389E+03  0.11255798389E+03  0.00000000000E+00 0.  1.
         23    2    1    2    0    0  0.00000000000E+00  0.00000000000E+00 -0.92003268525E+02  0.13311269925E+03  0.96199736395E+02 0.  0.
        -11    1    3    3    0    0  0.36726189104E+02 -0.30530630863E+02 -0.53909995481E+02  0.72022357639E+02  0.00000000000E+00 0.  1.
         11    1    3    3    0    0 -0.36726189104E+02  0.30530630863E+02 -0.38093273044E+02  0.61090341612E+02  0.00000000000E+00 0. -1.
<mgrwt>
<rscale>  0 0.96199736E+02</rscale>
<asrwt>0</asrwt>
<pdfrwt beam="1">  1        1 0.31622639E-02 0.96199736E+02</pdfrwt>
<pdfrwt beam="2">  1       -1 0.17316613E-01 0.96199736E+02</pdfrwt>
<totfact> 0.69244821E+04</totfact>
</mgrwt>
</event>
<event>
 5    1  0.6125604E+000  0.8840425E+02  0.7546771E-02  0.1306763E+00
          1   -1    0    0  501    0  0.00000000000E+00  0.00000000000E+00  0.91406103780E+02  0.91406103780E+02  0.00000000000E+00 0. -1.
         -1   -1    0    0    0  501 -0.00000000000E+00 -0.00000000000E+00 -0.21375243973E+02  0.21375243973E+02  0.00000000000E+00 0.  1.
         23    2    1    2    0    0  0.00000000000E+00  0.00000000000E+00  0.70030859807E+02  0.11278134775E+03  0.88404248063E+02 0.  0.
        -11    1    3    3    0    0  0.14059071165E+02 -0.25941013267E+02 -0.69725819054E+01  0.30318485282E+02  0.00000000000E+00 0.  1.
         11    1    3    3    0    0 -0.14059071165E+02  0.25941013267E+02  0.77003441713E+02  0.82462862471E+02  0.00000000000E+00 0. -1.
<mgrwt>
<rscale>  0 0.88404248E+02</rscale>
<asrwt>0</asrwt>
<pdfrwt beam="1">  1        1 0.14062477E-01 0.88404248E+02</pdfrwt>
<pdfrwt beam="2">  1       -1 0.32884991E-02 0.88404248E+02</pdfrwt>
<totfact> 0.11195648E+05</totfact>
</mgrwt>
</event>
<event>
 5    1  0.6125604E+000  0.9145004E+02  0.7546771E-02  0.1299378E+00
         -2   -1    0    0    0  501 -0.00000000000E+00  0.00000000000E+00  0.11351857116E+02  0.11351857116E+02  0.00000000000E+00 0.  1.
          2   -1    0    0  501    0  0.00000000000E+00 -0.00000000000E+00 -0.18417933955E+03  0.18417933955E+03  0.00000000000E+00 0. -1.
         23    2    1    2    0    0  0.00000000000E+00  0.00000000000E+00 -0.17282748243E+03  0.19553119666E+03  0.91450042017E+02 0.  0.
        -11    1    3    3    0    0 -0.35111604408E+02  0.27776330915E+02 -0.10629115786E+03  0.11533498846E+03  0.00000000000E+00 0. -1.
         11    1    3    3    0    0  0.35111604408E+02 -0.27776330915E+02 -0.66536324572E+02  0.80196208206E+02  0.00000000000E+00 0.  1.
<mgrwt>
<rscale>  0 0.91450042E+02</rscale>
<asrwt>0</asrwt>
<pdfrwt beam="2">  1        2 0.28335285E-01 0.91450042E+02</pdfrwt>
<pdfrwt beam="1">  1       -2 0.17464394E-02 0.91450042E+02</pdfrwt>
<totfact> 0.14895958E+05</totfact>
</mgrwt>
</event>
