<event>
 4    1  0.3935877E+000  0.1790482E+03  0.7546771E-02  0.1168727E+00
         21   -1    0    0  503  502  0.00000000000E+00  0.00000000000E+00  0.33548505550E+03  0.33548505550E+03  0.00000000000E+00 0. -1.
         21   -1    0    0  501  503 -0.00000000000E+00 -0.00000000000E+00 -0.10789603087E+03  0.10789603087E+03  0.00000000000E+00 0. -1.
          6    1    1    2  501    0 -0.46012295814E+02  0.34803484466E+01  0.38827658153E+02  0.18320980113E+03  0.17300000000E+03 0. -1.
         -6    1    1    2    0  502  0.46012295814E+02 -0.34803484466E+01  0.18876136648E+03  0.26017128524E+03  0.17300000000E+03 0. -1.
<mgrwt>
<rscale>  2 0.17904816E+03</rscale>
<asrwt>0</asrwt>
<pdfrwt beam="1">  1       21 0.51613085E-01 0.17904816E+03</pdfrwt>
<pdfrwt beam="2">  1       21 0.16599389E-01 0.17904816E+03</pdfrwt>
<totfact> 0.11679494E+05</totfact>
</mgrwt>
</event>
<event>
 4    1  0.3935877E+000  0.1855504E+03  0.7546771E-02  0.1162537E+00
         21   -1    0    0  501  502  0.00000000000E+00  0.00000000000E+00  0.15437702631E+04  0.15437702631E+04  0.00000000000E+00 0. -1.
         21   -1    0    0  502  503 -0.00000000000E+00 -0.00000000000E+00 -0.34537478030E+02  0.34537478030E+02  0.00000000000E+00 0. -1.
          6    1    1    2  501    0 -0.49403048976E+02  0.45379324562E+02  0.12243259323E+04  0.12383064777E+04  0.17300000000E+03 0. -1.
         -6    1    1    2    0  503  0.49403048976E+02 -0.45379324562E+02  0.28490685280E+03  0.34000126341E+03  0.17300000000E+03 0. -1.
<mgrwt>
<rscale>  2 0.18555038E+03</rscale>
<asrwt>0</asrwt>
<pdfrwt beam="1">  1       21 0.23750306E+00 0.18555038E+03</pdfrwt>
<pdfrwt beam="2">  1       21 0.53134593E-02 0.18555038E+03</pdfrwt>
<totfact> 0.19244125E+04</totfact>
</mgrwt>
</event>
<event>
 4    1  0.3935877E+000  0.1962249E+03  0.7546771E-02  0.1152964E+00
         21   -1    0    0  501  502  0.00000000000E+00  0.00000000000E+00  0.34211352792E+03  0.34211352792E+03  0.00000000000E+00 0.  1.
         21   -1    0    0  502  503 -0.00000000000E+00 -0.00000000000E+00 -0.12245777740E+03  0.12245777740E+03  0.00000000000E+00 0. -1.
          6    1    1    2  501    0  0.66425878491E+02  0.64519796415E+02  0.17590644422E+03  0.26352851569E+03  0.17300000000E+03 0.  1.
         -6    1    1    2    0  503 -0.66425878491E+02 -0.64519796415E+02  0.43749306301E+02  0.20104278964E+03  0.17300000000E+03 0. -1.
<mgrwt>
<rscale>  2 0.19622487E+03</rscale>
<asrwt>0</asrwt>
<pdfrwt beam="1">  1       21 0.52632850E-01 0.19622487E+03</pdfrwt>
<pdfrwt beam="2">  1       21 0.18839658E-01 0.19622487E+03</pdfrwt>
<totfact> 0.88171573E+04</totfact>
</mgrwt>
</event>
<event>
 4    1  0.3935877E+000  0.1801544E+03  0.7546771E-02  0.1167654E+00
         21   -1    0    0  501  502  0.00000000000E+00  0.00000000000E+00  0.60963922184E+03  0.60963922184E+03  0.00000000000E+00 0. -1.
         21   -1    0    0  502  503 -0.00000000000E+00 -0.00000000000E+00 -0.18669409967E+03  0.18669409967E+03  0.00000000000E+00 0. -1.
          6    1    1    2  501    0  0.17353194545E+02 -0.47175032607E+02  0.54811569444E+03  0.57696311108E+03  0.17300000000E+03 0. -1.
         -6    1    1    2    0  503 -0.17353194545E+02  0.47175032607E+02 -0.12517057227E+03  0.21937021043E+03  0.17300000000E+03 0. -1.
<mgrwt>
<rscale>  2 0.18015443E+03</rscale>
<asrwt>0</asrwt>
<pdfrwt beam="1">  1       21 0.93790648E-01 0.18015443E+03</pdfrwt>
<pdfrwt beam="2">  1       21 0.28722170E-01 0.18015443E+03</pdfrwt>
<totfact> 0.11165927E+04</totfact>
</mgrwt>
</event>
<event>
 4    1  0.3935877E+000  0.2114944E+03  0.7546771E-02  0.1140388E+00
         21   -1    0    0  501  502  0.00000000000E+00  0.00000000000E+00  0.59050909270E+02  0.59050909270E+02  0.00000000000E+00 0. -1.
         21   -1    0    0  502  503 -0.00000000000E+00 -0.00000000000E+00 -0.94011938158E+03  0.94011938158E+03  0.00000000000E+00 0. -1.
          6    1    1    2  501    0 -0.41338933195E+02 -0.11442015217E+03 -0.22033525218E+03  0.30541365715E+03  0.17300000000E+03 0. -1.
         -6    1    1    2    0  503  0.41338933195E+02  0.11442015217E+03 -0.66073322013E+03  0.69375663370E+03  0.17300000000E+03 0. -1.
<mgrwt>
<rscale>  2 0.21149439E+03</rscale>
<asrwt>0</asrwt>
<pdfrwt beam="1">  1       21 0.90847551E-02 0.21149439E+03</pdfrwt>
<pdfrwt beam="2">  1       21 0.14463375E+00 0.21149439E+03</pdfrwt>
<totfact> 0.31237918E+04</totfact>
</mgrwt>
</event>
<event>
 4    1  0.3935877E+000  0.1734110E+03  0.7546771E-02  0.1174337E+00
         21   -1    0    0  501  502  0.00000000000E+00  0.00000000000E+00  0.55598153082E+03  0.55598153082E+03  0.00000000000E+00 0. -1.
         21   -1    0    0  502  503 -0.00000000000E+00 -0.00000000000E+00 -0.67240157139E+02  0.67240157139E+02  0.00000000000E+00 0. -1.
          6    1    1    2  501    0  0.31383778404E+00  0.11927896277E+02  0.38219099058E+03  0.41969194236E+03  0.17300000000E+03 0. -1.
         -6    1    1    2    0  503 -0.31383778404E+00 -0.11927896277E+02  0.10655038310E+03  0.20352974560E+03  0.17300000000E+03 0. -1.
<mgrwt>
<rscale>  2 0.17341100E+03</rscale>
<asrwt>0</asrwt>
<pdfrwt beam="1">  1       21 0.85535617E-01 0.17341100E+03</pdfrwt>
<pdfrwt beam="2">  1       21 0.10344640E-01 0.17341100E+03</pdfrwt>
<totfact> 0.90994622E+04</totfact>
</mgrwt>
</event>
<event>
 4    1  0.3935877E+000  0.1948989E+03  0.7546771E-02  0.1154116E+00
         21   -1    0    0  503  502  0.00000000000E+00  0.00000000000E+00  0.14673973826E+03  0.14673973826E+03  0.00000000000E+00 0. -1.
         21   -1    0    0  501  503 -0.00000000000E+00 -0.00000000000E+00 -0.46458380828E+03  0.46458380828E+03  0.00000000000E+00 0. -1.
          6    1    1    2  501    0  0.79734713473E+02 -0.41218516781E+02 -0.36232040689E+03  0.41141422910E+03  0.17300000000E+03 0. -1.
         -6    1    1    2    0  502 -0.79734713473E+02  0.41218516781E+02  0.44476336861E+02  0.19990931744E+03  0.17300000000E+03 0. -1.
<mgrwt>
<rscale>  2 0.19489892E+03</rscale>
<asrwt>0</asrwt>
<pdfrwt beam="1">  1       21 0.22575345E-01 0.19489892E+03</pdfrwt>
<pdfrwt beam="2">  1       21 0.71474431E-01 0.19489892E+03</pdfrwt>
<totfact> 0.32494521E+04</totfact>
</mgrwt>
</event>
<event>
 4    1  0.3935877E+000  0.1966357E+03  0.7546771E-02  0.1152609E+00
         21   -1    0    0  501  502  0.00000000000E+00  0.00000000000E+00  0.79351224799E+03  0.79351224799E+03  0.00000000000E+00 0. -1.
         21   -1    0    0  502  503 -0.00000000000E+00 -0.00000000000E+00 -0.22328416210E+03  0.22328416210E+03  0.00000000000E+00 0. -1.
          6    1    1    2  501    0  0.76676842188E+02  0.53453454696E+02  0.73462850436E+03  0.76048974310E+03  0.17300000000E+03 0. -1.
         -6    1    1    2    0  503 -0.76676842188E+02 -0.53453454696E+02 -0.16440041847E+03  0.25630666698E+03  0.17300000000E+03 0. -1.
<mgrwt>
<rscale>  2 0.19663573E+03</rscale>
<asrwt>0</asrwt>
<pdfrwt beam="1">  1       21 0.12207881E+00 0.19663573E+03</pdfrwt>
<pdfrwt beam="2">  1       21 0.34351410E-01 0.19663573E+03</pdfrwt>
<totfact> 0.41189409E+03</totfact>
</mgrwt>
</event>
<event>
 4    1  0.3935877E+000  0.2116799E+03  0.7546771E-02  0.1140243E+00
         21   -1    0    0  501  502  0.00000000000E+00  0.00000000000E+00  0.36321745292E+03  0.36321745292E+03  0.00000000000E+00 0. -1.
         21   -1    0    0  502  503 -0.00000000000E+00 -0.00000000000E+00 -0.12839457915E+03  0.12839457915E+03  0.00000000000E+00 0. -1.
          6    1    1    2  501    0  0.91556128389E+02  0.80603171939E+02  0.16606067967E+03  0.26904376095E+03  0.17300000000E+03 0. -1.
         -6    1    1    2    0  503 -0.91556128389E+02 -0.80603171939E+02  0.68762194097E+02  0.22256827112E+03  0.17300000000E+03 0. -1.
<mgrwt>
<rscale>  2 0.21167994E+03</rscale>
<asrwt>0</asrwt>
<pdfrwt beam="1">  1       21 0.55879608E-01 0.21167994E+03</pdfrwt>
<pdfrwt beam="2">  1       21 0.19753012E-01 0.21167994E+03</pdfrwt>
<totfact> 0.70656320E+04</totfact>
</mgrwt>
</event>
<event>
 4    1  0.3935877E+000  0.2341193E+03  0.7546771E-02  0.1123774E+00
         21   -1    0    0  503  502  0.00000000000E+00  0.00000000000E+00  0.46909600332E+02  0.46909600332E+02  0.00000000000E+00 0. -1.
         21   -1    0    0  501  503 -0.00000000000E+00 -0.00000000000E+00 -0.11885522457E+04  0.11885522457E+04  0.00000000000E+00 0.  1.
          6    1    1    2  501    0 -0.20582860158E+02  0.15639436796E+03 -0.65114368972E+03  0.69195372470E+03  0.17300000000E+03 0.  1.
         -6    1    1    2    0  502  0.20582860158E+02 -0.15639436796E+03 -0.49049895565E+03  0.54350812134E+03  0.17300000000E+03 0. -1.
<mgrwt>
<rscale>  2 0.23411931E+03</rscale>
<asrwt>0</asrwt>
<pdfrwt beam="1">  1       21 0.72168620E-02 0.23411931E+03</pdfrwt>
<pdfrwt beam="2">  1       21 0.18285418E+00 0.23411931E+03</pdfrwt>
<totfact> 0.24296382E+04</totfact>
</mgrwt>
</event>
<event>
 4    1  0.3935877E+000  0.2637261E+03  0.7546771E-02  0.1104925E+00
         21   -1    0    0  503  502  0.00000000000E+00  0.00000000000E+00  0.48696085833E+03  0.48696085833E+03  0.00000000000E+00 0. -1.
         21   -1    0    0  501  503 -0.00000000000E+00 -0.00000000000E+00 -0.20539007534E+03  0.20539007534E+03  0.00000000000E+00 0. -1.
          6    1    1    2  501    0  0.17720905226E+03 -0.90661091032E+02 -0.50271760985E+02  0.26847482486E+03  0.17300000000E+03 0. -1.
         -6    1    1    2    0  502 -0.17720905226E+03  0.90661091032E+02  0.33184254397E+03  0.42387610881E+03  0.17300000000E+03 0. -1.
<mgrwt>
<rscale>  2 0.26372615E+03</rscale>
<asrwt>0</asrwt>
<pdfrwt beam="1">  1       21 0.74917054E-01 0.26372615E+03</pdfrwt>
<pdfrwt beam="2">  1       21 0.31598473E-01 0.26372615E+03</pdfrwt>
<totfact> 0.14739563E+04</totfact>
</mgrwt>
</event>
<event>
 4    1  0.3935877E+000  0.2088116E+03  0.7546771E-02  0.1142511E+00
         21   -1    0    0  503  502  0.00000000000E+00  0.00000000000E+00  0.71668918533E+02  0.71668918533E+02  0.00000000000E+00 0. -1.
         21   -1    0    0  501  503 -0.00000000000E+00 -0.00000000000E+00 -0.10506868399E+04  0.10506868399E+04  0.00000000000E+00 0.  1.
          6    1    1    2  501    0  0.11506750559E+03 -0.20803016664E+02 -0.85361112537E+03  0.87877997798E+03  0.17300000000E+03 0.  1.
         -6    1    1    2    0  502 -0.11506750559E+03  0.20803016664E+02 -0.12540679602E+03  0.24357578047E+03  0.17300000000E+03 0. -1.
<mgrwt>
<rscale>  2 0.20881163E+03</rscale>
<asrwt>0</asrwt>
<pdfrwt beam="1">  1       21 0.11025988E-01 0.20881163E+03</pdfrwt>
<pdfrwt beam="2">  1       21 0.16164413E+00 0.20881163E+03</pdfrwt>
<totfact> 0.16519815E+04</totfact>
</mgrwt>
</event>
<event>
 4    1  0.3935877E+000  0.1904679E+03  0.7546771E-02  0.1158040E+00
         21   -1    0    0  503  502  0.00000000000E+00  0.00000000000E+00  0.12965082195E+04  0.12965082195E+04  0.00000000000E+00 0. -1.
         21   -1    0    0  501  503 -0.00000000000E+00 -0.00000000000E+00 -0.46895457722E+02  0.46895457722E+02  0.00000000000E+00 0. -1.
          6    1    1    2  501    0  0.80346495487E+01 -0.79274670573E+02  0.19822267282E+03  0.27490044927E+03  0.17300000000E+03 0. -1.
         -6    1    1    2    0  502 -0.80346495487E+01  0.79274670573E+02  0.10513900890E+04  0.10685032280E+04  0.17300000000E+03 0. -1.
<mgrwt>
<rscale>  2 0.19046792E+03</rscale>
<asrwt>0</asrwt>
<pdfrwt beam="1">  1       21 0.19946278E+00 0.19046792E+03</pdfrwt>
<pdfrwt beam="2">  1       21 0.72146868E-02 0.19046792E+03</pdfrwt>
<totfact> 0.19463322E+04</totfact>
</mgrwt>
</event>
<event>
 4    1  0.3935877E+000  0.2033837E+03  0.7546771E-02  0.1146915E+00
         21   -1    0    0  501  502  0.00000000000E+00  0.00000000000E+00  0.66360744502E+03  0.66360744502E+03  0.00000000000E+00 0.  1.
         21   -1    0    0  502  503 -0.00000000000E+00 -0.00000000000E+00 -0.10132288864E+03  0.10132288864E+03  0.00000000000E+00 0.  1.
          6    1    1    2  501    0 -0.45913521051E+02 -0.96581041550E+02  0.51839518089E+03  0.55686489616E+03  0.17300000000E+03 0.  1.
         -6    1    1    2    0  503  0.45913521051E+02  0.96581041550E+02  0.43889375484E+02  0.20806543750E+03  0.17300000000E+03 0.  1.
<mgrwt>
<rscale>  2 0.20338375E+03</rscale>
<asrwt>0</asrwt>
<pdfrwt beam="1">  1       21 0.10209345E+00 0.20338375E+03</pdfrwt>
<pdfrwt beam="2">  1       21 0.15588137E-01 0.20338375E+03</pdfrwt>
<totfact> 0.28399585E+04</totfact>
</mgrwt>
</event>
<event>
 4    1  0.3935877E+000  0.1807916E+03  0.7546771E-02  0.1167039E+00
         21   -1    0    0  503  502  0.00000000000E+00  0.00000000000E+00  0.10585797484E+03  0.10585797484E+03  0.00000000000E+00 0.  1.
         21   -1    0    0  501  503 -0.00000000000E+00 -0.00000000000E+00 -0.39066487590E+03  0.39066487590E+03  0.00000000000E+00 0.  1.
          6    1    1    2  501    0  0.40829517928E+02  0.33008255013E+02 -0.25607185021E+03  0.31346193852E+03  0.17300000000E+03 0.  1.
         -6    1    1    2    0  502 -0.40829517928E+02 -0.33008255013E+02 -0.28735050851E+02  0.18306091221E+03  0.17300000000E+03 0.  1.
<mgrwt>
<rscale>  2 0.18079158E+03</rscale>
<asrwt>0</asrwt>
<pdfrwt beam="1">  1       21 0.16285842E-01 0.18079158E+03</pdfrwt>
<pdfrwt beam="2">  1       21 0.60102288E-01 0.18079158E+03</pdfrwt>
<totfact> 0.87561557E+04</totfact>
</mgrwt>
</event>
<event>
 4    1  0.3935877E+000  0.2027702E+03  0.7546771E-02  0.1147423E+00
         21   -1    0    0  501  502  0.00000000000E+00  0.00000000000E+00  0.18397953780E+03  0.18397953780E+03  0.00000000000E+00 0.  1.
         21   -1    0    0  502  503 -0.00000000000E+00 -0.00000000000E+00 -0.38601212361E+03  0.38601212361E+03  0.00000000000E+00 0.  1.
          6    1    1    2  501    0 -0.31669750885E+02  0.10091469803E+03  0.83913814718E+02  0.21944766506E+03  0.17300000000E+03 0.  1.
         -6    1    1    2    0  503  0.31669750885E+02 -0.10091469803E+03 -0.28594640054E+03  0.35054399635E+03  0.17300000000E+03 0.  1.
<mgrwt>
<rscale>  2 0.20277019E+03</rscale>
<asrwt>0</asrwt>
<pdfrwt beam="1">  1       21 0.28304544E-01 0.20277019E+03</pdfrwt>
<pdfrwt beam="2">  1       21 0.59386481E-01 0.20277019E+03</pdfrwt>
<totfact> 0.31430711E+04</totfact>
</mgrwt>
</event>
<event>
 4    1  0.3935877E+000  0.2357173E+03  0.7546771E-02  0.1122679E+00
         21   -1    0    0  501  502  0.00000000000E+00  0.00000000000E+00  0.18051446142E+04  0.18051446142E+04  0.00000000000E+00 0. -1.
         21   -1    0    0  502  503 -0.00000000000E+00 -0.00000000000E+00 -0.15559640095E+03  0.15559640095E+03  0.00000000000E+00 0. -1.
          6    1    1    2  501    0 -0.14973872990E+03  0.56674210514E+02  0.17028377612E+04  0.17190750694E+04  0.17300000000E+03 0. -1.
         -6    1    1    2    0  503  0.14973872990E+03 -0.56674210514E+02 -0.53289547995E+02  0.24166594567E+03  0.17300000000E+03 0. -1.
<mgrwt>
<rscale>  2 0.23571732E+03</rscale>
<asrwt>0</asrwt>
<pdfrwt beam="1">  1       21 0.27771454E+00 0.23571732E+03</pdfrwt>
<pdfrwt beam="2">  1       21 0.23937909E-01 0.23571732E+03</pdfrwt>
<totfact> 0.71592301E+02</totfact>
</mgrwt>
</event>
<event>
 4    1  0.3935877E+000  0.1984422E+03  0.7546771E-02  0.1151060E+00
         21   -1    0    0  501  502  0.00000000000E+00  0.00000000000E+00  0.14175492703E+03  0.14175492703E+03  0.00000000000E+00 0.  1.
         21   -1    0    0  502  503 -0.00000000000E+00 -0.00000000000E+00 -0.20728379584E+04  0.20728379584E+04  0.00000000000E+00 0. -1.
          6    1    1    2  501    0 -0.86358728546E+02  0.44637318433E+02  0.64887824093E+02  0.20878158422E+03  0.17300000000E+03 0.  1.
         -6    1    1    2    0  503  0.86358728546E+02 -0.44637318433E+02 -0.19959708555E+04  0.20058113012E+04  0.17300000000E+03 0. -1.
<mgrwt>
<rscale>  2 0.19844223E+03</rscale>
<asrwt>0</asrwt>
<pdfrwt beam="1">  1       21 0.21808452E-01 0.19844223E+03</pdfrwt>
<pdfrwt beam="2">  1       21 0.31889812E+00 0.19844223E+03</pdfrwt>
<totfact> 0.51682915E+02</totfact>
</mgrwt>
</event>
<event>
 4    1  0.3935877E+000  0.2318074E+03  0.7546771E-02  0.1125374E+00
         21   -1    0    0  503  502  0.00000000000E+00  0.00000000000E+00  0.12053059061E+03  0.12053059061E+03  0.00000000000E+00 0. -1.
         21   -1    0    0  501  503 -0.00000000000E+00 -0.00000000000E+00 -0.49122424152E+03  0.49122424152E+03  0.00000000000E+00 0.  1.
          6    1    1    2  501    0 -0.76095513460E+02  0.13422046257E+03 -0.27834344536E+03  0.36222884109E+03  0.17300000000E+03 0.  1.
         -6    1    1    2    0  502  0.76095513460E+02 -0.13422046257E+03 -0.92350205545E+02  0.24952599104E+03  0.17300000000E+03 0. -1.
<mgrwt>
<rscale>  2 0.23180738E+03</rscale>
<asrwt>0</asrwt>
<pdfrwt beam="1">  1       21 0.18543168E-01 0.23180738E+03</pdfrwt>
<pdfrwt beam="2">  1       21 0.75572959E-01 0.23180738E+03</pdfrwt>
<totfact> 0.40739357E+04</totfact>
</mgrwt>
</event>
<event>
 4    1  0.3935877E+000  0.2054323E+03  0.7546771E-02  0.1145235E+00
         21   -1    0    0  501  502  0.00000000000E+00  0.00000000000E+00  0.93604769961E+03  0.93604769961E+03  0.00000000000E+00 0.  1.
         21   -1    0    0  502  503 -0.00000000000E+00 -0.00000000000E+00 -0.54710836713E+02  0.54710836713E+02  0.00000000000E+00 0.  1.
          6    1    1    2  501    0 -0.94341458009E+02 -0.58078708198E+02  0.64844790589E+03  0.68021109496E+03  0.17300000000E+03 0.  1.
         -6    1    1    2    0  503  0.94341458009E+02  0.58078708198E+02  0.23288895701E+03  0.31054744137E+03  0.17300000000E+03 0.  1.
<mgrwt>
<rscale>  2 0.20543234E+03</rscale>
<asrwt>0</asrwt>
<pdfrwt beam="1">  1       21 0.14400733E+00 0.20543234E+03</pdfrwt>
<pdfrwt beam="2">  1       21 0.84170525E-02 0.20543234E+03</pdfrwt>
<totfact> 0.36248501E+04</totfact>
</mgrwt>
</event>
<event>
 4    1  0.3935877E+000  0.1876979E+03  0.7546771E-02  0.1160554E+00
         21   -1    0    0  501  502  0.00000000000E+00  0.00000000000E+00  0.41506972117E+02  0.41506972117E+02  0.00000000000E+00 0.  1.
         21   -1    0    0  502  503 -0.00000000000E+00 -0.00000000000E+00 -0.23942883710E+04  0.23942883710E+04  0.00000000000E+00 0.  1.
          6    1    1    2  501    0 -0.51199892082E+02  0.51769372334E+02 -0.19789810026E+03  0.27275291923E+03  0.17300000000E+03 0.  1.
         -6    1    1    2    0  503  0.51199892082E+02 -0.51769372334E+02 -0.21548832986E+04  0.21630424238E+04  0.17300000000E+03 0.  1.
<mgrwt>
<rscale>  2 0.18769789E+03</rscale>
<asrwt>0</asrwt>
<pdfrwt beam="1">  1       21 0.63856869E-02 0.18769789E+03</pdfrwt>
<pdfrwt beam="2">  1       21 0.36835212E+00 0.18769789E+03</pdfrwt>
<totfact> 0.24266104E+03</totfact>
</mgrwt>
</event>
<event>
 4    1  0.3935877E+000  0.1806063E+03  0.7546771E-02  0.1167218E+00
         21   -1    0    0  503  502  0.00000000000E+00  0.00000000000E+00  0.15323302232E+03  0.15323302232E+03  0.00000000000E+00 0. -1.
         21   -1    0    0  501  503 -0.00000000000E+00 -0.00000000000E+00 -0.41660865828E+03  0.41660865828E+03  0.00000000000E+00 0. -1.
          6    1    1    2  501    0  0.50566864675E+02 -0.11516692731E+02 -0.33093734016E+03  0.37701215514E+03  0.17300000000E+03 0. -1.
         -6    1    1    2    0  502 -0.50566864675E+02  0.11516692731E+02  0.67561704204E+02  0.19282952546E+03  0.17300000000E+03 0. -1.
<mgrwt>
<rscale>  2 0.18060632E+03</rscale>
<asrwt>0</asrwt>
<pdfrwt beam="1">  1       21 0.23574311E-01 0.18060632E+03</pdfrwt>
<pdfrwt beam="2">  1       21 0.64093639E-01 0.18060632E+03</pdfrwt>
<totfact> 0.38295120E+04</totfact>
</mgrwt>
</event>
<event>
 4    1  0.3935877E+000  0.3139585E+03  0.7546771E-02  0.1078464E+00
         21   -1    0    0  501  502  0.00000000000E+00  0.00000000000E+00  0.58945629757E+03  0.58945629757E+03  0.00000000000E+00 0. -1.
         21   -1    0    0  502  503 -0.00000000000E+00 -0.00000000000E+00 -0.20704857260E+03  0.20704857260E+03  0.00000000000E+00 0.  1.
          6    1    1    2  501    0 -0.18351887592E+01 -0.26198769816E+03  0.36587054545E+03  0.48211116761E+03  0.17300000000E+03 0. -1.
         -6    1    1    2    0  503  0.18351887592E+01  0.26198769816E+03  0.16537179525E+02  0.31439370256E+03  0.17300000000E+03 0.  1.
<mgrwt>
<rscale>  2 0.31395847E+03</rscale>
<asrwt>0</asrwt>
<pdfrwt beam="1">  1       21 0.90685584E-01 0.31395847E+03</pdfrwt>
<pdfrwt beam="2">  1       21 0.31853627E-01 0.31395847E+03</pdfrwt>
<totfact> 0.91351889E+03</totfact>
</mgrwt>
</event>
<event>
 4    1  0.3935877E+000  0.2228233E+03  0.7546771E-02  0.1131796E+00
         21   -1    0    0  503  502  0.00000000000E+00  0.00000000000E+00  0.12300735985E+03  0.12300735985E+03  0.00000000000E+00 0.  1.
         21   -1    0    0  501  503 -0.00000000000E+00 -0.00000000000E+00 -0.54505101688E+03  0.54505101688E+03  0.00000000000E+00 0.  1.
          6    1    1    2  501    0  0.60728490534E+02 -0.12662250712E+03 -0.38116459069E+03  0.44151631235E+03  0.17300000000E+03 0.  1.
         -6    1    1    2    0  502 -0.60728490534E+02  0.12662250712E+03 -0.40879066345E+02  0.22654206439E+03  0.17300000000E+03 0.  1.
<mgrwt>
<rscale>  2 0.22282327E+03</rscale>
<asrwt>0</asrwt>
<pdfrwt beam="1">  1       21 0.18924209E-01 0.22282327E+03</pdfrwt>
<pdfrwt beam="2">  1       21 0.83854006E-01 0.22282327E+03</pdfrwt>
<totfact> 0.31116884E+04</totfact>
</mgrwt>
</event>
<event>
 4    1  0.3935877E+000  0.1888173E+03  0.7546771E-02  0.1159532E+00
         21   -1    0    0  503  502  0.00000000000E+00  0.00000000000E+00  0.68062500579E+03  0.68062500579E+03  0.00000000000E+00 0.  1.
         21   -1    0    0  501  503 -0.00000000000E+00 -0.00000000000E+00 -0.52455787064E+02  0.52455787064E+02  0.00000000000E+00 0.  1.
          6    1    1    2  501    0  0.75643978150E+02  0.98342291240E+00  0.30026632189E+03  0.35469965128E+03  0.17300000000E+03 0.  1.
         -6    1    1    2    0  502 -0.75643978150E+02 -0.98342291240E+00  0.32790289683E+03  0.37838114158E+03  0.17300000000E+03 0.  1.
<mgrwt>
<rscale>  2 0.18881732E+03</rscale>
<asrwt>0</asrwt>
<pdfrwt beam="1">  1       21 0.10471153E+00 0.18881732E+03</pdfrwt>
<pdfrwt beam="2">  1       21 0.80701216E-02 0.18881732E+03</pdfrwt>
<totfact> 0.87069885E+04</totfact>
</mgrwt>
</event>
<event>
 4    1  0.3935877E+000  0.1813876E+03  0.7546771E-02  0.1166467E+00
         21   -1    0    0  501  502  0.00000000000E+00  0.00000000000E+00  0.79214772154E+03  0.79214772154E+03  0.00000000000E+00 0.  1.
         21   -1    0    0  502  503 -0.00000000000E+00 -0.00000000000E+00 -0.45783720877E+02  0.45783720877E+02  0.00000000000E+00 0.  1.
          6    1    1    2  501    0  0.15155713505E+02 -0.52371284888E+02  0.50081953366E+03  0.53265528480E+03  0.17300000000E+03 0.  1.
         -6    1    1    2    0  503 -0.15155713505E+02  0.52371284888E+02  0.24554446701E+03  0.30527615762E+03  0.17300000000E+03 0.  1.
<mgrwt>
<rscale>  2 0.18138756E+03</rscale>
<asrwt>0</asrwt>
<pdfrwt beam="1">  1       21 0.12186887E+00 0.18138756E+03</pdfrwt>
<pdfrwt beam="2">  1       21 0.70436499E-02 0.18138756E+03</pdfrwt>
<totfact> 0.76454850E+04</totfact>
</mgrwt>
</event>
<event>
 4    1  0.3935877E+000  0.3041790E+03  0.7546771E-02  0.1083170E+00
         21   -1    0    0  501  502  0.00000000000E+00  0.00000000000E+00  0.29164359152E+03  0.29164359152E+03  0.00000000000E+00 0.  1.
         21   -1    0    0  502  503 -0.00000000000E+00 -0.00000000000E+00 -0.34621287441E+03  0.34621287441E+03  0.00000000000E+00 0. -1.
          6    1    1    2  501    0  0.16641600149E+03  0.18681962233E+03  0.64955157393E+02  0.31103702241E+03  0.17300000000E+03 0.  1.
         -6    1    1    2    0  503 -0.16641600149E+03 -0.18681962233E+03 -0.11952444028E+03  0.32681944352E+03  0.17300000000E+03 0. -1.
<mgrwt>
<rscale>  2 0.30417899E+03</rscale>
<asrwt>0</asrwt>
<pdfrwt beam="1">  1       21 0.44868245E-01 0.30417899E+03</pdfrwt>
<pdfrwt beam="2">  1       21 0.53263519E-01 0.30417899E+03</pdfrwt>
<totfact> 0.15020036E+04</totfact>
</mgrwt>
</event>
<event>
 4    1  0.3935877E+000  0.1812960E+03  0.7546771E-02  0.1166555E+00
         21   -1    0    0  503  502  0.00000000000E+00  0.00000000000E+00  0.91778457160E+02  0.91778457160E+02  0.00000000000E+00 0.  1.
         21   -1    0    0  501  503 -0.00000000000E+00 -0.00000000000E+00 -0.35818961214E+03  0.35818961214E+03  0.00000000000E+00 0.  1.
          6    1    1    2  501    0 -0.26368659497E+01 -0.54150722591E+02 -0.13620327771E+03  0.22675887343E+03  0.17300000000E+03 0.  1.
         -6    1    1    2    0  502  0.26368659497E+01  0.54150722591E+02 -0.13020787727E+03  0.22320919587E+03  0.17300000000E+03 0.  1.
<mgrwt>
<rscale>  2 0.18129604E+03</rscale>
<asrwt>0</asrwt>
<pdfrwt beam="1">  1       21 0.14119763E-01 0.18129604E+03</pdfrwt>
<pdfrwt beam="2">  1       21 0.55106093E-01 0.18129604E+03</pdfrwt>
<totfact> 0.13653733E+05</totfact>
</mgrwt>
</event>
<event>
 4    1  0.3935877E+000  0.2343799E+03  0.7546771E-02  0.1123594E+00
         21   -1    0    0  503  502  0.00000000000E+00  0.00000000000E+00  0.76910113273E+03  0.76910113273E+03  0.00000000000E+00 0. -1.
         21   -1    0    0  501  503 -0.00000000000E+00 -0.00000000000E+00 -0.90815345059E+02  0.90815345059E+02  0.00000000000E+00 0. -1.
          6    1    1    2  501    0 -0.15162604034E+03  0.44883096162E+02  0.14047562566E+03  0.27325327049E+03  0.17300000000E+03 0. -1.
         -6    1    1    2    0  502  0.15162604034E+03 -0.44883096162E+02  0.53781016201E+03  0.58666320730E+03  0.17300000000E+03 0. -1.
<mgrwt>
<rscale>  2 0.23437992E+03</rscale>
<asrwt>0</asrwt>
<pdfrwt beam="1">  1       21 0.11832325E+00 0.23437992E+03</pdfrwt>
<pdfrwt beam="2">  1       21 0.13971592E-01 0.23437992E+03</pdfrwt>
<totfact> 0.23820251E+04</totfact>
</mgrwt>
</event>
<event>
 4    1  0.3935877E+000  0.2152936E+03  0.7546771E-02  0.1137441E+00
         21   -1    0    0  501  502  0.00000000000E+00  0.00000000000E+00  0.47915269382E+03  0.47915269382E+03  0.00000000000E+00 0. -1.
         21   -1    0    0  502  503 -0.00000000000E+00 -0.00000000000E+00 -0.10623427294E+03  0.10623427294E+03  0.00000000000E+00 0. -1.
          6    1    1    2  501    0  0.24783721884E+02 -0.12573032153E+03  0.27397804819E+03  0.34844700818E+03  0.17300000000E+03 0. -1.
         -6    1    1    2    0  503 -0.24783721884E+02  0.12573032153E+03  0.98940372692E+02  0.23693995858E+03  0.17300000000E+03 0. -1.
<mgrwt>
<rscale>  2 0.21529363E+03</rscale>
<asrwt>0</asrwt>
<pdfrwt beam="1">  1       21 0.73715798E-01 0.21529363E+03</pdfrwt>
<pdfrwt beam="2">  1       21 0.16343735E-01 0.21529363E+03</pdfrwt>
<totfact> 0.54818844E+04</totfact>
</mgrwt>
</event>
<event>
 4    1  0.3935877E+000  0.2186925E+03  0.7546771E-02  0.1134862E+00
         21   -1    0    0  503  502  0.00000000000E+00  0.00000000000E+00  0.14394933516E+04  0.14394933516E+04  0.00000000000E+00 0.  1.
         21   -1    0    0  501  503 -0.00000000000E+00 -0.00000000000E+00 -0.33257580851E+02  0.33257580851E+02  0.00000000000E+00 0.  1.
          6    1    1    2  501    0 -0.12154803909E+03 -0.55887983547E+02  0.72635541804E+03  0.75856350151E+03  0.17300000000E+03 0.  1.
         -6    1    1    2    0  502  0.12154803909E+03  0.55887983547E+02  0.67988035271E+03  0.71418743094E+03  0.17300000000E+03 0.  1.
<mgrwt>
<rscale>  2 0.21869246E+03</rscale>
<asrwt>0</asrwt>
<pdfrwt beam="1">  1       21 0.22146047E+00 0.21869246E+03</pdfrwt>
<pdfrwt beam="2">  1       21 0.51165520E-02 0.21869246E+03</pdfrwt>
<totfact> 0.24996432E+04</totfact>
</mgrwt>
</event>
<event>
 4    1  0.3935877E+000  0.2140163E+03  0.7546771E-02  0.1138424E+00
         21   -1    0    0  503  502  0.00000000000E+00  0.00000000000E+00  0.11526818912E+04  0.11526818912E+04  0.00000000000E+00 0.  1.
         21   -1    0    0  501  503 -0.00000000000E+00 -0.00000000000E+00 -0.45458800239E+02  0.45458800239E+02  0.00000000000E+00 0.  1.
          6    1    1    2  501    0 -0.85173661142E+02  0.92840766463E+02  0.34105554653E+03  0.40264357227E+03  0.17300000000E+03 0.  1.
         -6    1    1    2    0  502  0.85173661142E+02 -0.92840766463E+02  0.76616754439E+03  0.79549711913E+03  0.17300000000E+03 0.  1.
<mgrwt>
<rscale>  2 0.21401626E+03</rscale>
<asrwt>0</asrwt>
<pdfrwt beam="1">  1       21 0.17733565E+00 0.21401626E+03</pdfrwt>
<pdfrwt beam="2">  1       21 0.69936624E-02 0.21401626E+03</pdfrwt>
<totfact> 0.28343989E+04</totfact>
</mgrwt>
</event>
<event>
 4    1  0.3935877E+000  0.3024486E+03  0.7546771E-02  0.1084023E+00
         21   -1    0    0  503  502  0.00000000000E+00  0.00000000000E+00  0.13996335637E+04  0.13996335637E+04  0.00000000000E+00 0. -1.
         21   -1    0    0  501  503 -0.00000000000E+00 -0.00000000000E+00 -0.77660870169E+02  0.77660870169E+02  0.00000000000E+00 0.  1.
          6    1    1    2  501    0  0.23833067568E+03  0.68881432220E+02  0.36697405552E+03  0.47554717967E+03  0.17300000000E+03 0.  1.
         -6    1    1    2    0  502 -0.23833067568E+03 -0.68881432220E+02  0.95499863799E+03  0.10017472542E+04  0.17300000000E+03 0. -1.
<mgrwt>
<rscale>  2 0.30244861E+03</rscale>
<asrwt>0</asrwt>
<pdfrwt beam="1">  1       21 0.21532822E+00 0.30244861E+03</pdfrwt>
<pdfrwt beam="2">  1       21 0.11947827E-01 0.30244861E+03</pdfrwt>
<totfact> 0.58533278E+03</totfact>
</mgrwt>
</event>
<event>
 4    1  0.3935877E+000  0.2131720E+03  0.7546771E-02  0.1139078E+00
         21   -1    0    0  501  502  0.00000000000E+00  0.00000000000E+00  0.15106839884E+03  0.15106839884E+03  0.00000000000E+00 0. -1.
         21   -1    0    0  502  503 -0.00000000000E+00 -0.00000000000E+00 -0.30196663776E+03  0.30196663776E+03  0.00000000000E+00 0.  1.
          6    1    1    2  501    0 -0.12026398973E+03  0.32401818403E+02 -0.61406743802E+02  0.22184024262E+03  0.17300000000E+03 0. -1.
         -6    1    1    2    0  503  0.12026398973E+03 -0.32401818403E+02 -0.89491495115E+02  0.23119479397E+03  0.17300000000E+03 0.  1.
<mgrwt>
<rscale>  2 0.21317201E+03</rscale>
<asrwt>0</asrwt>
<pdfrwt beam="1">  1       21 0.23241292E-01 0.21317201E+03</pdfrwt>
<pdfrwt beam="2">  1       21 0.46456405E-01 0.21317201E+03</pdfrwt>
<totfact> 0.76546377E+04</totfact>
</mgrwt>
</event>
<event>
 4    1  0.3935877E+000  0.3336669E+03  0.7546771E-02  0.1069526E+00
         21   -1    0    0  503  502  0.00000000000E+00  0.00000000000E+00  0.46544081961E+03  0.46544081961E+03  0.00000000000E+00 0.  1.
         21   -1    0    0  501  503 -0.00000000000E+00 -0.00000000000E+00 -0.55307005519E+03  0.55307005519E+03  0.00000000000E+00 0. -1.
          6    1    1    2  501    0  0.28483054471E+03 -0.16617812851E+02 -0.42745147606E+03  0.54226225693E+03  0.17300000000E+03 0. -1.
         -6    1    1    2    0  502 -0.28483054471E+03  0.16617812851E+02  0.33982224047E+03  0.47624861787E+03  0.17300000000E+03 0.  1.
<mgrwt>
<rscale>  2 0.33366689E+03</rscale>
<asrwt>0</asrwt>
<pdfrwt beam="1">  1       21 0.71606280E-01 0.33366689E+03</pdfrwt>
<pdfrwt beam="2">  1       21 0.85087701E-01 0.33366689E+03</pdfrwt>
<totfact> 0.19112572E+03</totfact>
</mgrwt>
</event>
<event>
 4    1  0.3935877E+000  0.1881360E+03  0.7546771E-02  0.1160153E+00
         21   -1    0    0  501  502  0.00000000000E+00  0.00000000000E+00  0.33844163651E+03  0.33844163651E+03  0.00000000000E+00 0.  1.
         21   -1    0    0  502  503 -0.00000000000E+00 -0.00000000000E+00 -0.22656501394E+03  0.22656501394E+03  0.00000000000E+00 0.  1.
          6    1    1    2  501    0  0.72943103928E+02 -0.12060411895E+02  0.26322696104E+03  0.32354842445E+03  0.17300000000E+03 0.  1.
         -6    1    1    2    0  503 -0.72943103928E+02  0.12060411895E+02 -0.15135033848E+03  0.24145822600E+03  0.17300000000E+03 0.  1.
<mgrwt>
<rscale>  2 0.18813599E+03</rscale>
<asrwt>0</asrwt>
<pdfrwt beam="1">  1       21 0.52067944E-01 0.18813599E+03</pdfrwt>
<pdfrwt beam="2">  1       21 0.34856156E-01 0.18813599E+03</pdfrwt>
<totfact> 0.27843827E+04</totfact>
</mgrwt>
</event>
<event>
 4    1  0.3935877E+000  0.2021754E+03  0.7546771E-02  0.1147916E+00
         21   -1    0    0  501  502  0.00000000000E+00  0.00000000000E+00  0.13098150859E+03  0.13098150859E+03  0.00000000000E+00 0.  1.
         21   -1    0    0  502  503 -0.00000000000E+00 -0.00000000000E+00 -0.32397082735E+03  0.32397082735E+03  0.00000000000E+00 0.  1.
          6    1    1    2  501    0 -0.67141665586E+01  0.10440695766E+03 -0.52889077989E+02  0.20897882048E+03  0.17300000000E+03 0.  1.
         -6    1    1    2    0  503  0.67141665586E+01 -0.10440695766E+03 -0.14010024077E+03  0.24597351545E+03  0.17300000000E+03 0.  1.
<mgrwt>
<rscale>  2 0.20217540E+03</rscale>
<asrwt>0</asrwt>
<pdfrwt beam="1">  1       21 0.20151002E-01 0.20217540E+03</pdfrwt>
<pdfrwt beam="2">  1       21 0.49841665E-01 0.20217540E+03</pdfrwt>
<totfact> 0.86953659E+04</totfact>
</mgrwt>
</event>
<event>
 4    1  0.3935877E+000  0.2194013E+03  0.7546771E-02  0.1134330E+00
         21   -1    0    0  503  502  0.00000000000E+00  0.00000000000E+00  0.39215859149E+03  0.39215859149E+03  0.00000000000E+00 0. -1.
         21   -1    0    0  501  503 -0.00000000000E+00 -0.00000000000E+00 -0.26867791532E+03  0.26867791532E+03  0.00000000000E+00 0. -1.
          6    1    1    2  501    0  0.13487636971E+03 -0.40372202937E+01 -0.18177103932E+03  0.28491690893E+03  0.17300000000E+03 0. -1.
         -6    1    1    2    0  502 -0.13487636971E+03  0.40372202937E+01  0.30525171550E+03  0.37591959788E+03  0.17300000000E+03 0. -1.
<mgrwt>
<rscale>  2 0.21940131E+03</rscale>
<asrwt>0</asrwt>
<pdfrwt beam="1">  1       21 0.60332091E-01 0.21940131E+03</pdfrwt>
<pdfrwt beam="2">  1       21 0.41335064E-01 0.21940131E+03</pdfrwt>
<totfact> 0.14192654E+04</totfact>
</mgrwt>
</event>
<event>
 4    1  0.3935877E+000  0.1948239E+03  0.7546771E-02  0.1154181E+00
         21   -1    0    0  501  502  0.00000000000E+00  0.00000000000E+00  0.27451245736E+02  0.27451245736E+02  0.00000000000E+00 0. -1.
         21   -1    0    0  502  503 -0.00000000000E+00 -0.00000000000E+00 -0.13831066873E+04  0.13831066873E+04  0.00000000000E+00 0.  1.
          6    1    1    2  501    0  0.85806199270E+02 -0.25780933054E+02 -0.66547817165E+03  0.69341009315E+03  0.17300000000E+03 0.  1.
         -6    1    1    2    0  503 -0.85806199270E+02  0.25780933054E+02 -0.69017726989E+03  0.71714783986E+03  0.17300000000E+03 0. -1.
<mgrwt>
<rscale>  2 0.19482392E+03</rscale>
<asrwt>0</asrwt>
<pdfrwt beam="1">  1       21 0.42232686E-02 0.19482392E+03</pdfrwt>
<pdfrwt beam="2">  1       21 0.21278564E+00 0.19482392E+03</pdfrwt>
<totfact> 0.39816340E+04</totfact>
</mgrwt>
</event>
<event>
 4    1  0.3935877E+000  0.1739914E+03  0.7546771E-02  0.1173748E+00
         21   -1    0    0  503  502  0.00000000000E+00  0.00000000000E+00  0.99560640772E+02  0.99560640772E+02  0.00000000000E+00 0.  1.
         21   -1    0    0  501  503 -0.00000000000E+00 -0.00000000000E+00 -0.36736751553E+03  0.36736751553E+03  0.00000000000E+00 0.  1.
          6    1    1    2  501    0  0.80606506312E+01  0.16704095903E+02 -0.23081529410E+03  0.28904792146E+03  0.17300000000E+03 0.  1.
         -6    1    1    2    0  502 -0.80606506312E+01 -0.16704095903E+02 -0.36991580657E+02  0.17788023484E+03  0.17300000000E+03 0.  1.
<mgrwt>
<rscale>  2 0.17399138E+03</rscale>
<asrwt>0</asrwt>
<pdfrwt beam="1">  1       21 0.15317022E-01 0.17399138E+03</pdfrwt>
<pdfrwt beam="2">  1       21 0.56518078E-01 0.17399138E+03</pdfrwt>
<totfact> 0.11194967E+05</totfact>
</mgrwt>
</event>
<event>
 4    1  0.3935877E+000  0.1775787E+03  0.7546771E-02  0.1170167E+00
         21   -1    0    0  501  502  0.00000000000E+00  0.00000000000E+00  0.14888317286E+03  0.14888317286E+03  0.00000000000E+00 0.  1.
         21   -1    0    0  502  503 -0.00000000000E+00 -0.00000000000E+00 -0.31764091304E+03  0.31764091304E+03  0.00000000000E+00 0.  1.
          6    1    1    2  501    0 -0.47083083662E+01  0.39787332010E+02  0.50266800608E+02  0.18455609228E+03  0.17300000000E+03 0.  1.
         -6    1    1    2    0  503  0.47083083662E+01 -0.39787332010E+02 -0.21902454079E+03  0.28196799362E+03  0.17300000000E+03 0.  1.
<mgrwt>
<rscale>  2 0.17757871E+03</rscale>
<asrwt>0</asrwt>
<pdfrwt beam="1">  1       21 0.22905104E-01 0.17757871E+03</pdfrwt>
<pdfrwt beam="2">  1       21 0.48867833E-01 0.17757871E+03</pdfrwt>
<totfact> 0.71947496E+04</totfact>
</mgrwt>
</event>
<event>
 4    1  0.3935877E+000  0.2016466E+03  0.7546771E-02  0.1148357E+00
         21   -1    0    0  501  502  0.00000000000E+00  0.00000000000E+00  0.14144366562E+03  0.14144366562E+03  0.00000000000E+00 0. -1.
         21   -1    0    0  502  503 -0.00000000000E+00 -0.00000000000E+00 -0.31538952970E+03  0.31538952970E+03  0.00000000000E+00 0. -1.
          6    1    1    2  501    0  0.10240091777E+03 -0.15696612516E+02 -0.19016679947E+02  0.20254126918E+03  0.17300000000E+03 0. -1.
         -6    1    1    2    0  503 -0.10240091777E+03  0.15696612516E+02 -0.15492918414E+03  0.25429192614E+03  0.17300000000E+03 0. -1.
<mgrwt>
<rscale>  2 0.20164655E+03</rscale>
<asrwt>0</asrwt>
<pdfrwt beam="1">  1       21 0.21760564E-01 0.20164655E+03</pdfrwt>
<pdfrwt beam="2">  1       21 0.48521466E-01 0.20164655E+03</pdfrwt>
<totfact> 0.79613370E+04</totfact>
</mgrwt>
</event>
<event>
 4    1  0.3935877E+000  0.2837027E+03  0.7546771E-02  0.1093684E+00
         21   -1    0    0  503  502  0.00000000000E+00  0.00000000000E+00  0.24207512763E+03  0.24207512763E+03  0.00000000000E+00 0.  1.
         21   -1    0    0  501  503 -0.00000000000E+00 -0.00000000000E+00 -0.35624260674E+03  0.35624260674E+03  0.00000000000E+00 0. -1.
          6    1    1    2  501    0 -0.27604900548E+02 -0.22315055667E+03 -0.13433367011E+03  0.31389924562E+03  0.17300000000E+03 0. -1.
         -6    1    1    2    0  502  0.27604900548E+02  0.22315055667E+03  0.20166191003E+02  0.28441848874E+03  0.17300000000E+03 0.  1.
<mgrwt>
<rscale>  2 0.28370266E+03</rscale>
<asrwt>0</asrwt>
<pdfrwt beam="1">  1       21 0.37242327E-01 0.28370266E+03</pdfrwt>
<pdfrwt beam="2">  1       21 0.54806555E-01 0.28370266E+03</pdfrwt>
<totfact> 0.20869990E+04</totfact>
</mgrwt>
</event>
<event>
 4    1  0.3935877E+000  0.1770474E+03  0.7546771E-02  0.1170692E+00
         21   -1    0    0  501  502  0.00000000000E+00  0.00000000000E+00  0.57183082452E+03  0.57183082452E+03  0.00000000000E+00 0. -1.
         21   -1    0    0  502  503 -0.00000000000E+00 -0.00000000000E+00 -0.34921412039E+03  0.34921412039E+03  0.00000000000E+00 0. -1.
          6    1    1    2  501    0 -0.36995384392E+02 -0.69366786048E+01  0.53414445582E+03  0.56272202344E+03  0.17300000000E+03 0. -1.
         -6    1    1    2    0  503  0.36995384392E+02  0.69366786048E+01 -0.31152775169E+03  0.35832292147E+03  0.17300000000E+03 0. -1.
<mgrwt>
<rscale>  2 0.17704738E+03</rscale>
<asrwt>0</asrwt>
<pdfrwt beam="1">  1       21 0.87973973E-01 0.17704738E+03</pdfrwt>
<pdfrwt beam="2">  1       21 0.53725249E-01 0.17704738E+03</pdfrwt>
<totfact> 0.36775249E+03</totfact>
</mgrwt>
</event>
<event>
 4    1  0.3935877E+000  0.4557552E+03  0.7546771E-02  0.1026020E+00
         21   -1    0    0  501  502  0.00000000000E+00  0.00000000000E+00  0.15921159552E+04  0.15921159552E+04  0.00000000000E+00 0.  1.
         21   -1    0    0  502  503 -0.00000000000E+00 -0.00000000000E+00 -0.14207023569E+03  0.14207023569E+03  0.00000000000E+00 0. -1.
          6    1    1    2  501    0  0.23214893281E+03 -0.35198102567E+03  0.97286329800E+03  0.10743257262E+04  0.17300000000E+03 0.  1.
         -6    1    1    2    0  503 -0.23214893281E+03  0.35198102567E+03  0.47718242152E+03  0.65986046468E+03  0.17300000000E+03 0. -1.
<mgrwt>
<rscale>  2 0.45575516E+03</rscale>
<asrwt>0</asrwt>
<pdfrwt beam="1">  1       21 0.24494090E+00 0.45575516E+03</pdfrwt>
<pdfrwt beam="2">  1       21 0.21856960E-01 0.45575516E+03</pdfrwt>
<totfact> 0.11449076E+03</totfact>
</mgrwt>
</event>
<event>
 4    1  0.3935877E+000  0.1981397E+03  0.7546771E-02  0.1151318E+00
         21   -1    0    0  501  502  0.00000000000E+00  0.00000000000E+00  0.63067138156E+02  0.63067138156E+02  0.00000000000E+00 0.  1.
         21   -1    0    0  502  503 -0.00000000000E+00 -0.00000000000E+00 -0.14744519937E+04  0.14744519937E+04  0.00000000000E+00 0.  1.
          6    1    1    2  501    0  0.96315510288E+02  0.73248343929E+01 -0.12132954114E+03  0.23233636882E+03  0.17300000000E+03 0.  1.
         -6    1    1    2    0  503 -0.96315510288E+02 -0.73248343929E+01 -0.12900553144E+04  0.13051827631E+04  0.17300000000E+03 0.  1.
<mgrwt>
<rscale>  2 0.19813967E+03</rscale>
<asrwt>0</asrwt>
<pdfrwt beam="1">  1       21 0.97026371E-02 0.19813967E+03</pdfrwt>
<pdfrwt beam="2">  1       21 0.22683876E+00 0.19813967E+03</pdfrwt>
<totfact> 0.77819196E+03</totfact>
</mgrwt>
</event>
<event>
 4    1  0.3935877E+000  0.1832252E+03  0.7546771E-02  0.1164718E+00
         21   -1    0    0  501  502  0.00000000000E+00  0.00000000000E+00  0.89758416755E+02  0.89758416755E+02  0.00000000000E+00 0. -1.
         21   -1    0    0  502  503 -0.00000000000E+00 -0.00000000000E+00 -0.40091171445E+03  0.40091171445E+03  0.00000000000E+00 0.  1.
          6    1    1    2  501    0 -0.58830102821E+02 -0.13471386142E+02 -0.92037258960E+02  0.20504223048E+03  0.17300000000E+03 0. -1.
         -6    1    1    2    0  503  0.58830102821E+02  0.13471386142E+02 -0.21911603873E+03  0.28562790072E+03  0.17300000000E+03 0.  1.
<mgrwt>
<rscale>  2 0.18322516E+03</rscale>
<asrwt>0</asrwt>
<pdfrwt beam="1">  1       21 0.13808987E-01 0.18322516E+03</pdfrwt>
<pdfrwt beam="2">  1       21 0.61678727E-01 0.18322516E+03</pdfrwt>
<totfact> 0.11169230E+05</totfact>
</mgrwt>
</event>
<event>
 4    1  0.3935877E+000  0.1799301E+03  0.7546771E-02  0.1167871E+00
         21   -1    0    0  501  502  0.00000000000E+00  0.00000000000E+00  0.16071141708E+03  0.16071141708E+03  0.00000000000E+00 0.  1.
         21   -1    0    0  502  503 -0.00000000000E+00 -0.00000000000E+00 -0.32491406583E+03  0.32491406583E+03  0.00000000000E+00 0.  1.
          6    1    1    2  501    0 -0.49033688153E+02 -0.64443866435E+01  0.67578333286E+02  0.19220214313E+03  0.17300000000E+03 0.  1.
         -6    1    1    2    0  503  0.49033688153E+02  0.64443866435E+01 -0.23178098204E+03  0.29342333978E+03  0.17300000000E+03 0.  1.
<mgrwt>
<rscale>  2 0.17993008E+03</rscale>
<asrwt>0</asrwt>
<pdfrwt beam="1">  1       21 0.24724834E-01 0.17993008E+03</pdfrwt>
<pdfrwt beam="2">  1       21 0.49986778E-01 0.17993008E+03</pdfrwt>
<totfact> 0.59317314E+04</totfact>
</mgrwt>
</event>
<event>
 4    1  0.3935877E+000  0.1749906E+03  0.7546771E-02  0.1172741E+00
         21   -1    0    0  501  502  0.00000000000E+00  0.00000000000E+00  0.14124986077E+03  0.14124986077E+03  0.00000000000E+00 0. -1.
         21   -1    0    0  502  503 -0.00000000000E+00 -0.00000000000E+00 -0.33733890191E+03  0.33733890191E+03  0.00000000000E+00 0. -1.
          6    1    1    2  501    0  0.16344846863E+02 -0.20628992216E+02  0.45002553372E+02  0.18068464005E+03  0.17300000000E+03 0. -1.
         -6    1    1    2    0  503 -0.16344846863E+02  0.20628992216E+02 -0.24109159451E+03  0.29790412264E+03  0.17300000000E+03 0. -1.
<mgrwt>
<rscale>  2 0.17499060E+03</rscale>
<asrwt>0</asrwt>
<pdfrwt beam="1">  1       21 0.21730748E-01 0.17499060E+03</pdfrwt>
<pdfrwt beam="2">  1       21 0.51898291E-01 0.17499060E+03</pdfrwt>
<totfact> 0.70168664E+04</totfact>
</mgrwt>
</event>
<event>
 4    1  0.3935877E+000  0.1742133E+03  0.7546771E-02  0.1173524E+00
         21   -1    0    0  503  502  0.00000000000E+00  0.00000000000E+00  0.73495419140E+02  0.73495419140E+02  0.00000000000E+00 0.  1.
         21   -1    0    0  501  503 -0.00000000000E+00 -0.00000000000E+00 -0.56533409507E+03  0.56533409507E+03  0.00000000000E+00 0.  1.
          6    1    1    2  501    0  0.19614700395E+02 -0.60447477310E+01 -0.41175028256E+03  0.44708899633E+03  0.17300000000E+03 0. -1.
         -6    1    1    2    0  502 -0.19614700395E+02  0.60447477310E+01 -0.80088393371E+02  0.19174051789E+03  0.17300000000E+03 0. -1.
<mgrwt>
<rscale>  2 0.17421330E+03</rscale>
<asrwt>0</asrwt>
<pdfrwt beam="1">  1       21 0.11306988E-01 0.17421330E+03</pdfrwt>
<pdfrwt beam="2">  1       21 0.86974476E-01 0.17421330E+03</pdfrwt>
<totfact> 0.74790362E+04</totfact>
</mgrwt>
</event>
<event>
 4    1  0.3935877E+000  0.2064792E+03  0.7546771E-02  0.1144385E+00
         21   -1    0    0  503  502  0.00000000000E+00  0.00000000000E+00  0.16380512383E+04  0.16380512383E+04  0.00000000000E+00 0. -1.
         21   -1    0    0  501  503 -0.00000000000E+00 -0.00000000000E+00 -0.58821913669E+02  0.58821913669E+02  0.00000000000E+00 0. -1.
          6    1    1    2  501    0  0.65750321597E+02 -0.91550807949E+02  0.15610584003E+03  0.25884877538E+03  0.17300000000E+03 0. -1.
         -6    1    1    2    0  502 -0.65750321597E+02  0.91550807949E+02  0.14231234846E+04  0.14380243765E+04  0.17300000000E+03 0. -1.
<mgrwt>
<rscale>  2 0.20647919E+03</rscale>
<asrwt>0</asrwt>
<pdfrwt beam="1">  1       21 0.25200785E+00 0.20647919E+03</pdfrwt>
<pdfrwt beam="2">  1       21 0.90495264E-02 0.20647919E+03</pdfrwt>
<totfact> 0.61751272E+03</totfact>
</mgrwt>
</event>
<event>
 4    1  0.3935877E+000  0.1903007E+03  0.7546771E-02  0.1158190E+00
         21   -1    0    0  503  502  0.00000000000E+00  0.00000000000E+00  0.59977365328E+03  0.59977365328E+03  0.00000000000E+00 0.  1.
         21   -1    0    0  501  503 -0.00000000000E+00 -0.00000000000E+00 -0.73102388441E+02  0.73102388441E+02  0.00000000000E+00 0.  1.
          6    1    1    2  501    0  0.34251153409E+02 -0.71499739511E+02  0.12298220837E+03  0.22658106240E+03  0.17300000000E+03 0.  1.
         -6    1    1    2    0  502 -0.34251153409E+02  0.71499739511E+02  0.40368905646E+03  0.44629497932E+03  0.17300000000E+03 0.  1.
<mgrwt>
<rscale>  2 0.19030069E+03</rscale>
<asrwt>0</asrwt>
<pdfrwt beam="1">  1       21 0.92272866E-01 0.19030069E+03</pdfrwt>
<pdfrwt beam="2">  1       21 0.11246522E-01 0.19030069E+03</pdfrwt>
<totfact> 0.65395185E+04</totfact>
</mgrwt>
</event>
<event>
 4    1  0.3935877E+000  0.2047748E+03  0.7546771E-02  0.1145772E+00
         21   -1    0    0  503  502  0.00000000000E+00  0.00000000000E+00  0.11118734359E+03  0.11118734359E+03  0.00000000000E+00 0.  1.
         21   -1    0    0  501  503 -0.00000000000E+00 -0.00000000000E+00 -0.39375825304E+03  0.39375825304E+03  0.00000000000E+00 0.  1.
          6    1    1    2  501    0 -0.92853119696E+02  0.58155037003E+02 -0.19315941262E+03  0.28150180967E+03  0.17300000000E+03 0.  1.
         -6    1    1    2    0  502  0.92853119696E+02 -0.58155037003E+02 -0.89411496826E+02  0.22344378696E+03  0.17300000000E+03 0.  1.
<mgrwt>
<rscale>  2 0.20477478E+03</rscale>
<asrwt>0</asrwt>
<pdfrwt beam="1">  1       21 0.17105745E-01 0.20477478E+03</pdfrwt>
<pdfrwt beam="2">  1       21 0.60578192E-01 0.20477478E+03</pdfrwt>
<totfact> 0.77875638E+04</totfact>
</mgrwt>
</event>
<event>
 4    1  0.3935877E+000  0.2794684E+03  0.7546771E-02  0.1095980E+00
         21   -1    0    0  501  502  0.00000000000E+00  0.00000000000E+00  0.17331165513E+04  0.17331165513E+04  0.00000000000E+00 0. -1.
         21   -1    0    0  502  503 -0.00000000000E+00 -0.00000000000E+00 -0.22998697484E+03  0.22998697484E+03  0.00000000000E+00 0. -1.
          6    1    1    2  501    0  0.21784888225E+03 -0.26748379306E+02  0.16317134689E+04  0.16554731819E+04  0.17300000000E+03 0. -1.
         -6    1    1    2    0  503 -0.21784888225E+03  0.26748379306E+02 -0.12858389247E+03  0.30763034424E+03  0.17300000000E+03 0. -1.
<mgrwt>
<rscale>  2 0.27946844E+03</rscale>
<asrwt>0</asrwt>
<pdfrwt beam="1">  1       21 0.26663331E+00 0.27946844E+03</pdfrwt>
<pdfrwt beam="2">  1       21 0.35382613E-01 0.27946844E+03</pdfrwt>
<totfact> 0.37040151E+02</totfact>
</mgrwt>
</event>
<event>
 4    1  0.3935877E+000  0.2621466E+03  0.7546771E-02  0.1105860E+00
         21   -1    0    0  501  502  0.00000000000E+00  0.00000000000E+00  0.18101330226E+03  0.18101330226E+03  0.00000000000E+00 0. -1.
         21   -1    0    0  502  503 -0.00000000000E+00 -0.00000000000E+00 -0.39333143880E+03  0.39333143880E+03  0.00000000000E+00 0.  1.
          6    1    1    2  501    0 -0.48856365186E+02  0.19080066831E+03 -0.52591162409E+02  0.26736991194E+03  0.17300000000E+03 0. -1.
         -6    1    1    2    0  503  0.48856365186E+02 -0.19080066831E+03 -0.15972697413E+03  0.30697482912E+03  0.17300000000E+03 0.  1.
<mgrwt>
<rscale>  2 0.26214660E+03</rscale>
<asrwt>0</asrwt>
<pdfrwt beam="1">  1       21 0.27848201E-01 0.26214660E+03</pdfrwt>
<pdfrwt beam="2">  1       21 0.60512529E-01 0.26214660E+03</pdfrwt>
<totfact> 0.30279645E+04</totfact>
</mgrwt>
</event>
<event>
 4    1  0.3935877E+000  0.2330181E+03  0.7546771E-02  0.1124533E+00
         21   -1    0    0  503  502  0.00000000000E+00  0.00000000000E+00  0.58547437207E+03  0.58547437207E+03  0.00000000000E+00 0.  1.
         21   -1    0    0  501  503 -0.00000000000E+00 -0.00000000000E+00 -0.10044790312E+03  0.10044790312E+03  0.00000000000E+00 0. -1.
          6    1    1    2  501    0 -0.15466118403E+03 -0.21173847947E+02  0.14751455815E+03  0.27578607388E+03  0.17300000000E+03 0. -1.
         -6    1    1    2    0  502  0.15466118403E+03  0.21173847947E+02  0.33751191081E+03  0.41013620130E+03  0.17300000000E+03 0.  1.
<mgrwt>
<rscale>  2 0.23301805E+03</rscale>
<asrwt>0</asrwt>
<pdfrwt beam="1">  1       21 0.90072979E-01 0.23301805E+03</pdfrwt>
<pdfrwt beam="2">  1       21 0.15453524E-01 0.23301805E+03</pdfrwt>
<totfact> 0.38169942E+04</totfact>
</mgrwt>
</event>
<event>
 4    1  0.3935877E+000  0.2841011E+03  0.7546771E-02  0.1093470E+00
         21   -1    0    0  503  502  0.00000000000E+00  0.00000000000E+00  0.19907280683E+03  0.19907280683E+03  0.00000000000E+00 0.  1.
         21   -1    0    0  501  503 -0.00000000000E+00 -0.00000000000E+00 -0.44257427098E+03  0.44257427098E+03  0.00000000000E+00 0. -1.
          6    1    1    2  501    0 -0.80834962115E+02 -0.21035717629E+03 -0.21467321824E+03  0.35608710078E+03  0.17300000000E+03 0. -1.
         -6    1    1    2    0  502  0.80834962115E+02  0.21035717629E+03 -0.28828245922E+02  0.28555997703E+03  0.17300000000E+03 0. -1.
<mgrwt>
<rscale>  2 0.28410110E+03</rscale>
<asrwt>0</asrwt>
<pdfrwt beam="1">  1       21 0.30626586E-01 0.28410110E+03</pdfrwt>
<pdfrwt beam="2">  1       21 0.68088348E-01 0.28410110E+03</pdfrwt>
<totfact> 0.19227189E+04</totfact>
</mgrwt>
</event>
<event>
 4    1  0.3935877E+000  0.1844905E+03  0.7546771E-02  0.1163527E+00
         21   -1    0    0  503  502  0.00000000000E+00  0.00000000000E+00  0.72403883954E+03  0.72403883954E+03  0.00000000000E+00 0. -1.
         21   -1    0    0  501  503 -0.00000000000E+00 -0.00000000000E+00 -0.64250109646E+02  0.64250109646E+02  0.00000000000E+00 0. -1.
          6    1    1    2  501    0 -0.59420945389E+02 -0.24018503051E+02  0.12572328107E+03  0.22325563967E+03  0.17300000000E+03 0. -1.
         -6    1    1    2    0  502  0.59420945389E+02  0.24018503051E+02  0.53406544882E+03  0.56503330952E+03  0.17300000000E+03 0. -1.
<mgrwt>
<rscale>  2 0.18449048E+03</rscale>
<asrwt>0</asrwt>
<pdfrwt beam="1">  1       21 0.11139058E+00 0.18449048E+03</pdfrwt>
<pdfrwt beam="2">  1       21 0.98846328E-02 0.18449048E+03</pdfrwt>
<totfact> 0.52686841E+04</totfact>
</mgrwt>
</event>
<event>
 4    1  0.3935877E+000  0.1755397E+03  0.7546771E-02  0.1172191E+00
         21   -1    0    0  503  502  0.00000000000E+00  0.00000000000E+00  0.15792166321E+03  0.15792166321E+03  0.00000000000E+00 0. -1.
         21   -1    0    0  501  503 -0.00000000000E+00 -0.00000000000E+00 -0.55383897997E+03  0.55383897997E+03  0.00000000000E+00 0. -1.
          6    1    1    2  501    0  0.22336979895E+02 -0.19652688474E+02 -0.48436821154E+03  0.51519582023E+03  0.17300000000E+03 0. -1.
         -6    1    1    2    0  502 -0.22336979895E+02  0.19652688474E+02  0.88450894781E+02  0.19656482295E+03  0.17300000000E+03 0. -1.
<mgrwt>
<rscale>  2 0.17553965E+03</rscale>
<asrwt>0</asrwt>
<pdfrwt beam="1">  1       21 0.24295641E-01 0.17553965E+03</pdfrwt>
<pdfrwt beam="2">  1       21 0.85205996E-01 0.17553965E+03</pdfrwt>
<totfact> 0.19263233E+04</totfact>
</mgrwt>
</event>
<event>
 4    1  0.3935877E+000  0.2100206E+03  0.7546771E-02  0.1141550E+00
         21   -1    0    0  501  502  0.00000000000E+00  0.00000000000E+00  0.15796644360E+04  0.15796644360E+04  0.00000000000E+00 0. -1.
         21   -1    0    0  502  503 -0.00000000000E+00 -0.00000000000E+00 -0.29447228926E+02  0.29447228926E+02  0.00000000000E+00 0. -1.
          6    1    1    2  501    0 -0.52401904988E+02 -0.10692845656E+03  0.95816610471E+03  0.98091331864E+03  0.17300000000E+03 0. -1.
         -6    1    1    2    0  503  0.52401904988E+02  0.10692845656E+03  0.59205110241E+03  0.62819834633E+03  0.17300000000E+03 0. -1.
<mgrwt>
<rscale>  2 0.21002060E+03</rscale>
<asrwt>0</asrwt>
<pdfrwt beam="1">  1       21 0.24302523E+00 0.21002060E+03</pdfrwt>
<pdfrwt beam="2">  1       21 0.45303442E-02 0.21002060E+03</pdfrwt>
<totfact> 0.22904722E+04</totfact>
</mgrwt>
</event>
<event>
 4    1  0.3935877E+000  0.2008195E+03  0.7546771E-02  0.1149049E+00
         21   -1    0    0  503  502  0.00000000000E+00  0.00000000000E+00  0.11434295505E+04  0.11434295505E+04  0.00000000000E+00 0.  1.
         21   -1    0    0  501  503 -0.00000000000E+00 -0.00000000000E+00 -0.97574074558E+02  0.97574074558E+02  0.00000000000E+00 0.  1.
          6    1    1    2  501    0 -0.10187623942E+03  0.45518122168E+01  0.27095350538E+02  0.20263919950E+03  0.17300000000E+03 0.  1.
         -6    1    1    2    0  502  0.10187623942E+03 -0.45518122168E+01  0.10187601254E+04  0.10383644256E+04  0.17300000000E+03 0.  1.
<mgrwt>
<rscale>  2 0.20081954E+03</rscale>
<asrwt>0</asrwt>
<pdfrwt beam="1">  1       21 0.17591223E+00 0.20081954E+03</pdfrwt>
<pdfrwt beam="2">  1       21 0.15011397E-01 0.20081954E+03</pdfrwt>
<totfact> 0.75517682E+03</totfact>
</mgrwt>
</event>
<event>
 4    1  0.3935877E+000  0.1928530E+03  0.7546771E-02  0.1155913E+00
         21   -1    0    0  503  502  0.00000000000E+00  0.00000000000E+00  0.57111570688E+03  0.57111570688E+03  0.00000000000E+00 0.  1.
         21   -1    0    0  501  503 -0.00000000000E+00 -0.00000000000E+00 -0.10022970309E+03  0.10022970309E+03  0.00000000000E+00 0.  1.
          6    1    1    2  501    0 -0.11058947217E+02  0.84504228977E+02  0.36779412131E+02  0.19632878084E+03  0.17300000000E+03 0.  1.
         -6    1    1    2    0  502  0.11058947217E+02 -0.84504228977E+02  0.43410659166E+03  0.47501662913E+03  0.17300000000E+03 0.  1.
<mgrwt>
<rscale>  2 0.19285296E+03</rscale>
<asrwt>0</asrwt>
<pdfrwt beam="1">  1       21 0.87863953E-01 0.19285296E+03</pdfrwt>
<pdfrwt beam="2">  1       21 0.15419955E-01 0.19285296E+03</pdfrwt>
<totfact> 0.41422636E+04</totfact>
</mgrwt>
</event>
<event>
 4    1  0.3935877E+000  0.1787077E+03  0.7546771E-02  0.1169060E+00
         21   -1    0    0  501  502  0.00000000000E+00  0.00000000000E+00  0.14974438711E+04  0.14974438711E+04  0.00000000000E+00 0.  1.
         21   -1    0    0  502  503 -0.00000000000E+00 -0.00000000000E+00 -0.34910951290E+02  0.34910951290E+02  0.00000000000E+00 0.  1.
          6    1    1    2  501    0 -0.44792481410E+02 -0.10330163709E+01  0.12091881892E+04  0.12223225885E+04  0.17300000000E+03 0.  1.
         -6    1    1    2    0  503  0.44792481410E+02  0.10330163709E+01  0.25334473065E+03  0.31003223391E+03  0.17300000000E+03 0.  1.
<mgrwt>
<rscale>  2 0.17870768E+03</rscale>
<asrwt>0</asrwt>
<pdfrwt beam="1">  1       21 0.23037593E+00 0.17870768E+03</pdfrwt>
<pdfrwt beam="2">  1       21 0.53709167E-02 0.17870768E+03</pdfrwt>
<totfact> 0.20967893E+04</totfact>
</mgrwt>
</event>
<event>
 4    1  0.3935877E+000  0.1830825E+03  0.7546771E-02  0.1164853E+00
         21   -1    0    0  503  502  0.00000000000E+00  0.00000000000E+00  0.21513228033E+04  0.21513228033E+04  0.00000000000E+00 0. -1.
         21   -1    0    0  501  503 -0.00000000000E+00 -0.00000000000E+00 -0.16991702566E+02  0.16991702566E+02  0.00000000000E+00 0. -1.
          6    1    1    2  501    0  0.25921539841E+02  0.54021211206E+02  0.75475160216E+03  0.77663968380E+03  0.17300000000E+03 0.  1.
         -6    1    1    2    0  502 -0.25921539841E+02 -0.54021211206E+02  0.13795794986E+04  0.13916748220E+04  0.17300000000E+03 0.  1.
<mgrwt>
<rscale>  2 0.18308254E+03</rscale>
<asrwt>0</asrwt>
<pdfrwt beam="1">  1       21 0.33097252E+00 0.18308254E+03</pdfrwt>
<pdfrwt beam="2">  1       21 0.26141098E-02 0.18308254E+03</pdfrwt>
<totfact> 0.18142930E+04</totfact>
</mgrwt>
</event>
<event>
 4    1  0.3935877E+000  0.1791323E+03  0.7546771E-02  0.1168645E+00
         21   -1    0    0  503  502  0.00000000000E+00  0.00000000000E+00  0.22206381286E+02  0.22206381286E+02  0.00000000000E+00 0. -1.
         21   -1    0    0  501  503 -0.00000000000E+00 -0.00000000000E+00 -0.16968061837E+04  0.16968061837E+04  0.00000000000E+00 0.  1.
          6    1    1    2  501    0  0.44417128143E+02 -0.13656841005E+02 -0.11684001788E+04  0.11820521851E+04  0.17300000000E+03 0.  1.
         -6    1    1    2    0  502 -0.44417128143E+02  0.13656841005E+02 -0.50619962367E+03  0.53696037990E+03  0.17300000000E+03 0. -1.
<mgrwt>
<rscale>  2 0.17913233E+03</rscale>
<asrwt>0</asrwt>
<pdfrwt beam="1">  1       21 0.34163661E-02 0.17913233E+03</pdfrwt>
<pdfrwt beam="2">  1       21 0.26104712E+00 0.17913233E+03</pdfrwt>
<totfact> 0.29569550E+04</totfact>
</mgrwt>
</event>
<event>
 4    1  0.3935877E+000  0.1753832E+03  0.7546771E-02  0.1172347E+00
         21   -1    0    0  503  502  0.00000000000E+00  0.00000000000E+00  0.50603061409E+02  0.50603061409E+02  0.00000000000E+00 0. -1.
         21   -1    0    0  501  503 -0.00000000000E+00 -0.00000000000E+00 -0.96185488673E+03  0.96185488673E+03  0.00000000000E+00 0. -1.
          6    1    1    2  501    0  0.16283255532E+02 -0.23772645132E+02 -0.76273613820E+03  0.78264021082E+03  0.17300000000E+03 0. -1.
         -6    1    1    2    0  502 -0.16283255532E+02  0.23772645132E+02 -0.14851568711E+03  0.22981773732E+03  0.17300000000E+03 0. -1.
<mgrwt>
<rscale>  2 0.17538325E+03</rscale>
<asrwt>0</asrwt>
<pdfrwt beam="1">  1       21 0.77850877E-02 0.17538325E+03</pdfrwt>
<pdfrwt beam="2">  1       21 0.14797765E+00 0.17538325E+03</pdfrwt>
<totfact> 0.39376209E+04</totfact>
</mgrwt>
</event>
<event>
 4    1  0.3935877E+000  0.2000196E+03  0.7546771E-02  0.1149722E+00
         21   -1    0    0  503  502  0.00000000000E+00  0.00000000000E+00  0.41480987932E+03  0.41480987932E+03  0.00000000000E+00 0.  1.
         21   -1    0    0  501  503 -0.00000000000E+00 -0.00000000000E+00 -0.97655515983E+02  0.97655515983E+02  0.00000000000E+00 0.  1.
          6    1    1    2  501    0 -0.20656020854E+02 -0.98245434727E+02  0.13009175558E+03  0.23860364941E+03  0.17300000000E+03 0.  1.
         -6    1    1    2    0  502  0.20656020854E+02  0.98245434727E+02  0.18706260776E+03  0.27386174589E+03  0.17300000000E+03 0.  1.
<mgrwt>
<rscale>  2 0.20001959E+03</rscale>
<asrwt>0</asrwt>
<pdfrwt beam="1">  1       21 0.63816904E-01 0.20001959E+03</pdfrwt>
<pdfrwt beam="2">  1       21 0.15023926E-01 0.20001959E+03</pdfrwt>
<totfact> 0.88444603E+04</totfact>
</mgrwt>
</event>
<event>
 4    1  0.3935877E+000  0.2056489E+03  0.7546771E-02  0.1145059E+00
         21   -1    0    0  503  502  0.00000000000E+00  0.00000000000E+00  0.17216517372E+03  0.17216517372E+03  0.00000000000E+00 0. -1.
         21   -1    0    0  501  503 -0.00000000000E+00 -0.00000000000E+00 -0.63840273157E+03  0.63840273157E+03  0.00000000000E+00 0.  1.
          6    1    1    2  501    0 -0.94532764261E+02  0.58532188655E+02 -0.55100710758E+03  0.58813288739E+03  0.17300000000E+03 0.  1.
         -6    1    1    2    0  502  0.94532764261E+02 -0.58532188655E+02  0.84769549728E+02  0.22243501790E+03  0.17300000000E+03 0. -1.
<mgrwt>
<rscale>  2 0.20564888E+03</rscale>
<asrwt>0</asrwt>
<pdfrwt beam="1">  1       21 0.26486949E-01 0.20564888E+03</pdfrwt>
<pdfrwt beam="2">  1       21 0.98215807E-01 0.20564888E+03</pdfrwt>
<totfact> 0.11513690E+04</totfact>
</mgrwt>
</event>
<event>
 4    1  0.3935877E+000  0.2693935E+03  0.7546771E-02  0.1101627E+00
         21   -1    0    0  501  502  0.00000000000E+00  0.00000000000E+00  0.69296233563E+03  0.69296233563E+03  0.00000000000E+00 0. -1.
         21   -1    0    0  502  503 -0.00000000000E+00 -0.00000000000E+00 -0.14815239475E+03  0.14815239475E+03  0.00000000000E+00 0. -1.
          6    1    1    2  501    0  0.19327331571E+03  0.72727405201E+02  0.50009063914E+03  0.56803476776E+03  0.17300000000E+03 0. -1.
         -6    1    1    2    0  503 -0.19327331571E+03 -0.72727405201E+02  0.44719301740E+02  0.27307996262E+03  0.17300000000E+03 0. -1.
<mgrwt>
<rscale>  2 0.26939349E+03</rscale>
<asrwt>0</asrwt>
<pdfrwt beam="1">  1       21 0.10660959E+00 0.26939349E+03</pdfrwt>
<pdfrwt beam="2">  1       21 0.22792677E-01 0.26939349E+03</pdfrwt>
<totfact> 0.12148267E+04</totfact>
</mgrwt>
</event>
<event>
 4    1  0.3935877E+000  0.2167211E+03  0.7546771E-02  0.1136351E+00
         21   -1    0    0  501  502  0.00000000000E+00  0.00000000000E+00  0.24478507121E+04  0.24478507121E+04  0.00000000000E+00 0. -1.
         21   -1    0    0  502  503 -0.00000000000E+00 -0.00000000000E+00 -0.71149209156E+02  0.71149209156E+02  0.00000000000E+00 0. -1.
          6    1    1    2  501    0  0.47231732739E+02  0.12168901637E+03  0.22647043670E+04  0.22750503122E+04  0.17300000000E+03 0. -1.
         -6    1    1    2    0  503 -0.47231732739E+02 -0.12168901637E+03  0.11199713594E+03  0.24394960902E+03  0.17300000000E+03 0. -1.
<mgrwt>
<rscale>  2 0.21672114E+03</rscale>
<asrwt>0</asrwt>
<pdfrwt beam="1">  1       21 0.37659235E+00 0.21672114E+03</pdfrwt>
<pdfrwt beam="2">  1       21 0.10946034E-01 0.21672114E+03</pdfrwt>
<totfact> 0.80970944E+02</totfact>
</mgrwt>
</event>
<event>
 4    1  0.3935877E+000  0.1734380E+03  0.7546771E-02  0.1174309E+00
         21   -1    0    0  503  502  0.00000000000E+00  0.00000000000E+00  0.32735800793E+02  0.32735800793E+02  0.00000000000E+00 0. -1.
         21   -1    0    0  501  503 -0.00000000000E+00 -0.00000000000E+00 -0.10135746438E+04  0.10135746438E+04  0.00000000000E+00 0. -1.
          6    1    1    2  501    0 -0.83938779136E+01 -0.90147565244E+01 -0.65031404170E+03  0.67304463140E+03  0.17300000000E+03 0.  1.
         -6    1    1    2    0  502  0.83938779136E+01  0.90147565244E+01 -0.33052480132E+03  0.37326581321E+03  0.17300000000E+03 0.  1.
<mgrwt>
<rscale>  2 0.17343795E+03</rscale>
<asrwt>0</asrwt>
<pdfrwt beam="1">  1       21 0.50362772E-02 0.17343795E+03</pdfrwt>
<pdfrwt beam="2">  1       21 0.15593455E+00 0.17343795E+03</pdfrwt>
<totfact> 0.72403731E+04</totfact>
</mgrwt>
</event>
<event>
 4    1  0.3935877E+000  0.3747204E+03  0.7546771E-02  0.1052903E+00
         21   -1    0    0  503  502  0.00000000000E+00  0.00000000000E+00  0.75226420617E+03  0.75226420617E+03  0.00000000000E+00 0. -1.
         21   -1    0    0  501  503 -0.00000000000E+00 -0.00000000000E+00 -0.21567604263E+03  0.21567604263E+03  0.00000000000E+00 0.  1.
          6    1    1    2  501    0  0.18701627145E+03 -0.27479312427E+03  0.90769103234E+02  0.38555722926E+03  0.17300000000E+03 0. -1.
         -6    1    1    2    0  502 -0.18701627145E+03  0.27479312427E+03  0.44581906030E+03  0.58238301955E+03  0.17300000000E+03 0. -1.
<mgrwt>
<rscale>  2 0.37472036E+03</rscale>
<asrwt>0</asrwt>
<pdfrwt beam="1">  1       21 0.11573295E+00 0.37472036E+03</pdfrwt>
<pdfrwt beam="2">  1       21 0.33180930E-01 0.37472036E+03</pdfrwt>
<totfact> 0.45420599E+03</totfact>
</mgrwt>
</event>
<event>
 4    1  0.3935877E+000  0.2107728E+03  0.7546771E-02  0.1140955E+00
         21   -1    0    0  503  502  0.00000000000E+00  0.00000000000E+00  0.13877505311E+03  0.13877505311E+03  0.00000000000E+00 0. -1.
         21   -1    0    0  501  503 -0.00000000000E+00 -0.00000000000E+00 -0.10023201366E+04  0.10023201366E+04  0.00000000000E+00 0. -1.
          6    1    1    2  501    0  0.57337601953E+02  0.10587055737E+03 -0.90247166864E+03  0.92675794478E+03  0.17300000000E+03 0. -1.
         -6    1    1    2    0  502 -0.57337601953E+02 -0.10587055737E+03  0.38926585180E+02  0.21433724489E+03  0.17300000000E+03 0. -1.
<mgrwt>
<rscale>  2 0.21077281E+03</rscale>
<asrwt>0</asrwt>
<pdfrwt beam="1">  1       21 0.21350009E-01 0.21077281E+03</pdfrwt>
<pdfrwt beam="2">  1       21 0.15420309E+00 0.21077281E+03</pdfrwt>
<totfact> 0.55913709E+03</totfact>
</mgrwt>
</event>
<event>
 4    1  0.3935877E+000  0.2539599E+03  0.7546771E-02  0.1110828E+00
         21   -1    0    0  503  502  0.00000000000E+00  0.00000000000E+00  0.92725531639E+02  0.92725531639E+02  0.00000000000E+00 0.  1.
         21   -1    0    0  501  503 -0.00000000000E+00 -0.00000000000E+00 -0.70257696179E+03  0.70257696179E+03  0.00000000000E+00 0.  1.
          6    1    1    2  501    0  0.18120679396E+03 -0.41601790751E+02 -0.26516843764E+03  0.36716469260E+03  0.17300000000E+03 0.  1.
         -6    1    1    2    0  502 -0.18120679396E+03  0.41601790751E+02 -0.34468299251E+03  0.42813780083E+03  0.17300000000E+03 0.  1.
<mgrwt>
<rscale>  2 0.25395986E+03</rscale>
<asrwt>0</asrwt>
<pdfrwt beam="1">  1       21 0.14265465E-01 0.25395986E+03</pdfrwt>
<pdfrwt beam="2">  1       21 0.10808877E+00 0.25395986E+03</pdfrwt>
<totfact> 0.28348547E+04</totfact>
</mgrwt>
</event>
<event>
 4    1  0.3935877E+000  0.2615741E+03  0.7546771E-02  0.1106201E+00
         21   -1    0    0  501  502  0.00000000000E+00  0.00000000000E+00  0.11721638350E+03  0.11721638350E+03  0.00000000000E+00 0. -1.
         21   -1    0    0  502  503 -0.00000000000E+00 -0.00000000000E+00 -0.68985031922E+03  0.68985031922E+03  0.00000000000E+00 0.  1.
          6    1    1    2  501    0  0.16612857307E+03  0.10437101204E+03 -0.12803512499E+03  0.29122843985E+03  0.17300000000E+03 0. -1.
         -6    1    1    2    0  503 -0.16612857307E+03 -0.10437101204E+03 -0.44459881073E+03  0.51583826287E+03  0.17300000000E+03 0.  1.
<mgrwt>
<rscale>  2 0.26157410E+03</rscale>
<asrwt>0</asrwt>
<pdfrwt beam="1">  1       21 0.18033289E-01 0.26157410E+03</pdfrwt>
<pdfrwt beam="2">  1       21 0.10613082E+00 0.26157410E+03</pdfrwt>
<totfact> 0.19170199E+04</totfact>
</mgrwt>
</event>
<event>
 4    1  0.3935877E+000  0.1903539E+03  0.7546771E-02  0.1158143E+00
         21   -1    0    0  503  502  0.00000000000E+00  0.00000000000E+00  0.10544573926E+03  0.10544573926E+03  0.00000000000E+00 0.  1.
         21   -1    0    0  501  503 -0.00000000000E+00 -0.00000000000E+00 -0.25593307755E+04  0.25593307755E+04  0.00000000000E+00 0.  1.
          6    1    1    2  501    0  0.91353844376E+01  0.78880660532E+02 -0.24666604073E+04  0.24739943773E+04  0.17300000000E+03 0.  1.
         -6    1    1    2    0  502 -0.91353844376E+01 -0.78880660532E+02  0.12775371109E+02  0.19078213743E+03  0.17300000000E+03 0.  1.
<mgrwt>
<rscale>  2 0.19035392E+03</rscale>
<asrwt>0</asrwt>
<pdfrwt beam="1">  1       21 0.16222421E-01 0.19035392E+03</pdfrwt>
<pdfrwt beam="2">  1       21 0.39374320E+00 0.19035392E+03</pdfrwt>
<totfact> 0.32512100E+02</totfact>
</mgrwt>
</event>
<event>
 4    1  0.3935877E+000  0.4029304E+03  0.7546771E-02  0.1042770E+00
         21   -1    0    0  501  502  0.00000000000E+00  0.00000000000E+00  0.34618777197E+03  0.34618777197E+03  0.00000000000E+00 0. -1.
         21   -1    0    0  502  503 -0.00000000000E+00 -0.00000000000E+00 -0.48470627687E+03  0.48470627687E+03  0.00000000000E+00 0.  1.
          6    1    1    2  501    0  0.33075316930E+03 -0.15174410379E+03 -0.14410676805E+03  0.42792486798E+03  0.17300000000E+03 0. -1.
         -6    1    1    2    0  503 -0.33075316930E+03  0.15174410379E+03  0.55882631515E+01  0.40296918086E+03  0.17300000000E+03 0. -1.
<mgrwt>
<rscale>  2 0.40293043E+03</rscale>
<asrwt>0</asrwt>
<pdfrwt beam="1">  1       21 0.53259657E-01 0.40293043E+03</pdfrwt>
<pdfrwt beam="2">  1       21 0.74570196E-01 0.40293043E+03</pdfrwt>
<totfact> 0.48034471E+03</totfact>
</mgrwt>
</event>
<event>
 4    1  0.3935877E+000  0.1743102E+03  0.7546771E-02  0.1173426E+00
         21   -1    0    0  503  502  0.00000000000E+00  0.00000000000E+00  0.65012175086E+03  0.65012175086E+03  0.00000000000E+00 0. -1.
         21   -1    0    0  501  503 -0.00000000000E+00 -0.00000000000E+00 -0.74988289468E+02  0.74988289468E+02  0.00000000000E+00 0. -1.
          6    1    1    2  501    0 -0.13168656592E+02  0.16781965117E+02  0.65028555301E+02  0.18604505066E+03  0.17300000000E+03 0. -1.
         -6    1    1    2    0  502  0.13168656592E+02 -0.16781965117E+02  0.51010490609E+03  0.53906498967E+03  0.17300000000E+03 0. -1.
<mgrwt>
<rscale>  2 0.17431021E+03</rscale>
<asrwt>0</asrwt>
<pdfrwt beam="1">  1       21 0.10001873E+00 0.17431021E+03</pdfrwt>
<pdfrwt beam="2">  1       21 0.11536660E-01 0.17431021E+03</pdfrwt>
<totfact> 0.52140453E+04</totfact>
</mgrwt>
</event>
<event>
 4    1  0.3935877E+000  0.1832443E+03  0.7546771E-02  0.1164700E+00
         21   -1    0    0  501  502  0.00000000000E+00  0.00000000000E+00  0.33364141648E+02  0.33364141648E+02  0.00000000000E+00 0. -1.
         21   -1    0    0  502  503 -0.00000000000E+00 -0.00000000000E+00 -0.11065720234E+04  0.11065720234E+04  0.00000000000E+00 0. -1.
          6    1    1    2  501    0 -0.13103036990E+02  0.58972659857E+02 -0.36513619042E+03  0.40853751571E+03  0.17300000000E+03 0. -1.
         -6    1    1    2    0  503  0.13103036990E+02 -0.58972659857E+02 -0.70807169138E+03  0.73139864939E+03  0.17300000000E+03 0. -1.
<mgrwt>
<rscale>  2 0.18324427E+03</rscale>
<asrwt>0</asrwt>
<pdfrwt beam="1">  1       21 0.51329448E-02 0.18324427E+03</pdfrwt>
<pdfrwt beam="2">  1       21 0.17024185E+00 0.18324427E+03</pdfrwt>
<totfact> 0.54984329E+04</totfact>
</mgrwt>
</event>
<event>
 4    1  0.3935877E+000  0.2138572E+03  0.7546771E-02  0.1138547E+00
         21   -1    0    0  501  502  0.00000000000E+00  0.00000000000E+00  0.57660610848E+02  0.57660610848E+02  0.00000000000E+00 0.  1.
         21   -1    0    0  502  503 -0.00000000000E+00 -0.00000000000E+00 -0.33855047782E+04  0.33855047782E+04  0.00000000000E+00 0.  1.
          6    1    1    2  501    0  0.87811931815E+02  0.89972120053E+02 -0.15744908722E+03  0.26556568457E+03  0.17300000000E+03 0.  1.
         -6    1    1    2    0  503 -0.87811931815E+02 -0.89972120053E+02 -0.31703950801E+04  0.31775997045E+04  0.17300000000E+03 0.  1.
<mgrwt>
<rscale>  2 0.21385724E+03</rscale>
<asrwt>0</asrwt>
<pdfrwt beam="1">  1       21 0.88708637E-02 0.21385724E+03</pdfrwt>
<pdfrwt beam="2">  1       21 0.52084686E+00 0.21385724E+03</pdfrwt>
<totfact> 0.12984673E+02</totfact>
</mgrwt>
</event>
<event>
 4    1  0.3935877E+000  0.1953889E+03  0.7546771E-02  0.1153689E+00
         21   -1    0    0  501  502  0.00000000000E+00  0.00000000000E+00  0.25815786265E+03  0.25815786265E+03  0.00000000000E+00 0.  1.
         21   -1    0    0  502  503 -0.00000000000E+00 -0.00000000000E+00 -0.36882165008E+03  0.36882165008E+03  0.00000000000E+00 0.  1.
          6    1    1    2  501    0 -0.73436738898E+02  0.53430848914E+02  0.18730248048E+03  0.27066405271E+03  0.17300000000E+03 0.  1.
         -6    1    1    2    0  503  0.73436738898E+02 -0.53430848914E+02 -0.29796626792E+03  0.35631546002E+03  0.17300000000E+03 0.  1.
<mgrwt>
<rscale>  2 0.19538887E+03</rscale>
<asrwt>0</asrwt>
<pdfrwt beam="1">  1       21 0.39716594E-01 0.19538887E+03</pdfrwt>
<pdfrwt beam="2">  1       21 0.56741792E-01 0.19538887E+03</pdfrwt>
<totfact> 0.17811194E+04</totfact>
</mgrwt>
</event>
<event>
 4    1  0.3935877E+000  0.1785815E+03  0.7546771E-02  0.1169183E+00
         21   -1    0    0  503  502  0.00000000000E+00  0.00000000000E+00  0.22438471699E+04  0.22438471699E+04  0.00000000000E+00 0. -1.
         21   -1    0    0  501  503 -0.00000000000E+00 -0.00000000000E+00 -0.18068822111E+02  0.18068822111E+02  0.00000000000E+00 0. -1.
          6    1    1    2  501    0 -0.44257201504E+02 -0.19095829185E+01  0.59043111908E+03  0.61684702542E+03  0.17300000000E+03 0. -1.
         -6    1    1    2    0  502  0.44257201504E+02  0.19095829185E+01  0.16353472287E+04  0.16450689666E+04  0.17300000000E+03 0. -1.
<mgrwt>
<rscale>  2 0.17858148E+03</rscale>
<asrwt>0</asrwt>
<pdfrwt beam="1">  1       21 0.34520704E+00 0.17858148E+03</pdfrwt>
<pdfrwt beam="2">  1       21 0.27798206E-02 0.17858148E+03</pdfrwt>
<totfact> 0.13619759E+04</totfact>
</mgrwt>
</event>
<event>
 4    1  0.3935877E+000  0.2662048E+03  0.7546771E-02  0.1103472E+00
         21   -1    0    0  501  502  0.00000000000E+00  0.00000000000E+00  0.51128744115E+03  0.51128744115E+03  0.00000000000E+00 0.  1.
         21   -1    0    0  502  503 -0.00000000000E+00 -0.00000000000E+00 -0.14031498637E+03  0.14031498637E+03  0.00000000000E+00 0. -1.
          6    1    1    2  501    0  0.20139672309E+03 -0.19373757101E+02  0.22149401559E+03  0.34630128714E+03  0.17300000000E+03 0.  1.
         -6    1    1    2    0  503 -0.20139672309E+03  0.19373757101E+02  0.14947843919E+03  0.30530114038E+03  0.17300000000E+03 0. -1.
<mgrwt>
<rscale>  2 0.26620478E+03</rscale>
<asrwt>0</asrwt>
<pdfrwt beam="1">  1       21 0.78659606E-01 0.26620478E+03</pdfrwt>
<pdfrwt beam="2">  1       21 0.21586921E-01 0.26620478E+03</pdfrwt>
<totfact> 0.27549400E+04</totfact>
</mgrwt>
</event>
<event>
 4    1  0.3935877E+000  0.2219897E+03  0.7546771E-02  0.1132408E+00
         21   -1    0    0  503  502  0.00000000000E+00  0.00000000000E+00  0.53565020366E+03  0.53565020366E+03  0.00000000000E+00 0. -1.
         21   -1    0    0  501  503 -0.00000000000E+00 -0.00000000000E+00 -0.14599287366E+03  0.14599287366E+03  0.00000000000E+00 0. -1.
          6    1    1    2  501    0 -0.10125307427E+03 -0.95384674427E+02 -0.12439408374E+02  0.22233794108E+03  0.17300000000E+03 0. -1.
         -6    1    1    2    0  502  0.10125307427E+03  0.95384674427E+02  0.40209673837E+03  0.45930513624E+03  0.17300000000E+03 0. -1.
<mgrwt>
<rscale>  2 0.22198969E+03</rscale>
<asrwt>0</asrwt>
<pdfrwt beam="1">  1       21 0.82407723E-01 0.22198969E+03</pdfrwt>
<pdfrwt beam="2">  1       21 0.22460442E-01 0.22198969E+03</pdfrwt>
<totfact> 0.23475149E+04</totfact>
</mgrwt>
</event>
<event>
 4    1  0.3935877E+000  0.1842925E+03  0.7546771E-02  0.1163712E+00
         21   -1    0    0  501  502  0.00000000000E+00  0.00000000000E+00  0.65336077977E+02  0.65336077977E+02  0.00000000000E+00 0.  1.
         21   -1    0    0  502  503 -0.00000000000E+00 -0.00000000000E+00 -0.58616754397E+03  0.58616754397E+03  0.00000000000E+00 0.  1.
          6    1    1    2  501    0  0.50840322067E+02  0.38078784547E+02 -0.15083058390E+03  0.23814616776E+03  0.17300000000E+03 0.  1.
         -6    1    1    2    0  503 -0.50840322067E+02 -0.38078784547E+02 -0.37000088210E+03  0.41335745419E+03  0.17300000000E+03 0.  1.
<mgrwt>
<rscale>  2 0.18429252E+03</rscale>
<asrwt>0</asrwt>
<pdfrwt beam="1">  1       21 0.10051704E-01 0.18429252E+03</pdfrwt>
<pdfrwt beam="2">  1       21 0.90179625E-01 0.18429252E+03</pdfrwt>
<totfact> 0.84384291E+04</totfact>
</mgrwt>
</event>
<event>
 4    1  0.3935877E+000  0.1904097E+03  0.7546771E-02  0.1158092E+00
         21   -1    0    0  503  502  0.00000000000E+00  0.00000000000E+00  0.16731689818E+03  0.16731689818E+03  0.00000000000E+00 0.  1.
         21   -1    0    0  501  503 -0.00000000000E+00 -0.00000000000E+00 -0.55874772053E+03  0.55874772053E+03  0.00000000000E+00 0.  1.
          6    1    1    2  501    0  0.65021940746E+02  0.45814941315E+02 -0.47976046772E+03  0.51616467141E+03  0.17300000000E+03 0.  1.
         -6    1    1    2    0  502 -0.65021940746E+02 -0.45814941315E+02  0.88329645363E+02  0.20989994730E+03  0.17300000000E+03 0.  1.
<mgrwt>
<rscale>  2 0.19040972E+03</rscale>
<asrwt>0</asrwt>
<pdfrwt beam="1">  1       21 0.25741061E-01 0.19040972E+03</pdfrwt>
<pdfrwt beam="2">  1       21 0.85961189E-01 0.19040972E+03</pdfrwt>
<totfact> 0.16751350E+04</totfact>
</mgrwt>
</event>
<event>
 4    1  0.3935877E+000  0.2154261E+03  0.7546771E-02  0.1137340E+00
         21   -1    0    0  503  502  0.00000000000E+00  0.00000000000E+00  0.80646829603E+02  0.80646829603E+02  0.00000000000E+00 0. -1.
         21   -1    0    0  501  503 -0.00000000000E+00 -0.00000000000E+00 -0.12117004999E+04  0.12117004999E+04  0.00000000000E+00 0.  1.
          6    1    1    2  501    0 -0.12729405296E+03  0.16601636570E+02 -0.10337629960E+04  0.10559707961E+04  0.17300000000E+03 0.  1.
         -6    1    1    2    0  502  0.12729405296E+03 -0.16601636570E+02 -0.97290674311E+02  0.23637653345E+03  0.17300000000E+03 0. -1.
<mgrwt>
<rscale>  2 0.21542607E+03</rscale>
<asrwt>0</asrwt>
<pdfrwt beam="1">  1       21 0.12407205E-01 0.21542607E+03</pdfrwt>
<pdfrwt beam="2">  1       21 0.18641546E+00 0.21542607E+03</pdfrwt>
<totfact> 0.89405539E+03</totfact>
</mgrwt>
</event>
<event>
 4    1  0.3935877E+000  0.1791874E+03  0.7546771E-02  0.1168592E+00
         21   -1    0    0  501  502  0.00000000000E+00  0.00000000000E+00  0.18656200548E+03  0.18656200548E+03  0.00000000000E+00 0. -1.
         21   -1    0    0  502  503 -0.00000000000E+00 -0.00000000000E+00 -0.19861124963E+03  0.19861124963E+03  0.00000000000E+00 0. -1.
          6    1    1    2  501    0  0.26501990448E+02 -0.38428637738E+02  0.64331909121E+02  0.19038568808E+03  0.17300000000E+03 0. -1.
         -6    1    1    2    0  503 -0.26501990448E+02  0.38428637738E+02 -0.76381153270E+02  0.19478756703E+03  0.17300000000E+03 0. -1.
<mgrwt>
<rscale>  2 0.17918738E+03</rscale>
<asrwt>0</asrwt>
<pdfrwt beam="1">  1       21 0.28701847E-01 0.17918738E+03</pdfrwt>
<pdfrwt beam="2">  1       21 0.30555577E-01 0.17918738E+03</pdfrwt>
<totfact> 0.11996606E+05</totfact>
</mgrwt>
</event>
<event>
 4    1  0.3935877E+000  0.2873422E+03  0.7546771E-02  0.1091745E+00
         21   -1    0    0  501  502  0.00000000000E+00  0.00000000000E+00  0.12603780030E+04  0.12603780030E+04  0.00000000000E+00 0. -1.
         21   -1    0    0  502  503 -0.00000000000E+00 -0.00000000000E+00 -0.14752011035E+03  0.14752011035E+03  0.00000000000E+00 0.  1.
          6    1    1    2  501    0 -0.12816419878E+03 -0.19029058330E+03  0.10813005605E+04  0.11188281683E+04  0.17300000000E+03 0. -1.
         -6    1    1    2    0  503  0.12816419878E+03  0.19029058330E+03  0.31557332144E+02  0.28906994509E+03  0.17300000000E+03 0.  1.
<mgrwt>
<rscale>  2 0.28734225E+03</rscale>
<asrwt>0</asrwt>
<pdfrwt beam="1">  1       21 0.19390430E+00 0.28734225E+03</pdfrwt>
<pdfrwt beam="2">  1       21 0.22695402E-01 0.28734225E+03</pdfrwt>
<totfact> 0.24750793E+03</totfact>
</mgrwt>
</event>
<event>
 4    1  0.3935877E+000  0.2145218E+03  0.7546771E-02  0.1138034E+00
         21   -1    0    0  501  502  0.00000000000E+00  0.00000000000E+00  0.51367022457E+03  0.51367022457E+03  0.00000000000E+00 0.  1.
         21   -1    0    0  502  503 -0.00000000000E+00 -0.00000000000E+00 -0.13059843901E+03  0.13059843901E+03  0.00000000000E+00 0. -1.
          6    1    1    2  501    0 -0.83049002043E+02 -0.95882483595E+02  0.37204784305E+03  0.42946383424E+03  0.17300000000E+03 0.  1.
         -6    1    1    2    0  503  0.83049002043E+02  0.95882483595E+02  0.11023942504E+02  0.21480482934E+03  0.17300000000E+03 0. -1.
<mgrwt>
<rscale>  2 0.21452176E+03</rscale>
<asrwt>0</asrwt>
<pdfrwt beam="1">  1       21 0.79026187E-01 0.21452176E+03</pdfrwt>
<pdfrwt beam="2">  1       21 0.20092068E-01 0.21452176E+03</pdfrwt>
<totfact> 0.31977426E+04</totfact>
</mgrwt>
</event>
<event>
 4    1  0.3935877E+000  0.1822280E+03  0.7546771E-02  0.1165664E+00
         21   -1    0    0  501  502  0.00000000000E+00  0.00000000000E+00  0.42168256996E+02  0.42168256996E+02  0.00000000000E+00 0. -1.
         21   -1    0    0  502  503 -0.00000000000E+00 -0.00000000000E+00 -0.91916259626E+03  0.91916259626E+03  0.00000000000E+00 0. -1.
          6    1    1    2  501    0 -0.36592841820E+02  0.44034349495E+02 -0.25657098045E+03  0.31469942487E+03  0.17300000000E+03 0. -1.
         -6    1    1    2    0  503  0.36592841820E+02 -0.44034349495E+02 -0.62042335882E+03  0.64663142838E+03  0.17300000000E+03 0. -1.
<mgrwt>
<rscale>  2 0.18222804E+03</rscale>
<asrwt>0</asrwt>
<pdfrwt beam="1">  1       21 0.64874240E-02 0.18222804E+03</pdfrwt>
<pdfrwt beam="2">  1       21 0.14140963E+00 0.18222804E+03</pdfrwt>
<totfact> 0.60456520E+04</totfact>
</mgrwt>
</event>
<event>
 4    1  0.3935877E+000  0.1931682E+03  0.7546771E-02  0.1155634E+00
         21   -1    0    0  501  502  0.00000000000E+00  0.00000000000E+00  0.28986814508E+03  0.28986814508E+03  0.00000000000E+00 0.  1.
         21   -1    0    0  502  503 -0.00000000000E+00 -0.00000000000E+00 -0.20490631559E+03  0.20490631559E+03  0.00000000000E+00 0.  1.
          6    1    1    2  501    0  0.32270123450E+02 -0.79646608359E+02  0.19332118092E+03  0.27328926448E+03  0.17300000000E+03 0.  1.
         -6    1    1    2    0  503 -0.32270123450E+02  0.79646608359E+02 -0.10835935142E+03  0.22148519619E+03  0.17300000000E+03 0.  1.
<mgrwt>
<rscale>  2 0.19316817E+03</rscale>
<asrwt>0</asrwt>
<pdfrwt beam="1">  1       21 0.44595099E-01 0.19316817E+03</pdfrwt>
<pdfrwt beam="2">  1       21 0.31524049E-01 0.19316817E+03</pdfrwt>
<totfact> 0.46684552E+04</totfact>
</mgrwt>
</event>
<event>
 4    1  0.3935877E+000  0.2056746E+03  0.7546771E-02  0.1145038E+00
         21   -1    0    0  503  502  0.00000000000E+00  0.00000000000E+00  0.16993513486E+03  0.16993513486E+03  0.00000000000E+00 0.  1.
         21   -1    0    0  501  503 -0.00000000000E+00 -0.00000000000E+00 -0.55312040670E+03  0.55312040670E+03  0.00000000000E+00 0.  1.
          6    1    1    2  501    0 -0.42799706453E+02  0.10267038360E+03 -0.45969724963E+03  0.50361054780E+03  0.17300000000E+03 0.  1.
         -6    1    1    2    0  502  0.42799706453E+02 -0.10267038360E+03  0.76511977790E+02  0.21944499376E+03  0.17300000000E+03 0.  1.
<mgrwt>
<rscale>  2 0.20567455E+03</rscale>
<asrwt>0</asrwt>
<pdfrwt beam="1">  1       21 0.26143867E-01 0.20567455E+03</pdfrwt>
<pdfrwt beam="2">  1       21 0.85095447E-01 0.20567455E+03</pdfrwt>
<totfact> 0.16481400E+04</totfact>
</mgrwt>
</event>
<event>
 4    1  0.3935877E+000  0.1965234E+03  0.7546771E-02  0.1152706E+00
         21   -1    0    0  503  502  0.00000000000E+00  0.00000000000E+00  0.14132300012E+04  0.14132300012E+04  0.00000000000E+00 0. -1.
         21   -1    0    0  501  503 -0.00000000000E+00 -0.00000000000E+00 -0.31833771436E+02  0.31833771436E+02  0.00000000000E+00 0.  1.
          6    1    1    2  501    0  0.66640579671E+02 -0.65203468650E+02  0.41888316067E+03  0.46269272900E+03  0.17300000000E+03 0.  1.
         -6    1    1    2    0  502 -0.66640579671E+02  0.65203468650E+02  0.96251306906E+03  0.98237104360E+03  0.17300000000E+03 0. -1.
<mgrwt>
<rscale>  2 0.19652343E+03</rscale>
<asrwt>0</asrwt>
<pdfrwt beam="1">  1       21 0.21741995E+00 0.19652343E+03</pdfrwt>
<pdfrwt beam="2">  1       21 0.48975044E-02 0.19652343E+03</pdfrwt>
<totfact> 0.28984893E+04</totfact>
</mgrwt>
</event>
<event>
 4    1  0.3935877E+000  0.2007049E+03  0.7546771E-02  0.1149146E+00
         21   -1    0    0  503  502  0.00000000000E+00  0.00000000000E+00  0.19516121885E+02  0.19516121885E+02  0.00000000000E+00 0.  1.
         21   -1    0    0  501  503 -0.00000000000E+00 -0.00000000000E+00 -0.20762155422E+04  0.20762155422E+04  0.00000000000E+00 0.  1.
          6    1    1    2  501    0  0.93962353413E+02  0.39045209418E+02 -0.11085270072E+04  0.11265498559E+04  0.17300000000E+03 0.  1.
         -6    1    1    2    0  502 -0.93962353413E+02 -0.39045209418E+02 -0.94817241312E+03  0.96918180815E+03  0.17300000000E+03 0.  1.
<mgrwt>
<rscale>  2 0.20070489E+03</rscale>
<asrwt>0</asrwt>
<pdfrwt beam="1">  1       21 0.30024828E-02 0.20070489E+03</pdfrwt>
<pdfrwt beam="2">  1       21 0.31941751E+00 0.20070489E+03</pdfrwt>
<totfact> 0.16526727E+04</totfact>
</mgrwt>
</event>
<event>
 4    1  0.3935877E+000  0.1876690E+03  0.7546771E-02  0.1160581E+00
         21   -1    0    0  501  502  0.00000000000E+00  0.00000000000E+00  0.12964133868E+04  0.12964133868E+04  0.00000000000E+00 0. -1.
         21   -1    0    0  502  503 -0.00000000000E+00 -0.00000000000E+00 -0.32227705910E+02  0.32227705910E+02  0.00000000000E+00 0. -1.
          6    1    1    2  501    0  0.56993354398E+02  0.45192896741E+02  0.89534338048E+03  0.91480020186E+03  0.17300000000E+03 0. -1.
         -6    1    1    2    0  503 -0.56993354398E+02 -0.45192896741E+02  0.36884230037E+03  0.41384089081E+03  0.17300000000E+03 0. -1.
<mgrwt>
<rscale>  2 0.18766896E+03</rscale>
<asrwt>0</asrwt>
<pdfrwt beam="1">  1       21 0.19944817E+00 0.18766896E+03</pdfrwt>
<pdfrwt beam="2">  1       21 0.49581096E-02 0.18766896E+03</pdfrwt>
<totfact> 0.37062624E+04</totfact>
</mgrwt>
</event>
<event>
 4    1  0.3935877E+000  0.2253749E+03  0.7546771E-02  0.1129938E+00
         21   -1    0    0  501  502  0.00000000000E+00  0.00000000000E+00  0.51284321229E+03  0.51284321229E+03  0.00000000000E+00 0. -1.
         21   -1    0    0  502  503 -0.00000000000E+00 -0.00000000000E+00 -0.32065107498E+03  0.32065107498E+03  0.00000000000E+00 0. -1.
          6    1    1    2  501    0 -0.41953140193E+01  0.14438570867E+03  0.44255239256E+03  0.49663513134E+03  0.17300000000E+03 0. -1.
         -6    1    1    2    0  503  0.41953140193E+01 -0.14438570867E+03 -0.25036025524E+03  0.33685915593E+03  0.17300000000E+03 0. -1.
<mgrwt>
<rscale>  2 0.22537487E+03</rscale>
<asrwt>0</asrwt>
<pdfrwt beam="1">  1       21 0.78898956E-01 0.22537487E+03</pdfrwt>
<pdfrwt beam="2">  1       21 0.49330935E-01 0.22537487E+03</pdfrwt>
<totfact> 0.54288131E+03</totfact>
</mgrwt>
</event>
<event>
 4    1  0.3935877E+000  0.2034916E+03  0.7546771E-02  0.1146826E+00
         21   -1    0    0  503  502  0.00000000000E+00  0.00000000000E+00  0.54773225522E+03  0.54773225522E+03  0.00000000000E+00 0. -1.
         21   -1    0    0  501  503 -0.00000000000E+00 -0.00000000000E+00 -0.80932143577E+02  0.80932143577E+02  0.00000000000E+00 0. -1.
          6    1    1    2  501    0  0.84799405367E+02 -0.65489774032E+02  0.15272159238E+03  0.25442628487E+03  0.17300000000E+03 0. -1.
         -6    1    1    2    0  502 -0.84799405367E+02  0.65489774032E+02  0.31407851927E+03  0.37423811393E+03  0.17300000000E+03 0. -1.
<mgrwt>
<rscale>  2 0.20349165E+03</rscale>
<asrwt>0</asrwt>
<pdfrwt beam="1">  1       21 0.84266498E-01 0.20349165E+03</pdfrwt>
<pdfrwt beam="2">  1       21 0.12451099E-01 0.20349165E+03</pdfrwt>
<totfact> 0.66794911E+04</totfact>
</mgrwt>
</event>
<event>
 4    1  0.3935877E+000  0.3541348E+03  0.7546771E-02  0.1060931E+00
         21   -1    0    0  501  502  0.00000000000E+00  0.00000000000E+00  0.28359878024E+03  0.28359878024E+03  0.00000000000E+00 0. -1.
         21   -1    0    0  502  503 -0.00000000000E+00 -0.00000000000E+00 -0.57806172907E+03  0.57806172907E+03  0.00000000000E+00 0.  1.
          6    1    1    2  501    0 -0.18262311576E+03  0.24926136699E+03  0.61623499556E+02  0.35945637730E+03  0.17300000000E+03 0. -1.
         -6    1    1    2    0  503  0.18262311576E+03 -0.24926136699E+03 -0.35608644839E+03  0.50220413201E+03  0.17300000000E+03 0.  1.
<mgrwt>
<rscale>  2 0.35413476E+03</rscale>
<asrwt>0</asrwt>
<pdfrwt beam="1">  1       21 0.43630582E-01 0.35413476E+03</pdfrwt>
<pdfrwt beam="2">  1       21 0.88932572E-01 0.35413476E+03</pdfrwt>
<totfact> 0.49650245E+03</totfact>
</mgrwt>
</event>
<event>
 4    1  0.3935877E+000  0.1798570E+03  0.7546771E-02  0.1167941E+00
         21   -1    0    0  503  502  0.00000000000E+00  0.00000000000E+00  0.64788765190E+03  0.64788765190E+03  0.00000000000E+00 0.  1.
         21   -1    0    0  501  503 -0.00000000000E+00 -0.00000000000E+00 -0.58246243120E+02  0.58246243120E+02  0.00000000000E+00 0.  1.
          6    1    1    2  501    0  0.36362667859E+02 -0.33125577164E+02  0.16140524485E+03  0.24166133439E+03  0.17300000000E+03 0. -1.
         -6    1    1    2    0  502 -0.36362667859E+02  0.33125577164E+02  0.42823616393E+03  0.46447256063E+03  0.17300000000E+03 0. -1.
<mgrwt>
<rscale>  2 0.17985702E+03</rscale>
<asrwt>0</asrwt>
<pdfrwt beam="1">  1       21 0.99675018E-01 0.17985702E+03</pdfrwt>
<pdfrwt beam="2">  1       21 0.89609610E-02 0.17985702E+03</pdfrwt>
<totfact> 0.81889319E+04</totfact>
</mgrwt>
</event>
<event>
 4    1  0.3935877E+000  0.2007391E+03  0.7546771E-02  0.1149117E+00
         21   -1    0    0  501  502  0.00000000000E+00  0.00000000000E+00  0.72271561823E+03  0.72271561823E+03  0.00000000000E+00 0. -1.
         21   -1    0    0  502  503 -0.00000000000E+00 -0.00000000000E+00 -0.67560262143E+02  0.67560262143E+02  0.00000000000E+00 0. -1.
          6    1    1    2  501    0 -0.97741429059E+02  0.28526878059E+02  0.49274014064E+03  0.53206110168E+03  0.17300000000E+03 0. -1.
         -6    1    1    2    0  503  0.97741429059E+02 -0.28526878059E+02  0.16241521545E+03  0.25821477869E+03  0.17300000000E+03 0. -1.
<mgrwt>
<rscale>  2 0.20073906E+03</rscale>
<asrwt>0</asrwt>
<pdfrwt beam="1">  1       21 0.11118701E+00 0.20073906E+03</pdfrwt>
<pdfrwt beam="2">  1       21 0.10393887E-01 0.20073906E+03</pdfrwt>
<totfact> 0.48019628E+04</totfact>
</mgrwt>
</event>
<event>
 4    1  0.3935877E+000  0.2080458E+03  0.7546771E-02  0.1143123E+00
         21   -1    0    0  503  502  0.00000000000E+00  0.00000000000E+00  0.24281070156E+03  0.24281070156E+03  0.00000000000E+00 0. -1.
         21   -1    0    0  501  503 -0.00000000000E+00 -0.00000000000E+00 -0.17831393972E+03  0.17831393972E+03  0.00000000000E+00 0.  1.
          6    1    1    2  501    0  0.94009092074E+02 -0.67203871717E+02  0.35961386339E+02  0.21113098085E+03  0.17300000000E+03 0.  1.
         -6    1    1    2    0  502 -0.94009092074E+02  0.67203871717E+02  0.28535375499E+02  0.20999366043E+03  0.17300000000E+03 0.  1.
<mgrwt>
<rscale>  2 0.20804584E+03</rscale>
<asrwt>0</asrwt>
<pdfrwt beam="1">  1       21 0.37355493E-01 0.20804584E+03</pdfrwt>
<pdfrwt beam="2">  1       21 0.27432914E-01 0.20804584E+03</pdfrwt>
<totfact> 0.87039607E+04</totfact>
</mgrwt>
</event>
<event>
 4    1  0.3935877E+000  0.3751808E+03  0.7546771E-02  0.1052729E+00
         21   -1    0    0  503  502  0.00000000000E+00  0.00000000000E+00  0.14352110250E+03  0.14352110250E+03  0.00000000000E+00 0.  1.
         21   -1    0    0  501  503 -0.00000000000E+00 -0.00000000000E+00 -0.14832212279E+04  0.14832212279E+04  0.00000000000E+00 0. -1.
          6    1    1    2  501    0  0.32728716150E+03 -0.60948592822E+02 -0.11432568632E+04  0.12032443111E+04  0.17300000000E+03 0. -1.
         -6    1    1    2    0  502 -0.32728716150E+03  0.60948592822E+02 -0.19644326222E+03  0.42349801926E+03  0.17300000000E+03 0.  1.
<mgrwt>
<rscale>  2 0.37518078E+03</rscale>
<asrwt>0</asrwt>
<pdfrwt beam="1">  1       21 0.22080169E-01 0.37518078E+03</pdfrwt>
<pdfrwt beam="2">  1       21 0.22818789E+00 0.37518078E+03</pdfrwt>
<totfact> 0.14880726E+03</totfact>
</mgrwt>
</event>
<event>
 4    1  0.3935877E+000  0.1785419E+03  0.7546771E-02  0.1169222E+00
         21   -1    0    0  503  502  0.00000000000E+00  0.00000000000E+00  0.27287359265E+02  0.27287359265E+02  0.00000000000E+00 0. -1.
         21   -1    0    0  501  503 -0.00000000000E+00 -0.00000000000E+00 -0.11871287501E+04  0.11871287501E+04  0.00000000000E+00 0. -1.
          6    1    1    2  501    0  0.44133531043E+02  0.65160646047E+00 -0.65658752622E+03  0.68042955017E+03  0.17300000000E+03 0. -1.
         -6    1    1    2    0  502 -0.44133531043E+02 -0.65160646047E+00 -0.50325386460E+03  0.53398655918E+03  0.17300000000E+03 0. -1.
<mgrwt>
<rscale>  2 0.17854185E+03</rscale>
<asrwt>0</asrwt>
<pdfrwt beam="1">  1       21 0.41980558E-02 0.17854185E+03</pdfrwt>
<pdfrwt beam="2">  1       21 0.18263517E+00 0.17854185E+03</pdfrwt>
<totfact> 0.63630555E+04</totfact>
</mgrwt>
</event>
<event>
 4    1  0.3935877E+000  0.3350250E+03  0.7546771E-02  0.1068935E+00
         21   -1    0    0  501  502  0.00000000000E+00  0.00000000000E+00  0.98819663045E+03  0.98819663045E+03  0.00000000000E+00 0.  1.
         21   -1    0    0  502  503 -0.00000000000E+00 -0.00000000000E+00 -0.11788077548E+03  0.11788077548E+03  0.00000000000E+00 0.  1.
          6    1    1    2  501    0 -0.25848963339E+03  0.12448238530E+03  0.54076322493E+03  0.63613412128E+03  0.17300000000E+03 0.  1.
         -6    1    1    2    0  503  0.25848963339E+03 -0.12448238530E+03  0.32955263003E+03  0.46994328464E+03  0.17300000000E+03 0.  1.
<mgrwt>
<rscale>  2 0.33502501E+03</rscale>
<asrwt>0</asrwt>
<pdfrwt beam="1">  1       21 0.15203025E+00 0.33502501E+03</pdfrwt>
<pdfrwt beam="2">  1       21 0.18135505E-01 0.33502501E+03</pdfrwt>
<totfact> 0.73246803E+03</totfact>
</mgrwt>
</event>
<event>
 4    1  0.3935877E+000  0.1958737E+03  0.7546771E-02  0.1153268E+00
         21   -1    0    0  501  502  0.00000000000E+00  0.00000000000E+00  0.13950607037E+03  0.13950607037E+03  0.00000000000E+00 0. -1.
         21   -1    0    0  502  503 -0.00000000000E+00 -0.00000000000E+00 -0.27538262742E+03  0.27538262742E+03  0.00000000000E+00 0. -1.
          6    1    1    2  501    0 -0.97359356454E+01  0.91338484432E+02 -0.60376978783E+02  0.20496801396E+03  0.17300000000E+03 0.  1.
         -6    1    1    2    0  503  0.97359356454E+01 -0.91338484432E+02 -0.75499578266E+02  0.20992068383E+03  0.17300000000E+03 0.  1.
<mgrwt>
<rscale>  2 0.19587370E+03</rscale>
<asrwt>0</asrwt>
<pdfrwt beam="1">  1       21 0.21462472E-01 0.19587370E+03</pdfrwt>
<pdfrwt beam="2">  1       21 0.42366558E-01 0.19587370E+03</pdfrwt>
<totfact> 0.10827554E+05</totfact>
</mgrwt>
</event>
<event>
 4    1  0.3935877E+000  0.3413426E+03  0.7546771E-02  0.1066226E+00
         21   -1    0    0  501  502  0.00000000000E+00  0.00000000000E+00  0.54516240470E+03  0.54516240470E+03  0.00000000000E+00 0.  1.
         21   -1    0    0  502  503 -0.00000000000E+00 -0.00000000000E+00 -0.40696883461E+03  0.40696883461E+03  0.00000000000E+00 0. -1.
          6    1    1    2  501    0  0.85981644815E+02  0.28141232068E+03  0.39714619949E+03  0.52367913959E+03  0.17300000000E+03 0.  1.
         -6    1    1    2    0  503 -0.85981644815E+02 -0.28141232068E+03 -0.25895262941E+03  0.42845209971E+03  0.17300000000E+03 0. -1.
<mgrwt>
<rscale>  2 0.34134255E+03</rscale>
<asrwt>0</asrwt>
<pdfrwt beam="1">  1       21 0.83871140E-01 0.34134255E+03</pdfrwt>
<pdfrwt beam="2">  1       21 0.62610590E-01 0.34134255E+03</pdfrwt>
<totfact> 0.26516615E+03</totfact>
</mgrwt>
</event>
<event>
 4    1  0.3935877E+000  0.1856846E+03  0.7546771E-02  0.1162412E+00
         21   -1    0    0  503  502  0.00000000000E+00  0.00000000000E+00  0.70937303193E+03  0.70937303193E+03  0.00000000000E+00 0. -1.
         21   -1    0    0  501  503 -0.00000000000E+00 -0.00000000000E+00 -0.31123614919E+03  0.31123614919E+03  0.00000000000E+00 0. -1.
          6    1    1    2  501    0  0.62366751193E+02  0.25693553752E+02 -0.26969953128E+03  0.32743947155E+03  0.17300000000E+03 0. -1.
         -6    1    1    2    0  502 -0.62366751193E+02 -0.25693553752E+02  0.66783641403E+03  0.69316970957E+03  0.17300000000E+03 0. -1.
<mgrwt>
<rscale>  2 0.18568460E+03</rscale>
<asrwt>0</asrwt>
<pdfrwt beam="1">  1       21 0.10913431E+00 0.18568460E+03</pdfrwt>
<pdfrwt beam="2">  1       21 0.47882485E-01 0.18568460E+03</pdfrwt>
<totfact> 0.27925041E+03</totfact>
</mgrwt>
</event>
<event>
 4    1  0.3935877E+000  0.3298794E+03  0.7546771E-02  0.1071190E+00
         21   -1    0    0  501  502  0.00000000000E+00  0.00000000000E+00  0.24338338142E+04  0.24338338142E+04  0.00000000000E+00 0.  1.
         21   -1    0    0  502  503 -0.00000000000E+00 -0.00000000000E+00 -0.10658853777E+03  0.10658853777E+03  0.00000000000E+00 0. -1.
          6    1    1    2  501    0  0.29611569532E+02  0.27931086549E+03  0.21314220887E+04  0.21567986751E+04  0.17300000000E+03 0.  1.
         -6    1    1    2    0  503 -0.29611569532E+02 -0.27931086549E+03  0.19582318777E+03  0.38362367693E+03  0.17300000000E+03 0. -1.
<mgrwt>
<rscale>  2 0.32987938E+03</rscale>
<asrwt>0</asrwt>
<pdfrwt beam="1">  1       21 0.37443593E+00 0.32987938E+03</pdfrwt>
<pdfrwt beam="2">  1       21 0.16398238E-01 0.32987938E+03</pdfrwt>
<totfact> 0.35299247E+02</totfact>
</mgrwt>
</event>
<event>
 4    1  0.3935877E+000  0.1758238E+03  0.7546771E-02  0.1171907E+00
         21   -1    0    0  501  502  0.00000000000E+00  0.00000000000E+00  0.12114780688E+03  0.12114780688E+03  0.00000000000E+00 0. -1.
         21   -1    0    0  502  503 -0.00000000000E+00 -0.00000000000E+00 -0.34194980429E+03  0.34194980429E+03  0.00000000000E+00 0.  1.
          6    1    1    2  501    0  0.98075513128E+01  0.29812931182E+02  0.62412732428E+01  0.17593451174E+03  0.17300000000E+03 0. -1.
         -6    1    1    2    0  503 -0.98075513128E+01 -0.29812931182E+02 -0.22704327065E+03  0.28716309943E+03  0.17300000000E+03 0.  1.
<mgrwt>
<rscale>  2 0.17582377E+03</rscale>
<asrwt>0</asrwt>
<pdfrwt beam="1">  1       21 0.18638124E-01 0.17582377E+03</pdfrwt>
<pdfrwt beam="2">  1       21 0.52607662E-01 0.17582377E+03</pdfrwt>
<totfact> 0.90775156E+04</totfact>
</mgrwt>
</event>
<event>
 4    1  0.3935877E+000  0.1878092E+03  0.7546771E-02  0.1160452E+00
         21   -1    0    0  503  502  0.00000000000E+00  0.00000000000E+00  0.75311355995E+02  0.75311355995E+02  0.00000000000E+00 0.  1.
         21   -1    0    0  501  503 -0.00000000000E+00 -0.00000000000E+00 -0.61921280861E+03  0.61921280861E+03  0.00000000000E+00 0.  1.
          6    1    1    2  501    0  0.48290165691E+02 -0.54875685702E+02 -0.44335613810E+03  0.48149449236E+03  0.17300000000E+03 0.  1.
         -6    1    1    2    0  502 -0.48290165691E+02  0.54875685702E+02 -0.10054531451E+03  0.21302967224E+03  0.17300000000E+03 0.  1.
<mgrwt>
<rscale>  2 0.18780916E+03</rscale>
<asrwt>0</asrwt>
<pdfrwt beam="1">  1       21 0.11586363E-01 0.18780916E+03</pdfrwt>
<pdfrwt beam="2">  1       21 0.95263508E-01 0.18780916E+03</pdfrwt>
<totfact> 0.57634322E+04</totfact>
</mgrwt>
</event>
<event>
 4    1  0.3935877E+000  0.2179871E+03  0.7546771E-02  0.1135393E+00
         21   -1    0    0  501  502  0.00000000000E+00  0.00000000000E+00  0.59903370215E+03  0.59903370215E+03  0.00000000000E+00 0.  1.
         21   -1    0    0  502  503 -0.00000000000E+00 -0.00000000000E+00 -0.86227440699E+02  0.86227440699E+02  0.00000000000E+00 0.  1.
          6    1    1    2  501    0  0.12503196201E+03  0.44231085662E+02  0.35334313219E+03  0.41517436039E+03  0.17300000000E+03 0.  1.
         -6    1    1    2    0  503 -0.12503196201E+03 -0.44231085662E+02  0.15946312926E+03  0.27008678245E+03  0.17300000000E+03 0.  1.
<mgrwt>
<rscale>  2 0.21798711E+03</rscale>
<asrwt>0</asrwt>
<pdfrwt beam="1">  1       21 0.92159028E-01 0.21798711E+03</pdfrwt>
<pdfrwt beam="2">  1       21 0.13265760E-01 0.21798711E+03</pdfrwt>
<totfact> 0.48121856E+04</totfact>
</mgrwt>
</event>
<event>
 4    1  0.3935877E+000  0.2341618E+03  0.7546771E-02  0.1123744E+00
         21   -1    0    0  501  502  0.00000000000E+00  0.00000000000E+00  0.19006978471E+03  0.19006978471E+03  0.00000000000E+00 0. -1.
         21   -1    0    0  502  503 -0.00000000000E+00 -0.00000000000E+00 -0.28863755093E+03  0.28863755093E+03  0.00000000000E+00 0. -1.
          6    1    1    2  501    0 -0.32973411164E+02 -0.15432270301E+03 -0.43730302486E+02  0.23821016323E+03  0.17300000000E+03 0. -1.
         -6    1    1    2    0  503  0.32973411164E+02  0.15432270301E+03 -0.54837463729E+02  0.24049717241E+03  0.17300000000E+03 0. -1.
<mgrwt>
<rscale>  2 0.23416179E+03</rscale>
<asrwt>0</asrwt>
<pdfrwt beam="1">  1       21 0.29241505E-01 0.23416179E+03</pdfrwt>
<pdfrwt beam="2">  1       21 0.44405777E-01 0.23416179E+03</pdfrwt>
<totfact> 0.53530380E+04</totfact>
</mgrwt>
</event>
<event>
 4    1  0.3935877E+000  0.1945083E+03  0.7546771E-02  0.1154457E+00
         21   -1    0    0  503  502  0.00000000000E+00  0.00000000000E+00  0.18873445730E+03  0.18873445730E+03  0.00000000000E+00 0. -1.
         21   -1    0    0  501  503 -0.00000000000E+00 -0.00000000000E+00 -0.25029266988E+03  0.25029266988E+03  0.00000000000E+00 0. -1.
          6    1    1    2  501    0 -0.13653333276E+02  0.87852584194E+02 -0.12872797733E+03  0.23324746988E+03  0.17300000000E+03 0. -1.
         -6    1    1    2    0  502  0.13653333276E+02 -0.87852584194E+02  0.67169764749E+02  0.20577965729E+03  0.17300000000E+03 0. -1.
<mgrwt>
<rscale>  2 0.19450833E+03</rscale>
<asrwt>0</asrwt>
<pdfrwt beam="1">  1       21 0.29036070E-01 0.19450833E+03</pdfrwt>
<pdfrwt beam="2">  1       21 0.38506564E-01 0.19450833E+03</pdfrwt>
<totfact> 0.73791471E+04</totfact>
</mgrwt>
</event>
<event>
 4    1  0.3935877E+000  0.1981586E+03  0.7546771E-02  0.1151302E+00
         21   -1    0    0  503  502  0.00000000000E+00  0.00000000000E+00  0.72554462997E+03  0.72554462997E+03  0.00000000000E+00 0. -1.
         21   -1    0    0  501  503 -0.00000000000E+00 -0.00000000000E+00 -0.18718869024E+03  0.18718869024E+03  0.00000000000E+00 0. -1.
          6    1    1    2  501    0  0.35537122527E+02 -0.89860635899E+02 -0.11560094948E+03  0.22941316545E+03  0.17300000000E+03 0. -1.
         -6    1    1    2    0  502 -0.35537122527E+02  0.89860635899E+02  0.65395688921E+03  0.68332015477E+03  0.17300000000E+03 0. -1.
<mgrwt>
<rscale>  2 0.19815858E+03</rscale>
<asrwt>0</asrwt>
<pdfrwt beam="1">  1       21 0.11162225E+00 0.19815858E+03</pdfrwt>
<pdfrwt beam="2">  1       21 0.28798260E-01 0.19815858E+03</pdfrwt>
<totfact> 0.72426509E+03</totfact>
</mgrwt>
</event>
<event>
 4    1  0.3935877E+000  0.2131787E+03  0.7546771E-02  0.1139073E+00
         21   -1    0    0  503  502  0.00000000000E+00  0.00000000000E+00  0.10507193849E+04  0.10507193849E+04  0.00000000000E+00 0.  1.
         21   -1    0    0  501  503 -0.00000000000E+00 -0.00000000000E+00 -0.16944553031E+03  0.16944553031E+03  0.00000000000E+00 0. -1.
          6    1    1    2  501    0 -0.11981703421E+02 -0.12398635506E+03 -0.85856439334E+02  0.22981841883E+03  0.17300000000E+03 0. -1.
         -6    1    1    2    0  502  0.11981703421E+02  0.12398635506E+03  0.96713029388E+03  0.99034649633E+03  0.17300000000E+03 0.  1.
<mgrwt>
<rscale>  2 0.21317875E+03</rscale>
<asrwt>0</asrwt>
<pdfrwt beam="1">  1       21 0.16164913E+00 0.21317875E+03</pdfrwt>
<pdfrwt beam="2">  1       21 0.26068544E-01 0.21317875E+03</pdfrwt>
<totfact> 0.33612631E+03</totfact>
</mgrwt>
</event>
<event>
 4    1  0.3935877E+000  0.1896281E+03  0.7546771E-02  0.1158797E+00
         21   -1    0    0  503  502  0.00000000000E+00  0.00000000000E+00  0.98812481853E+03  0.98812481853E+03  0.00000000000E+00 0. -1.
         21   -1    0    0  501  503 -0.00000000000E+00 -0.00000000000E+00 -0.56128465109E+02  0.56128465109E+02  0.00000000000E+00 0. -1.
          6    1    1    2  501    0 -0.46873089755E+02  0.61909021262E+02  0.15637720566E+03  0.24578983686E+03  0.17300000000E+03 0. -1.
         -6    1    1    2    0  502  0.46873089755E+02 -0.61909021262E+02  0.77561914776E+03  0.79846344677E+03  0.17300000000E+03 0. -1.
<mgrwt>
<rscale>  2 0.18962809E+03</rscale>
<asrwt>0</asrwt>
<pdfrwt beam="1">  1       21 0.15201919E+00 0.18962809E+03</pdfrwt>
<pdfrwt beam="2">  1       21 0.86351492E-02 0.18962809E+03</pdfrwt>
<totfact> 0.30362096E+04</totfact>
</mgrwt>
</event>
<event>
 4    1  0.3935877E+000  0.2111877E+03  0.7546771E-02  0.1140629E+00
         21   -1    0    0  503  502  0.00000000000E+00  0.00000000000E+00  0.72683801778E+03  0.72683801778E+03  0.00000000000E+00 0. -1.
         21   -1    0    0  501  503 -0.00000000000E+00 -0.00000000000E+00 -0.68210771837E+02  0.68210771837E+02  0.00000000000E+00 0. -1.
          6    1    1    2  501    0 -0.11921001271E+03  0.21452656190E+02  0.20335054813E+03  0.29317518485E+03  0.17300000000E+03 0. -1.
         -6    1    1    2    0  502  0.11921001271E+03 -0.21452656190E+02  0.45527669782E+03  0.50187360477E+03  0.17300000000E+03 0. -1.
<mgrwt>
<rscale>  2 0.21118770E+03</rscale>
<asrwt>0</asrwt>
<pdfrwt beam="1">  1       21 0.11182123E+00 0.21118770E+03</pdfrwt>
<pdfrwt beam="2">  1       21 0.10493965E-01 0.21118770E+03</pdfrwt>
<totfact> 0.46310201E+04</totfact>
</mgrwt>
</event>
<event>
 4    1  0.3935877E+000  0.2448245E+03  0.7546771E-02  0.1116620E+00
         21   -1    0    0  503  502  0.00000000000E+00  0.00000000000E+00  0.11830585773E+04  0.11830585773E+04  0.00000000000E+00 0.  1.
         21   -1    0    0  501  503 -0.00000000000E+00 -0.00000000000E+00 -0.61839078527E+02  0.61839078527E+02  0.00000000000E+00 0.  1.
          6    1    1    2  501    0  0.38906635452E+02  0.16880847345E+03  0.29601059479E+03  0.38413708389E+03  0.17300000000E+03 0.  1.
         -6    1    1    2    0  502 -0.38906635452E+02 -0.16880847345E+03  0.82520890397E+03  0.86076057192E+03  0.17300000000E+03 0.  1.
<mgrwt>
<rscale>  2 0.24482448E+03</rscale>
<asrwt>0</asrwt>
<pdfrwt beam="1">  1       21 0.18200900E+00 0.24482448E+03</pdfrwt>
<pdfrwt beam="2">  1       21 0.95137052E-02 0.24482448E+03</pdfrwt>
<totfact> 0.15069045E+04</totfact>
</mgrwt>
</event>
<event>
 4    1  0.3935877E+000  0.2798297E+03  0.7546771E-02  0.1095782E+00
         21   -1    0    0  501  502  0.00000000000E+00  0.00000000000E+00  0.25121236872E+03  0.25121236872E+03  0.00000000000E+00 0.  1.
         21   -1    0    0  502  503 -0.00000000000E+00 -0.00000000000E+00 -0.70895126955E+03  0.70895126955E+03  0.00000000000E+00 0.  1.
          6    1    1    2  501    0  0.12829532083E+03  0.17865046276E+03  0.13049559891E+03  0.30876168565E+03  0.17300000000E+03 0.  1.
         -6    1    1    2    0  503 -0.12829532083E+03 -0.17865046276E+03 -0.58823449974E+03  0.65140195262E+03  0.17300000000E+03 0.  1.
<mgrwt>
<rscale>  2 0.27982973E+03</rscale>
<asrwt>0</asrwt>
<pdfrwt beam="1">  1       21 0.38648058E-01 0.27982973E+03</pdfrwt>
<pdfrwt beam="2">  1       21 0.10906942E+00 0.27982973E+03</pdfrwt>
<totfact> 0.40498772E+03</totfact>
</mgrwt>
</event>
<event>
 4    1  0.3935877E+000  0.1836824E+03  0.7546771E-02  0.1164286E+00
         21   -1    0    0  501  502  0.00000000000E+00  0.00000000000E+00  0.17881740495E+03  0.17881740495E+03  0.00000000000E+00 0. -1.
         21   -1    0    0  502  503 -0.00000000000E+00 -0.00000000000E+00 -0.19153322781E+03  0.19153322781E+03  0.00000000000E+00 0. -1.
          6    1    1    2  501    0  0.50043643600E+02 -0.36136596533E+02  0.16244236986E+02  0.18439928175E+03  0.17300000000E+03 0. -1.
         -6    1    1    2    0  503 -0.50043643600E+02  0.36136596533E+02 -0.28960059845E+02  0.18595135100E+03  0.17300000000E+03 0. -1.
<mgrwt>
<rscale>  2 0.18368239E+03</rscale>
<asrwt>0</asrwt>
<pdfrwt beam="1">  1       21 0.27510370E-01 0.18368239E+03</pdfrwt>
<pdfrwt beam="2">  1       21 0.29466650E-01 0.18368239E+03</pdfrwt>
<totfact> 0.13951691E+05</totfact>
</mgrwt>
</event>
<event>
 4    1  0.3935877E+000  0.1975905E+03  0.7546771E-02  0.1151788E+00
         21   -1    0    0  503  502  0.00000000000E+00  0.00000000000E+00  0.54071028787E+02  0.54071028787E+02  0.00000000000E+00 0. -1.
         21   -1    0    0  501  503 -0.00000000000E+00 -0.00000000000E+00 -0.98629434701E+03  0.98629434701E+03  0.00000000000E+00 0. -1.
          6    1    1    2  501    0  0.14781148739E+02  0.94310748947E+02 -0.73536138608E+03  0.76144492109E+03  0.17300000000E+03 0. -1.
         -6    1    1    2    0  502 -0.14781148739E+02 -0.94310748947E+02 -0.19686193215E+03  0.27892045471E+03  0.17300000000E+03 0. -1.
<mgrwt>
<rscale>  2 0.19759048E+03</rscale>
<asrwt>0</asrwt>
<pdfrwt beam="1">  1       21 0.83186193E-02 0.19759048E+03</pdfrwt>
<pdfrwt beam="2">  1       21 0.15173760E+00 0.19759048E+03</pdfrwt>
<totfact> 0.32406896E+04</totfact>
</mgrwt>
</event>
<event>
 4    1  0.3935877E+000  0.2013959E+03  0.7546771E-02  0.1148567E+00
         21   -1    0    0  501  502  0.00000000000E+00  0.00000000000E+00  0.84452778854E+02  0.84452778854E+02  0.00000000000E+00 0. -1.
         21   -1    0    0  502  503 -0.00000000000E+00 -0.00000000000E+00 -0.49265251040E+03  0.49265251040E+03  0.00000000000E+00 0.  1.
          6    1    1    2  501    0 -0.80719448878E+02 -0.64153421995E+02 -0.15835662853E+03  0.25619740979E+03  0.17300000000E+03 0. -1.
         -6    1    1    2    0  503  0.80719448878E+02  0.64153421995E+02 -0.24984310301E+03  0.32090787947E+03  0.17300000000E+03 0. -1.
<mgrwt>
<rscale>  2 0.20139586E+03</rscale>
<asrwt>0</asrwt>
<pdfrwt beam="1">  1       21 0.12992735E-01 0.20139586E+03</pdfrwt>
<pdfrwt beam="2">  1       21 0.75792692E-01 0.20139586E+03</pdfrwt>
<totfact> 0.78713529E+04</totfact>
</mgrwt>
</event>
<event>
 4    1  0.3935877E+000  0.1898386E+03  0.7546771E-02  0.1158607E+00
         21   -1    0    0  501  502  0.00000000000E+00  0.00000000000E+00  0.26767598794E+03  0.26767598794E+03  0.00000000000E+00 0.  1.
         21   -1    0    0  502  503 -0.00000000000E+00 -0.00000000000E+00 -0.17344860089E+03  0.17344860089E+03  0.00000000000E+00 0.  1.
          6    1    1    2  501    0  0.77935156995E+02 -0.59831540481E+01  0.15144991799E+03  0.24284926289E+03  0.17300000000E+03 0.  1.
         -6    1    1    2    0  503 -0.77935156995E+02  0.59831540481E+01 -0.57222530944E+02  0.19827532594E+03  0.17300000000E+03 0.  1.
<mgrwt>
<rscale>  2 0.18983858E+03</rscale>
<asrwt>0</asrwt>
<pdfrwt beam="1">  1       21 0.41180921E-01 0.18983858E+03</pdfrwt>
<pdfrwt beam="2">  1       21 0.26684400E-01 0.18983858E+03</pdfrwt>
<totfact> 0.76007139E+04</totfact>
</mgrwt>
</event>
<event>
 4    1  0.3935877E+000  0.3272785E+03  0.7546771E-02  0.1072347E+00
         21   -1    0    0  503  502  0.00000000000E+00  0.00000000000E+00  0.23534925696E+03  0.23534925696E+03  0.00000000000E+00 0. -1.
         21   -1    0    0  501  503 -0.00000000000E+00 -0.00000000000E+00 -0.46257889213E+03  0.46257889213E+03  0.00000000000E+00 0.  1.
          6    1    1    2  501    0  0.13113786301E+03 -0.24491848316E+03 -0.15793919275E+03  0.36339508956E+03  0.17300000000E+03 0.  1.
         -6    1    1    2    0  502 -0.13113786301E+03  0.24491848316E+03 -0.69290442417E+02  0.33453305953E+03  0.17300000000E+03 0. -1.
<mgrwt>
<rscale>  2 0.32727848E+03</rscale>
<asrwt>0</asrwt>
<pdfrwt beam="1">  1       21 0.36207578E-01 0.32727848E+03</pdfrwt>
<pdfrwt beam="2">  1       21 0.71165983E-01 0.32727848E+03</pdfrwt>
<totfact> 0.12256957E+04</totfact>
</mgrwt>
</event>
<event>
 4    1  0.3935877E+000  0.1777890E+03  0.7546771E-02  0.1169960E+00
         21   -1    0    0  501  502  0.00000000000E+00  0.00000000000E+00  0.14128740390E+04  0.14128740390E+04  0.00000000000E+00 0. -1.
         21   -1    0    0  502  503 -0.00000000000E+00 -0.00000000000E+00 -0.23004117056E+02  0.23004117056E+02  0.00000000000E+00 0. -1.
          6    1    1    2  501    0 -0.20012463464E+02  0.35768910571E+02  0.81393861688E+03  0.83312963319E+03  0.17300000000E+03 0.  1.
         -6    1    1    2    0  503  0.20012463464E+02 -0.35768910571E+02  0.57593130504E+03  0.60274852284E+03  0.17300000000E+03 0.  1.
<mgrwt>
<rscale>  2 0.17778896E+03</rscale>
<asrwt>0</asrwt>
<pdfrwt beam="1">  1       21 0.21736517E+00 0.17778896E+03</pdfrwt>
<pdfrwt beam="2">  1       21 0.35390960E-02 0.17778896E+03</pdfrwt>
<totfact> 0.50738738E+04</totfact>
</mgrwt>
</event>
<event>
 4    1  0.3935877E+000  0.2391294E+03  0.7546771E-02  0.1120374E+00
         21   -1    0    0  503  502  0.00000000000E+00  0.00000000000E+00  0.60133284244E+03  0.60133284244E+03  0.00000000000E+00 0.  1.
         21   -1    0    0  501  503 -0.00000000000E+00 -0.00000000000E+00 -0.10648216180E+03  0.10648216180E+03  0.00000000000E+00 0.  1.
          6    1    1    2  501    0  0.15926806223E+03 -0.43446157052E+02  0.13168455284E+03  0.27299030325E+03  0.17300000000E+03 0.  1.
         -6    1    1    2    0  502 -0.15926806223E+03  0.43446157052E+02  0.36316612780E+03  0.43482470099E+03  0.17300000000E+03 0.  1.
<mgrwt>
<rscale>  2 0.23912943E+03</rscale>
<asrwt>0</asrwt>
<pdfrwt beam="1">  1       21 0.92512743E-01 0.23912943E+03</pdfrwt>
<pdfrwt beam="2">  1       21 0.16381871E-01 0.23912943E+03</pdfrwt>
<totfact> 0.32122505E+04</totfact>
</mgrwt>
</event>
<event>
 4    1  0.3935877E+000  0.2354918E+03  0.7546771E-02  0.1122833E+00
         21   -1    0    0  501  502  0.00000000000E+00  0.00000000000E+00  0.79854442552E+03  0.79854442552E+03  0.00000000000E+00 0.  1.
         21   -1    0    0  502  503 -0.00000000000E+00 -0.00000000000E+00 -0.78564953371E+02  0.78564953371E+02  0.00000000000E+00 0.  1.
          6    1    1    2  501    0  0.15447903638E+03 -0.40787206949E+02  0.50939378320E+03  0.56119372350E+03  0.17300000000E+03 0.  1.
         -6    1    1    2    0  503 -0.15447903638E+03  0.40787206949E+02  0.21058568895E+03  0.31591565539E+03  0.17300000000E+03 0.  1.
<mgrwt>
<rscale>  2 0.23549176E+03</rscale>
<asrwt>0</asrwt>
<pdfrwt beam="1">  1       21 0.12285298E+00 0.23549176E+03</pdfrwt>
<pdfrwt beam="2">  1       21 0.12086917E-01 0.23549176E+03</pdfrwt>
<totfact> 0.28166386E+04</totfact>
</mgrwt>
</event>
<event>
 4    1  0.3935877E+000  0.2105343E+03  0.7546771E-02  0.1141144E+00
         21   -1    0    0  501  502  0.00000000000E+00  0.00000000000E+00  0.81215866628E+03  0.81215866628E+03  0.00000000000E+00 0. -1.
         21   -1    0    0  502  503 -0.00000000000E+00 -0.00000000000E+00 -0.54627400067E+02  0.54627400067E+02  0.00000000000E+00 0.  1.
          6    1    1    2  501    0  0.11532670898E+03  0.33097406691E+02  0.36552208053E+03  0.42181877565E+03  0.17300000000E+03 0. -1.
         -6    1    1    2    0  503 -0.11532670898E+03 -0.33097406691E+02  0.39200918568E+03  0.44496729070E+03  0.17300000000E+03 0. -1.
<mgrwt>
<rscale>  2 0.21053429E+03</rscale>
<asrwt>0</asrwt>
<pdfrwt beam="1">  1       21 0.12494748E+00 0.21053429E+03</pdfrwt>
<pdfrwt beam="2">  1       21 0.84042160E-02 0.21053429E+03</pdfrwt>
<totfact> 0.52093146E+04</totfact>
</mgrwt>
</event>
<event>
 4    1  0.3935877E+000  0.1993830E+03  0.7546771E-02  0.1150261E+00
         21   -1    0    0  503  502  0.00000000000E+00  0.00000000000E+00  0.71952445945E+02  0.71952445945E+02  0.00000000000E+00 0.  1.
         21   -1    0    0  501  503 -0.00000000000E+00 -0.00000000000E+00 -0.82035631076E+03  0.82035631076E+03  0.00000000000E+00 0. -1.
          6    1    1    2  501    0 -0.98006958377E+01  0.98633320662E+02 -0.62914101901E+03  0.65997879313E+03  0.17300000000E+03 0. -1.
         -6    1    1    2    0  502  0.98006958377E+01 -0.98633320662E+02 -0.11926284580E+03  0.23232996357E+03  0.17300000000E+03 0.  1.
<mgrwt>
<rscale>  2 0.19938301E+03</rscale>
<asrwt>0</asrwt>
<pdfrwt beam="1">  1       21 0.11069608E-01 0.19938301E+03</pdfrwt>
<pdfrwt beam="2">  1       21 0.12620866E+00 0.19938301E+03</pdfrwt>
<totfact> 0.31431635E+04</totfact>
</mgrwt>
</event>
<event>
 4    1  0.3935877E+000  0.1839320E+03  0.7546771E-02  0.1164051E+00
         21   -1    0    0  501  502  0.00000000000E+00  0.00000000000E+00  0.43360039486E+02  0.43360039486E+02  0.00000000000E+00 0. -1.
         21   -1    0    0  502  503 -0.00000000000E+00 -0.00000000000E+00 -0.99156469933E+03  0.99156469933E+03  0.00000000000E+00 0. -1.
          6    1    1    2  501    0  0.36417717031E+02 -0.50751557163E+02 -0.23521138377E+03  0.29858895780E+03  0.17300000000E+03 0. -1.
         -6    1    1    2    0  503 -0.36417717031E+02  0.50751557163E+02 -0.71299327608E+03  0.73633578101E+03  0.17300000000E+03 0. -1.
<mgrwt>
<rscale>  2 0.18393197E+03</rscale>
<asrwt>0</asrwt>
<pdfrwt beam="1">  1       21 0.66707761E-02 0.18393197E+03</pdfrwt>
<pdfrwt beam="2">  1       21 0.15254840E+00 0.18393197E+03</pdfrwt>
<totfact> 0.47229204E+04</totfact>
</mgrwt>
</event>
<event>
 4    1  0.3935877E+000  0.1823254E+03  0.7546771E-02  0.1165571E+00
         21   -1    0    0  503  502  0.00000000000E+00  0.00000000000E+00  0.67451530701E+02  0.67451530701E+02  0.00000000000E+00 0.  1.
         21   -1    0    0  501  503 -0.00000000000E+00 -0.00000000000E+00 -0.70530316976E+03  0.70530316976E+03  0.00000000000E+00 0.  1.
          6    1    1    2  501    0 -0.48855427250E+02  0.30441964666E+02 -0.53099096941E+03  0.56142138860E+03  0.17300000000E+03 0.  1.
         -6    1    1    2    0  502  0.48855427250E+02 -0.30441964666E+02 -0.10686066965E+03  0.21133331186E+03  0.17300000000E+03 0.  1.
<mgrwt>
<rscale>  2 0.18232544E+03</rscale>
<asrwt>0</asrwt>
<pdfrwt beam="1">  1       21 0.10377158E-01 0.18232544E+03</pdfrwt>
<pdfrwt beam="2">  1       21 0.10850819E+00 0.18232544E+03</pdfrwt>
<totfact> 0.51569369E+04</totfact>
</mgrwt>
</event>
<event>
 4    1  0.3935877E+000  0.1910848E+03  0.7546771E-02  0.1157487E+00
         21   -1    0    0  501  502  0.00000000000E+00  0.00000000000E+00  0.84462573972E+03  0.84462573972E+03  0.00000000000E+00 0.  1.
         21   -1    0    0  502  503 -0.00000000000E+00 -0.00000000000E+00 -0.48285705366E+02  0.48285705366E+02  0.00000000000E+00 0.  1.
          6    1    1    2  501    0 -0.41821248605E+02 -0.69536972802E+02  0.54263012860E+03  0.57529198142E+03  0.17300000000E+03 0.  1.
         -6    1    1    2    0  503  0.41821248605E+02  0.69536972802E+02  0.25370990575E+03  0.31761946367E+03  0.17300000000E+03 0.  1.
<mgrwt>
<rscale>  2 0.19108482E+03</rscale>
<asrwt>0</asrwt>
<pdfrwt beam="1">  1       21 0.12994241E+00 0.19108482E+03</pdfrwt>
<pdfrwt beam="2">  1       21 0.74285707E-02 0.19108482E+03</pdfrwt>
<totfact> 0.59111563E+04</totfact>
</mgrwt>
</event>
<event>
 4    1  0.3935877E+000  0.2017345E+03  0.7546771E-02  0.1148284E+00
         21   -1    0    0  503  502  0.00000000000E+00  0.00000000000E+00  0.18866586220E+03  0.18866586220E+03  0.00000000000E+00 0. -1.
         21   -1    0    0  501  503 -0.00000000000E+00 -0.00000000000E+00 -0.43099921719E+03  0.43099921719E+03  0.00000000000E+00 0. -1.
          6    1    1    2  501    0 -0.57448621034E+01 -0.10360896448E+03 -0.34014518305E+03  0.39546879335E+03  0.17300000000E+03 0. -1.
         -6    1    1    2    0  502  0.57448621034E+01  0.10360896448E+03  0.97811828071E+02  0.22419628604E+03  0.17300000000E+03 0. -1.
<mgrwt>
<rscale>  2 0.20173453E+03</rscale>
<asrwt>0</asrwt>
<pdfrwt beam="1">  1       21 0.29025517E-01 0.20173453E+03</pdfrwt>
<pdfrwt beam="2">  1       21 0.66307572E-01 0.20173453E+03</pdfrwt>
<totfact> 0.23588045E+04</totfact>
</mgrwt>
</event>
<event>
 4    1  0.3935877E+000  0.1911725E+03  0.7546771E-02  0.1157408E+00
         21   -1    0    0  501  502  0.00000000000E+00  0.00000000000E+00  0.11630144797E+03  0.11630144797E+03  0.00000000000E+00 0. -1.
         21   -1    0    0  502  503 -0.00000000000E+00 -0.00000000000E+00 -0.34653317447E+03  0.34653317447E+03  0.00000000000E+00 0.  1.
          6    1    1    2  501    0  0.86090334405E+01 -0.80893912134E+02 -0.44474802765E+02  0.19627773322E+03  0.17300000000E+03 0.  1.
         -6    1    1    2    0  503 -0.86090334405E+01  0.80893912134E+02 -0.18575692373E+03  0.26655688922E+03  0.17300000000E+03 0.  1.
<mgrwt>
<rscale>  2 0.19117254E+03</rscale>
<asrwt>0</asrwt>
<pdfrwt beam="1">  1       21 0.17892531E-01 0.19117254E+03</pdfrwt>
<pdfrwt beam="2">  1       21 0.53312795E-01 0.19117254E+03</pdfrwt>
<totfact> 0.94624103E+04</totfact>
</mgrwt>
</event>
<event>
 4    1  0.3935877E+000  0.2337632E+03  0.7546771E-02  0.1124019E+00
         21   -1    0    0  503  502  0.00000000000E+00  0.00000000000E+00  0.23014128512E+03  0.23014128512E+03  0.00000000000E+00 0. -1.
         21   -1    0    0  501  503 -0.00000000000E+00 -0.00000000000E+00 -0.25964966512E+03  0.25964966512E+03  0.00000000000E+00 0.  1.
          6    1    1    2  501    0 -0.13882677242E+03 -0.73779067794E+02 -0.86374735362E+02  0.24921039002E+03  0.17300000000E+03 0.  1.
         -6    1    1    2    0  502  0.13882677242E+03  0.73779067794E+02  0.56866355354E+02  0.24058056022E+03  0.17300000000E+03 0. -1.
<mgrwt>
<rscale>  2 0.23376318E+03</rscale>
<asrwt>0</asrwt>
<pdfrwt beam="1">  1       21 0.35406352E-01 0.23376318E+03</pdfrwt>
<pdfrwt beam="2">  1       21 0.39946102E-01 0.23376318E+03</pdfrwt>
<totfact> 0.45564261E+04</totfact>
</mgrwt>
</event>
<event>
 4    1  0.3935877E+000  0.2724111E+03  0.7546771E-02  0.1099908E+00
         21   -1    0    0  501  502  0.00000000000E+00  0.00000000000E+00  0.78433987123E+03  0.78433987123E+03  0.00000000000E+00 0. -1.
         21   -1    0    0  502  503 -0.00000000000E+00 -0.00000000000E+00 -0.96359069050E+02  0.96359069050E+02  0.00000000000E+00 0. -1.
          6    1    1    2  501    0 -0.86463615753E+02  0.19184073637E+03  0.40328678753E+03  0.48667037918E+03  0.17300000000E+03 0. -1.
         -6    1    1    2    0  503  0.86463615753E+02 -0.19184073637E+03  0.28469401465E+03  0.39402856109E+03  0.17300000000E+03 0. -1.
<mgrwt>
<rscale>  2 0.27241113E+03</rscale>
<asrwt>0</asrwt>
<pdfrwt beam="1">  1       21 0.12066767E+00 0.27241113E+03</pdfrwt>
<pdfrwt beam="2">  1       21 0.14824473E-01 0.27241113E+03</pdfrwt>
<totfact> 0.19973644E+04</totfact>
</mgrwt>
</event>
<event>
 4    1  0.3935877E+000  0.1972005E+03  0.7546771E-02  0.1152123E+00
         21   -1    0    0  501  502  0.00000000000E+00  0.00000000000E+00  0.70465292392E+02  0.70465292392E+02  0.00000000000E+00 0.  1.
         21   -1    0    0  502  503 -0.00000000000E+00 -0.00000000000E+00 -0.62759692409E+03  0.62759692409E+03  0.00000000000E+00 0.  1.
          6    1    1    2  501    0  0.68966828955E+02 -0.64827572646E+02 -0.15732904146E+03  0.25227061850E+03  0.17300000000E+03 0.  1.
         -6    1    1    2    0  503 -0.68966828955E+02  0.64827572646E+02 -0.39980259024E+03  0.44579159798E+03  0.17300000000E+03 0.  1.
<mgrwt>
<rscale>  2 0.19720050E+03</rscale>
<asrwt>0</asrwt>
<pdfrwt beam="1">  1       21 0.10840814E-01 0.19720050E+03</pdfrwt>
<pdfrwt beam="2">  1       21 0.96553371E-01 0.19720050E+03</pdfrwt>
<totfact> 0.62582900E+04</totfact>
</mgrwt>
</event>
<event>
 4    1  0.3935877E+000  0.2449149E+03  0.7546771E-02  0.1116561E+00
         21   -1    0    0  503  502  0.00000000000E+00  0.00000000000E+00  0.72888169944E+03  0.72888169944E+03  0.00000000000E+00 0. -1.
         21   -1    0    0  501  503 -0.00000000000E+00 -0.00000000000E+00 -0.15301820578E+03  0.15301820578E+03  0.00000000000E+00 0. -1.
          6    1    1    2  501    0  0.16292290668E+03  0.59248809582E+02 -0.11845605803E+02  0.24520116911E+03  0.17300000000E+03 0. -1.
         -6    1    1    2    0  502 -0.16292290668E+03 -0.59248809582E+02  0.58770909947E+03  0.63669873610E+03  0.17300000000E+03 0. -1.
<mgrwt>
<rscale>  2 0.24491487E+03</rscale>
<asrwt>0</asrwt>
<pdfrwt beam="1">  1       21 0.11213564E+00 0.24491487E+03</pdfrwt>
<pdfrwt beam="2">  1       21 0.23541263E-01 0.24491487E+03</pdfrwt>
<totfact> 0.10232232E+04</totfact>
</mgrwt>
</event>
<event>
 4    1  0.3935877E+000  0.1886286E+03  0.7546771E-02  0.1159704E+00
         21   -1    0    0  503  502  0.00000000000E+00  0.00000000000E+00  0.11076274261E+04  0.11076274261E+04  0.00000000000E+00 0. -1.
         21   -1    0    0  501  503 -0.00000000000E+00 -0.00000000000E+00 -0.76528645068E+02  0.76528645068E+02  0.00000000000E+00 0. -1.
          6    1    1    2  501    0 -0.35587441480E+02  0.66221439806E+02  0.64541505657E+02  0.19936486911E+03  0.17300000000E+03 0. -1.
         -6    1    1    2    0  502  0.35587441480E+02 -0.66221439806E+02  0.96655727540E+03  0.98479120208E+03  0.17300000000E+03 0. -1.
<mgrwt>
<rscale>  2 0.18862859E+03</rscale>
<asrwt>0</asrwt>
<pdfrwt beam="1">  1       21 0.17040421E+00 0.18862859E+03</pdfrwt>
<pdfrwt beam="2">  1       21 0.11773638E-01 0.18862859E+03</pdfrwt>
<totfact> 0.12910251E+04</totfact>
</mgrwt>
</event>
<event>
 4    1  0.3935877E+000  0.1758303E+03  0.7546771E-02  0.1171901E+00
         21   -1    0    0  501  502  0.00000000000E+00  0.00000000000E+00  0.11844418204E+03  0.11844418204E+03  0.00000000000E+00 0.  1.
         21   -1    0    0  502  503 -0.00000000000E+00 -0.00000000000E+00 -0.26894924353E+03  0.26894924353E+03  0.00000000000E+00 0.  1.
          6    1    1    2  501    0  0.18991723822E+02 -0.25031981056E+02 -0.41993746108E+02  0.18077544181E+03  0.17300000000E+03 0.  1.
         -6    1    1    2    0  503 -0.18991723822E+02  0.25031981056E+02 -0.10851131538E+03  0.20661798376E+03  0.17300000000E+03 0.  1.
<mgrwt>
<rscale>  2 0.17583028E+03</rscale>
<asrwt>0</asrwt>
<pdfrwt beam="1">  1       21 0.18222182E-01 0.17583028E+03</pdfrwt>
<pdfrwt beam="2">  1       21 0.41376806E-01 0.17583028E+03</pdfrwt>
<totfact> 0.15520336E+05</totfact>
</mgrwt>
</event>
<event>
 4    1  0.3935877E+000  0.2065173E+03  0.7546771E-02  0.1144354E+00
         21   -1    0    0  501  502  0.00000000000E+00  0.00000000000E+00  0.61347182942E+03  0.61347182942E+03  0.00000000000E+00 0.  1.
         21   -1    0    0  502  503 -0.00000000000E+00 -0.00000000000E+00 -0.11746279468E+03  0.11746279468E+03  0.00000000000E+00 0.  1.
          6    1    1    2  501    0  0.11210742388E+03 -0.12341094750E+02  0.48148685154E+03  0.52390740147E+03  0.17300000000E+03 0.  1.
         -6    1    1    2    0  503 -0.11210742388E+03  0.12341094750E+02  0.14522183198E+02  0.20702722264E+03  0.17300000000E+03 0.  1.
<mgrwt>
<rscale>  2 0.20651726E+03</rscale>
<asrwt>0</asrwt>
<pdfrwt beam="1">  1       21 0.94380280E-01 0.20651726E+03</pdfrwt>
<pdfrwt beam="2">  1       21 0.18071200E-01 0.20651726E+03</pdfrwt>
<totfact> 0.26005847E+04</totfact>
</mgrwt>
</event>
<event>
 4    1  0.3935877E+000  0.2137791E+03  0.7546771E-02  0.1138608E+00
         21   -1    0    0  503  502  0.00000000000E+00  0.00000000000E+00  0.90634075809E+03  0.90634075809E+03  0.00000000000E+00 0.  1.
         21   -1    0    0  501  503 -0.00000000000E+00 -0.00000000000E+00 -0.56473326062E+02  0.56473326062E+02  0.00000000000E+00 0. -1.
          6    1    1    2  501    0  0.12138283213E+03 -0.32228887320E+02  0.26737673557E+03  0.34233289622E+03  0.17300000000E+03 0. -1.
         -6    1    1    2    0  502 -0.12138283213E+03  0.32228887320E+02  0.58249069646E+03  0.62048118793E+03  0.17300000000E+03 0.  1.
<mgrwt>
<rscale>  2 0.21377908E+03</rscale>
<asrwt>0</asrwt>
<pdfrwt beam="1">  1       21 0.13943703E+00 0.21377908E+03</pdfrwt>
<pdfrwt beam="2">  1       21 0.86882047E-02 0.21377908E+03</pdfrwt>
<totfact> 0.37114153E+04</totfact>
</mgrwt>
</event>
<event>
 4    1  0.3935877E+000  0.1741549E+03  0.7546771E-02  0.1173583E+00
         21   -1    0    0  503  502  0.00000000000E+00  0.00000000000E+00  0.17483754360E+04  0.17483754360E+04  0.00000000000E+00 0. -1.
         21   -1    0    0  501  503 -0.00000000000E+00 -0.00000000000E+00 -0.19834662707E+02  0.19834662707E+02  0.00000000000E+00 0. -1.
          6    1    1    2  501    0 -0.16342041969E+02 -0.11569899332E+02  0.55119822127E+03  0.57805657512E+03  0.17300000000E+03 0. -1.
         -6    1    1    2    0  502  0.16342041969E+02  0.11569899332E+02  0.11773425520E+04  0.11901535236E+04  0.17300000000E+03 0. -1.
<mgrwt>
<rscale>  2 0.17415489E+03</rscale>
<asrwt>0</asrwt>
<pdfrwt beam="1">  1       21 0.26898072E+00 0.17415489E+03</pdfrwt>
<pdfrwt beam="2">  1       21 0.30514879E-02 0.17415489E+03</pdfrwt>
<totfact> 0.32231350E+04</totfact>
</mgrwt>
</event>
<event>
 4    1  0.3935877E+000  0.1940382E+03  0.7546771E-02  0.1154869E+00
         21   -1    0    0  503  502  0.00000000000E+00  0.00000000000E+00  0.32118255032E+04  0.32118255032E+04  0.00000000000E+00 0.  1.
         21   -1    0    0  501  503 -0.00000000000E+00 -0.00000000000E+00 -0.18178243652E+02  0.18178243652E+02  0.00000000000E+00 0.  1.
          6    1    1    2  501    0 -0.86095415554E+01  0.87451109951E+02  0.63439584536E+03  0.66340704658E+03  0.17300000000E+03 0.  1.
         -6    1    1    2    0  502  0.86095415554E+01 -0.87451109951E+02  0.25592514142E+04  0.25665967003E+04  0.17300000000E+03 0.  1.
<mgrwt>
<rscale>  2 0.19403819E+03</rscale>
<asrwt>0</asrwt>
<pdfrwt beam="1">  1       21 0.49412655E+00 0.19403819E+03</pdfrwt>
<pdfrwt beam="2">  1       21 0.27966554E-02 0.19403819E+03</pdfrwt>
<totfact> 0.14759025E+03</totfact>
</mgrwt>
</event>
<event>
 4    1  0.3935877E+000  0.2343041E+03  0.7546771E-02  0.1123647E+00
         21   -1    0    0  501  502  0.00000000000E+00  0.00000000000E+00  0.15182126706E+03  0.15182126706E+03  0.00000000000E+00 0.  1.
         21   -1    0    0  502  503 -0.00000000000E+00 -0.00000000000E+00 -0.42570800038E+03  0.42570800038E+03  0.00000000000E+00 0.  1.
          6    1    1    2  501    0 -0.10906050896E+03 -0.11434684323E+03 -0.24884012313E+02  0.23562175035E+03  0.17300000000E+03 0.  1.
         -6    1    1    2    0  503  0.10906050896E+03  0.11434684323E+03 -0.24900272101E+03  0.34190751708E+03  0.17300000000E+03 0.  1.
<mgrwt>
<rscale>  2 0.23430407E+03</rscale>
<asrwt>0</asrwt>
<pdfrwt beam="1">  1       21 0.23357118E-01 0.23430407E+03</pdfrwt>
<pdfrwt beam="2">  1       21 0.65493537E-01 0.23430407E+03</pdfrwt>
<totfact> 0.36193087E+04</totfact>
</mgrwt>
</event>
<event>
 4    1  0.3935877E+000  0.2079274E+03  0.7546771E-02  0.1143218E+00
         21   -1    0    0  501  502  0.00000000000E+00  0.00000000000E+00  0.64276064881E+02  0.64276064881E+02  0.00000000000E+00 0.  1.
         21   -1    0    0  502  503 -0.00000000000E+00 -0.00000000000E+00 -0.89081680753E+03  0.89081680753E+03  0.00000000000E+00 0.  1.
          6    1    1    2  501    0 -0.11081220823E+03 -0.32022481746E+02 -0.17692933796E+03  0.27301607180E+03  0.17300000000E+03 0.  1.
         -6    1    1    2    0  503  0.11081220823E+03  0.32022481746E+02 -0.64961140469E+03  0.68207680062E+03  0.17300000000E+03 0.  1.
<mgrwt>
<rscale>  2 0.20792735E+03</rscale>
<asrwt>0</asrwt>
<pdfrwt beam="1">  1       21 0.98886256E-02 0.20792735E+03</pdfrwt>
<pdfrwt beam="2">  1       21 0.13704874E+00 0.20792735E+03</pdfrwt>
<totfact> 0.31001710E+04</totfact>
</mgrwt>
</event>
<event>
 4    1  0.3935877E+000  0.1738019E+03  0.7546771E-02  0.1173940E+00
         21   -1    0    0  501  502  0.00000000000E+00  0.00000000000E+00  0.70191269668E+03  0.70191269668E+03  0.00000000000E+00 0. -1.
         21   -1    0    0  502  503 -0.00000000000E+00 -0.00000000000E+00 -0.43078466721E+02  0.43078466721E+02  0.00000000000E+00 0. -1.
          6    1    1    2  501    0  0.13864037924E+02  0.92681323364E+01  0.34119170552E+03  0.38290846131E+03  0.17300000000E+03 0.  1.
         -6    1    1    2    0  503 -0.13864037924E+02 -0.92681323364E+01  0.31764252444E+03  0.36208270210E+03  0.17300000000E+03 0.  1.
<mgrwt>
<rscale>  2 0.17380193E+03</rscale>
<asrwt>0</asrwt>
<pdfrwt beam="1">  1       21 0.10798656E+00 0.17380193E+03</pdfrwt>
<pdfrwt beam="2">  1       21 0.66274569E-02 0.17380193E+03</pdfrwt>
<totfact> 0.11439459E+05</totfact>
</mgrwt>
</event>
<event>
 4    1  0.3935877E+000  0.1885214E+03  0.7546771E-02  0.1159802E+00
         21   -1    0    0  503  502  0.00000000000E+00  0.00000000000E+00  0.35752309276E+03  0.35752309276E+03  0.00000000000E+00 0. -1.
         21   -1    0    0  501  503 -0.00000000000E+00 -0.00000000000E+00 -0.22139036584E+03  0.22139036584E+03  0.00000000000E+00 0. -1.
          6    1    1    2  501    0 -0.11294723949E+02  0.74052229570E+02 -0.14679314154E+03  0.23893206126E+03  0.17300000000E+03 0. -1.
         -6    1    1    2    0  502  0.11294723949E+02 -0.74052229570E+02  0.28292586847E+03  0.33998139734E+03  0.17300000000E+03 0. -1.
<mgrwt>
<rscale>  2 0.18852136E+03</rscale>
<asrwt>0</asrwt>
<pdfrwt beam="1">  1       21 0.55003553E-01 0.18852136E+03</pdfrwt>
<pdfrwt beam="2">  1       21 0.34060056E-01 0.18852136E+03</pdfrwt>
<totfact> 0.25962883E+04</totfact>
</mgrwt>
</event>
<event>
 4    1  0.3935877E+000  0.2912299E+03  0.7546771E-02  0.1089709E+00
         21   -1    0    0  503  502  0.00000000000E+00  0.00000000000E+00  0.54251051986E+02  0.54251051986E+02  0.00000000000E+00 0. -1.
         21   -1    0    0  501  503 -0.00000000000E+00 -0.00000000000E+00 -0.15648332298E+04  0.15648332298E+04  0.00000000000E+00 0.  1.
          6    1    1    2  501    0  0.10296391676E+03  0.21043837206E+03 -0.77998209456E+03  0.83257849145E+03  0.17300000000E+03 0.  1.
         -6    1    1    2    0  502 -0.10296391676E+03 -0.21043837206E+03 -0.73060008329E+03  0.78650579038E+03  0.17300000000E+03 0. -1.
<mgrwt>
<rscale>  2 0.29122994E+03</rscale>
<asrwt>0</asrwt>
<pdfrwt beam="1">  1       21 0.83463166E-02 0.29122994E+03</pdfrwt>
<pdfrwt beam="2">  1       21 0.24074355E+00 0.29122994E+03</pdfrwt>
<totfact> 0.77778875E+03</totfact>
</mgrwt>
</event>
<event>
 4    1  0.3935877E+000  0.1907445E+03  0.7546771E-02  0.1157792E+00
         21   -1    0    0  503  502  0.00000000000E+00  0.00000000000E+00  0.25332285001E+03  0.25332285001E+03  0.00000000000E+00 0.  1.
         21   -1    0    0  501  503 -0.00000000000E+00 -0.00000000000E+00 -0.15777828121E+03  0.15777828121E+03  0.00000000000E+00 0.  1.
          6    1    1    2  501    0  0.39382912179E+02 -0.70024603359E+02 -0.13791567223E+02  0.19124242776E+03  0.17300000000E+03 0.  1.
         -6    1    1    2    0  502 -0.39382912179E+02  0.70024603359E+02  0.10933613603E+03  0.21985870346E+03  0.17300000000E+03 0.  1.
<mgrwt>
<rscale>  2 0.19074449E+03</rscale>
<asrwt>0</asrwt>
<pdfrwt beam="1">  1       21 0.38972746E-01 0.19074449E+03</pdfrwt>
<pdfrwt beam="2">  1       21 0.24273582E-01 0.19074449E+03</pdfrwt>
<totfact> 0.10178645E+05</totfact>
</mgrwt>
</event>
<event>
 4    1  0.3935877E+000  0.1746916E+03  0.7546771E-02  0.1173042E+00
         21   -1    0    0  501  502  0.00000000000E+00  0.00000000000E+00  0.35042425704E+02  0.35042425704E+02  0.00000000000E+00 0. -1.
         21   -1    0    0  502  503 -0.00000000000E+00 -0.00000000000E+00 -0.87169151637E+03  0.87169151637E+03  0.00000000000E+00 0. -1.
          6    1    1    2  501    0  0.76225467102E+01 -0.23023162202E+02 -0.40435153347E+03  0.44047398543E+03  0.17300000000E+03 0. -1.
         -6    1    1    2    0  503 -0.76225467102E+01  0.23023162202E+02 -0.43229755719E+03  0.46625995664E+03  0.17300000000E+03 0. -1.
<mgrwt>
<rscale>  2 0.17469164E+03</rscale>
<asrwt>0</asrwt>
<pdfrwt beam="1">  1       21 0.53911426E-02 0.17469164E+03</pdfrwt>
<pdfrwt beam="2">  1       21 0.13410638E+00 0.17469164E+03</pdfrwt>
<totfact> 0.95350565E+04</totfact>
</mgrwt>
</event>
<event>
 4    1  0.3935877E+000  0.2165520E+03  0.7546771E-02  0.1136480E+00
         21   -1    0    0  501  502  0.00000000000E+00  0.00000000000E+00  0.35113874112E+03  0.35113874112E+03  0.00000000000E+00 0.  1.
         21   -1    0    0  502  503 -0.00000000000E+00 -0.00000000000E+00 -0.14791469077E+03  0.14791469077E+03  0.00000000000E+00 0.  1.
          6    1    1    2  501    0  0.83606490090E+02  0.99878509763E+02  0.17937120251E+03  0.28119173207E+03  0.17300000000E+03 0.  1.
         -6    1    1    2    0  503 -0.83606490090E+02 -0.99878509763E+02  0.23852847844E+02  0.21786169982E+03  0.17300000000E+03 0.  1.
<mgrwt>
<rscale>  2 0.21655198E+03</rscale>
<asrwt>0</asrwt>
<pdfrwt beam="1">  1       21 0.54021345E-01 0.21655198E+03</pdfrwt>
<pdfrwt beam="2">  1       21 0.22756106E-01 0.21655198E+03</pdfrwt>
<totfact> 0.58029071E+04</totfact>
</mgrwt>
</event>
<event>
 4    1  0.3935877E+000  0.1778100E+03  0.7546771E-02  0.1169940E+00
         21   -1    0    0  503  502  0.00000000000E+00  0.00000000000E+00  0.12271765894E+03  0.12271765894E+03  0.00000000000E+00 0. -1.
         21   -1    0    0  501  503 -0.00000000000E+00 -0.00000000000E+00 -0.30455581406E+03  0.30455581406E+03  0.00000000000E+00 0. -1.
          6    1    1    2  501    0  0.37309239790E+00  0.41076058158E+02 -0.17477323311E+03  0.24932321345E+03  0.17300000000E+03 0. -1.
         -6    1    1    2    0  502 -0.37309239790E+00 -0.41076058158E+02 -0.70649220023E+01  0.17795025955E+03  0.17300000000E+03 0. -1.
<mgrwt>
<rscale>  2 0.17780996E+03</rscale>
<asrwt>0</asrwt>
<pdfrwt beam="1">  1       21 0.18879640E-01 0.17780996E+03</pdfrwt>
<pdfrwt beam="2">  1       21 0.46854739E-01 0.17780996E+03</pdfrwt>
<totfact> 0.11266945E+05</totfact>
</mgrwt>
</event>
<event>
 4    1  0.3935877E+000  0.2103639E+03  0.7546771E-02  0.1141278E+00
         21   -1    0    0  501  502  0.00000000000E+00  0.00000000000E+00  0.35022404337E+02  0.35022404337E+02  0.00000000000E+00 0. -1.
         21   -1    0    0  502  503 -0.00000000000E+00 -0.00000000000E+00 -0.13688993740E+04  0.13688993740E+04  0.00000000000E+00 0. -1.
          6    1    1    2  501    0  0.74961254428E+02  0.93299356048E+02 -0.47221444994E+03  0.51695207344E+03  0.17300000000E+03 0.  1.
         -6    1    1    2    0  503 -0.74961254428E+02 -0.93299356048E+02 -0.86166251973E+03  0.88696970490E+03  0.17300000000E+03 0.  1.
<mgrwt>
<rscale>  2 0.21036387E+03</rscale>
<asrwt>0</asrwt>
<pdfrwt beam="1">  1       21 0.53880619E-02 0.21036387E+03</pdfrwt>
<pdfrwt beam="2">  1       21 0.21059991E+00 0.21036387E+03</pdfrwt>
<totfact> 0.26902913E+04</totfact>
</mgrwt>
</event>
<event>
 4    1  0.3935877E+000  0.1883352E+03  0.7546771E-02  0.1159972E+00
         21   -1    0    0  501  502  0.00000000000E+00  0.00000000000E+00  0.41725064783E+03  0.41725064783E+03  0.00000000000E+00 0.  1.
         21   -1    0    0  502  503 -0.00000000000E+00 -0.00000000000E+00 -0.14481858663E+03  0.14481858663E+03  0.00000000000E+00 0.  1.
          6    1    1    2  501    0 -0.55801279684E+02 -0.49268213473E+02  0.31682211467E+03  0.36857345538E+03  0.17300000000E+03 0.  1.
         -6    1    1    2    0  503  0.55801279684E+02  0.49268213473E+02 -0.44390053458E+02  0.19349577907E+03  0.17300000000E+03 0.  1.
<mgrwt>
<rscale>  2 0.18833518E+03</rscale>
<asrwt>0</asrwt>
<pdfrwt beam="1">  1       21 0.64192407E-01 0.18833518E+03</pdfrwt>
<pdfrwt beam="2">  1       21 0.22279783E-01 0.18833518E+03</pdfrwt>
<totfact> 0.42302771E+04</totfact>
</mgrwt>
</event>
<event>
 4    1  0.3935877E+000  0.1759621E+03  0.7546771E-02  0.1171769E+00
         21   -1    0    0  503  502  0.00000000000E+00  0.00000000000E+00  0.68181023857E+03  0.68181023857E+03  0.00000000000E+00 0.  1.
         21   -1    0    0  501  503 -0.00000000000E+00 -0.00000000000E+00 -0.14584767879E+03  0.14584767879E+03  0.00000000000E+00 0.  1.
          6    1    1    2  501    0 -0.18949671178E+02 -0.25972278269E+02 -0.75429742430E+02  0.19144789192E+03  0.17300000000E+03 0.  1.
         -6    1    1    2    0  502  0.18949671178E+02  0.25972278269E+02  0.61139230221E+03  0.63621002545E+03  0.17300000000E+03 0.  1.
<mgrwt>
<rscale>  2 0.17596207E+03</rscale>
<asrwt>0</asrwt>
<pdfrwt beam="1">  1       21 0.10489388E+00 0.17596207E+03</pdfrwt>
<pdfrwt beam="2">  1       21 0.22438105E-01 0.17596207E+03</pdfrwt>
<totfact> 0.13776378E+04</totfact>
</mgrwt>
</event>
<event>
 4    1  0.3935877E+000  0.2367919E+03  0.7546771E-02  0.1121949E+00
         21   -1    0    0  503  502  0.00000000000E+00  0.00000000000E+00  0.46269127331E+03  0.46269127331E+03  0.00000000000E+00 0.  1.
         21   -1    0    0  501  503 -0.00000000000E+00 -0.00000000000E+00 -0.17488836136E+03  0.17488836136E+03  0.00000000000E+00 0.  1.
          6    1    1    2  501    0  0.62696056717E+02  0.14903221722E+03 -0.32756053201E+02  0.23904676597E+03  0.17300000000E+03 0.  1.
         -6    1    1    2    0  502 -0.62696056717E+02 -0.14903221722E+03  0.32055896515E+03  0.39853286870E+03  0.17300000000E+03 0.  1.
<mgrwt>
<rscale>  2 0.23679189E+03</rscale>
<asrwt>0</asrwt>
<pdfrwt beam="1">  1       21 0.71183272E-01 0.23679189E+03</pdfrwt>
<pdfrwt beam="2">  1       21 0.26905902E-01 0.23679189E+03</pdfrwt>
<totfact> 0.22929407E+04</totfact>
</mgrwt>
</event>
<event>
 4    1  0.3935877E+000  0.2074293E+03  0.7546771E-02  0.1143618E+00
         21   -1    0    0  501  502  0.00000000000E+00  0.00000000000E+00  0.10014588125E+04  0.10014588125E+04  0.00000000000E+00 0.  1.
         21   -1    0    0  502  503 -0.00000000000E+00 -0.00000000000E+00 -0.46031059590E+02  0.46031059590E+02  0.00000000000E+00 0.  1.
          6    1    1    2  501    0 -0.88388419561E+02  0.72700880823E+02  0.61290166836E+03  0.64705130079E+03  0.17300000000E+03 0.  1.
         -6    1    1    2    0  503  0.88388419561E+02 -0.72700880823E+02  0.34252608458E+03  0.40043857132E+03  0.17300000000E+03 0.  1.
<mgrwt>
<rscale>  2 0.20742934E+03</rscale>
<asrwt>0</asrwt>
<pdfrwt beam="1">  1       21 0.15407057E+00 0.20742934E+03</pdfrwt>
<pdfrwt beam="2">  1       21 0.70817022E-02 0.20742934E+03</pdfrwt>
<totfact> 0.40929196E+04</totfact>
</mgrwt>
</event>
<event>
 4    1  0.3935877E+000  0.1865256E+03  0.7546771E-02  0.1161633E+00
         21   -1    0    0  501  502  0.00000000000E+00  0.00000000000E+00  0.13053945550E+03  0.13053945550E+03  0.00000000000E+00 0.  1.
         21   -1    0    0  502  503 -0.00000000000E+00 -0.00000000000E+00 -0.36482815111E+03  0.36482815111E+03  0.00000000000E+00 0.  1.
          6    1    1    2  501    0  0.47413081717E+02  0.51135177345E+02  0.11426026392E+02  0.18687525454E+03  0.17300000000E+03 0.  1.
         -6    1    1    2    0  503 -0.47413081717E+02 -0.51135177345E+02 -0.24571472199E+03  0.30849235207E+03  0.17300000000E+03 0.  1.
<mgrwt>
<rscale>  2 0.18652562E+03</rscale>
<asrwt>0</asrwt>
<pdfrwt beam="1">  1       21 0.20082993E-01 0.18652562E+03</pdfrwt>
<pdfrwt beam="2">  1       21 0.56127408E-01 0.18652562E+03</pdfrwt>
<totfact> 0.68618606E+04</totfact>
</mgrwt>
</event>
<event>
 4    1  0.3935877E+000  0.1757921E+03  0.7546771E-02  0.1171939E+00
         21   -1    0    0  503  502  0.00000000000E+00  0.00000000000E+00  0.63340632571E+03  0.63340632571E+03  0.00000000000E+00 0. -1.
         21   -1    0    0  501  503 -0.00000000000E+00 -0.00000000000E+00 -0.49186797924E+02  0.49186797924E+02  0.00000000000E+00 0. -1.
          6    1    1    2  501    0 -0.39206714573E+01  0.30959305998E+02  0.26139177709E+03  0.31500557364E+03  0.17300000000E+03 0.  1.
         -6    1    1    2    0  502  0.39206714573E+01 -0.30959305998E+02  0.32282775070E+03  0.36758755000E+03  0.17300000000E+03 0.  1.
<mgrwt>
<rscale>  2 0.17579207E+03</rscale>
<asrwt>0</asrwt>
<pdfrwt beam="1">  1       21 0.97447121E-01 0.17579207E+03</pdfrwt>
<pdfrwt beam="2">  1       21 0.75672001E-02 0.17579207E+03</pdfrwt>
<totfact> 0.11611502E+05</totfact>
</mgrwt>
</event>
<event>
 4    1  0.3935877E+000  0.2065472E+03  0.7546771E-02  0.1144330E+00
         21   -1    0    0  501  502  0.00000000000E+00  0.00000000000E+00  0.14405531476E+03  0.14405531476E+03  0.00000000000E+00 0. -1.
         21   -1    0    0  502  503 -0.00000000000E+00 -0.00000000000E+00 -0.36844375962E+03  0.36844375962E+03  0.00000000000E+00 0. -1.
          6    1    1    2  501    0 -0.86140017005E+02 -0.72887885225E+02  0.13154302673E+01  0.20655138997E+03  0.17300000000E+03 0. -1.
         -6    1    1    2    0  503  0.86140017005E+02  0.72887885225E+02 -0.22570387513E+03  0.30594768440E+03  0.17300000000E+03 0. -1.
<mgrwt>
<rscale>  2 0.20654720E+03</rscale>
<asrwt>0</asrwt>
<pdfrwt beam="1">  1       21 0.22162357E-01 0.20654720E+03</pdfrwt>
<pdfrwt beam="2">  1       21 0.56683654E-01 0.20654720E+03</pdfrwt>
<totfact> 0.55335440E+04</totfact>
</mgrwt>
</event>
<event>
 4    1  0.3935877E+000  0.1827750E+03  0.7546771E-02  0.1165144E+00
         21   -1    0    0  501  502  0.00000000000E+00  0.00000000000E+00  0.40981537819E+02  0.40981537819E+02  0.00000000000E+00 0. -1.
         21   -1    0    0  502  503 -0.00000000000E+00 -0.00000000000E+00 -0.11710814926E+04  0.11710814926E+04  0.00000000000E+00 0. -1.
          6    1    1    2  501    0 -0.23923678555E+02  0.53901400726E+02 -0.23095043271E+03  0.29452471164E+03  0.17300000000E+03 0. -1.
         -6    1    1    2    0  503  0.23923678555E+02 -0.53901400726E+02 -0.89914952210E+03  0.91753831881E+03  0.17300000000E+03 0. -1.
<mgrwt>
<rscale>  2 0.18277501E+03</rscale>
<asrwt>0</asrwt>
<pdfrwt beam="1">  1       21 0.63048526E-02 0.18277501E+03</pdfrwt>
<pdfrwt beam="2">  1       21 0.18016636E+00 0.18277501E+03</pdfrwt>
<totfact> 0.33087084E+04</totfact>
</mgrwt>
</event>
<event>
 4    1  0.3935877E+000  0.1937002E+03  0.7546771E-02  0.1155166E+00
         21   -1    0    0  501  502  0.00000000000E+00  0.00000000000E+00  0.19945384948E+03  0.19945384948E+03  0.00000000000E+00 0.  1.
         21   -1    0    0  502  503 -0.00000000000E+00 -0.00000000000E+00 -0.21269910109E+03  0.21269910109E+03  0.00000000000E+00 0.  1.
          6    1    1    2  501    0 -0.73219276718E+02 -0.47219923330E+02  0.63441206930E+02  0.20382485221E+03  0.17300000000E+03 0.  1.
         -6    1    1    2    0  503  0.73219276718E+02  0.47219923330E+02 -0.76686458535E+02  0.20832809836E+03  0.17300000000E+03 0.  1.
<mgrwt>
<rscale>  2 0.19370024E+03</rscale>
<asrwt>0</asrwt>
<pdfrwt beam="1">  1       21 0.30685208E-01 0.19370024E+03</pdfrwt>
<pdfrwt beam="2">  1       21 0.32722939E-01 0.19370024E+03</pdfrwt>
<totfact> 0.91622020E+04</totfact>
</mgrwt>
</event>
<event>
 4    1  0.3935877E+000  0.2084545E+03  0.7546771E-02  0.1142796E+00
         21   -1    0    0  503  502  0.00000000000E+00  0.00000000000E+00  0.32340373319E+03  0.32340373319E+03  0.00000000000E+00 0. -1.
         21   -1    0    0  501  503 -0.00000000000E+00 -0.00000000000E+00 -0.16984280394E+03  0.16984280394E+03  0.00000000000E+00 0. -1.
          6    1    1    2  501    0  0.76585294680E+02 -0.87515560111E+02 -0.35940618077E+02  0.21153016014E+03  0.17300000000E+03 0. -1.
         -6    1    1    2    0  502 -0.76585294680E+02  0.87515560111E+02  0.18950154732E+03  0.28171637698E+03  0.17300000000E+03 0. -1.
<mgrwt>
<rscale>  2 0.20845450E+03</rscale>
<asrwt>0</asrwt>
<pdfrwt beam="1">  1       21 0.49754421E-01 0.20845450E+03</pdfrwt>
<pdfrwt beam="2">  1       21 0.26129662E-01 0.20845450E+03</pdfrwt>
<totfact> 0.53179329E+04</totfact>
</mgrwt>
</event>
<event>
 4    1  0.3935877E+000  0.2570714E+03  0.7546771E-02  0.1108916E+00
         21   -1    0    0  503  502  0.00000000000E+00  0.00000000000E+00  0.78307405769E+03  0.78307405769E+03  0.00000000000E+00 0. -1.
         21   -1    0    0  501  503 -0.00000000000E+00 -0.00000000000E+00 -0.96509665431E+02  0.96509665431E+02  0.00000000000E+00 0.  1.
          6    1    1    2  501    0 -0.17992984195E+03  0.61497785411E+02  0.18744938331E+03  0.31815561749E+03  0.17300000000E+03 0.  1.
         -6    1    1    2    0  502  0.17992984195E+03 -0.61497785411E+02  0.49911500894E+03  0.56142810563E+03  0.17300000000E+03 0. -1.
<mgrwt>
<rscale>  2 0.25707144E+03</rscale>
<asrwt>0</asrwt>
<pdfrwt beam="1">  1       21 0.12047293E+00 0.25707144E+03</pdfrwt>
<pdfrwt beam="2">  1       21 0.14847641E-01 0.25707144E+03</pdfrwt>
<totfact> 0.20146415E+04</totfact>
</mgrwt>
</event>
<event>
 4    1  0.3935877E+000  0.1921242E+03  0.7546771E-02  0.1156559E+00
         21   -1    0    0  501  502  0.00000000000E+00  0.00000000000E+00  0.20711644657E+03  0.20711644657E+03  0.00000000000E+00 0. -1.
         21   -1    0    0  502  503 -0.00000000000E+00 -0.00000000000E+00 -0.21615955188E+03  0.21615955188E+03  0.00000000000E+00 0.  1.
          6    1    1    2  501    0 -0.54321181202E+02  0.63497264714E+02  0.84146894569E+02  0.20974363690E+03  0.17300000000E+03 0. -1.
         -6    1    1    2    0  503  0.54321181202E+02 -0.63497264714E+02 -0.93189999878E+02  0.21353236155E+03  0.17300000000E+03 0.  1.
<mgrwt>
<rscale>  2 0.19212416E+03</rscale>
<asrwt>0</asrwt>
<pdfrwt beam="1">  1       21 0.31864069E-01 0.19212416E+03</pdfrwt>
<pdfrwt beam="2">  1       21 0.33255316E-01 0.19212416E+03</pdfrwt>
<totfact> 0.82489506E+04</totfact>
</mgrwt>
</event>
<event>
 4    1  0.3935877E+000  0.2252717E+03  0.7546771E-02  0.1130013E+00
         21   -1    0    0  501  502  0.00000000000E+00  0.00000000000E+00  0.15641886534E+04  0.15641886534E+04  0.00000000000E+00 0. -1.
         21   -1    0    0  502  503 -0.00000000000E+00 -0.00000000000E+00 -0.14587631722E+03  0.14587631722E+03  0.00000000000E+00 0. -1.
          6    1    1    2  501    0 -0.14054918731E+03  0.32622988770E+02  0.14631366342E+04  0.14803770276E+04  0.17300000000E+03 0. -1.
         -6    1    1    2    0  503  0.14054918731E+03 -0.32622988770E+02 -0.44824298086E+02  0.22968794298E+03  0.17300000000E+03 0. -1.
<mgrwt>
<rscale>  2 0.22527169E+03</rscale>
<asrwt>0</asrwt>
<pdfrwt beam="1">  1       21 0.24064440E+00 0.22527169E+03</pdfrwt>
<pdfrwt beam="2">  1       21 0.22442511E-01 0.22527169E+03</pdfrwt>
<totfact> 0.13543283E+03</totfact>
</mgrwt>
</event>
<event>
 4    1  0.3935877E+000  0.2155141E+03  0.7546771E-02  0.1137272E+00
         21   -1    0    0  503  502  0.00000000000E+00  0.00000000000E+00  0.20053464381E+03  0.20053464381E+03  0.00000000000E+00 0.  1.
         21   -1    0    0  501  503 -0.00000000000E+00 -0.00000000000E+00 -0.23217464352E+03  0.23217464352E+03  0.00000000000E+00 0.  1.
          6    1    1    2  501    0  0.12446449186E+03  0.32029990377E+02 -0.26465909249E+02  0.21713307986E+03  0.17300000000E+03 0.  1.
         -6    1    1    2    0  502 -0.12446449186E+03 -0.32029990377E+02 -0.51740904601E+01  0.21557620748E+03  0.17300000000E+03 0.  1.
<mgrwt>
<rscale>  2 0.21551411E+03</rscale>
<asrwt>0</asrwt>
<pdfrwt beam="1">  1       21 0.30851483E-01 0.21551411E+03</pdfrwt>
<pdfrwt beam="2">  1       21 0.35719176E-01 0.21551411E+03</pdfrwt>
<totfact> 0.75510563E+04</totfact>
</mgrwt>
</event>
<event>
 4    1  0.3935877E+000  0.2068818E+03  0.7546771E-02  0.1144059E+00
         21   -1    0    0  501  502  0.00000000000E+00  0.00000000000E+00  0.47772644260E+03  0.47772644260E+03  0.00000000000E+00 0. -1.
         21   -1    0    0  502  503 -0.00000000000E+00 -0.00000000000E+00 -0.91022437796E+02  0.91022437796E+02  0.00000000000E+00 0. -1.
          6    1    1    2  501    0 -0.47017131175E+02  0.10324964327E+03  0.22901088401E+03  0.30861964366E+03  0.17300000000E+03 0. -1.
         -6    1    1    2    0  503  0.47017131175E+02 -0.10324964327E+03  0.15769312080E+03  0.26012923674E+03  0.17300000000E+03 0. -1.
<mgrwt>
<rscale>  2 0.20688185E+03</rscale>
<asrwt>0</asrwt>
<pdfrwt beam="1">  1       21 0.73496374E-01 0.20688185E+03</pdfrwt>
<pdfrwt beam="2">  1       21 0.14003452E-01 0.20688185E+03</pdfrwt>
<totfact> 0.73454252E+04</totfact>
</mgrwt>
</event>
<event>
 4    1  0.3935877E+000  0.2343238E+03  0.7546771E-02  0.1123633E+00
         21   -1    0    0  501  502  0.00000000000E+00  0.00000000000E+00  0.28585810825E+03  0.28585810825E+03  0.00000000000E+00 0. -1.
         21   -1    0    0  502  503 -0.00000000000E+00 -0.00000000000E+00 -0.33465425763E+03  0.33465425763E+03  0.00000000000E+00 0.  1.
          6    1    1    2  501    0  0.42465242269E+00 -0.15804571282E+03  0.17811021944E+03  0.29433123847E+03  0.17300000000E+03 0.  1.
         -6    1    1    2    0  503 -0.42465242269E+00  0.15804571282E+03 -0.22690636882E+03  0.32618112741E+03  0.17300000000E+03 0.  1.
<mgrwt>
<rscale>  2 0.23432377E+03</rscale>
<asrwt>0</asrwt>
<pdfrwt beam="1">  1       21 0.43978171E-01 0.23432377E+03</pdfrwt>
<pdfrwt beam="2">  1       21 0.51485270E-01 0.23432377E+03</pdfrwt>
<totfact> 0.17377909E+04</totfact>
</mgrwt>
</event>
<event>
 4    1  0.3935877E+000  0.1950261E+03  0.7546771E-02  0.1154005E+00
         21   -1    0    0  501  502  0.00000000000E+00  0.00000000000E+00  0.15614356516E+03  0.15614356516E+03  0.00000000000E+00 0. -1.
         21   -1    0    0  502  503 -0.00000000000E+00 -0.00000000000E+00 -0.34656451867E+03  0.34656451867E+03  0.00000000000E+00 0. -1.
          6    1    1    2  501    0 -0.39405746735E+02  0.80952781683E+02  0.41800896934E+02  0.19945546050E+03  0.17300000000E+03 0. -1.
         -6    1    1    2    0  503  0.39405746735E+02 -0.80952781683E+02 -0.23222185044E+03  0.30325262334E+03  0.17300000000E+03 0. -1.
<mgrwt>
<rscale>  2 0.19502606E+03</rscale>
<asrwt>0</asrwt>
<pdfrwt beam="1">  1       21 0.24022087E-01 0.19502606E+03</pdfrwt>
<pdfrwt beam="2">  1       21 0.53317618E-01 0.19502606E+03</pdfrwt>
<totfact> 0.54372168E+04</totfact>
</mgrwt>
</event>
<event>
 4    1  0.3935877E+000  0.1970597E+03  0.7546771E-02  0.1152244E+00
         21   -1    0    0  501  502  0.00000000000E+00  0.00000000000E+00  0.12446040620E+03  0.12446040620E+03  0.00000000000E+00 0.  1.
         21   -1    0    0  502  503 -0.00000000000E+00 -0.00000000000E+00 -0.64165142985E+03  0.64165142985E+03  0.00000000000E+00 0.  1.
          6    1    1    2  501    0 -0.62812306100E+02  0.70413999113E+02  0.15963351837E+02  0.19770519890E+03  0.17300000000E+03 0.  1.
         -6    1    1    2    0  503  0.62812306100E+02 -0.70413999113E+02 -0.53315437548E+03  0.56840663716E+03  0.17300000000E+03 0.  1.
<mgrwt>
<rscale>  2 0.19705968E+03</rscale>
<asrwt>0</asrwt>
<pdfrwt beam="1">  1       21 0.19147755E-01 0.19705968E+03</pdfrwt>
<pdfrwt beam="2">  1       21 0.98715602E-01 0.19705968E+03</pdfrwt>
<totfact> 0.21133833E+04</totfact>
</mgrwt>
</event>
<event>
 4    1  0.3935877E+000  0.1743154E+03  0.7546771E-02  0.1173421E+00
         21   -1    0    0  503  502  0.00000000000E+00  0.00000000000E+00  0.65709526691E+03  0.65709526691E+03  0.00000000000E+00 0. -1.
         21   -1    0    0  501  503 -0.00000000000E+00 -0.00000000000E+00 -0.53526998383E+02  0.53526998383E+02  0.00000000000E+00 0. -1.
          6    1    1    2  501    0  0.14361261857E+02  0.15830672803E+02  0.17071018611E+03  0.24398324468E+03  0.17300000000E+03 0. -1.
         -6    1    1    2    0  502 -0.14361261857E+02 -0.15830672803E+02  0.43285808242E+03  0.46663902061E+03  0.17300000000E+03 0. -1.
<mgrwt>
<rscale>  2 0.17431539E+03</rscale>
<asrwt>0</asrwt>
<pdfrwt beam="1">  1       21 0.10109157E+00 0.17431539E+03</pdfrwt>
<pdfrwt beam="2">  1       21 0.82349233E-02 0.17431539E+03</pdfrwt>
<totfact> 0.92001780E+04</totfact>
</mgrwt>
</event>
<event>
 4    1  0.3935877E+000  0.2482502E+03  0.7546771E-02  0.1114416E+00
         21   -1    0    0  503  502  0.00000000000E+00  0.00000000000E+00  0.56559167444E+03  0.56559167444E+03  0.00000000000E+00 0. -1.
         21   -1    0    0  501  503 -0.00000000000E+00 -0.00000000000E+00 -0.10964818549E+03  0.10964818549E+03  0.00000000000E+00 0. -1.
          6    1    1    2  501    0  0.48708022616E+02  0.17125044166E+03  0.25467378594E+03  0.35564999998E+03  0.17300000000E+03 0. -1.
         -6    1    1    2    0  502 -0.48708022616E+02 -0.17125044166E+03  0.20126970301E+03  0.31958985995E+03  0.17300000000E+03 0. -1.
<mgrwt>
<rscale>  2 0.24825025E+03</rscale>
<asrwt>0</asrwt>
<pdfrwt beam="1">  1       21 0.87014102E-01 0.24825025E+03</pdfrwt>
<pdfrwt beam="2">  1       21 0.16868952E-01 0.24825025E+03</pdfrwt>
<totfact> 0.34952849E+04</totfact>
</mgrwt>
</event>
<event>
 4    1  0.3935877E+000  0.1740874E+03  0.7546771E-02  0.1173651E+00
         21   -1    0    0  501  502  0.00000000000E+00  0.00000000000E+00  0.39762785201E+02  0.39762785201E+02  0.00000000000E+00 0.  1.
         21   -1    0    0  502  503 -0.00000000000E+00 -0.00000000000E+00 -0.77090657621E+03  0.77090657621E+03  0.00000000000E+00 0.  1.
          6    1    1    2  501    0  0.17169913195E+02 -0.90900253881E+01 -0.32244849328E+03  0.36644162605E+03  0.17300000000E+03 0. -1.
         -6    1    1    2    0  503 -0.17169913195E+02  0.90900253881E+01 -0.40869529772E+03  0.44422773536E+03  0.17300000000E+03 0. -1.
<mgrwt>
<rscale>  2 0.17408743E+03</rscale>
<asrwt>0</asrwt>
<pdfrwt beam="1">  1       21 0.61173518E-02 0.17408743E+03</pdfrwt>
<pdfrwt beam="2">  1       21 0.11860101E+00 0.17408743E+03</pdfrwt>
<totfact> 0.10453388E+05</totfact>
</mgrwt>
</event>
<event>
 4    1  0.3935877E+000  0.2594166E+03  0.7546771E-02  0.1107494E+00
         21   -1    0    0  501  502  0.00000000000E+00  0.00000000000E+00  0.29683059066E+03  0.29683059066E+03  0.00000000000E+00 0.  1.
         21   -1    0    0  502  503 -0.00000000000E+00 -0.00000000000E+00 -0.35038834616E+03  0.35038834616E+03  0.00000000000E+00 0.  1.
          6    1    1    2  501    0 -0.18960105131E+03  0.37675420015E+02  0.16547638927E+03  0.30770022967E+03  0.17300000000E+03 0.  1.
         -6    1    1    2    0  503  0.18960105131E+03 -0.37675420015E+02 -0.21903414477E+03  0.33951870716E+03  0.17300000000E+03 0.  1.
<mgrwt>
<rscale>  2 0.25941665E+03</rscale>
<asrwt>0</asrwt>
<pdfrwt beam="1">  1       21 0.45666245E-01 0.25941665E+03</pdfrwt>
<pdfrwt beam="2">  1       21 0.53905899E-01 0.25941665E+03</pdfrwt>
<totfact> 0.14403991E+04</totfact>
</mgrwt>
</event>
<event>
 4    1  0.3935877E+000  0.1764334E+03  0.7546771E-02  0.1171300E+00
         21   -1    0    0  501  502  0.00000000000E+00  0.00000000000E+00  0.11310765201E+03  0.11310765201E+03  0.00000000000E+00 0.  1.
         21   -1    0    0  502  503 -0.00000000000E+00 -0.00000000000E+00 -0.27702867124E+03  0.27702867124E+03  0.00000000000E+00 0.  1.
          6    1    1    2  501    0 -0.24107364927E+02  0.24871291611E+02 -0.97750788778E+02  0.20170265962E+03  0.17300000000E+03 0. -1.
         -6    1    1    2    0  503  0.24107364927E+02 -0.24871291611E+02 -0.66170230448E+02  0.18843366363E+03  0.17300000000E+03 0. -1.
<mgrwt>
<rscale>  2 0.17643340E+03</rscale>
<asrwt>0</asrwt>
<pdfrwt beam="1">  1       21 0.17401177E-01 0.17643340E+03</pdfrwt>
<pdfrwt beam="2">  1       21 0.42619795E-01 0.17643340E+03</pdfrwt>
<totfact> 0.15908577E+05</totfact>
</mgrwt>
</event>
<event>
 4    1  0.3935877E+000  0.1868317E+03  0.7546771E-02  0.1161350E+00
         21   -1    0    0  501  502  0.00000000000E+00  0.00000000000E+00  0.28075472340E+03  0.28075472340E+03  0.00000000000E+00 0.  1.
         21   -1    0    0  502  503 -0.00000000000E+00 -0.00000000000E+00 -0.12559370771E+03  0.12559370771E+03  0.00000000000E+00 0.  1.
          6    1    1    2  501    0  0.67776044321E+02 -0.19583228065E+02  0.97964699172E+02  0.21095776186E+03  0.17300000000E+03 0.  1.
         -6    1    1    2    0  503 -0.67776044321E+02  0.19583228065E+02  0.57196316522E+02  0.19539066925E+03  0.17300000000E+03 0.  1.
<mgrwt>
<rscale>  2 0.18683173E+03</rscale>
<asrwt>0</asrwt>
<pdfrwt beam="1">  1       21 0.43193034E-01 0.18683173E+03</pdfrwt>
<pdfrwt beam="2">  1       21 0.19322109E-01 0.18683173E+03</pdfrwt>
<totfact> 0.12711447E+05</totfact>
</mgrwt>
</event>
<event>
 4    1  0.3935877E+000  0.1864696E+03  0.7546771E-02  0.1161685E+00
         21   -1    0    0  501  502  0.00000000000E+00  0.00000000000E+00  0.29775837923E+02  0.29775837923E+02  0.00000000000E+00 0.  1.
         21   -1    0    0  502  503 -0.00000000000E+00 -0.00000000000E+00 -0.13306039327E+04  0.13306039327E+04  0.00000000000E+00 0.  1.
          6    1    1    2  501    0  0.68917811032E+02  0.96052978301E+01 -0.41245823948E+03  0.45265077680E+03  0.17300000000E+03 0. -1.
         -6    1    1    2    0  503 -0.68917811032E+02 -0.96052978301E+01 -0.88836985528E+03  0.90772899380E+03  0.17300000000E+03 0. -1.
<mgrwt>
<rscale>  2 0.18646964E+03</rscale>
<asrwt>0</asrwt>
<pdfrwt beam="1">  1       21 0.45808969E-02 0.18646964E+03</pdfrwt>
<pdfrwt beam="2">  1       21 0.20470835E+00 0.18646964E+03</pdfrwt>
<totfact> 0.39251275E+04</totfact>
</mgrwt>
</event>
<event>
 4    1  0.3935877E+000  0.2042926E+03  0.7546771E-02  0.1146167E+00
         21   -1    0    0  503  502  0.00000000000E+00  0.00000000000E+00  0.35234220962E+03  0.35234220962E+03  0.00000000000E+00 0.  1.
         21   -1    0    0  501  503 -0.00000000000E+00 -0.00000000000E+00 -0.14615754577E+03  0.14615754577E+03  0.00000000000E+00 0.  1.
          6    1    1    2  501    0 -0.16805883977E+02 -0.10735011648E+03 -0.54280009401E+01  0.20436474363E+03  0.17300000000E+03 0.  1.
         -6    1    1    2    0  502  0.16805883977E+02  0.10735011648E+03  0.21161266479E+03  0.29413501176E+03  0.17300000000E+03 0.  1.
<mgrwt>
<rscale>  2 0.20429265E+03</rscale>
<asrwt>0</asrwt>
<pdfrwt beam="1">  1       21 0.54206494E-01 0.20429265E+03</pdfrwt>
<pdfrwt beam="2">  1       21 0.22485776E-01 0.20429265E+03</pdfrwt>
<totfact> 0.59256779E+04</totfact>
</mgrwt>
</event>
<event>
 4    1  0.3935877E+000  0.1790158E+03  0.7546771E-02  0.1168759E+00
         21   -1    0    0  501  502  0.00000000000E+00  0.00000000000E+00  0.10189606781E+03  0.10189606781E+03  0.00000000000E+00 0. -1.
         21   -1    0    0  502  503 -0.00000000000E+00 -0.00000000000E+00 -0.71009772893E+03  0.71009772893E+03  0.00000000000E+00 0. -1.
          6    1    1    2  501    0  0.15198777385E+02  0.43435503879E+02 -0.10686453552E+01  0.17901895943E+03  0.17300000000E+03 0. -1.
         -6    1    1    2    0  503 -0.15198777385E+02 -0.43435503879E+02 -0.60713301576E+03  0.63297483731E+03  0.17300000000E+03 0. -1.
<mgrwt>
<rscale>  2 0.17901577E+03</rscale>
<asrwt>0</asrwt>
<pdfrwt beam="1">  1       21 0.15676318E-01 0.17901577E+03</pdfrwt>
<pdfrwt beam="2">  1       21 0.10924581E+00 0.17901577E+03</pdfrwt>
<totfact> 0.24235203E+04</totfact>
</mgrwt>
</event>
<event>
 4    1  0.3935877E+000  0.1905823E+03  0.7546771E-02  0.1157937E+00
         21   -1    0    0  503  502  0.00000000000E+00  0.00000000000E+00  0.28019635865E+03  0.28019635865E+03  0.00000000000E+00 0.  1.
         21   -1    0    0  501  503 -0.00000000000E+00 -0.00000000000E+00 -0.13887901332E+03  0.13887901332E+03  0.00000000000E+00 0.  1.
          6    1    1    2  501    0 -0.67925756895E+02  0.42174739006E+02  0.16581822788E+02  0.19130231025E+03  0.17300000000E+03 0.  1.
         -6    1    1    2    0  502  0.67925756895E+02 -0.42174739006E+02  0.12473552255E+03  0.22777306172E+03  0.17300000000E+03 0.  1.
<mgrwt>
<rscale>  2 0.19058231E+03</rscale>
<asrwt>0</asrwt>
<pdfrwt beam="1">  1       21 0.43107132E-01 0.19058231E+03</pdfrwt>
<pdfrwt beam="2">  1       21 0.21366002E-01 0.19058231E+03</pdfrwt>
<totfact> 0.10561961E+05</totfact>
</mgrwt>
</event>
<event>
 4    1  0.3935877E+000  0.2608768E+03  0.7546771E-02  0.1106618E+00
         21   -1    0    0  501  502  0.00000000000E+00  0.00000000000E+00  0.15407101745E+03  0.15407101745E+03  0.00000000000E+00 0.  1.
         21   -1    0    0  502  503 -0.00000000000E+00 -0.00000000000E+00 -0.59274010901E+03  0.59274010901E+03  0.00000000000E+00 0. -1.
          6    1    1    2  501    0 -0.51372107908E+02 -0.18838427544E+03 -0.30856162991E+02  0.26269532066E+03  0.17300000000E+03 0.  1.
         -6    1    1    2    0  503  0.51372107908E+02  0.18838427544E+03 -0.40781292857E+03  0.48411580579E+03  0.17300000000E+03 0. -1.
<mgrwt>
<rscale>  2 0.26087685E+03</rscale>
<asrwt>0</asrwt>
<pdfrwt beam="1">  1       21 0.23703233E-01 0.26087685E+03</pdfrwt>
<pdfrwt beam="2">  1       21 0.91190787E-01 0.26087685E+03</pdfrwt>
<totfact> 0.16435847E+04</totfact>
</mgrwt>
</event>
<event>
 4    1  0.3935877E+000  0.1769230E+03  0.7546771E-02  0.1170815E+00
         21   -1    0    0  501  502  0.00000000000E+00  0.00000000000E+00  0.26232747637E+03  0.26232747637E+03  0.00000000000E+00 0.  1.
         21   -1    0    0  502  503 -0.00000000000E+00 -0.00000000000E+00 -0.18013703907E+03  0.18013703907E+03  0.00000000000E+00 0.  1.
          6    1    1    2  501    0  0.14193426386E+02 -0.34224205310E+02  0.16963815335E+03  0.24510987874E+03  0.17300000000E+03 0.  1.
         -6    1    1    2    0  503 -0.14193426386E+02  0.34224205310E+02 -0.87447716055E+02  0.19735463669E+03  0.17300000000E+03 0.  1.
<mgrwt>
<rscale>  2 0.17692300E+03</rscale>
<asrwt>0</asrwt>
<pdfrwt beam="1">  1       21 0.40358073E-01 0.17692300E+03</pdfrwt>
<pdfrwt beam="2">  1       21 0.27713391E-01 0.17692300E+03</pdfrwt>
<totfact> 0.74011125E+04</totfact>
</mgrwt>
</event>
<event>
 4    1  0.3935877E+000  0.2307302E+03  0.7546771E-02  0.1126127E+00
         21   -1    0    0  501  502  0.00000000000E+00  0.00000000000E+00  0.20830408219E+04  0.20830408219E+04  0.00000000000E+00 0. -1.
         21   -1    0    0  502  503 -0.00000000000E+00 -0.00000000000E+00 -0.25560960397E+02  0.25560960397E+02  0.00000000000E+00 0. -1.
          6    1    1    2  501    0  0.15114578047E+03  0.21503480418E+02  0.10417254990E+04  0.10669716313E+04  0.17300000000E+03 0. -1.
         -6    1    1    2    0  503 -0.15114578047E+03 -0.21503480418E+02  0.10157543625E+04  0.10416301510E+04  0.17300000000E+03 0. -1.
<mgrwt>
<rscale>  2 0.23073025E+03</rscale>
<asrwt>0</asrwt>
<pdfrwt beam="1">  1       21 0.32046769E+00 0.23073025E+03</pdfrwt>
<pdfrwt beam="2">  1       21 0.39324571E-02 0.23073025E+03</pdfrwt>
<totfact> 0.10078049E+04</totfact>
</mgrwt>
</event>
<event>
 4    1  0.3935877E+000  0.2517801E+03  0.7546771E-02  0.1112185E+00
         21   -1    0    0  503  502  0.00000000000E+00  0.00000000000E+00  0.12847497662E+04  0.12847497662E+04  0.00000000000E+00 0.  1.
         21   -1    0    0  501  503 -0.00000000000E+00 -0.00000000000E+00 -0.49364431924E+02  0.49364431924E+02  0.00000000000E+00 0.  1.
          6    1    1    2  501    0  0.34268787567E+02  0.17969379266E+03  0.63164184489E+03  0.67997399151E+03  0.17300000000E+03 0.  1.
         -6    1    1    2    0  502 -0.34268787567E+02 -0.17969379266E+03  0.60374348936E+03  0.65414020658E+03  0.17300000000E+03 0.  1.
<mgrwt>
<rscale>  2 0.25178008E+03</rscale>
<asrwt>0</asrwt>
<pdfrwt beam="1">  1       21 0.19765378E+00 0.25178008E+03</pdfrwt>
<pdfrwt beam="2">  1       21 0.75945290E-02 0.25178008E+03</pdfrwt>
<totfact> 0.17528743E+04</totfact>
</mgrwt>
</event>
<event>
 4    1  0.3935877E+000  0.1787166E+03  0.7546771E-02  0.1169051E+00
         21   -1    0    0  503  502  0.00000000000E+00  0.00000000000E+00  0.99668385718E+02  0.99668385718E+02  0.00000000000E+00 0. -1.
         21   -1    0    0  501  503 -0.00000000000E+00 -0.00000000000E+00 -0.33654759666E+03  0.33654759666E+03  0.00000000000E+00 0. -1.
          6    1    1    2  501    0 -0.43947327691E+02  0.89015839948E+01 -0.16612779712E+03  0.24400420239E+03  0.17300000000E+03 0. -1.
         -6    1    1    2    0  502  0.43947327691E+02 -0.89015839948E+01 -0.70751413830E+02  0.19221177999E+03  0.17300000000E+03 0. -1.
<mgrwt>
<rscale>  2 0.17871655E+03</rscale>
<asrwt>0</asrwt>
<pdfrwt beam="1">  1       21 0.15333598E-01 0.17871655E+03</pdfrwt>
<pdfrwt beam="2">  1       21 0.51776552E-01 0.17871655E+03</pdfrwt>
<totfact> 0.13413163E+05</totfact>
</mgrwt>
</event>
<event>
 4    1  0.3935877E+000  0.2768141E+03  0.7546771E-02  0.1097442E+00
         21   -1    0    0  503  502  0.00000000000E+00  0.00000000000E+00  0.15543338020E+03  0.15543338020E+03  0.00000000000E+00 0.  1.
         21   -1    0    0  501  503 -0.00000000000E+00 -0.00000000000E+00 -0.61213740754E+03  0.61213740754E+03  0.00000000000E+00 0. -1.
          6    1    1    2  501    0 -0.20912933616E+03 -0.54423763572E+02 -0.39767616467E+03  0.48453313326E+03  0.17300000000E+03 0.  1.
         -6    1    1    2    0  502  0.20912933616E+03  0.54423763572E+02 -0.59027862673E+02  0.28303765448E+03  0.17300000000E+03 0. -1.
<mgrwt>
<rscale>  2 0.27681406E+03</rscale>
<asrwt>0</asrwt>
<pdfrwt beam="1">  1       21 0.23912828E-01 0.27681406E+03</pdfrwt>
<pdfrwt beam="2">  1       21 0.94174986E-01 0.27681406E+03</pdfrwt>
<totfact> 0.14868423E+04</totfact>
</mgrwt>
</event>
<event>
 4    1  0.3935877E+000  0.2565617E+03  0.7546771E-02  0.1109227E+00
         21   -1    0    0  503  502  0.00000000000E+00  0.00000000000E+00  0.10412947308E+03  0.10412947308E+03  0.00000000000E+00 0.  1.
         21   -1    0    0  501  503 -0.00000000000E+00 -0.00000000000E+00 -0.65904164062E+03  0.65904164062E+03  0.00000000000E+00 0. -1.
          6    1    1    2  501    0 -0.95051411651E+02 -0.16389064774E+03 -0.35455758812E+03  0.43764711649E+03  0.17300000000E+03 0. -1.
         -6    1    1    2    0  502  0.95051411651E+02  0.16389064774E+03 -0.20035457941E+03  0.32552399722E+03  0.17300000000E+03 0.  1.
<mgrwt>
<rscale>  2 0.25656172E+03</rscale>
<asrwt>0</asrwt>
<pdfrwt beam="1">  1       21 0.16019919E-01 0.25656172E+03</pdfrwt>
<pdfrwt beam="2">  1       21 0.10139102E+00 0.25656172E+03</pdfrwt>
<totfact> 0.26721307E+04</totfact>
</mgrwt>
</event>
<event>
 4    1  0.3935877E+000  0.1879195E+03  0.7546771E-02  0.1160351E+00
         21   -1    0    0  503  502  0.00000000000E+00  0.00000000000E+00  0.21321962268E+03  0.21321962268E+03  0.00000000000E+00 0. -1.
         21   -1    0    0  501  503 -0.00000000000E+00 -0.00000000000E+00 -0.25194744727E+03  0.25194744727E+03  0.00000000000E+00 0. -1.
          6    1    1    2  501    0  0.65855667016E+02 -0.32369206100E+02 -0.15550677878E+03  0.24391820889E+03  0.17300000000E+03 0. -1.
         -6    1    1    2    0  502 -0.65855667016E+02  0.32369206100E+02  0.11677895418E+03  0.22124886106E+03  0.17300000000E+03 0. -1.
<mgrwt>
<rscale>  2 0.18791949E+03</rscale>
<asrwt>0</asrwt>
<pdfrwt beam="1">  1       21 0.32803019E-01 0.18791949E+03</pdfrwt>
<pdfrwt beam="2">  1       21 0.38761146E-01 0.18791949E+03</pdfrwt>
<totfact> 0.57533153E+04</totfact>
</mgrwt>
</event>
<event>
 4    1  0.3935877E+000  0.2326464E+03  0.7546771E-02  0.1124791E+00
         21   -1    0    0  501  502  0.00000000000E+00  0.00000000000E+00  0.70673773732E+03  0.70673773732E+03  0.00000000000E+00 0. -1.
         21   -1    0    0  502  503 -0.00000000000E+00 -0.00000000000E+00 -0.77592289296E+02  0.77592289296E+02  0.00000000000E+00 0.  1.
          6    1    1    2  501    0 -0.12363705373E+03 -0.94388698703E+02  0.35929159831E+03  0.42803597993E+03  0.17300000000E+03 0. -1.
         -6    1    1    2    0  503  0.12363705373E+03  0.94388698703E+02  0.26985384971E+03  0.35629404668E+03  0.17300000000E+03 0.  1.
<mgrwt>
<rscale>  2 0.23264640E+03</rscale>
<asrwt>0</asrwt>
<pdfrwt beam="1">  1       21 0.10872888E+00 0.23264640E+03</pdfrwt>
<pdfrwt beam="2">  1       21 0.11937276E-01 0.23264640E+03</pdfrwt>
<totfact> 0.38969423E+04</totfact>
</mgrwt>
</event>
<event>
 4    1  0.3935877E+000  0.2608897E+03  0.7546771E-02  0.1106610E+00
         21   -1    0    0  501  502  0.00000000000E+00  0.00000000000E+00  0.35154507274E+03  0.35154507274E+03  0.00000000000E+00 0.  1.
         21   -1    0    0  502  503 -0.00000000000E+00 -0.00000000000E+00 -0.20206357646E+03  0.20206357646E+03  0.00000000000E+00 0. -1.
          6    1    1    2  501    0  0.16308847239E+03 -0.10740860249E+03  0.13135026520E+03  0.29208962646E+03  0.17300000000E+03 0. -1.
         -6    1    1    2    0  503 -0.16308847239E+03  0.10740860249E+03  0.18131231087E+02  0.26151902274E+03  0.17300000000E+03 0. -1.
<mgrwt>
<rscale>  2 0.26088974E+03</rscale>
<asrwt>0</asrwt>
<pdfrwt beam="1">  1       21 0.54083857E-01 0.26088974E+03</pdfrwt>
<pdfrwt beam="2">  1       21 0.31086704E-01 0.26088974E+03</pdfrwt>
<totfact> 0.31079642E+04</totfact>
</mgrwt>
</event>
<event>
 4    1  0.3935877E+000  0.1751189E+03  0.7546771E-02  0.1172612E+00
         21   -1    0    0  501  502  0.00000000000E+00  0.00000000000E+00  0.25039421263E+03  0.25039421263E+03  0.00000000000E+00 0. -1.
         21   -1    0    0  502  503 -0.00000000000E+00 -0.00000000000E+00 -0.13841758333E+03  0.13841758333E+03  0.00000000000E+00 0. -1.
          6    1    1    2  501    0 -0.14121703666E+02 -0.23199579365E+02  0.12196861203E+03  0.21340802543E+03  0.17300000000E+03 0. -1.
         -6    1    1    2    0  503  0.14121703666E+02  0.23199579365E+02 -0.99919827388E+01  0.17540377053E+03  0.17300000000E+03 0. -1.
<mgrwt>
<rscale>  2 0.17511894E+03</rscale>
<asrwt>0</asrwt>
<pdfrwt beam="1">  1       21 0.38522187E-01 0.17511894E+03</pdfrwt>
<pdfrwt beam="2">  1       21 0.21295013E-01 0.17511894E+03</pdfrwt>
<totfact> 0.13415977E+05</totfact>
</mgrwt>
</event>
<event>
 4    1  0.3935877E+000  0.2161026E+03  0.7546771E-02  0.1136822E+00
         21   -1    0    0  503  502  0.00000000000E+00  0.00000000000E+00  0.20463720615E+03  0.20463720615E+03  0.00000000000E+00 0. -1.
         21   -1    0    0  501  503 -0.00000000000E+00 -0.00000000000E+00 -0.35757536381E+03  0.35757536381E+03  0.00000000000E+00 0. -1.
          6    1    1    2  501    0  0.12548008152E+03 -0.32032664333E+02 -0.24555017931E+03  0.32710125803E+03  0.17300000000E+03 0.  1.
         -6    1    1    2    0  502 -0.12548008152E+03  0.32032664333E+02  0.92612021653E+02  0.23511131193E+03  0.17300000000E+03 0.  1.
<mgrwt>
<rscale>  2 0.21610262E+03</rscale>
<asrwt>0</asrwt>
<pdfrwt beam="1">  1       21 0.31482647E-01 0.21610262E+03</pdfrwt>
<pdfrwt beam="2">  1       21 0.55011594E-01 0.21610262E+03</pdfrwt>
<totfact> 0.29854168E+04</totfact>
</mgrwt>
</event>
<event>
 4    1  0.3935877E+000  0.2010670E+03  0.7546771E-02  0.1148842E+00
         21   -1    0    0  503  502  0.00000000000E+00  0.00000000000E+00  0.15665260523E+03  0.15665260523E+03  0.00000000000E+00 0.  1.
         21   -1    0    0  501  503 -0.00000000000E+00 -0.00000000000E+00 -0.43670499612E+03  0.43670499612E+03  0.00000000000E+00 0.  1.
          6    1    1    2  501    0 -0.45059773025E+02 -0.92024768396E+02 -0.32977149460E+03  0.38623461755E+03  0.17300000000E+03 0.  1.
         -6    1    1    2    0  502  0.45059773025E+02  0.92024768396E+02  0.49719103705E+02  0.20712298380E+03  0.17300000000E+03 0.  1.
<mgrwt>
<rscale>  2 0.20106701E+03</rscale>
<asrwt>0</asrwt>
<pdfrwt beam="1">  1       21 0.24100401E-01 0.20106701E+03</pdfrwt>
<pdfrwt beam="2">  1       21 0.67185383E-01 0.20106701E+03</pdfrwt>
<totfact> 0.32784193E+04</totfact>
</mgrwt>
</event>
<event>
 4    1  0.3935877E+000  0.2779316E+03  0.7546771E-02  0.1096824E+00
         21   -1    0    0  503  502  0.00000000000E+00  0.00000000000E+00  0.54556144168E+03  0.54556144168E+03  0.00000000000E+00 0.  1.
         21   -1    0    0  501  503 -0.00000000000E+00 -0.00000000000E+00 -0.14718112833E+03  0.14718112833E+03  0.00000000000E+00 0. -1.
          6    1    1    2  501    0  0.80397646996E+02  0.20212174067E+03  0.13167983729E+03  0.30754765361E+03  0.17300000000E+03 0. -1.
         -6    1    1    2    0  502 -0.80397646996E+02 -0.20212174067E+03  0.26670047605E+03  0.38519491640E+03  0.17300000000E+03 0.  1.
<mgrwt>
<rscale>  2 0.27793161E+03</rscale>
<asrwt>0</asrwt>
<pdfrwt beam="1">  1       21 0.83932528E-01 0.27793161E+03</pdfrwt>
<pdfrwt beam="2">  1       21 0.22643251E-01 0.27793161E+03</pdfrwt>
<totfact> 0.21576485E+04</totfact>
</mgrwt>
</event>
<event>
 4    1  0.3935877E+000  0.2012685E+03  0.7546771E-02  0.1148673E+00
         21   -1    0    0  503  502  0.00000000000E+00  0.00000000000E+00  0.18517416542E+03  0.18517416542E+03  0.00000000000E+00 0.  1.
         21   -1    0    0  501  503 -0.00000000000E+00 -0.00000000000E+00 -0.23680785013E+03  0.23680785013E+03  0.00000000000E+00 0.  1.
          6    1    1    2  501    0 -0.16262339332E+02  0.10156552983E+03 -0.84061733397E+02  0.21811784785E+03  0.17300000000E+03 0.  1.
         -6    1    1    2    0  502  0.16262339332E+02 -0.10156552983E+03  0.32428048682E+02  0.20386416770E+03  0.17300000000E+03 0.  1.
<mgrwt>
<rscale>  2 0.20126853E+03</rscale>
<asrwt>0</asrwt>
<pdfrwt beam="1">  1       21 0.28488333E-01 0.20126853E+03</pdfrwt>
<pdfrwt beam="2">  1       21 0.36431977E-01 0.20126853E+03</pdfrwt>
<totfact> 0.85299566E+04</totfact>
</mgrwt>
</event>
<event>
 4    1  0.3935877E+000  0.1772249E+03  0.7546771E-02  0.1170516E+00
         21   -1    0    0  503  502  0.00000000000E+00  0.00000000000E+00  0.19309907756E+03  0.19309907756E+03  0.00000000000E+00 0.  1.
         21   -1    0    0  501  503 -0.00000000000E+00 -0.00000000000E+00 -0.18217290939E+03  0.18217290939E+03  0.00000000000E+00 0.  1.
          6    1    1    2  501    0  0.38319114054E+02  0.33650476716E+01 -0.55953039171E+02  0.18584784271E+03  0.17300000000E+03 0.  1.
         -6    1    1    2    0  502 -0.38319114054E+02 -0.33650476716E+01  0.66879207341E+02  0.18942414424E+03  0.17300000000E+03 0.  1.
<mgrwt>
<rscale>  2 0.17722494E+03</rscale>
<asrwt>0</asrwt>
<pdfrwt beam="1">  1       21 0.29707551E-01 0.17722494E+03</pdfrwt>
<pdfrwt beam="2">  1       21 0.28026601E-01 0.17722494E+03</pdfrwt>
<totfact> 0.13278010E+05</totfact>
</mgrwt>
</event>
<event>
 4    1  0.3935877E+000  0.1858118E+03  0.7546771E-02  0.1162294E+00
         21   -1    0    0  501  502  0.00000000000E+00  0.00000000000E+00  0.20896093197E+03  0.20896093197E+03  0.00000000000E+00 0.  1.
         21   -1    0    0  502  503 -0.00000000000E+00 -0.00000000000E+00 -0.16766092169E+03  0.16766092169E+03  0.00000000000E+00 0. -1.
          6    1    1    2  501    0 -0.39108803827E+02 -0.55385134836E+02  0.43338346011E+02  0.19079890967E+03  0.17300000000E+03 0. -1.
         -6    1    1    2    0  503  0.39108803827E+02  0.55385134836E+02 -0.20383357321E+01  0.18582294398E+03  0.17300000000E+03 0.  1.
<mgrwt>
<rscale>  2 0.18581176E+03</rscale>
<asrwt>0</asrwt>
<pdfrwt beam="1">  1       21 0.32147836E-01 0.18581176E+03</pdfrwt>
<pdfrwt beam="2">  1       21 0.25793988E-01 0.18581176E+03</pdfrwt>
<totfact> 0.13310408E+05</totfact>
</mgrwt>
</event>
<event>
 4    1  0.3935877E+000  0.2280106E+03  0.7546771E-02  0.1128048E+00
         21   -1    0    0  503  502  0.00000000000E+00  0.00000000000E+00  0.28190691397E+03  0.28190691397E+03  0.00000000000E+00 0. -1.
         21   -1    0    0  501  503 -0.00000000000E+00 -0.00000000000E+00 -0.19664276316E+03  0.19664276316E+03  0.00000000000E+00 0.  1.
          6    1    1    2  501    0  0.12531615507E+03  0.79722635132E+02 -0.17026133216E+02  0.22864541650E+03  0.17300000000E+03 0.  1.
         -6    1    1    2    0  502 -0.12531615507E+03 -0.79722635132E+02  0.10229028402E+03  0.24990426063E+03  0.17300000000E+03 0.  1.
<mgrwt>
<rscale>  2 0.22801061E+03</rscale>
<asrwt>0</asrwt>
<pdfrwt beam="1">  1       21 0.43370295E-01 0.22801061E+03</pdfrwt>
<pdfrwt beam="2">  1       21 0.30252733E-01 0.22801061E+03</pdfrwt>
<totfact> 0.52712374E+04</totfact>
</mgrwt>
</event>
<event>
 4    1  0.3935877E+000  0.1866672E+03  0.7546771E-02  0.1161502E+00
         21   -1    0    0  503  502  0.00000000000E+00  0.00000000000E+00  0.86919468757E+02  0.86919468757E+02  0.00000000000E+00 0.  1.
         21   -1    0    0  501  503 -0.00000000000E+00 -0.00000000000E+00 -0.46471627891E+03  0.46471627891E+03  0.00000000000E+00 0.  1.
          6    1    1    2  501    0  0.49057248121E+02  0.50090279412E+02 -0.29112117509E+03  0.34582681832E+03  0.17300000000E+03 0.  1.
         -6    1    1    2    0  502 -0.49057248121E+02 -0.50090279412E+02 -0.86675635064E+02  0.20580892935E+03  0.17300000000E+03 0.  1.
<mgrwt>
<rscale>  2 0.18666722E+03</rscale>
<asrwt>0</asrwt>
<pdfrwt beam="1">  1       21 0.13372226E-01 0.18666722E+03</pdfrwt>
<pdfrwt beam="2">  1       21 0.71494811E-01 0.18666722E+03</pdfrwt>
<totfact> 0.85638628E+04</totfact>
</mgrwt>
</event>
<event>
 4    1  0.3935877E+000  0.2239341E+03  0.7546771E-02  0.1130984E+00
         21   -1    0    0  503  502  0.00000000000E+00  0.00000000000E+00  0.28822149273E+03  0.28822149273E+03  0.00000000000E+00 0. -1.
         21   -1    0    0  501  503 -0.00000000000E+00 -0.00000000000E+00 -0.71409320146E+03  0.71409320146E+03  0.00000000000E+00 0. -1.
          6    1    1    2  501    0 -0.13313253756E+03 -0.49931995830E+02 -0.64878547796E+03  0.68634471891E+03  0.17300000000E+03 0. -1.
         -6    1    1    2    0  502  0.13313253756E+03  0.49931995830E+02  0.22291376923E+03  0.31596997528E+03  0.17300000000E+03 0. -1.
<mgrwt>
<rscale>  2 0.22393409E+03</rscale>
<asrwt>0</asrwt>
<pdfrwt beam="1">  1       21 0.44341768E-01 0.22393409E+03</pdfrwt>
<pdfrwt beam="2">  1       21 0.10986049E+00 0.22393409E+03</pdfrwt>
<totfact> 0.31186045E+03</totfact>
</mgrwt>
</event>
<event>
 4    1  0.3935877E+000  0.2033694E+03  0.7546771E-02  0.1146927E+00
         21   -1    0    0  503  502  0.00000000000E+00  0.00000000000E+00  0.20408747142E+03  0.20408747142E+03  0.00000000000E+00 0.  1.
         21   -1    0    0  501  503 -0.00000000000E+00 -0.00000000000E+00 -0.22602906926E+03  0.22602906926E+03  0.00000000000E+00 0.  1.
          6    1    1    2  501    0  0.10256231969E+03 -0.30184422999E+02 -0.80130176068E+02  0.21858630773E+03  0.17300000000E+03 0.  1.
         -6    1    1    2    0  502 -0.10256231969E+03  0.30184422999E+02  0.58188578228E+02  0.21153023294E+03  0.17300000000E+03 0.  1.
<mgrwt>
<rscale>  2 0.20336944E+03</rscale>
<asrwt>0</asrwt>
<pdfrwt beam="1">  1       21 0.31398073E-01 0.20336944E+03</pdfrwt>
<pdfrwt beam="2">  1       21 0.34773703E-01 0.20336944E+03</pdfrwt>
<totfact> 0.77349630E+04</totfact>
</mgrwt>
</event>
<event>
 4    1  0.3935877E+000  0.1800915E+03  0.7546771E-02  0.1167714E+00
         21   -1    0    0  503  502  0.00000000000E+00  0.00000000000E+00  0.23062870192E+02  0.23062870192E+02  0.00000000000E+00 0. -1.
         21   -1    0    0  501  503 -0.00000000000E+00 -0.00000000000E+00 -0.14116713618E+04  0.14116713618E+04  0.00000000000E+00 0. -1.
          6    1    1    2  501    0 -0.47320461442E+02  0.16270695729E+02 -0.64999092414E+03  0.67447843781E+03  0.17300000000E+03 0. -1.
         -6    1    1    2    0  502  0.47320461442E+02 -0.16270695729E+02 -0.73861756745E+03  0.76025579416E+03  0.17300000000E+03 0. -1.
<mgrwt>
<rscale>  2 0.18009154E+03</rscale>
<asrwt>0</asrwt>
<pdfrwt beam="1">  1       21 0.35481353E-02 0.18009154E+03</pdfrwt>
<pdfrwt beam="2">  1       21 0.21718012E+00 0.18009154E+03</pdfrwt>
<totfact> 0.50572609E+04</totfact>
</mgrwt>
</event>
<event>
 4    1  0.3935877E+000  0.3075566E+03  0.7546771E-02  0.1081523E+00
         21   -1    0    0  503  502  0.00000000000E+00  0.00000000000E+00  0.54555472634E+02  0.54555472634E+02  0.00000000000E+00 0. -1.
         21   -1    0    0  501  503 -0.00000000000E+00 -0.00000000000E+00 -0.20371992194E+04  0.20371992194E+04  0.00000000000E+00 0. -1.
          6    1    1    2  501    0  0.22652322476E+03 -0.11553906948E+03 -0.13949067644E+04  0.14284102805E+04  0.17300000000E+03 0. -1.
         -6    1    1    2    0  502 -0.22652322476E+03  0.11553906948E+03 -0.58773698237E+03  0.66334441158E+03  0.17300000000E+03 0. -1.
<mgrwt>
<rscale>  2 0.30755658E+03</rscale>
<asrwt>0</asrwt>
<pdfrwt beam="1">  1       21 0.83931514E-02 0.30755658E+03</pdfrwt>
<pdfrwt beam="2">  1       21 0.31341520E+00 0.30755658E+03</pdfrwt>
<totfact> 0.28175335E+03</totfact>
</mgrwt>
</event>
<event>
 4    1  0.3935877E+000  0.3296745E+03  0.7546771E-02  0.1071281E+00
         21   -1    0    0  501  502  0.00000000000E+00  0.00000000000E+00  0.40673641251E+02  0.40673641251E+02  0.00000000000E+00 0. -1.
         21   -1    0    0  502  503 -0.00000000000E+00 -0.00000000000E+00 -0.28491579012E+04  0.28491579012E+04  0.00000000000E+00 0. -1.
          6    1    1    2  501    0  0.16876853561E+03  0.22421747910E+03 -0.10440751125E+04  0.10948872714E+04  0.17300000000E+03 0. -1.
         -6    1    1    2    0  503 -0.16876853561E+03 -0.22421747910E+03 -0.17644091474E+04  0.17949442710E+04  0.17300000000E+03 0. -1.
<mgrwt>
<rscale>  2 0.32967453E+03</rscale>
<asrwt>0</asrwt>
<pdfrwt beam="1">  1       21 0.62574814E-02 0.32967453E+03</pdfrwt>
<pdfrwt beam="2">  1       21 0.43833212E+00 0.32967453E+03</pdfrwt>
<totfact> 0.77366682E+02</totfact>
</mgrwt>
</event>
<event>
 4    1  0.3935877E+000  0.2558345E+03  0.7546771E-02  0.1109672E+00
         21   -1    0    0  503  502  0.00000000000E+00  0.00000000000E+00  0.30335243992E+03  0.30335243992E+03  0.00000000000E+00 0. -1.
         21   -1    0    0  501  503 -0.00000000000E+00 -0.00000000000E+00 -0.22291408538E+03  0.22291408538E+03  0.00000000000E+00 0.  1.
          6    1    1    2  501    0 -0.84465821984E+02  0.16848681540E+03 -0.69206618343E+01  0.25592807116E+03  0.17300000000E+03 0.  1.
         -6    1    1    2    0  502  0.84465821984E+02 -0.16848681540E+03  0.87359016372E+02  0.27033845414E+03  0.17300000000E+03 0. -1.
<mgrwt>
<rscale>  2 0.25583448E+03</rscale>
<asrwt>0</asrwt>
<pdfrwt beam="1">  1       21 0.46669606E-01 0.25583448E+03</pdfrwt>
<pdfrwt beam="2">  1       21 0.34294475E-01 0.25583448E+03</pdfrwt>
<totfact> 0.34950439E+04</totfact>
</mgrwt>
</event>
<event>
 4    1  0.3935877E+000  0.2505038E+03  0.7546771E-02  0.1112987E+00
         21   -1    0    0  501  502  0.00000000000E+00  0.00000000000E+00  0.13233888615E+04  0.13233888615E+04  0.00000000000E+00 0. -1.
         21   -1    0    0  502  503 -0.00000000000E+00 -0.00000000000E+00 -0.68001865880E+02  0.68001865880E+02  0.00000000000E+00 0.  1.
          6    1    1    2  501    0 -0.22781793704E+02 -0.17973359550E+03  0.10104515878E+04  0.10410401466E+04  0.17300000000E+03 0. -1.
         -6    1    1    2    0  503  0.22781793704E+02  0.17973359550E+03  0.24493540783E+03  0.35035058083E+03  0.17300000000E+03 0.  1.
<mgrwt>
<rscale>  2 0.25050384E+03</rscale>
<asrwt>0</asrwt>
<pdfrwt beam="1">  1       21 0.20359827E+00 0.25050384E+03</pdfrwt>
<pdfrwt beam="2">  1       21 0.10461827E-01 0.25050384E+03</pdfrwt>
<totfact> 0.91239291E+03</totfact>
</mgrwt>
</event>
<event>
 4    1  0.3935877E+000  0.2256023E+03  0.7546771E-02  0.1129774E+00
         21   -1    0    0  503  502  0.00000000000E+00  0.00000000000E+00  0.16498956355E+03  0.16498956355E+03  0.00000000000E+00 0.  1.
         21   -1    0    0  501  503 -0.00000000000E+00 -0.00000000000E+00 -0.35503966711E+03  0.35503966711E+03  0.00000000000E+00 0.  1.
          6    1    1    2  501    0  0.12969034612E+03 -0.64403683407E+02 -0.18918188070E+03  0.29442521002E+03  0.17300000000E+03 0.  1.
         -6    1    1    2    0  502 -0.12969034612E+03  0.64403683407E+02 -0.86822286474E+00  0.22560402063E+03  0.17300000000E+03 0.  1.
<mgrwt>
<rscale>  2 0.22560235E+03</rscale>
<asrwt>0</asrwt>
<pdfrwt beam="1">  1       21 0.25383010E-01 0.22560235E+03</pdfrwt>
<pdfrwt beam="2">  1       21 0.54621486E-01 0.22560235E+03</pdfrwt>
<totfact> 0.45837222E+04</totfact>
</mgrwt>
</event>
<event>
 4    1  0.3935877E+000  0.1822059E+03  0.7546771E-02  0.1165685E+00
         21   -1    0    0  503  502  0.00000000000E+00  0.00000000000E+00  0.76903731275E+03  0.76903731275E+03  0.00000000000E+00 0. -1.
         21   -1    0    0  501  503 -0.00000000000E+00 -0.00000000000E+00 -0.94312339919E+02  0.94312339919E+02  0.00000000000E+00 0. -1.
          6    1    1    2  501    0  0.47118878032E+02 -0.32400695028E+02  0.19481408882E+02  0.18324442419E+03  0.17300000000E+03 0. -1.
         -6    1    1    2    0  502 -0.47118878032E+02  0.32400695028E+02  0.65524356395E+03  0.68010522848E+03  0.17300000000E+03 0. -1.
<mgrwt>
<rscale>  2 0.18220591E+03</rscale>
<asrwt>0</asrwt>
<pdfrwt beam="1">  1       21 0.11831343E+00 0.18220591E+03</pdfrwt>
<pdfrwt beam="2">  1       21 0.14509591E-01 0.18220591E+03</pdfrwt>
<totfact> 0.22939272E+04</totfact>
</mgrwt>
</event>
<event>
 4    1  0.3935877E+000  0.1886208E+03  0.7546771E-02  0.1159711E+00
         21   -1    0    0  503  502  0.00000000000E+00  0.00000000000E+00  0.34743271962E+03  0.34743271962E+03  0.00000000000E+00 0.  1.
         21   -1    0    0  501  503 -0.00000000000E+00 -0.00000000000E+00 -0.17307073801E+03  0.17307073801E+03  0.00000000000E+00 0.  1.
          6    1    1    2  501    0 -0.27525163847E+02  0.69936960702E+02 -0.79120215552E+02  0.20454295790E+03  0.17300000000E+03 0.  1.
         -6    1    1    2    0  502  0.27525163847E+02 -0.69936960702E+02  0.25348219716E+03  0.31596049974E+03  0.17300000000E+03 0.  1.
<mgrwt>
<rscale>  2 0.18862082E+03</rscale>
<asrwt>0</asrwt>
<pdfrwt beam="1">  1       21 0.53451188E-01 0.18862082E+03</pdfrwt>
<pdfrwt beam="2">  1       21 0.26626267E-01 0.18862082E+03</pdfrwt>
<totfact> 0.44563010E+04</totfact>
</mgrwt>
</event>
<event>
 4    1  0.3935877E+000  0.2033428E+03  0.7546771E-02  0.1146949E+00
         21   -1    0    0  503  502  0.00000000000E+00  0.00000000000E+00  0.39833540200E+03  0.39833540200E+03  0.00000000000E+00 0. -1.
         21   -1    0    0  501  503 -0.00000000000E+00 -0.00000000000E+00 -0.22769443310E+03  0.22769443310E+03  0.00000000000E+00 0. -1.
          6    1    1    2  501    0 -0.91509228772E+02  0.55184595753E+02 -0.14557213173E+03  0.25007903570E+03  0.17300000000E+03 0. -1.
         -6    1    1    2    0  502  0.91509228772E+02 -0.55184595753E+02  0.31621310063E+03  0.37595079940E+03  0.17300000000E+03 0. -1.
<mgrwt>
<rscale>  2 0.20334276E+03</rscale>
<asrwt>0</asrwt>
<pdfrwt beam="1">  1       21 0.61282370E-01 0.20334276E+03</pdfrwt>
<pdfrwt beam="2">  1       21 0.35029913E-01 0.20334276E+03</pdfrwt>
<totfact> 0.19325586E+04</totfact>
</mgrwt>
</event>
<event>
 4    1  0.3935877E+000  0.1940982E+03  0.7546771E-02  0.1154816E+00
         21   -1    0    0  501  502  0.00000000000E+00  0.00000000000E+00  0.13771882207E+03  0.13771882207E+03  0.00000000000E+00 0. -1.
         21   -1    0    0  502  503 -0.00000000000E+00 -0.00000000000E+00 -0.28286675899E+03  0.28286675899E+03  0.00000000000E+00 0. -1.
          6    1    1    2  501    0 -0.18353217476E+02 -0.86071409947E+02 -0.34425940561E+02  0.19712755664E+03  0.17300000000E+03 0. -1.
         -6    1    1    2    0  503  0.18353217476E+02  0.86071409947E+02 -0.11072199636E+03  0.22345802443E+03  0.17300000000E+03 0. -1.
<mgrwt>
<rscale>  2 0.19409824E+03</rscale>
<asrwt>0</asrwt>
<pdfrwt beam="1">  1       21 0.21187511E-01 0.19409824E+03</pdfrwt>
<pdfrwt beam="2">  1       21 0.43517962E-01 0.19409824E+03</pdfrwt>
<totfact> 0.10510103E+05</totfact>
</mgrwt>
</event>
<event>
 4    1  0.3935877E+000  0.3519748E+03  0.7546771E-02  0.1061807E+00
         21   -1    0    0  503  502  0.00000000000E+00  0.00000000000E+00  0.11979742365E+04  0.11979742365E+04  0.00000000000E+00 0.  1.
         21   -1    0    0  501  503 -0.00000000000E+00 -0.00000000000E+00 -0.13876065757E+03  0.13876065757E+03  0.00000000000E+00 0. -1.
          6    1    1    2  501    0 -0.25831618229E+03  0.16501520420E+03  0.19227161784E+03  0.40106688055E+03  0.17300000000E+03 0. -1.
         -6    1    1    2    0  502  0.25831618229E+03 -0.16501520420E+03  0.86694196110E+03  0.93566801354E+03  0.17300000000E+03 0.  1.
<mgrwt>
<rscale>  2 0.35197481E+03</rscale>
<asrwt>0</asrwt>
<pdfrwt beam="1">  1       21 0.18430372E+00 0.35197481E+03</pdfrwt>
<pdfrwt beam="2">  1       21 0.21347794E-01 0.35197481E+03</pdfrwt>
<totfact> 0.31093244E+03</totfact>
</mgrwt>
</event>
<event>
 4    1  0.3935877E+000  0.1786943E+03  0.7546771E-02  0.1169073E+00
         21   -1    0    0  501  502  0.00000000000E+00  0.00000000000E+00  0.54822220743E+03  0.54822220743E+03  0.00000000000E+00 0.  1.
         21   -1    0    0  502  503 -0.00000000000E+00 -0.00000000000E+00 -0.74407127428E+02  0.74407127428E+02  0.00000000000E+00 0.  1.
          6    1    1    2  501    0  0.14243292785E+02 -0.42423666984E+02  0.38199533502E+03  0.42172511768E+03  0.17300000000E+03 0.  1.
         -6    1    1    2    0  503 -0.14243292785E+02  0.42423666984E+02  0.91819744984E+02  0.20090421717E+03  0.17300000000E+03 0.  1.
<mgrwt>
<rscale>  2 0.17869426E+03</rscale>
<asrwt>0</asrwt>
<pdfrwt beam="1">  1       21 0.84341875E-01 0.17869426E+03</pdfrwt>
<pdfrwt beam="2">  1       21 0.11447251E-01 0.17869426E+03</pdfrwt>
<totfact> 0.78334521E+04</totfact>
</mgrwt>
</event>
<event>
 4    1  0.3935877E+000  0.2003157E+03  0.7546771E-02  0.1149473E+00
         21   -1    0    0  503  502  0.00000000000E+00  0.00000000000E+00  0.25629115186E+03  0.25629115186E+03  0.00000000000E+00 0. -1.
         21   -1    0    0  501  503 -0.00000000000E+00 -0.00000000000E+00 -0.37100948735E+03  0.37100948735E+03  0.00000000000E+00 0. -1.
          6    1    1    2  501    0  0.32675358945E+01  0.10092912377E+03 -0.29581618887E+03  0.35725842526E+03  0.17300000000E+03 0. -1.
         -6    1    1    2    0  502 -0.32675358945E+01 -0.10092912377E+03  0.18109785338E+03  0.27004221395E+03  0.17300000000E+03 0. -1.
<mgrwt>
<rscale>  2 0.20031566E+03</rscale>
<asrwt>0</asrwt>
<pdfrwt beam="1">  1       21 0.39429408E-01 0.20031566E+03</pdfrwt>
<pdfrwt beam="2">  1       21 0.57078382E-01 0.20031566E+03</pdfrwt>
<totfact> 0.17793121E+04</totfact>
</mgrwt>
</event>
<event>
 4    1  0.3935877E+000  0.3214497E+03  0.7546771E-02  0.1074984E+00
         21   -1    0    0  501  502  0.00000000000E+00  0.00000000000E+00  0.14189039482E+03  0.14189039482E+03  0.00000000000E+00 0.  1.
         21   -1    0    0  502  503 -0.00000000000E+00 -0.00000000000E+00 -0.82960351287E+03  0.82960351287E+03  0.00000000000E+00 0. -1.
          6    1    1    2  501    0  0.11293546059E+03  0.24626513241E+03 -0.17406325299E+03  0.36555156920E+03  0.17300000000E+03 0.  1.
         -6    1    1    2    0  503 -0.11293546059E+03 -0.24626513241E+03 -0.51364986506E+03  0.60594233849E+03  0.17300000000E+03 0. -1.
<mgrwt>
<rscale>  2 0.32144974E+03</rscale>
<asrwt>0</asrwt>
<pdfrwt beam="1">  1       21 0.21829292E-01 0.32144974E+03</pdfrwt>
<pdfrwt beam="2">  1       21 0.12763131E+00 0.32144974E+03</pdfrwt>
<totfact> 0.82194179E+03</totfact>
</mgrwt>
</event>
<event>
 4    1  0.3935877E+000  0.1751520E+03  0.7546771E-02  0.1172579E+00
         21   -1    0    0  501  502  0.00000000000E+00  0.00000000000E+00  0.40068556295E+02  0.40068556295E+02  0.00000000000E+00 0.  1.
         21   -1    0    0  502  503 -0.00000000000E+00 -0.00000000000E+00 -0.89430528177E+03  0.89430528177E+03  0.00000000000E+00 0.  1.
          6    1    1    2  501    0 -0.63313948754E+01  0.26629797527E+02 -0.24991480748E+03  0.30518132917E+03  0.17300000000E+03 0.  1.
         -6    1    1    2    0  503  0.63313948754E+01 -0.26629797527E+02 -0.60432191800E+03  0.62919250889E+03  0.17300000000E+03 0.  1.
<mgrwt>
<rscale>  2 0.17515203E+03</rscale>
<asrwt>0</asrwt>
<pdfrwt beam="1">  1       21 0.61643928E-02 0.17515203E+03</pdfrwt>
<pdfrwt beam="2">  1       21 0.13758544E+00 0.17515203E+03</pdfrwt>
<totfact> 0.71078591E+04</totfact>
</mgrwt>
</event>
<event>
 4    1  0.3935877E+000  0.1757803E+03  0.7546771E-02  0.1171951E+00
         21   -1    0    0  503  502  0.00000000000E+00  0.00000000000E+00  0.16561620532E+03  0.16561620532E+03  0.00000000000E+00 0.  1.
         21   -1    0    0  501  503 -0.00000000000E+00 -0.00000000000E+00 -0.41497984852E+03  0.41497984852E+03  0.00000000000E+00 0.  1.
          6    1    1    2  501    0  0.24019647341E+02  0.19818492101E+02 -0.34005405482E+03  0.38279952493E+03  0.17300000000E+03 0.  1.
         -6    1    1    2    0  502 -0.24019647341E+02 -0.19818492101E+02  0.90690411616E+02  0.19779652890E+03  0.17300000000E+03 0.  1.
<mgrwt>
<rscale>  2 0.17578031E+03</rscale>
<asrwt>0</asrwt>
<pdfrwt beam="1">  1       21 0.25479416E-01 0.17578031E+03</pdfrwt>
<pdfrwt beam="2">  1       21 0.63843053E-01 0.17578031E+03</pdfrwt>
<totfact> 0.33402283E+04</totfact>
</mgrwt>
</event>
<event>
 4    1  0.3935877E+000  0.2174264E+03  0.7546771E-02  0.1135816E+00
         21   -1    0    0  503  502  0.00000000000E+00  0.00000000000E+00  0.64523058034E+03  0.64523058034E+03  0.00000000000E+00 0.  1.
         21   -1    0    0  501  503 -0.00000000000E+00 -0.00000000000E+00 -0.74187756615E+02  0.74187756615E+02  0.00000000000E+00 0.  1.
          6    1    1    2  501    0 -0.12961543567E+02 -0.13106196909E+03  0.24545232875E+03  0.32790408208E+03  0.17300000000E+03 0.  1.
         -6    1    1    2    0  502  0.12961543567E+02  0.13106196909E+03  0.32559049497E+03  0.39151425487E+03  0.17300000000E+03 0.  1.
<mgrwt>
<rscale>  2 0.21742640E+03</rscale>
<asrwt>0</asrwt>
<pdfrwt beam="1">  1       21 0.99266240E-01 0.21742640E+03</pdfrwt>
<pdfrwt beam="2">  1       21 0.11413501E-01 0.21742640E+03</pdfrwt>
<totfact> 0.52960049E+04</totfact>
</mgrwt>
</event>
<event>
 4    1  0.3935877E+000  0.1755739E+03  0.7546771E-02  0.1172157E+00
         21   -1    0    0  501  502  0.00000000000E+00  0.00000000000E+00  0.30364665351E+02  0.30364665351E+02  0.00000000000E+00 0. -1.
         21   -1    0    0  502  503 -0.00000000000E+00 -0.00000000000E+00 -0.16674936386E+04  0.16674936386E+04  0.00000000000E+00 0. -1.
          6    1    1    2  501    0  0.43407325815E+01  0.29637290891E+02 -0.28760559702E+03  0.33696170466E+03  0.17300000000E+03 0. -1.
         -6    1    1    2    0  503 -0.43407325815E+01 -0.29637290891E+02 -0.13495233762E+04  0.13608965993E+04  0.17300000000E+03 0. -1.
<mgrwt>
<rscale>  2 0.17557395E+03</rscale>
<asrwt>0</asrwt>
<pdfrwt beam="1">  1       21 0.46714865E-02 0.17557395E+03</pdfrwt>
<pdfrwt beam="2">  1       21 0.25653751E+00 0.17557395E+03</pdfrwt>
<totfact> 0.18665160E+04</totfact>
</mgrwt>
</event>
<event>
 4    1  0.3935877E+000  0.1848476E+03  0.7546771E-02  0.1163192E+00
         21   -1    0    0  503  502  0.00000000000E+00  0.00000000000E+00  0.41643658112E+03  0.41643658112E+03  0.00000000000E+00 0.  1.
         21   -1    0    0  501  503 -0.00000000000E+00 -0.00000000000E+00 -0.12871311384E+03  0.12871311384E+03  0.00000000000E+00 0.  1.
          6    1    1    2  501    0  0.62348659208E+02 -0.18769234773E+02 -0.20258087947E+02  0.18595437507E+03  0.17300000000E+03 0.  1.
         -6    1    1    2    0  502 -0.62348659208E+02  0.18769234773E+02  0.30798155522E+03  0.35919531990E+03  0.17300000000E+03 0.  1.
<mgrwt>
<rscale>  2 0.18484761E+03</rscale>
<asrwt>0</asrwt>
<pdfrwt beam="1">  1       21 0.64067166E-01 0.18484761E+03</pdfrwt>
<pdfrwt beam="2">  1       21 0.19802018E-01 0.18484761E+03</pdfrwt>
<totfact> 0.53080940E+04</totfact>
</mgrwt>
</event>
<event>
 4    1  0.3935877E+000  0.2072621E+03  0.7546771E-02  0.1143753E+00
         21   -1    0    0  501  502  0.00000000000E+00  0.00000000000E+00  0.85070605247E+02  0.85070605247E+02  0.00000000000E+00 0.  1.
         21   -1    0    0  502  503 -0.00000000000E+00 -0.00000000000E+00 -0.50654476909E+03  0.50654476909E+03  0.00000000000E+00 0. -1.
          6    1    1    2  501    0  0.10983067015E+03 -0.31077191844E+02 -0.22726337173E+03  0.30758122194E+03  0.17300000000E+03 0. -1.
         -6    1    1    2    0  503 -0.10983067015E+03  0.31077191844E+02 -0.19421079212E+03  0.28403415240E+03  0.17300000000E+03 0. -1.
<mgrwt>
<rscale>  2 0.20726208E+03</rscale>
<asrwt>0</asrwt>
<pdfrwt beam="1">  1       21 0.13087786E-01 0.20726208E+03</pdfrwt>
<pdfrwt beam="2">  1       21 0.77929964E-01 0.20726208E+03</pdfrwt>
<totfact> 0.72791048E+04</totfact>
</mgrwt>
</event>
<event>
 4    1  0.3935877E+000  0.2190455E+03  0.7546771E-02  0.1134597E+00
         21   -1    0    0  503  502  0.00000000000E+00  0.00000000000E+00  0.47527612892E+03  0.47527612892E+03  0.00000000000E+00 0. -1.
         21   -1    0    0  501  503 -0.00000000000E+00 -0.00000000000E+00 -0.22093168884E+03  0.22093168884E+03  0.00000000000E+00 0. -1.
          6    1    1    2  501    0  0.10653423499E+03  0.81868164545E+02 -0.12935323696E+03  0.25438789182E+03  0.17300000000E+03 0. -1.
         -6    1    1    2    0  502 -0.10653423499E+03 -0.81868164545E+02  0.38369767704E+03  0.44181992594E+03  0.17300000000E+03 0. -1.
<mgrwt>
<rscale>  2 0.21904552E+03</rscale>
<asrwt>0</asrwt>
<pdfrwt beam="1">  1       21 0.73119404E-01 0.21904552E+03</pdfrwt>
<pdfrwt beam="2">  1       21 0.33989491E-01 0.21904552E+03</pdfrwt>
<totfact> 0.13798874E+04</totfact>
</mgrwt>
</event>
<event>
 4    1  0.3935877E+000  0.1755793E+03  0.7546771E-02  0.1172151E+00
         21   -1    0    0  501  502  0.00000000000E+00  0.00000000000E+00  0.27429526154E+03  0.27429526154E+03  0.00000000000E+00 0.  1.
         21   -1    0    0  502  503 -0.00000000000E+00 -0.00000000000E+00 -0.11311096212E+03  0.11311096212E+03  0.00000000000E+00 0.  1.
          6    1    1    2  501    0  0.20733473744E+02 -0.21661310116E+02  0.65129239796E+02  0.18726961090E+03  0.17300000000E+03 0.  1.
         -6    1    1    2    0  503 -0.20733473744E+02  0.21661310116E+02  0.96055059628E+02  0.20013661277E+03  0.17300000000E+03 0.  1.
<mgrwt>
<rscale>  2 0.17557930E+03</rscale>
<asrwt>0</asrwt>
<pdfrwt beam="1">  1       21 0.42199271E-01 0.17557930E+03</pdfrwt>
<pdfrwt beam="2">  1       21 0.17401687E-01 0.17557930E+03</pdfrwt>
<totfact> 0.16236023E+05</totfact>
</mgrwt>
</event>
<event>
 4    1  0.3935877E+000  0.1809608E+03  0.7546771E-02  0.1166876E+00
         21   -1    0    0  503  502  0.00000000000E+00  0.00000000000E+00  0.35502384156E+02  0.35502384156E+02  0.00000000000E+00 0. -1.
         21   -1    0    0  501  503 -0.00000000000E+00 -0.00000000000E+00 -0.12776627667E+04  0.12776627667E+04  0.00000000000E+00 0. -1.
          6    1    1    2  501    0  0.26369516743E+02  0.46070208167E+02 -0.96731133372E+03  0.98409249150E+03  0.17300000000E+03 0. -1.
         -6    1    1    2    0  502 -0.26369516743E+02 -0.46070208167E+02 -0.27484904883E+03  0.32907265936E+03  0.17300000000E+03 0. -1.
<mgrwt>
<rscale>  2 0.18096081E+03</rscale>
<asrwt>0</asrwt>
<pdfrwt beam="1">  1       21 0.54619063E-02 0.18096081E+03</pdfrwt>
<pdfrwt beam="2">  1       21 0.19656347E+00 0.18096081E+03</pdfrwt>
<totfact> 0.32978506E+04</totfact>
</mgrwt>
</event>
<event>
 4    1  0.3935877E+000  0.2243158E+03  0.7546771E-02  0.1130706E+00
         21   -1    0    0  501  502  0.00000000000E+00  0.00000000000E+00  0.11265955913E+03  0.11265955913E+03  0.00000000000E+00 0. -1.
         21   -1    0    0  502  503 -0.00000000000E+00 -0.00000000000E+00 -0.77613819496E+03  0.77613819496E+03  0.00000000000E+00 0. -1.
          6    1    1    2  501    0  0.16091938601E+02 -0.14187893600E+03 -0.42182405454E+02  0.22824753733E+03  0.17300000000E+03 0. -1.
         -6    1    1    2    0  503 -0.16091938601E+02  0.14187893600E+03 -0.62129623038E+03  0.66055021675E+03  0.17300000000E+03 0. -1.
<mgrwt>
<rscale>  2 0.22431581E+03</rscale>
<asrwt>0</asrwt>
<pdfrwt beam="1">  1       21 0.17332240E-01 0.22431581E+03</pdfrwt>
<pdfrwt beam="2">  1       21 0.11940588E+00 0.22431581E+03</pdfrwt>
<totfact> 0.15772576E+04</totfact>
</mgrwt>
</event>
<event>
 4    1  0.3935877E+000  0.1761844E+03  0.7546771E-02  0.1171548E+00
         21   -1    0    0  501  502  0.00000000000E+00  0.00000000000E+00  0.36846507638E+03  0.36846507638E+03  0.00000000000E+00 0. -1.
         21   -1    0    0  502  503 -0.00000000000E+00 -0.00000000000E+00 -0.93632024092E+02  0.93632024092E+02  0.00000000000E+00 0.  1.
          6    1    1    2  501    0  0.25890346915E+02  0.21014786000E+02  0.21057770392E+03  0.27456128766E+03  0.17300000000E+03 0. -1.
         -6    1    1    2    0  503 -0.25890346915E+02 -0.21014786000E+02  0.64255348374E+02  0.18753581282E+03  0.17300000000E+03 0.  1.
<mgrwt>
<rscale>  2 0.17618437E+03</rscale>
<asrwt>0</asrwt>
<pdfrwt beam="1">  1       21 0.56686934E-01 0.17618437E+03</pdfrwt>
<pdfrwt beam="2">  1       21 0.14404927E-01 0.17618437E+03</pdfrwt>
<totfact> 0.12425629E+05</totfact>
</mgrwt>
</event>
<event>
 4    1  0.3935877E+000  0.1886741E+03  0.7546771E-02  0.1159663E+00
         21   -1    0    0  503  502  0.00000000000E+00  0.00000000000E+00  0.48277518840E+02  0.48277518840E+02  0.00000000000E+00 0. -1.
         21   -1    0    0  501  503 -0.00000000000E+00 -0.00000000000E+00 -0.80153046406E+03  0.80153046406E+03  0.00000000000E+00 0. -1.
          6    1    1    2  501    0  0.38838985098E+02 -0.64501534301E+02 -0.49685240278E+03  0.53146987200E+03  0.17300000000E+03 0. -1.
         -6    1    1    2    0  502 -0.38838985098E+02  0.64501534301E+02 -0.25640054244E+03  0.31833811090E+03  0.17300000000E+03 0. -1.
<mgrwt>
<rscale>  2 0.18867410E+03</rscale>
<asrwt>0</asrwt>
<pdfrwt beam="1">  1       21 0.74273110E-02 0.18867410E+03</pdfrwt>
<pdfrwt beam="2">  1       21 0.12331237E+00 0.18867410E+03</pdfrwt>
<totfact> 0.67507339E+04</totfact>
</mgrwt>
</event>
<event>
 4    1  0.3935877E+000  0.2236051E+03  0.7546771E-02  0.1131223E+00
         21   -1    0    0  503  502  0.00000000000E+00  0.00000000000E+00  0.22901646650E+03  0.22901646650E+03  0.00000000000E+00 0.  1.
         21   -1    0    0  501  503 -0.00000000000E+00 -0.00000000000E+00 -0.21868944376E+03  0.21868944376E+03  0.00000000000E+00 0. -1.
          6    1    1    2  501    0  0.30644379693E+02 -0.13831547650E+03 -0.40168735108E+01  0.22364119549E+03  0.17300000000E+03 0.  1.
         -6    1    1    2    0  502 -0.30644379693E+02  0.13831547650E+03  0.14343896247E+02  0.22406471477E+03  0.17300000000E+03 0. -1.
<mgrwt>
<rscale>  2 0.22360512E+03</rscale>
<asrwt>0</asrwt>
<pdfrwt beam="1">  1       21 0.35233302E-01 0.22360512E+03</pdfrwt>
<pdfrwt beam="2">  1       21 0.33644530E-01 0.22360512E+03</pdfrwt>
<totfact> 0.65196643E+04</totfact>
</mgrwt>
</event>
<event>
 4    1  0.3935877E+000  0.1819729E+03  0.7546771E-02  0.1165907E+00
         21   -1    0    0  501  502  0.00000000000E+00  0.00000000000E+00  0.56686245947E+02  0.56686245947E+02  0.00000000000E+00 0. -1.
         21   -1    0    0  502  503 -0.00000000000E+00 -0.00000000000E+00 -0.58934649077E+03  0.58934649077E+03  0.00000000000E+00 0.  1.
          6    1    1    2  501    0  0.73404678965E+01 -0.55957626250E+02 -0.23604330949E+03  0.29804459794E+03  0.17300000000E+03 0. -1.
         -6    1    1    2    0  503 -0.73404678965E+01  0.55957626250E+02 -0.29661693533E+03  0.34798813878E+03  0.17300000000E+03 0.  1.
<mgrwt>
<rscale>  2 0.18197291E+03</rscale>
<asrwt>0</asrwt>
<pdfrwt beam="1">  1       21 0.87209612E-02 0.18197291E+03</pdfrwt>
<pdfrwt beam="2">  1       21 0.90668688E-01 0.18197291E+03</pdfrwt>
<totfact> 0.10705060E+05</totfact>
</mgrwt>
</event>
<event>
 4    1  0.3935877E+000  0.2191467E+03  0.7546771E-02  0.1134521E+00
         21   -1    0    0  501  502  0.00000000000E+00  0.00000000000E+00  0.36976613598E+03  0.36976613598E+03  0.00000000000E+00 0. -1.
         21   -1    0    0  502  503 -0.00000000000E+00 -0.00000000000E+00 -0.13982676806E+03  0.13982676806E+03  0.00000000000E+00 0.  1.
          6    1    1    2  501    0  0.62809646560E+02 -0.11895889294E+03  0.18292706042E+03  0.28546029382E+03  0.17300000000E+03 0.  1.
         -6    1    1    2    0  503 -0.62809646560E+02  0.11895889294E+03  0.47012307501E+02  0.22413261023E+03  0.17300000000E+03 0. -1.
<mgrwt>
<rscale>  2 0.21914669E+03</rscale>
<asrwt>0</asrwt>
<pdfrwt beam="1">  1       21 0.56887098E-01 0.21914669E+03</pdfrwt>
<pdfrwt beam="2">  1       21 0.21511811E-01 0.21914669E+03</pdfrwt>
<totfact> 0.57762256E+04</totfact>
</mgrwt>
</event>
<event>
 4    1  0.3935877E+000  0.1884043E+03  0.7546771E-02  0.1159909E+00
         21   -1    0    0  503  502  0.00000000000E+00  0.00000000000E+00  0.27493476711E+02  0.27493476711E+02  0.00000000000E+00 0. -1.
         21   -1    0    0  501  503 -0.00000000000E+00 -0.00000000000E+00 -0.12936178185E+04  0.12936178185E+04  0.00000000000E+00 0. -1.
          6    1    1    2  501    0 -0.43559969967E+02  0.60578006293E+02 -0.66234312574E+03  0.68861787810E+03  0.17300000000E+03 0. -1.
         -6    1    1    2    0  502  0.43559969967E+02 -0.60578006293E+02 -0.60378121604E+03  0.63249341710E+03  0.17300000000E+03 0. -1.
<mgrwt>
<rscale>  2 0.18840426E+03</rscale>
<asrwt>0</asrwt>
<pdfrwt beam="1">  1       21 0.42297656E-02 0.18840426E+03</pdfrwt>
<pdfrwt beam="2">  1       21 0.19901813E+00 0.18840426E+03</pdfrwt>
<totfact> 0.48741249E+04</totfact>
</mgrwt>
</event>
<event>
 4    1  0.3935877E+000  0.2347184E+03  0.7546771E-02  0.1123362E+00
         21   -1    0    0  501  502  0.00000000000E+00  0.00000000000E+00  0.33103388741E+02  0.33103388741E+02  0.00000000000E+00 0. -1.
         21   -1    0    0  502  503 -0.00000000000E+00 -0.00000000000E+00 -0.16710117258E+04  0.16710117258E+04  0.00000000000E+00 0. -1.
          6    1    1    2  501    0 -0.15541320878E+03  0.31787825381E+02 -0.87310478930E+03  0.90410436588E+03  0.17300000000E+03 0. -1.
         -6    1    1    2    0  503  0.15541320878E+03 -0.31787825381E+02 -0.76480354772E+03  0.80001074862E+03  0.17300000000E+03 0. -1.
<mgrwt>
<rscale>  2 0.23471841E+03</rscale>
<asrwt>0</asrwt>
<pdfrwt beam="1">  1       21 0.50928300E-02 0.23471841E+03</pdfrwt>
<pdfrwt beam="2">  1       21 0.25707868E+00 0.23471841E+03</pdfrwt>
<totfact> 0.15198961E+04</totfact>
</mgrwt>
</event>
<event>
 4    1  0.3935877E+000  0.1845735E+03  0.7546771E-02  0.1163449E+00
         21   -1    0    0  501  502  0.00000000000E+00  0.00000000000E+00  0.53220566175E+02  0.53220566175E+02  0.00000000000E+00 0. -1.
         21   -1    0    0  502  503 -0.00000000000E+00 -0.00000000000E+00 -0.87899396915E+03  0.87899396915E+03  0.00000000000E+00 0.  1.
          6    1    1    2  501    0 -0.93653236344E+01  0.63644803172E+02 -0.16990118375E+03  0.25086606486E+03  0.17300000000E+03 0. -1.
         -6    1    1    2    0  503  0.93653236344E+01 -0.63644803172E+02 -0.65587221923E+03  0.68134847047E+03  0.17300000000E+03 0.  1.
<mgrwt>
<rscale>  2 0.18457348E+03</rscale>
<asrwt>0</asrwt>
<pdfrwt beam="1">  1       21 0.81877792E-02 0.18457348E+03</pdfrwt>
<pdfrwt beam="2">  1       21 0.13522984E+00 0.18457348E+03</pdfrwt>
<totfact> 0.45278500E+04</totfact>
</mgrwt>
</event>
<event>
 4    1  0.3935877E+000  0.1815170E+03  0.7546771E-02  0.1166343E+00
         21   -1    0    0  503  502  0.00000000000E+00  0.00000000000E+00  0.10574837461E+04  0.10574837461E+04  0.00000000000E+00 0. -1.
         21   -1    0    0  501  503 -0.00000000000E+00 -0.00000000000E+00 -0.31499280520E+02  0.31499280520E+02  0.00000000000E+00 0. -1.
          6    1    1    2  501    0 -0.32630272652E+02 -0.44211891376E+02  0.56971910129E+03  0.59793668595E+03  0.17300000000E+03 0.  1.
         -6    1    1    2    0  502  0.32630272652E+02  0.44211891376E+02  0.45626536427E+03  0.49104634065E+03  0.17300000000E+03 0.  1.
<mgrwt>
<rscale>  2 0.18151701E+03</rscale>
<asrwt>0</asrwt>
<pdfrwt beam="1">  1       21 0.16268978E+00 0.18151701E+03</pdfrwt>
<pdfrwt beam="2">  1       21 0.48460440E-02 0.18151701E+03</pdfrwt>
<totfact> 0.68654415E+04</totfact>
</mgrwt>
</event>
<event>
 4    1  0.3935877E+000  0.2248790E+03  0.7546771E-02  0.1130297E+00
         21   -1    0    0  501  502  0.00000000000E+00  0.00000000000E+00  0.29041033950E+03  0.29041033950E+03  0.00000000000E+00 0.  1.
         21   -1    0    0  502  503 -0.00000000000E+00 -0.00000000000E+00 -0.28765357606E+03  0.28765357606E+03  0.00000000000E+00 0.  1.
          6    1    1    2  501    0  0.87771800580E+02 -0.11374395309E+03  0.18294860677E+03  0.28989785884E+03  0.17300000000E+03 0.  1.
         -6    1    1    2    0  503 -0.87771800580E+02  0.11374395309E+03 -0.18019184333E+03  0.28816605672E+03  0.17300000000E+03 0.  1.
<mgrwt>
<rscale>  2 0.22487902E+03</rscale>
<asrwt>0</asrwt>
<pdfrwt beam="1">  1       21 0.44678514E-01 0.22487902E+03</pdfrwt>
<pdfrwt beam="2">  1       21 0.44254396E-01 0.22487902E+03</pdfrwt>
<totfact> 0.23161355E+04</totfact>
</mgrwt>
</event>
<event>
 4    1  0.3935877E+000  0.4067381E+03  0.7546771E-02  0.1041471E+00
         21   -1    0    0  501  502  0.00000000000E+00  0.00000000000E+00  0.37905045390E+03  0.37905045390E+03  0.00000000000E+00 0.  1.
         21   -1    0    0  502  503 -0.00000000000E+00 -0.00000000000E+00 -0.47624610262E+03  0.47624610262E+03  0.00000000000E+00 0. -1.
          6    1    1    2  501    0 -0.28862928016E+03  0.22847322616E+03  0.75025743651E+02  0.41359973241E+03  0.17300000000E+03 0.  1.
         -6    1    1    2    0  503  0.28862928016E+03 -0.22847322616E+03 -0.17222139237E+03  0.44169682411E+03  0.17300000000E+03 0. -1.
<mgrwt>
<rscale>  2 0.40673809E+03</rscale>
<asrwt>0</asrwt>
<pdfrwt beam="1">  1       21 0.58315454E-01 0.40673809E+03</pdfrwt>
<pdfrwt beam="2">  1       21 0.73268631E-01 0.40673809E+03</pdfrwt>
<totfact> 0.41044875E+03</totfact>
</mgrwt>
</event>
<event>
 4    1  0.3935877E+000  0.2314984E+03  0.7546771E-02  0.1125590E+00
         21   -1    0    0  503  502  0.00000000000E+00  0.00000000000E+00  0.14886402797E+03  0.14886402797E+03  0.00000000000E+00 0.  1.
         21   -1    0    0  501  503 -0.00000000000E+00 -0.00000000000E+00 -0.73101062766E+03  0.73101062766E+03  0.00000000000E+00 0.  1.
          6    1    1    2  501    0  0.14763894550E+03  0.43188501212E+02 -0.60448871567E+03  0.64730063513E+03  0.17300000000E+03 0.  1.
         -6    1    1    2    0  502 -0.14763894550E+03 -0.43188501212E+02  0.22342115975E+02  0.23257402050E+03  0.17300000000E+03 0.  1.
<mgrwt>
<rscale>  2 0.23149839E+03</rscale>
<asrwt>0</asrwt>
<pdfrwt beam="1">  1       21 0.22902158E-01 0.23149839E+03</pdfrwt>
<pdfrwt beam="2">  1       21 0.11246317E+00 0.23149839E+03</pdfrwt>
<totfact> 0.10791425E+04</totfact>
</mgrwt>
</event>
<event>
 4    1  0.3935877E+000  0.2119084E+03  0.7546771E-02  0.1140064E+00
         21   -1    0    0  503  502  0.00000000000E+00  0.00000000000E+00  0.71593973108E+03  0.71593973108E+03  0.00000000000E+00 0. -1.
         21   -1    0    0  501  503 -0.00000000000E+00 -0.00000000000E+00 -0.62902894321E+02  0.62902894321E+02  0.00000000000E+00 0.  1.
          6    1    1    2  501    0  0.79268877663E+02  0.93234089327E+02  0.30563349894E+03  0.37190991658E+03  0.17300000000E+03 0.  1.
         -6    1    1    2    0  502 -0.79268877663E+02 -0.93234089327E+02  0.34740333783E+03  0.40693270882E+03  0.17300000000E+03 0. -1.
<mgrwt>
<rscale>  2 0.21190835E+03</rscale>
<asrwt>0</asrwt>
<pdfrwt beam="1">  1       21 0.11014457E+00 0.21190835E+03</pdfrwt>
<pdfrwt beam="2">  1       21 0.96773688E-02 0.21190835E+03</pdfrwt>
<totfact> 0.55435543E+04</totfact>
</mgrwt>
</event>
<event>
 4    1  0.3935877E+000  0.1845980E+03  0.7546771E-02  0.1163426E+00
         21   -1    0    0  503  502  0.00000000000E+00  0.00000000000E+00  0.18065877774E+02  0.18065877774E+02  0.00000000000E+00 0.  1.
         21   -1    0    0  501  503 -0.00000000000E+00 -0.00000000000E+00 -0.19099486848E+04  0.19099486848E+04  0.00000000000E+00 0.  1.
          6    1    1    2  501    0 -0.50294474030E+02  0.40222973990E+02 -0.10533660822E+04  0.10694187790E+04  0.17300000000E+03 0.  1.
         -6    1    1    2    0  502  0.50294474030E+02 -0.40222973990E+02 -0.83851672489E+03  0.85859578364E+03  0.17300000000E+03 0.  1.
<mgrwt>
<rscale>  2 0.18459800E+03</rscale>
<asrwt>0</asrwt>
<pdfrwt beam="1">  1       21 0.27793653E-02 0.18459800E+03</pdfrwt>
<pdfrwt beam="2">  1       21 0.29383831E+00 0.18459800E+03</pdfrwt>
<totfact> 0.26797582E+04</totfact>
</mgrwt>
</event>
<event>
 4    1  0.3935877E+000  0.1897190E+03  0.7546771E-02  0.1158715E+00
         21   -1    0    0  503  502  0.00000000000E+00  0.00000000000E+00  0.38214031912E+03  0.38214031912E+03  0.00000000000E+00 0. -1.
         21   -1    0    0  501  503 -0.00000000000E+00 -0.00000000000E+00 -0.97759183727E+02  0.97759183727E+02  0.00000000000E+00 0. -1.
          6    1    1    2  501    0  0.44381429834E+02 -0.63988940272E+02  0.96333561295E+02  0.21277558794E+03  0.17300000000E+03 0.  1.
         -6    1    1    2    0  502 -0.44381429834E+02  0.63988940272E+02  0.18804757410E+03  0.26712391491E+03  0.17300000000E+03 0.  1.
<mgrwt>
<rscale>  2 0.18971899E+03</rscale>
<asrwt>0</asrwt>
<pdfrwt beam="1">  1       21 0.58790817E-01 0.18971899E+03</pdfrwt>
<pdfrwt beam="2">  1       21 0.15039875E-01 0.18971899E+03</pdfrwt>
<totfact> 0.10578910E+05</totfact>
</mgrwt>
</event>
<event>
 4    1  0.3935877E+000  0.1741666E+03  0.7546771E-02  0.1173571E+00
         21   -1    0    0  501  502  0.00000000000E+00  0.00000000000E+00  0.40187699713E+02  0.40187699713E+02  0.00000000000E+00 0.  1.
         21   -1    0    0  502  503 -0.00000000000E+00 -0.00000000000E+00 -0.77644094397E+03  0.77644094397E+03  0.00000000000E+00 0.  1.
          6    1    1    2  501    0 -0.14691207757E+02  0.13753888136E+02 -0.29997169346E+03  0.34686743563E+03  0.17300000000E+03 0.  1.
         -6    1    1    2    0  503  0.14691207757E+02 -0.13753888136E+02 -0.43628155080E+03  0.46976120806E+03  0.17300000000E+03 0.  1.
<mgrwt>
<rscale>  2 0.17416659E+03</rscale>
<asrwt>0</asrwt>
<pdfrwt beam="1">  1       21 0.61827230E-02 0.17416659E+03</pdfrwt>
<pdfrwt beam="2">  1       21 0.11945245E+00 0.17416659E+03</pdfrwt>
<totfact> 0.10085112E+05</totfact>
</mgrwt>
</event>
<event>
 4    1  0.3935877E+000  0.3989664E+03  0.7546771E-02  0.1044138E+00
         21   -1    0    0  503  502  0.00000000000E+00  0.00000000000E+00  0.83818678294E+03  0.83818678294E+03  0.00000000000E+00 0.  1.
         21   -1    0    0  501  503 -0.00000000000E+00 -0.00000000000E+00 -0.22109293755E+03  0.22109293755E+03  0.00000000000E+00 0. -1.
          6    1    1    2  501    0  0.28501983856E+03 -0.21910920722E+03  0.10961671219E+03  0.41375110471E+03  0.17300000000E+03 0. -1.
         -6    1    1    2    0  502 -0.28501983856E+03  0.21910920722E+03  0.50747713321E+03  0.64552861578E+03  0.17300000000E+03 0.  1.
<mgrwt>
<rscale>  2 0.39896636E+03</rscale>
<asrwt>0</asrwt>
<pdfrwt beam="1">  1       21 0.12895181E+00 0.39896636E+03</pdfrwt>
<pdfrwt beam="2">  1       21 0.34014299E-01 0.39896636E+03</pdfrwt>
<totfact> 0.32496637E+03</totfact>
</mgrwt>
</event>
<event>
 4    1  0.3935877E+000  0.2226610E+03  0.7546771E-02  0.1131915E+00
         21   -1    0    0  503  502  0.00000000000E+00  0.00000000000E+00  0.80398766911E+03  0.80398766911E+03  0.00000000000E+00 0.  1.
         21   -1    0    0  501  503 -0.00000000000E+00 -0.00000000000E+00 -0.76149596862E+02  0.76149596862E+02  0.00000000000E+00 0.  1.
          6    1    1    2  501    0 -0.65894288999E+02  0.12372094249E+03  0.17199062437E+03  0.28135156620E+03  0.17300000000E+03 0.  1.
         -6    1    1    2    0  502  0.65894288999E+02 -0.12372094249E+03  0.55584744788E+03  0.59878569977E+03  0.17300000000E+03 0.  1.
<mgrwt>
<rscale>  2 0.22266102E+03</rscale>
<asrwt>0</asrwt>
<pdfrwt beam="1">  1       21 0.12369040E+00 0.22266102E+03</pdfrwt>
<pdfrwt beam="2">  1       21 0.11715323E-01 0.22266102E+03</pdfrwt>
<totfact> 0.29486109E+04</totfact>
</mgrwt>
</event>
<event>
 4    1  0.3935877E+000  0.1845324E+03  0.7546771E-02  0.1163487E+00
         21   -1    0    0  501  502  0.00000000000E+00  0.00000000000E+00  0.33641881421E+02  0.33641881421E+02  0.00000000000E+00 0. -1.
         21   -1    0    0  502  503 -0.00000000000E+00 -0.00000000000E+00 -0.10265233314E+04  0.10265233314E+04  0.00000000000E+00 0. -1.
          6    1    1    2  501    0  0.52607398865E+02  0.36819159649E+02 -0.43381730478E+03  0.47143360387E+03  0.17300000000E+03 0.  1.
         -6    1    1    2    0  503 -0.52607398865E+02 -0.36819159649E+02 -0.55906414524E+03  0.58873160899E+03  0.17300000000E+03 0.  1.
<mgrwt>
<rscale>  2 0.18453235E+03</rscale>
<asrwt>0</asrwt>
<pdfrwt beam="1">  1       21 0.51756740E-02 0.18453235E+03</pdfrwt>
<pdfrwt beam="2">  1       21 0.15792667E+00 0.18453235E+03</pdfrwt>
<totfact> 0.66420550E+04</totfact>
</mgrwt>
</event>
<event>
 4    1  0.3935877E+000  0.2161634E+03  0.7546771E-02  0.1136776E+00
         21   -1    0    0  501  502  0.00000000000E+00  0.00000000000E+00  0.38512894942E+03  0.38512894942E+03  0.00000000000E+00 0. -1.
         21   -1    0    0  502  503 -0.00000000000E+00 -0.00000000000E+00 -0.12177210918E+03  0.12177210918E+03  0.00000000000E+00 0. -1.
          6    1    1    2  501    0  0.98814890171E+02  0.83864382143E+02  0.14699828454E+03  0.26140985591E+03  0.17300000000E+03 0. -1.
         -6    1    1    2    0  503 -0.98814890171E+02 -0.83864382143E+02  0.11635855571E+03  0.24549120269E+03  0.17300000000E+03 0. -1.
<mgrwt>
<rscale>  2 0.21616340E+03</rscale>
<asrwt>0</asrwt>
<pdfrwt beam="1">  1       21 0.59250607E-01 0.21616340E+03</pdfrwt>
<pdfrwt beam="2">  1       21 0.18734171E-01 0.21616340E+03</pdfrwt>
<totfact> 0.68683669E+04</totfact>
</mgrwt>
</event>
<event>
 4    1  0.3935877E+000  0.1745913E+03  0.7546771E-02  0.1173143E+00
         21   -1    0    0  503  502  0.00000000000E+00  0.00000000000E+00  0.16473406403E+03  0.16473406403E+03  0.00000000000E+00 0. -1.
         21   -1    0    0  501  503 -0.00000000000E+00 -0.00000000000E+00 -0.18528323906E+03  0.18528323906E+03  0.00000000000E+00 0. -1.
          6    1    1    2  501    0 -0.21287573350E+02  0.99974770907E+01 -0.39113966048E+01  0.17463507480E+03  0.17300000000E+03 0.  1.
         -6    1    1    2    0  502  0.21287573350E+02 -0.99974770907E+01 -0.16637778431E+02  0.17538222829E+03  0.17300000000E+03 0.  1.
<mgrwt>
<rscale>  2 0.17459127E+03</rscale>
<asrwt>0</asrwt>
<pdfrwt beam="1">  1       21 0.25343702E-01 0.17459127E+03</pdfrwt>
<pdfrwt beam="2">  1       21 0.28505114E-01 0.17459127E+03</pdfrwt>
<totfact> 0.17462607E+05</totfact>
</mgrwt>
</event>
<event>
 4    1  0.3935877E+000  0.1964689E+03  0.7546771E-02  0.1152753E+00
         21   -1    0    0  501  502  0.00000000000E+00  0.00000000000E+00  0.18923429933E+03  0.18923429933E+03  0.00000000000E+00 0.  1.
         21   -1    0    0  502  503 -0.00000000000E+00 -0.00000000000E+00 -0.31762073939E+03  0.31762073939E+03  0.00000000000E+00 0.  1.
          6    1    1    2  501    0  0.82931786607E+02  0.42347865745E+02  0.87395283223E+02  0.21503013392E+03  0.17300000000E+03 0.  1.
         -6    1    1    2    0  503 -0.82931786607E+02 -0.42347865745E+02 -0.21578172328E+03  0.29182490481E+03  0.17300000000E+03 0.  1.
<mgrwt>
<rscale>  2 0.19646889E+03</rscale>
<asrwt>0</asrwt>
<pdfrwt beam="1">  1       21 0.29112969E-01 0.19646889E+03</pdfrwt>
<pdfrwt beam="2">  1       21 0.48864729E-01 0.19646889E+03</pdfrwt>
<totfact> 0.45069181E+04</totfact>
</mgrwt>
</event>
<event>
 4    1  0.3935877E+000  0.1896927E+03  0.7546771E-02  0.1158739E+00
         21   -1    0    0  503  502  0.00000000000E+00  0.00000000000E+00  0.46515600338E+03  0.46515600338E+03  0.00000000000E+00 0. -1.
         21   -1    0    0  501  503 -0.00000000000E+00 -0.00000000000E+00 -0.14890786607E+03  0.14890786607E+03  0.00000000000E+00 0. -1.
          6    1    1    2  501    0  0.35977238364E+02  0.68992569873E+02 -0.54704761589E+02  0.19742326945E+03  0.17300000000E+03 0. -1.
         -6    1    1    2    0  502 -0.35977238364E+02 -0.68992569873E+02  0.37095289889E+03  0.41664060001E+03  0.17300000000E+03 0. -1.
<mgrwt>
<rscale>  2 0.18969274E+03</rscale>
<asrwt>0</asrwt>
<pdfrwt beam="1">  1       21 0.71562462E-01 0.18969274E+03</pdfrwt>
<pdfrwt beam="2">  1       21 0.22908903E-01 0.18969274E+03</pdfrwt>
<totfact> 0.31607859E+04</totfact>
</mgrwt>
</event>
<event>
 4    1  0.3935877E+000  0.3362107E+03  0.7546771E-02  0.1068421E+00
         21   -1    0    0  503  502  0.00000000000E+00  0.00000000000E+00  0.12589010421E+04  0.12589010421E+04  0.00000000000E+00 0. -1.
         21   -1    0    0  501  503 -0.00000000000E+00 -0.00000000000E+00 -0.16486864708E+03  0.16486864708E+03  0.00000000000E+00 0.  1.
          6    1    1    2  501    0  0.28296437254E+03  0.55134301254E+02  0.66622993156E+02  0.34274808609E+03  0.17300000000E+03 0.  1.
         -6    1    1    2    0  502 -0.28296437254E+03 -0.55134301254E+02  0.10274094019E+04  0.10810216031E+04  0.17300000000E+03 0. -1.
<mgrwt>
<rscale>  2 0.33621069E+03</rscale>
<asrwt>0</asrwt>
<pdfrwt beam="1">  1       21 0.19367708E+00 0.33621069E+03</pdfrwt>
<pdfrwt beam="2">  1       21 0.25364408E-01 0.33621069E+03</pdfrwt>
<totfact> 0.19452595E+03</totfact>
</mgrwt>
</event>
<event>
 4    1  0.3935877E+000  0.1748938E+03  0.7546771E-02  0.1172838E+00
         21   -1    0    0  503  502  0.00000000000E+00  0.00000000000E+00  0.73528014952E+03  0.73528014952E+03  0.00000000000E+00 0. -1.
         21   -1    0    0  501  503 -0.00000000000E+00 -0.00000000000E+00 -0.46738282940E+02  0.46738282940E+02  0.00000000000E+00 0. -1.
          6    1    1    2  501    0  0.25108932420E+02  0.53264666103E+01  0.21462779460E+03  0.27686263733E+03  0.17300000000E+03 0.  1.
         -6    1    1    2    0  502 -0.25108932420E+02 -0.53264666103E+01  0.47391407198E+03  0.50515579513E+03  0.17300000000E+03 0.  1.
<mgrwt>
<rscale>  2 0.17489377E+03</rscale>
<asrwt>0</asrwt>
<pdfrwt beam="1">  1       21 0.11312001E+00 0.17489377E+03</pdfrwt>
<pdfrwt beam="2">  1       21 0.71905056E-02 0.17489377E+03</pdfrwt>
<totfact> 0.88823924E+04</totfact>
</mgrwt>
</event>
<event>
 4    1  0.3935877E+000  0.1733658E+03  0.7546771E-02  0.1174383E+00
         21   -1    0    0  501  502  0.00000000000E+00  0.00000000000E+00  0.84617568370E+03  0.84617568370E+03  0.00000000000E+00 0. -1.
         21   -1    0    0  502  503 -0.00000000000E+00 -0.00000000000E+00 -0.41322507605E+02  0.41322507605E+02  0.00000000000E+00 0. -1.
          6    1    1    2  501    0  0.12428328567E+01  0.11187914974E+02  0.56871873455E+03  0.59455589569E+03  0.17300000000E+03 0. -1.
         -6    1    1    2    0  503 -0.12428328567E+01 -0.11187914974E+02  0.23613444155E+03  0.29294229562E+03  0.17300000000E+03 0. -1.
<mgrwt>
<rscale>  2 0.17336584E+03</rscale>
<asrwt>0</asrwt>
<pdfrwt beam="1">  1       21 0.13018086E+00 0.17336584E+03</pdfrwt>
<pdfrwt beam="2">  1       21 0.63573095E-02 0.17336584E+03</pdfrwt>
<totfact> 0.77633745E+04</totfact>
</mgrwt>
</event>
<event>
 4    1  0.3935877E+000  0.2114209E+03  0.7546771E-02  0.1140446E+00
         21   -1    0    0  501  502  0.00000000000E+00  0.00000000000E+00  0.42059982284E+03  0.42059982284E+03  0.00000000000E+00 0.  1.
         21   -1    0    0  502  503 -0.00000000000E+00 -0.00000000000E+00 -0.12165347145E+03  0.12165347145E+03  0.00000000000E+00 0.  1.
          6    1    1    2  501    0 -0.19958964277E+02 -0.11988092182E+03  0.24587420236E+03  0.32427290830E+03  0.17300000000E+03 0.  1.
         -6    1    1    2    0  503  0.19958964277E+02  0.11988092182E+03  0.53072149024E+02  0.21798038598E+03  0.17300000000E+03 0.  1.
<mgrwt>
<rscale>  2 0.21142090E+03</rscale>
<asrwt>0</asrwt>
<pdfrwt beam="1">  1       21 0.64707664E-01 0.21142090E+03</pdfrwt>
<pdfrwt beam="2">  1       21 0.18715919E-01 0.21142090E+03</pdfrwt>
<totfact> 0.56981072E+04</totfact>
</mgrwt>
</event>
<event>
 4    1  0.3935877E+000  0.2097834E+03  0.7546771E-02  0.1141738E+00
         21   -1    0    0  501  502  0.00000000000E+00  0.00000000000E+00  0.18110323437E+04  0.18110323437E+04  0.00000000000E+00 0.  1.
         21   -1    0    0  502  503 -0.00000000000E+00 -0.00000000000E+00 -0.25056739588E+02  0.25056739588E+02  0.00000000000E+00 0. -1.
          6    1    1    2  501    0 -0.11834139992E+03 -0.86829657774E+01  0.10524717612E+04  0.10731756096E+04  0.17300000000E+03 0. -1.
         -6    1    1    2    0  503  0.11834139992E+03  0.86829657774E+01  0.73350384287E+03  0.76291347369E+03  0.17300000000E+03 0.  1.
<mgrwt>
<rscale>  2 0.20978341E+03</rscale>
<asrwt>0</asrwt>
<pdfrwt beam="1">  1       21 0.27862026E+00 0.20978341E+03</pdfrwt>
<pdfrwt beam="2">  1       21 0.38548844E-02 0.20978341E+03</pdfrwt>
<totfact> 0.18597374E+04</totfact>
</mgrwt>
</event>
<event>
 4    1  0.3935877E+000  0.1802721E+03  0.7546771E-02  0.1167540E+00
         21   -1    0    0  501  502  0.00000000000E+00  0.00000000000E+00  0.17771291390E+03  0.17771291390E+03  0.00000000000E+00 0.  1.
         21   -1    0    0  502  503 -0.00000000000E+00 -0.00000000000E+00 -0.22974382832E+03  0.22974382832E+03  0.00000000000E+00 0.  1.
          6    1    1    2  501    0  0.41208161876E+02  0.29511207356E+02  0.66009065331E+02  0.19197713580E+03  0.17300000000E+03 0.  1.
         -6    1    1    2    0  503 -0.41208161876E+02 -0.29511207356E+02 -0.11803997974E+03  0.21547960642E+03  0.17300000000E+03 0.  1.
<mgrwt>
<rscale>  2 0.18027208E+03</rscale>
<asrwt>0</asrwt>
<pdfrwt beam="1">  1       21 0.27340448E-01 0.18027208E+03</pdfrwt>
<pdfrwt beam="2">  1       21 0.35345204E-01 0.18027208E+03</pdfrwt>
<totfact> 0.98916275E+04</totfact>
</mgrwt>
</event>
<event>
 4    1  0.3935877E+000  0.2710210E+03  0.7546771E-02  0.1100697E+00
         21   -1    0    0  503  502  0.00000000000E+00  0.00000000000E+00  0.47225561774E+02  0.47225561774E+02  0.00000000000E+00 0.  1.
         21   -1    0    0  501  503 -0.00000000000E+00 -0.00000000000E+00 -0.17401454578E+04  0.17401454578E+04  0.00000000000E+00 0.  1.
          6    1    1    2  501    0 -0.18765926922E+03  0.91144869434E+02 -0.11376890850E+04  0.11695250501E+04  0.17300000000E+03 0.  1.
         -6    1    1    2    0  502  0.18765926922E+03 -0.91144869434E+02 -0.55523081095E+03  0.61784596945E+03  0.17300000000E+03 0.  1.
<mgrwt>
<rscale>  2 0.27102101E+03</rscale>
<asrwt>0</asrwt>
<pdfrwt beam="1">  1       21 0.72654731E-02 0.27102101E+03</pdfrwt>
<pdfrwt beam="2">  1       21 0.26771461E+00 0.27102101E+03</pdfrwt>
<totfact> 0.69362374E+03</totfact>
</mgrwt>
</event>
<event>
 4    1  0.3935877E+000  0.1855756E+03  0.7546771E-02  0.1162513E+00
         21   -1    0    0  501  502  0.00000000000E+00  0.00000000000E+00  0.27758266377E+03  0.27758266377E+03  0.00000000000E+00 0.  1.
         21   -1    0    0  502  503 -0.00000000000E+00 -0.00000000000E+00 -0.20550938610E+03  0.20550938610E+03  0.00000000000E+00 0.  1.
          6    1    1    2  501    0 -0.24712218589E+02 -0.62438846558E+02  0.18809648389E+03  0.26423207708E+03  0.17300000000E+03 0.  1.
         -6    1    1    2    0  503  0.24712218589E+02  0.62438846558E+02 -0.11602320622E+03  0.21885997279E+03  0.17300000000E+03 0.  1.
<mgrwt>
<rscale>  2 0.18557560E+03</rscale>
<asrwt>0</asrwt>
<pdfrwt beam="1">  1       21 0.42705025E-01 0.18557560E+03</pdfrwt>
<pdfrwt beam="2">  1       21 0.31616829E-01 0.18557560E+03</pdfrwt>
<totfact> 0.50890353E+04</totfact>
</mgrwt>
</event>
<event>
 4    1  0.3935877E+000  0.2471840E+03  0.7546771E-02  0.1115098E+00
         21   -1    0    0  501  502  0.00000000000E+00  0.00000000000E+00  0.24640717144E+03  0.24640717144E+03  0.00000000000E+00 0. -1.
         21   -1    0    0  502  503 -0.00000000000E+00 -0.00000000000E+00 -0.35977978596E+03  0.35977978596E+03  0.00000000000E+00 0.  1.
          6    1    1    2  501    0 -0.11034206593E+03  0.13782432983E+03  0.11228434252E+03  0.27149160389E+03  0.17300000000E+03 0. -1.
         -6    1    1    2    0  503  0.11034206593E+03 -0.13782432983E+03 -0.22565695704E+03  0.33469535352E+03  0.17300000000E+03 0.  1.
<mgrwt>
<rscale>  2 0.24718397E+03</rscale>
<asrwt>0</asrwt>
<pdfrwt beam="1">  1       21 0.37908796E-01 0.24718397E+03</pdfrwt>
<pdfrwt beam="2">  1       21 0.55350736E-01 0.24718397E+03</pdfrwt>
<totfact> 0.20044022E+04</totfact>
</mgrwt>
</event>
<event>
 4    1  0.3935877E+000  0.1868500E+03  0.7546771E-02  0.1161333E+00
         21   -1    0    0  503  502  0.00000000000E+00  0.00000000000E+00  0.21014354804E+03  0.21014354804E+03  0.00000000000E+00 0.  1.
         21   -1    0    0  501  503 -0.00000000000E+00 -0.00000000000E+00 -0.20651545251E+03  0.20651545251E+03  0.00000000000E+00 0.  1.
          6    1    1    2  501    0 -0.24835260288E+02 -0.66084323992E+02 -0.90303297401E+02  0.20752738025E+03  0.17300000000E+03 0.  1.
         -6    1    1    2    0  502  0.24835260288E+02  0.66084323992E+02  0.93931392935E+02  0.20913162030E+03  0.17300000000E+03 0.  1.
<mgrwt>
<rscale>  2 0.18685001E+03</rscale>
<asrwt>0</asrwt>
<pdfrwt beam="1">  1       21 0.32329777E-01 0.18685001E+03</pdfrwt>
<pdfrwt beam="2">  1       21 0.31771608E-01 0.18685001E+03</pdfrwt>
<totfact> 0.87879206E+04</totfact>
</mgrwt>
</event>
<event>
 4    1  0.3935877E+000  0.2542269E+03  0.7546771E-02  0.1110662E+00
         21   -1    0    0  501  502  0.00000000000E+00  0.00000000000E+00  0.93194700037E+02  0.93194700037E+02  0.00000000000E+00 0.  1.
         21   -1    0    0  502  503 -0.00000000000E+00 -0.00000000000E+00 -0.81915985695E+03  0.81915985695E+03  0.00000000000E+00 0. -1.
          6    1    1    2  501    0  0.13497888879E+03  0.12838621540E+03 -0.18432031374E+03  0.31401480663E+03  0.17300000000E+03 0.  1.
         -6    1    1    2    0  503 -0.13497888879E+03 -0.12838621540E+03 -0.54164484317E+03  0.59833975036E+03  0.17300000000E+03 0. -1.
<mgrwt>
<rscale>  2 0.25422691E+03</rscale>
<asrwt>0</asrwt>
<pdfrwt beam="1">  1       21 0.14337646E-01 0.25422691E+03</pdfrwt>
<pdfrwt beam="2">  1       21 0.12602460E+00 0.25422691E+03</pdfrwt>
<totfact> 0.19200044E+04</totfact>
</mgrwt>
</event>
<event>
 4    1  0.3935877E+000  0.1779626E+03  0.7546771E-02  0.1169790E+00
         21   -1    0    0  501  502  0.00000000000E+00  0.00000000000E+00  0.18890972753E+03  0.18890972753E+03  0.00000000000E+00 0.  1.
         21   -1    0    0  502  503 -0.00000000000E+00 -0.00000000000E+00 -0.35117994314E+03  0.35117994314E+03  0.00000000000E+00 0.  1.
          6    1    1    2  501    0  0.25072822513E+02  0.33362454186E+02  0.11408501837E+03  0.21139084937E+03  0.17300000000E+03 0.  1.
         -6    1    1    2    0  503 -0.25072822513E+02 -0.33362454186E+02 -0.27635523399E+03  0.32869882131E+03  0.17300000000E+03 0.  1.
<mgrwt>
<rscale>  2 0.17796264E+03</rscale>
<asrwt>0</asrwt>
<pdfrwt beam="1">  1       21 0.29063035E-01 0.17796264E+03</pdfrwt>
<pdfrwt beam="2">  1       21 0.54027683E-01 0.17796264E+03</pdfrwt>
<totfact> 0.36991599E+04</totfact>
</mgrwt>
</event>
<event>
 4    1  0.3935877E+000  0.1888852E+03  0.7546771E-02  0.1159471E+00
         21   -1    0    0  503  502  0.00000000000E+00  0.00000000000E+00  0.22135575633E+03  0.22135575633E+03  0.00000000000E+00 0. -1.
         21   -1    0    0  501  503 -0.00000000000E+00 -0.00000000000E+00 -0.17804826239E+03  0.17804826239E+03  0.00000000000E+00 0. -1.
          6    1    1    2  501    0  0.35401459759E+02  0.67047340715E+02 -0.39818414880E+02  0.19303656497E+03  0.17300000000E+03 0. -1.
         -6    1    1    2    0  502 -0.35401459759E+02 -0.67047340715E+02  0.83125908818E+02  0.20636745375E+03  0.17300000000E+03 0. -1.
<mgrwt>
<rscale>  2 0.18888517E+03</rscale>
<asrwt>0</asrwt>
<pdfrwt beam="1">  1       21 0.34054732E-01 0.18888517E+03</pdfrwt>
<pdfrwt beam="2">  1       21 0.27392040E-01 0.18888517E+03</pdfrwt>
<totfact> 0.10575416E+05</totfact>
</mgrwt>
</event>
<event>
 4    1  0.3935877E+000  0.2762442E+03  0.7546771E-02  0.1097758E+00
         21   -1    0    0  501  502  0.00000000000E+00  0.00000000000E+00  0.21760938278E+04  0.21760938278E+04  0.00000000000E+00 0. -1.
         21   -1    0    0  502  503 -0.00000000000E+00 -0.00000000000E+00 -0.62693135389E+02  0.62693135389E+02  0.00000000000E+00 0. -1.
          6    1    1    2  501    0 -0.12396769408E+03 -0.17610749721E+03  0.17997648203E+04  0.18208416318E+04  0.17300000000E+03 0. -1.
         -6    1    1    2    0  503  0.12396769408E+03  0.17610749721E+03  0.31363587212E+03  0.41794533139E+03  0.17300000000E+03 0. -1.
<mgrwt>
<rscale>  2 0.27624417E+03</rscale>
<asrwt>0</asrwt>
<pdfrwt beam="1">  1       21 0.33478361E+00 0.27624417E+03</pdfrwt>
<pdfrwt beam="2">  1       21 0.96450994E-02 0.27624417E+03</pdfrwt>
<totfact> 0.16895185E+03</totfact>
</mgrwt>
</event>
<event>
 4    1  0.3935877E+000  0.1967927E+03  0.7546771E-02  0.1152474E+00
         21   -1    0    0  503  502  0.00000000000E+00  0.00000000000E+00  0.80428037183E+03  0.80428037183E+03  0.00000000000E+00 0.  1.
         21   -1    0    0  501  503 -0.00000000000E+00 -0.00000000000E+00 -0.40234025057E+03  0.40234025057E+03  0.00000000000E+00 0.  1.
          6    1    1    2  501    0 -0.30856305062E+02  0.88579063044E+02 -0.36508847845E+03  0.41474927254E+03  0.17300000000E+03 0.  1.
         -6    1    1    2    0  502  0.30856305062E+02 -0.88579063044E+02  0.76702859971E+03  0.79187134987E+03  0.17300000000E+03 0.  1.
<mgrwt>
<rscale>  2 0.19679269E+03</rscale>
<asrwt>0</asrwt>
<pdfrwt beam="1">  1       21 0.12373544E+00 0.19679269E+03</pdfrwt>
<pdfrwt beam="2">  1       21 0.61898500E-01 0.19679269E+03</pdfrwt>
<totfact> 0.11807840E+03</totfact>
</mgrwt>
</event>
<event>
 4    1  0.3935877E+000  0.1930253E+03  0.7546771E-02  0.1155761E+00
         21   -1    0    0  501  502  0.00000000000E+00  0.00000000000E+00  0.46155497883E+03  0.46155497883E+03  0.00000000000E+00 0.  1.
         21   -1    0    0  502  503 -0.00000000000E+00 -0.00000000000E+00 -0.17366935364E+03  0.17366935364E+03  0.00000000000E+00 0.  1.
          6    1    1    2  501    0  0.79550824857E+02 -0.31645386889E+02  0.37629585579E+03  0.42291528150E+03  0.17300000000E+03 0.  1.
         -6    1    1    2    0  503 -0.79550824857E+02  0.31645386889E+02 -0.88410230605E+02  0.21230905097E+03  0.17300000000E+03 0.  1.
<mgrwt>
<rscale>  2 0.19302529E+03</rscale>
<asrwt>0</asrwt>
<pdfrwt beam="1">  1       21 0.71008458E-01 0.19302529E+03</pdfrwt>
<pdfrwt beam="2">  1       21 0.26718362E-01 0.19302529E+03</pdfrwt>
<totfact> 0.23938113E+04</totfact>
</mgrwt>
</event>
<event>
 4    1  0.3935877E+000  0.2035967E+03  0.7546771E-02  0.1146739E+00
         21   -1    0    0  501  502  0.00000000000E+00  0.00000000000E+00  0.12901148141E+03  0.12901148141E+03  0.00000000000E+00 0. -1.
         21   -1    0    0  502  503 -0.00000000000E+00 -0.00000000000E+00 -0.32151802082E+03  0.32151802082E+03  0.00000000000E+00 0.  1.
          6    1    1    2  501    0 -0.51465410077E+02 -0.94201531348E+02 -0.10209541643E+03  0.22776103925E+03  0.17300000000E+03 0.  1.
         -6    1    1    2    0  503  0.51465410077E+02  0.94201531348E+02 -0.90411122986E+02  0.22276846299E+03  0.17300000000E+03 0.  1.
<mgrwt>
<rscale>  2 0.20359670E+03</rscale>
<asrwt>0</asrwt>
<pdfrwt beam="1">  1       21 0.19847920E-01 0.20359670E+03</pdfrwt>
<pdfrwt beam="2">  1       21 0.49464311E-01 0.20359670E+03</pdfrwt>
<totfact> 0.90828586E+04</totfact>
</mgrwt>
</event>
<event>
 4    1  0.3935877E+000  0.2580451E+03  0.7546771E-02  0.1108323E+00
         21   -1    0    0  501  502  0.00000000000E+00  0.00000000000E+00  0.33620939577E+03  0.33620939577E+03  0.00000000000E+00 0.  1.
         21   -1    0    0  502  503 -0.00000000000E+00 -0.00000000000E+00 -0.43168322382E+03  0.43168322382E+03  0.00000000000E+00 0.  1.
          6    1    1    2  501    0  0.60012849039E+02  0.18181513585E+03  0.23472012850E+03  0.34882778616E+03  0.17300000000E+03 0.  1.
         -6    1    1    2    0  503 -0.60012849039E+02 -0.18181513585E+03 -0.33019395655E+03  0.41906483343E+03  0.17300000000E+03 0.  1.
<mgrwt>
<rscale>  2 0.25804512E+03</rscale>
<asrwt>0</asrwt>
<pdfrwt beam="1">  1       21 0.51724523E-01 0.25804512E+03</pdfrwt>
<pdfrwt beam="2">  1       21 0.66412803E-01 0.25804512E+03</pdfrwt>
<totfact> 0.70745239E+03</totfact>
</mgrwt>
</event>
<event>
 4    1  0.3935877E+000  0.1826442E+03  0.7546771E-02  0.1165268E+00
         21   -1    0    0  503  502  0.00000000000E+00  0.00000000000E+00  0.12614804377E+03  0.12614804377E+03  0.00000000000E+00 0. -1.
         21   -1    0    0  501  503 -0.00000000000E+00 -0.00000000000E+00 -0.58160174783E+03  0.58160174783E+03  0.00000000000E+00 0. -1.
          6    1    1    2  501    0  0.36814845255E+02  0.45547630170E+02 -0.48904857269E+03  0.52204159403E+03  0.17300000000E+03 0. -1.
         -6    1    1    2    0  502 -0.36814845255E+02 -0.45547630170E+02  0.33594868640E+02  0.18570819757E+03  0.17300000000E+03 0. -1.
<mgrwt>
<rscale>  2 0.18264424E+03</rscale>
<asrwt>0</asrwt>
<pdfrwt beam="1">  1       21 0.19407391E-01 0.18264424E+03</pdfrwt>
<pdfrwt beam="2">  1       21 0.89477193E-01 0.18264424E+03</pdfrwt>
<totfact> 0.26147709E+04</totfact>
</mgrwt>
</event>
<event>
 4    1  0.3935877E+000  0.2633038E+03  0.7546771E-02  0.1105174E+00
         21   -1    0    0  501  502  0.00000000000E+00  0.00000000000E+00  0.85319665348E+03  0.85319665348E+03  0.00000000000E+00 0.  1.
         21   -1    0    0  502  503 -0.00000000000E+00 -0.00000000000E+00 -0.81774596523E+02  0.81774596523E+02  0.00000000000E+00 0. -1.
          6    1    1    2  501    0  0.88703791458E+02 -0.17757115232E+03  0.34854707238E+03  0.43682254797E+03  0.17300000000E+03 0. -1.
         -6    1    1    2    0  503 -0.88703791458E+02  0.17757115232E+03  0.42287498458E+03  0.49814870204E+03  0.17300000000E+03 0.  1.
<mgrwt>
<rscale>  2 0.26330377E+03</rscale>
<asrwt>0</asrwt>
<pdfrwt beam="1">  1       21 0.13126102E+00 0.26330377E+03</pdfrwt>
<pdfrwt beam="2">  1       21 0.12580708E-01 0.26330377E+03</pdfrwt>
<totfact> 0.21854752E+04</totfact>
</mgrwt>
</event>
<event>
 4    1  0.3935877E+000  0.2154930E+03  0.7546771E-02  0.1137288E+00
         21   -1    0    0  501  502  0.00000000000E+00  0.00000000000E+00  0.62552251951E+02  0.62552251951E+02  0.00000000000E+00 0.  1.
         21   -1    0    0  502  503 -0.00000000000E+00 -0.00000000000E+00 -0.80166499064E+03  0.80166499064E+03  0.00000000000E+00 0.  1.
          6    1    1    2  501    0  0.11726318937E+03  0.52512742029E+02 -0.25204327858E+03  0.33160678210E+03  0.17300000000E+03 0.  1.
         -6    1    1    2    0  503 -0.11726318937E+03 -0.52512742029E+02 -0.48706946011E+03  0.53261046049E+03  0.17300000000E+03 0.  1.
<mgrwt>
<rscale>  2 0.21549302E+03</rscale>
<asrwt>0</asrwt>
<pdfrwt beam="1">  1       21 0.96234227E-02 0.21549302E+03</pdfrwt>
<pdfrwt beam="2">  1       21 0.12333308E+00 0.21549302E+03</pdfrwt>
<totfact> 0.42306024E+04</totfact>
</mgrwt>
</event>
<event>
 4    1  0.3935877E+000  0.2536136E+03  0.7546771E-02  0.1111042E+00
         21   -1    0    0  503  502  0.00000000000E+00  0.00000000000E+00  0.72292355336E+03  0.72292355336E+03  0.00000000000E+00 0.  1.
         21   -1    0    0  501  503 -0.00000000000E+00 -0.00000000000E+00 -0.98150820493E+02  0.98150820493E+02  0.00000000000E+00 0.  1.
          6    1    1    2  501    0  0.14285074551E+03 -0.11825617596E+03  0.18684059016E+03  0.31500676941E+03  0.17300000000E+03 0.  1.
         -6    1    1    2    0  502 -0.14285074551E+03  0.11825617596E+03  0.43793214271E+03  0.50606760444E+03  0.17300000000E+03 0.  1.
<mgrwt>
<rscale>  2 0.25361360E+03</rscale>
<asrwt>0</asrwt>
<pdfrwt beam="1">  1       21 0.11121900E+00 0.25361360E+03</pdfrwt>
<pdfrwt beam="2">  1       21 0.15100127E-01 0.25361360E+03</pdfrwt>
<totfact> 0.23833186E+04</totfact>
</mgrwt>
</event>
<event>
 4    1  0.3935877E+000  0.2286538E+03  0.7546771E-02  0.1127591E+00
         21   -1    0    0  501  502  0.00000000000E+00  0.00000000000E+00  0.31532189092E+02  0.31532189092E+02  0.00000000000E+00 0. -1.
         21   -1    0    0  502  503 -0.00000000000E+00 -0.00000000000E+00 -0.21455953848E+04  0.21455953848E+04  0.00000000000E+00 0. -1.
          6    1    1    2  501    0 -0.14898094515E+03 -0.12578937634E+02 -0.53813724940E+03  0.58470013758E+03  0.17300000000E+03 0. -1.
         -6    1    1    2    0  503  0.14898094515E+03  0.12578937634E+02 -0.15759259463E+04  0.15924274364E+04  0.17300000000E+03 0. -1.
<mgrwt>
<rscale>  2 0.22865378E+03</rscale>
<asrwt>0</asrwt>
<pdfrwt beam="1">  1       21 0.48511053E-02 0.22865378E+03</pdfrwt>
<pdfrwt beam="2">  1       21 0.33009165E+00 0.22865378E+03</pdfrwt>
<totfact> 0.62199729E+03</totfact>
</mgrwt>
</event>
<event>
 4    1  0.3935877E+000  0.2265560E+03  0.7546771E-02  0.1129088E+00
         21   -1    0    0  503  502  0.00000000000E+00  0.00000000000E+00  0.87374852350E+03  0.87374852350E+03  0.00000000000E+00 0.  1.
         21   -1    0    0  501  503 -0.00000000000E+00 -0.00000000000E+00 -0.12123478521E+04  0.12123478521E+04  0.00000000000E+00 0. -1.
          6    1    1    2  501    0 -0.35399178392E+02  0.14193491658E+03 -0.11867637020E+04  0.12081952270E+04  0.17300000000E+03 0. -1.
         -6    1    1    2    0  502  0.35399178392E+02 -0.14193491658E+03  0.84816437336E+03  0.87790114855E+03  0.17300000000E+03 0.  1.
<mgrwt>
<rscale>  2 0.22655600E+03</rscale>
<asrwt>0</asrwt>
<pdfrwt beam="1">  1       21 0.13442285E+00 0.22655600E+03</pdfrwt>
<pdfrwt beam="2">  1       21 0.18651505E+00 0.22655600E+03</pdfrwt>
<totfact> 0.62280459E+01</totfact>
</mgrwt>
</event>
<event>
 4    1  0.3935877E+000  0.1805191E+03  0.7546771E-02  0.1167302E+00
         21   -1    0    0  503  502  0.00000000000E+00  0.00000000000E+00  0.13228273533E+04  0.13228273533E+04  0.00000000000E+00 0. -1.
         21   -1    0    0  501  503 -0.00000000000E+00 -0.00000000000E+00 -0.63153071970E+02  0.63153071970E+02  0.00000000000E+00 0. -1.
          6    1    1    2  501    0  0.14819980960E+01 -0.51535822582E+02  0.88627934208E+02  0.20110208365E+03  0.17300000000E+03 0. -1.
         -6    1    1    2    0  502 -0.14819980960E+01  0.51535822582E+02  0.11710463472E+04  0.11848783416E+04  0.17300000000E+03 0. -1.
<mgrwt>
<rscale>  2 0.18051908E+03</rscale>
<asrwt>0</asrwt>
<pdfrwt beam="1">  1       21 0.20351188E+00 0.18051908E+03</pdfrwt>
<pdfrwt beam="2">  1       21 0.97158582E-02 0.18051908E+03</pdfrwt>
<totfact> 0.11000125E+04</totfact>
</mgrwt>
</event>
<event>
 4    1  0.3935877E+000  0.2153530E+03  0.7546771E-02  0.1137396E+00
         21   -1    0    0  501  502  0.00000000000E+00  0.00000000000E+00  0.21700916126E+03  0.21700916126E+03  0.00000000000E+00 0. -1.
         21   -1    0    0  502  503 -0.00000000000E+00 -0.00000000000E+00 -0.24738417784E+03  0.24738417784E+03  0.00000000000E+00 0. -1.
          6    1    1    2  501    0  0.11469875889E+03 -0.57376855843E+02  0.70481169167E+02  0.22659325692E+03  0.17300000000E+03 0. -1.
         -6    1    1    2    0  503 -0.11469875889E+03  0.57376855843E+02 -0.10085618575E+03  0.23780008217E+03  0.17300000000E+03 0. -1.
<mgrwt>
<rscale>  2 0.21535299E+03</rscale>
<asrwt>0</asrwt>
<pdfrwt beam="1">  1       21 0.33386025E-01 0.21535299E+03</pdfrwt>
<pdfrwt beam="2">  1       21 0.38059104E-01 0.21535299E+03</pdfrwt>
<totfact> 0.56924182E+04</totfact>
</mgrwt>
</event>
<event>
 4    1  0.3935877E+000  0.3121411E+03  0.7546771E-02  0.1079324E+00
         21   -1    0    0  503  502  0.00000000000E+00  0.00000000000E+00  0.67242810994E+03  0.67242810994E+03  0.00000000000E+00 0.  1.
         21   -1    0    0  501  503 -0.00000000000E+00 -0.00000000000E+00 -0.26559414983E+03  0.26559414983E+03  0.00000000000E+00 0. -1.
          6    1    1    2  501    0  0.20624862408E+03 -0.15800174027E+03 -0.11275579179E+03  0.33188237893E+03  0.17300000000E+03 0. -1.
         -6    1    1    2    0  502 -0.20624862408E+03  0.15800174027E+03  0.51958975189E+03  0.60613988083E+03  0.17300000000E+03 0.  1.
<mgrwt>
<rscale>  2 0.31214107E+03</rscale>
<asrwt>0</asrwt>
<pdfrwt beam="1">  1       21 0.10345048E+00 0.31214107E+03</pdfrwt>
<pdfrwt beam="2">  1       21 0.40860639E-01 0.31214107E+03</pdfrwt>
<totfact> 0.40414976E+03</totfact>
</mgrwt>
</event>
<event>
 4    1  0.3935877E+000  0.1838937E+03  0.7546771E-02  0.1164087E+00
         21   -1    0    0  503  502  0.00000000000E+00  0.00000000000E+00  0.27657639378E+02  0.27657639378E+02  0.00000000000E+00 0. -1.
         21   -1    0    0  501  503 -0.00000000000E+00 -0.00000000000E+00 -0.12356594389E+04  0.12356594389E+04  0.00000000000E+00 0. -1.
          6    1    1    2  501    0 -0.14703856907E+02 -0.60594515690E+02 -0.66869799593E+03  0.69352282479E+03  0.17300000000E+03 0. -1.
         -6    1    1    2    0  502  0.14703856907E+02  0.60594515690E+02 -0.53930380356E+03  0.56979425345E+03  0.17300000000E+03 0. -1.
<mgrwt>
<rscale>  2 0.18389372E+03</rscale>
<asrwt>0</asrwt>
<pdfrwt beam="1">  1       21 0.42550224E-02 0.18389372E+03</pdfrwt>
<pdfrwt beam="2">  1       21 0.19010141E+00 0.18389372E+03</pdfrwt>
<totfact> 0.55308793E+04</totfact>
</mgrwt>
</event>
<event>
 4    1  0.3935877E+000  0.2021459E+03  0.7546771E-02  0.1147941E+00
         21   -1    0    0  501  502  0.00000000000E+00  0.00000000000E+00  0.97580399655E+02  0.97580399655E+02  0.00000000000E+00 0. -1.
         21   -1    0    0  502  503 -0.00000000000E+00 -0.00000000000E+00 -0.49773113194E+03  0.49773113194E+03  0.00000000000E+00 0. -1.
          6    1    1    2  501    0 -0.70458427740E+02  0.77262992326E+02 -0.81513323845E+02  0.21796188196E+03  0.17300000000E+03 0. -1.
         -6    1    1    2    0  503  0.70458427740E+02 -0.77262992326E+02 -0.31863740844E+03  0.37734964964E+03  0.17300000000E+03 0. -1.
<mgrwt>
<rscale>  2 0.20214589E+03</rscale>
<asrwt>0</asrwt>
<pdfrwt beam="1">  1       21 0.15012369E-01 0.20214589E+03</pdfrwt>
<pdfrwt beam="2">  1       21 0.76574020E-01 0.20214589E+03</pdfrwt>
<totfact> 0.59179695E+04</totfact>
</mgrwt>
</event>
<event>
 4    1  0.3935877E+000  0.3602697E+03  0.7546771E-02  0.1058477E+00
         21   -1    0    0  501  502  0.00000000000E+00  0.00000000000E+00  0.11166220090E+04  0.11166220090E+04  0.00000000000E+00 0.  1.
         21   -1    0    0  502  503 -0.00000000000E+00 -0.00000000000E+00 -0.13054835776E+03  0.13054835776E+03  0.00000000000E+00 0. -1.
          6    1    1    2  501    0  0.13157505263E+03  0.28732084589E+03  0.69949425609E+03  0.78682048604E+03  0.17300000000E+03 0.  1.
         -6    1    1    2    0  503 -0.13157505263E+03 -0.28732084589E+03  0.28657939514E+03  0.46034988071E+03  0.17300000000E+03 0. -1.
<mgrwt>
<rscale>  2 0.36026971E+03</rscale>
<asrwt>0</asrwt>
<pdfrwt beam="1">  1       21 0.17178800E+00 0.36026971E+03</pdfrwt>
<pdfrwt beam="2">  1       21 0.20084363E-01 0.36026971E+03</pdfrwt>
<totfact> 0.42583365E+03</totfact>
</mgrwt>
</event>
<event>
 4    1  0.3935877E+000  0.3109094E+03  0.7546771E-02  0.1079911E+00
         21   -1    0    0  503  502  0.00000000000E+00  0.00000000000E+00  0.28900117763E+03  0.28900117763E+03  0.00000000000E+00 0. -1.
         21   -1    0    0  501  503 -0.00000000000E+00 -0.00000000000E+00 -0.35839698853E+03  0.35839698853E+03  0.00000000000E+00 0.  1.
          6    1    1    2  501    0 -0.31703962883E+02 -0.25637958252E+03 -0.11832128057E+03  0.33266282785E+03  0.17300000000E+03 0.  1.
         -6    1    1    2    0  502  0.31703962883E+02  0.25637958252E+03  0.48925469669E+02  0.31473533831E+03  0.17300000000E+03 0. -1.
<mgrwt>
<rscale>  2 0.31090936E+03</rscale>
<asrwt>0</asrwt>
<pdfrwt beam="1">  1       21 0.44461720E-01 0.31090936E+03</pdfrwt>
<pdfrwt beam="2">  1       21 0.55137998E-01 0.31090936E+03</pdfrwt>
<totfact> 0.14177519E+04</totfact>
</mgrwt>
</event>
<event>
 4    1  0.3935877E+000  0.2912848E+03  0.7546771E-02  0.1089680E+00
         21   -1    0    0  503  502  0.00000000000E+00  0.00000000000E+00  0.36111295736E+03  0.36111295736E+03  0.00000000000E+00 0.  1.
         21   -1    0    0  501  503 -0.00000000000E+00 -0.00000000000E+00 -0.31194981155E+03  0.31194981155E+03  0.00000000000E+00 0. -1.
          6    1    1    2  501    0  0.67843015821E+02 -0.22431042797E+03 -0.14260517437E+03  0.32431940838E+03  0.17300000000E+03 0. -1.
         -6    1    1    2    0  502 -0.67843015821E+02  0.22431042797E+03  0.19176832018E+03  0.34874336054E+03  0.17300000000E+03 0.  1.
<mgrwt>
<rscale>  2 0.29128481E+03</rscale>
<asrwt>0</asrwt>
<pdfrwt beam="1">  1       21 0.55555839E-01 0.29128481E+03</pdfrwt>
<pdfrwt beam="2">  1       21 0.47992279E-01 0.29128481E+03</pdfrwt>
<totfact> 0.11997192E+04</totfact>
</mgrwt>
</event>
<event>
 4    1  0.3935877E+000  0.2267494E+03  0.7546771E-02  0.1128949E+00
         21   -1    0    0  503  502  0.00000000000E+00  0.00000000000E+00  0.44265980255E+03  0.44265980255E+03  0.00000000000E+00 0.  1.
         21   -1    0    0  501  503 -0.00000000000E+00 -0.00000000000E+00 -0.29340393069E+03  0.29340393069E+03  0.00000000000E+00 0.  1.
          6    1    1    2  501    0  0.13893389853E+03 -0.46729696628E+02 -0.21142697684E+03  0.31002686858E+03  0.17300000000E+03 0.  1.
         -6    1    1    2    0  502 -0.13893389853E+03  0.46729696628E+02  0.36068284870E+03  0.42603686466E+03  0.17300000000E+03 0.  1.
<mgrwt>
<rscale>  2 0.22674941E+03</rscale>
<asrwt>0</asrwt>
<pdfrwt beam="1">  1       21 0.68101508E-01 0.22674941E+03</pdfrwt>
<pdfrwt beam="2">  1       21 0.45139066E-01 0.22674941E+03</pdfrwt>
<totfact> 0.90593904E+03</totfact>
</mgrwt>
</event>
<event>
 4    1  0.3935877E+000  0.1771624E+03  0.7546771E-02  0.1170578E+00
         21   -1    0    0  503  502  0.00000000000E+00  0.00000000000E+00  0.86902067890E+02  0.86902067890E+02  0.00000000000E+00 0. -1.
         21   -1    0    0  501  503 -0.00000000000E+00 -0.00000000000E+00 -0.66277215041E+03  0.66277215041E+03  0.00000000000E+00 0. -1.
          6    1    1    2  501    0  0.32391898698E+02  0.20206338064E+02 -0.54079307044E+03  0.56907264584E+03  0.17300000000E+03 0. -1.
         -6    1    1    2    0  502 -0.32391898698E+02 -0.20206338064E+02 -0.35077012074E+02  0.18060157246E+03  0.17300000000E+03 0. -1.
<mgrwt>
<rscale>  2 0.17716244E+03</rscale>
<asrwt>0</asrwt>
<pdfrwt beam="1">  1       21 0.13369549E-01 0.17716244E+03</pdfrwt>
<pdfrwt beam="2">  1       21 0.10196495E+00 0.17716244E+03</pdfrwt>
<totfact> 0.38194600E+04</totfact>
</mgrwt>
</event>
<event>
 4    1  0.3935877E+000  0.2465269E+03  0.7546771E-02  0.1115520E+00
         21   -1    0    0  501  502  0.00000000000E+00  0.00000000000E+00  0.13340900448E+03  0.13340900448E+03  0.00000000000E+00 0. -1.
         21   -1    0    0  502  503 -0.00000000000E+00 -0.00000000000E+00 -0.45557975354E+03  0.45557975354E+03  0.00000000000E+00 0. -1.
          6    1    1    2  501    0 -0.16680905002E+03  0.54965925097E+02 -0.16312985732E+03  0.29561268992E+03  0.17300000000E+03 0. -1.
         -6    1    1    2    0  503  0.16680905002E+03 -0.54965925097E+02 -0.15904089174E+03  0.29337606810E+03  0.17300000000E+03 0. -1.
<mgrwt>
<rscale>  2 0.24652690E+03</rscale>
<asrwt>0</asrwt>
<pdfrwt beam="1">  1       21 0.20524462E-01 0.24652690E+03</pdfrwt>
<pdfrwt beam="2">  1       21 0.70089192E-01 0.24652690E+03</pdfrwt>
<totfact> 0.39599817E+04</totfact>
</mgrwt>
</event>
<event>
 4    1  0.3935877E+000  0.1793000E+03  0.7546771E-02  0.1168482E+00
         21   -1    0    0  501  502  0.00000000000E+00  0.00000000000E+00  0.26315574606E+02  0.26315574606E+02  0.00000000000E+00 0.  1.
         21   -1    0    0  502  503 -0.00000000000E+00 -0.00000000000E+00 -0.12417784115E+04  0.12417784115E+04  0.00000000000E+00 0. -1.
          6    1    1    2  501    0  0.27923740065E+02  0.37944187785E+02 -0.52701285458E+03  0.55667858369E+03  0.17300000000E+03 0.  1.
         -6    1    1    2    0  503 -0.27923740065E+02 -0.37944187785E+02 -0.68844998229E+03  0.71141540239E+03  0.17300000000E+03 0. -1.
<mgrwt>
<rscale>  2 0.17930002E+03</rscale>
<asrwt>0</asrwt>
<pdfrwt beam="1">  1       21 0.40485500E-02 0.17930002E+03</pdfrwt>
<pdfrwt beam="2">  1       21 0.19104283E+00 0.17930002E+03</pdfrwt>
<totfact> 0.59444751E+04</totfact>
</mgrwt>
</event>
<event>
 4    1  0.3935877E+000  0.2256146E+03  0.7546771E-02  0.1129765E+00
         21   -1    0    0  503  502  0.00000000000E+00  0.00000000000E+00  0.19733384417E+03  0.19733384417E+03  0.00000000000E+00 0. -1.
         21   -1    0    0  501  503 -0.00000000000E+00 -0.00000000000E+00 -0.57510640493E+03  0.57510640493E+03  0.00000000000E+00 0.  1.
          6    1    1    2  501    0  0.97385946402E+02  0.10718646332E+03 -0.47569912542E+03  0.52648990342E+03  0.17300000000E+03 0.  1.
         -6    1    1    2    0  502 -0.97385946402E+02 -0.10718646332E+03  0.97926564664E+02  0.24595034568E+03  0.17300000000E+03 0. -1.
<mgrwt>
<rscale>  2 0.22561463E+03</rscale>
<asrwt>0</asrwt>
<pdfrwt beam="1">  1       21 0.30359054E-01 0.22561463E+03</pdfrwt>
<pdfrwt beam="2">  1       21 0.88477906E-01 0.22561463E+03</pdfrwt>
<totfact> 0.11135038E+04</totfact>
</mgrwt>
</event>
<event>
 4    1  0.3935877E+000  0.2412602E+03  0.7546771E-02  0.1118956E+00
         21   -1    0    0  501  502  0.00000000000E+00  0.00000000000E+00  0.43292945210E+03  0.43292945210E+03  0.00000000000E+00 0.  1.
         21   -1    0    0  502  503 -0.00000000000E+00 -0.00000000000E+00 -0.32283623294E+03  0.32283623294E+03  0.00000000000E+00 0.  1.
          6    1    1    2  501    0  0.87688435919E+01  0.16793034687E+03  0.34371081707E+03  0.41993287533E+03  0.17300000000E+03 0.  1.
         -6    1    1    2    0  503 -0.87688435919E+01 -0.16793034687E+03 -0.23361759791E+03  0.33583280970E+03  0.17300000000E+03 0.  1.
<mgrwt>
<rscale>  2 0.24126022E+03</rscale>
<asrwt>0</asrwt>
<pdfrwt beam="1">  1       21 0.66604531E-01 0.24126022E+03</pdfrwt>
<pdfrwt beam="2">  1       21 0.49667113E-01 0.24126022E+03</pdfrwt>
<totfact> 0.77307307E+03</totfact>
</mgrwt>
</event>
<event>
 4    1  0.3935877E+000  0.2131744E+03  0.7546771E-02  0.1139077E+00
         21   -1    0    0  501  502  0.00000000000E+00  0.00000000000E+00  0.68303405257E+03  0.68303405257E+03  0.00000000000E+00 0.  1.
         21   -1    0    0  502  503 -0.00000000000E+00 -0.00000000000E+00 -0.69812718442E+02  0.69812718442E+02  0.00000000000E+00 0.  1.
          6    1    1    2  501    0 -0.26078780503E+02 -0.12179581907E+03  0.38821676355E+03  0.44289454709E+03  0.17300000000E+03 0.  1.
         -6    1    1    2    0  503  0.26078780503E+02  0.12179581907E+03  0.22500457057E+03  0.30995222392E+03  0.17300000000E+03 0.  1.
<mgrwt>
<rscale>  2 0.21317440E+03</rscale>
<asrwt>0</asrwt>
<pdfrwt beam="1">  1       21 0.10508216E+00 0.21317440E+03</pdfrwt>
<pdfrwt beam="2">  1       21 0.10740419E-01 0.21317440E+03</pdfrwt>
<totfact> 0.51604799E+04</totfact>
</mgrwt>
</event>
<event>
 4    1  0.3935877E+000  0.2255779E+03  0.7546771E-02  0.1129792E+00
         21   -1    0    0  503  502  0.00000000000E+00  0.00000000000E+00  0.12432874169E+04  0.12432874169E+04  0.00000000000E+00 0.  1.
         21   -1    0    0  501  503 -0.00000000000E+00 -0.00000000000E+00 -0.41417054169E+02  0.41417054169E+02  0.00000000000E+00 0. -1.
          6    1    1    2  501    0 -0.58247787710E+02 -0.13252760925E+03  0.53114010855E+03  0.57705735147E+03  0.17300000000E+03 0.  1.
         -6    1    1    2    0  502  0.58247787710E+02  0.13252760925E+03  0.67073025415E+03  0.70764711955E+03  0.17300000000E+03 0. -1.
<mgrwt>
<rscale>  2 0.22557786E+03</rscale>
<asrwt>0</asrwt>
<pdfrwt beam="1">  1       21 0.19127496E+00 0.22557786E+03</pdfrwt>
<pdfrwt beam="2">  1       21 0.63718554E-02 0.22557786E+03</pdfrwt>
<totfact> 0.26608736E+04</totfact>
</mgrwt>
</event>
<event>
 4    1  0.3935877E+000  0.1745105E+03  0.7546771E-02  0.1173224E+00
         21   -1    0    0  501  502  0.00000000000E+00  0.00000000000E+00  0.62399090722E+03  0.62399090722E+03  0.00000000000E+00 0.  1.
         21   -1    0    0  502  503 -0.00000000000E+00 -0.00000000000E+00 -0.17170486714E+03  0.17170486714E+03  0.00000000000E+00 0.  1.
          6    1    1    2  501    0 -0.21378683331E+02 -0.82387975101E+01  0.56273310541E+03  0.58917100557E+03  0.17300000000E+03 0.  1.
         -6    1    1    2    0  503  0.21378683331E+02  0.82387975101E+01 -0.11044706533E+03  0.20652476879E+03  0.17300000000E+03 0.  1.
<mgrwt>
<rscale>  2 0.17451053E+03</rscale>
<asrwt>0</asrwt>
<pdfrwt beam="1">  1       21 0.95998600E-01 0.17451053E+03</pdfrwt>
<pdfrwt beam="2">  1       21 0.26416134E-01 0.17451053E+03</pdfrwt>
<totfact> 0.12475339E+04</totfact>
</mgrwt>
</event>
<event>
 4    1  0.3935877E+000  0.1851458E+03  0.7546771E-02  0.1162914E+00
         21   -1    0    0  503  502  0.00000000000E+00  0.00000000000E+00  0.39781585294E+02  0.39781585294E+02  0.00000000000E+00 0.  1.
         21   -1    0    0  501  503 -0.00000000000E+00 -0.00000000000E+00 -0.90479192095E+03  0.90479192095E+03  0.00000000000E+00 0.  1.
          6    1    1    2  501    0  0.15601497454E+02  0.64082479893E+02 -0.53559915080E+03  0.56669693955E+03  0.17300000000E+03 0.  1.
         -6    1    1    2    0  502 -0.15601497454E+02 -0.64082479893E+02 -0.32941118485E+03  0.37787656670E+03  0.17300000000E+03 0.  1.
<mgrwt>
<rscale>  2 0.18514581E+03</rscale>
<asrwt>0</asrwt>
<pdfrwt beam="1">  1       21 0.61202445E-02 0.18514581E+03</pdfrwt>
<pdfrwt beam="2">  1       21 0.13919874E+00 0.18514581E+03</pdfrwt>
<totfact> 0.69478358E+04</totfact>
</mgrwt>
</event>
<event>
 4    1  0.3935877E+000  0.3333456E+03  0.7546771E-02  0.1069666E+00
         21   -1    0    0  501  502  0.00000000000E+00  0.00000000000E+00  0.49658201141E+03  0.49658201141E+03  0.00000000000E+00 0.  1.
         21   -1    0    0  502  503 -0.00000000000E+00 -0.00000000000E+00 -0.13823097301E+04  0.13823097301E+04  0.00000000000E+00 0. -1.
          6    1    1    2  501    0 -0.34240393181E+02 -0.28287428379E+03  0.41718848065E+03  0.53400888882E+03  0.17300000000E+03 0.  1.
         -6    1    1    2    0  503  0.34240393181E+02  0.28287428379E+03 -0.13029161994E+04  0.13448828527E+04  0.17300000000E+03 0. -1.
<mgrwt>
<rscale>  2 0.33334556E+03</rscale>
<asrwt>0</asrwt>
<pdfrwt beam="1">  1       21 0.76397232E-01 0.33334556E+03</pdfrwt>
<pdfrwt beam="2">  1       21 0.21266304E+00 0.33334556E+03</pdfrwt>
<totfact> 0.14708636E+02</totfact>
</mgrwt>
</event>
<event>
 4    1  0.3935877E+000  0.1799209E+03  0.7546771E-02  0.1167880E+00
         21   -1    0    0  501  502  0.00000000000E+00  0.00000000000E+00  0.50082742640E+03  0.50082742640E+03  0.00000000000E+00 0.  1.
         21   -1    0    0  502  503 -0.00000000000E+00 -0.00000000000E+00 -0.67368952711E+02  0.67368952711E+02  0.00000000000E+00 0. -1.
          6    1    1    2  501    0 -0.58224532306E+01 -0.49077960483E+02  0.27394875729E+03  0.32774909426E+03  0.17300000000E+03 0.  1.
         -6    1    1    2    0  503  0.58224532306E+01  0.49077960483E+02  0.15950971640E+03  0.24044728485E+03  0.17300000000E+03 0. -1.
<mgrwt>
<rscale>  2 0.17992095E+03</rscale>
<asrwt>0</asrwt>
<pdfrwt beam="1">  1       21 0.77050371E-01 0.17992095E+03</pdfrwt>
<pdfrwt beam="2">  1       21 0.10364455E-01 0.17992095E+03</pdfrwt>
<totfact> 0.11454990E+05</totfact>
</mgrwt>
</event>
<event>
 4    1  0.3935877E+000  0.1807994E+03  0.7546771E-02  0.1167032E+00
         21   -1    0    0  501  502  0.00000000000E+00  0.00000000000E+00  0.78796744081E+02  0.78796744081E+02  0.00000000000E+00 0. -1.
         21   -1    0    0  502  503 -0.00000000000E+00 -0.00000000000E+00 -0.42920399869E+03  0.42920399869E+03  0.00000000000E+00 0. -1.
          6    1    1    2  501    0  0.51971205828E+02  0.76429318242E+01 -0.12874489421E+03  0.22195420345E+03  0.17300000000E+03 0.  1.
         -6    1    1    2    0  503 -0.51971205828E+02 -0.76429318242E+01 -0.22166236039E+03  0.28604653932E+03  0.17300000000E+03 0.  1.
<mgrwt>
<rscale>  2 0.18079939E+03</rscale>
<asrwt>0</asrwt>
<pdfrwt beam="1">  1       21 0.12122576E-01 0.18079939E+03</pdfrwt>
<pdfrwt beam="2">  1       21 0.66031384E-01 0.18079939E+03</pdfrwt>
<totfact> 0.12187439E+05</totfact>
</mgrwt>
</event>
<event>
 4    1  0.3935877E+000  0.1922839E+03  0.7546771E-02  0.1156417E+00
         21   -1    0    0  503  502  0.00000000000E+00  0.00000000000E+00  0.62493108564E+03  0.62493108564E+03  0.00000000000E+00 0. -1.
         21   -1    0    0  501  503 -0.00000000000E+00 -0.00000000000E+00 -0.65310193331E+03  0.65310193331E+03  0.00000000000E+00 0. -1.
          6    1    1    2  501    0 -0.27202380436E+02  0.79398628665E+02 -0.62347119243E+03  0.65244880223E+03  0.17300000000E+03 0. -1.
         -6    1    1    2    0  502  0.27202380436E+02 -0.79398628665E+02  0.59530034477E+03  0.62558421672E+03  0.17300000000E+03 0. -1.
<mgrwt>
<rscale>  2 0.19228394E+03</rscale>
<asrwt>0</asrwt>
<pdfrwt beam="1">  1       21 0.96143244E-01 0.19228394E+03</pdfrwt>
<pdfrwt beam="2">  1       21 0.10047722E+00 0.19228394E+03</pdfrwt>
<totfact> 0.73147190E+02</totfact>
</mgrwt>
</event>
<event>
 4    1  0.3935877E+000  0.2658669E+03  0.7546771E-02  0.1103669E+00
         21   -1    0    0  503  502  0.00000000000E+00  0.00000000000E+00  0.40211626548E+03  0.40211626548E+03  0.00000000000E+00 0. -1.
         21   -1    0    0  501  503 -0.00000000000E+00 -0.00000000000E+00 -0.24060800228E+03  0.24060800228E+03  0.00000000000E+00 0.  1.
          6    1    1    2  501    0 -0.14601718396E+03 -0.13941006997E+03 -0.86051645633E+02  0.27944600791E+03  0.17300000000E+03 0.  1.
         -6    1    1    2    0  502  0.14601718396E+03  0.13941006997E+03  0.24755990883E+03  0.36327825985E+03  0.17300000000E+03 0. -1.
<mgrwt>
<rscale>  2 0.26586686E+03</rscale>
<asrwt>0</asrwt>
<pdfrwt beam="1">  1       21 0.61864041E-01 0.26586686E+03</pdfrwt>
<pdfrwt beam="2">  1       21 0.37016616E-01 0.26586686E+03</pdfrwt>
<totfact> 0.16402411E+04</totfact>
</mgrwt>
</event>
<event>
 4    1  0.3935877E+000  0.1753841E+03  0.7546771E-02  0.1172347E+00
         21   -1    0    0  501  502  0.00000000000E+00  0.00000000000E+00  0.41998701277E+02  0.41998701277E+02  0.00000000000E+00 0. -1.
         21   -1    0    0  502  503 -0.00000000000E+00 -0.00000000000E+00 -0.99100683366E+03  0.99100683366E+03  0.00000000000E+00 0.  1.
          6    1    1    2  501    0 -0.19960463388E+02  0.20788394826E+02 -0.21065245419E+03  0.27410588085E+03  0.17300000000E+03 0. -1.
         -6    1    1    2    0  503  0.19960463388E+02 -0.20788394826E+02 -0.73835567819E+03  0.75889965409E+03  0.17300000000E+03 0.  1.
<mgrwt>
<rscale>  2 0.17538409E+03</rscale>
<asrwt>0</asrwt>
<pdfrwt beam="1">  1       21 0.64613385E-02 0.17538409E+03</pdfrwt>
<pdfrwt beam="2">  1       21 0.15246259E+00 0.17538409E+03</pdfrwt>
<totfact> 0.50213606E+04</totfact>
</mgrwt>
</event>
<event>
 4    1  0.3935877E+000  0.1742541E+03  0.7546771E-02  0.1173483E+00
         21   -1    0    0  501  502  0.00000000000E+00  0.00000000000E+00  0.13921303162E+03  0.13921303162E+03  0.00000000000E+00 0.  1.
         21   -1    0    0  502  503 -0.00000000000E+00 -0.00000000000E+00 -0.26920493268E+03  0.26920493268E+03  0.00000000000E+00 0.  1.
          6    1    1    2  501    0  0.19029814809E+02 -0.85645566216E+01  0.23965105145E+02  0.17589431982E+03  0.17300000000E+03 0.  1.
         -6    1    1    2    0  503 -0.19029814809E+02  0.85645566216E+01 -0.15395700620E+03  0.23252364448E+03  0.17300000000E+03 0.  1.
<mgrwt>
<rscale>  2 0.17425408E+03</rscale>
<asrwt>0</asrwt>
<pdfrwt beam="1">  1       21 0.21417390E-01 0.17425408E+03</pdfrwt>
<pdfrwt beam="2">  1       21 0.41416143E-01 0.17425408E+03</pdfrwt>
<totfact> 0.11473922E+05</totfact>
</mgrwt>
</event>
<event>
 4    1  0.3935877E+000  0.2305619E+03  0.7546771E-02  0.1126245E+00
         21   -1    0    0  501  502  0.00000000000E+00  0.00000000000E+00  0.48520337894E+02  0.48520337894E+02  0.00000000000E+00 0.  1.
         21   -1    0    0  502  503 -0.00000000000E+00 -0.00000000000E+00 -0.11176161994E+04  0.11176161994E+04  0.00000000000E+00 0. -1.
          6    1    1    2  501    0  0.14424412742E+03 -0.49228205053E+02 -0.45270821673E+03  0.50803889021E+03  0.17300000000E+03 0.  1.
         -6    1    1    2    0  503 -0.14424412742E+03  0.49228205053E+02 -0.61638764476E+03  0.65809764707E+03  0.17300000000E+03 0. -1.
<mgrwt>
<rscale>  2 0.23056189E+03</rscale>
<asrwt>0</asrwt>
<pdfrwt beam="1">  1       21 0.74646685E-02 0.23056189E+03</pdfrwt>
<pdfrwt beam="2">  1       21 0.17194093E+00 0.23056189E+03</pdfrwt>
<totfact> 0.27321371E+04</totfact>
</mgrwt>
</event>
<event>
 4    1  0.3935877E+000  0.2100324E+03  0.7546771E-02  0.1141540E+00
         21   -1    0    0  501  502  0.00000000000E+00  0.00000000000E+00  0.12689845140E+04  0.12689845140E+04  0.00000000000E+00 0.  1.
         21   -1    0    0  502  503 -0.00000000000E+00 -0.00000000000E+00 -0.78651586960E+02  0.78651586960E+02  0.00000000000E+00 0.  1.
          6    1    1    2  501    0 -0.23892109443E+02  0.11667799954E+03  0.10985107737E+04  0.11184093653E+04  0.17300000000E+03 0.  1.
         -6    1    1    2    0  503  0.23892109443E+02 -0.11667799954E+03  0.91822153256E+02  0.22922673557E+03  0.17300000000E+03 0.  1.
<mgrwt>
<rscale>  2 0.21003235E+03</rscale>
<asrwt>0</asrwt>
<pdfrwt beam="1">  1       21 0.19522837E+00 0.21003235E+03</pdfrwt>
<pdfrwt beam="2">  1       21 0.12100245E-01 0.21003235E+03</pdfrwt>
<totfact> 0.82132011E+03</totfact>
</mgrwt>
</event>
<event>
 4    1  0.3935877E+000  0.2809797E+03  0.7546771E-02  0.1095155E+00
         21   -1    0    0  503  502  0.00000000000E+00  0.00000000000E+00  0.41097459736E+03  0.41097459736E+03  0.00000000000E+00 0. -1.
         21   -1    0    0  501  503 -0.00000000000E+00 -0.00000000000E+00 -0.50894826732E+03  0.50894826732E+03  0.00000000000E+00 0. -1.
          6    1    1    2  501    0  0.19233348493E+03 -0.10967413780E+03 -0.41190440000E+03  0.49861289661E+03  0.17300000000E+03 0. -1.
         -6    1    1    2    0  502 -0.19233348493E+03  0.10967413780E+03  0.31393073005E+03  0.42130996807E+03  0.17300000000E+03 0. -1.
<mgrwt>
<rscale>  2 0.28097969E+03</rscale>
<asrwt>0</asrwt>
<pdfrwt beam="1">  1       21 0.63226861E-01 0.28097969E+03</pdfrwt>
<pdfrwt beam="2">  1       21 0.78299733E-01 0.28097969E+03</pdfrwt>
<totfact> 0.31381940E+03</totfact>
</mgrwt>
</event>
<event>
 4    1  0.3935877E+000  0.2003326E+03  0.7546771E-02  0.1149459E+00
         21   -1    0    0  503  502  0.00000000000E+00  0.00000000000E+00  0.21331260079E+04  0.21331260079E+04  0.00000000000E+00 0.  1.
         21   -1    0    0  501  503 -0.00000000000E+00 -0.00000000000E+00 -0.18855859473E+02  0.18855859473E+02  0.00000000000E+00 0.  1.
          6    1    1    2  501    0  0.56612773328E+02 -0.83660842463E+02  0.11076871062E+04  0.11256570827E+04  0.17300000000E+03 0.  1.
         -6    1    1    2    0  502 -0.56612773328E+02  0.83660842463E+02  0.10065830422E+04  0.10263247846E+04  0.17300000000E+03 0.  1.
<mgrwt>
<rscale>  2 0.20033258E+03</rscale>
<asrwt>0</asrwt>
<pdfrwt beam="1">  1       21 0.32817304E+00 0.20033258E+03</pdfrwt>
<pdfrwt beam="2">  1       21 0.29009031E-02 0.20033258E+03</pdfrwt>
<totfact> 0.15567735E+04</totfact>
</mgrwt>
</event>
<event>
 4    1  0.3935877E+000  0.1908279E+03  0.7546771E-02  0.1157717E+00
         21   -1    0    0  501  502  0.00000000000E+00  0.00000000000E+00  0.36122075632E+02  0.36122075632E+02  0.00000000000E+00 0.  1.
         21   -1    0    0  502  503 -0.00000000000E+00 -0.00000000000E+00 -0.17997626122E+04  0.17997626122E+04  0.00000000000E+00 0.  1.
          6    1    1    2  501    0  0.70889433195E+02  0.38222690839E+02 -0.27302237616E+03  0.33310134151E+03  0.17300000000E+03 0.  1.
         -6    1    1    2    0  503 -0.70889433195E+02 -0.38222690839E+02 -0.14906181605E+04  0.15027833464E+04  0.17300000000E+03 0.  1.
<mgrwt>
<rscale>  2 0.19082790E+03</rscale>
<asrwt>0</asrwt>
<pdfrwt beam="1">  1       21 0.55572427E-02 0.19082790E+03</pdfrwt>
<pdfrwt beam="2">  1       21 0.27688654E+00 0.19082790E+03</pdfrwt>
<totfact> 0.10443975E+04</totfact>
</mgrwt>
</event>
<event>
 4    1  0.3935877E+000  0.2595486E+03  0.7546771E-02  0.1107415E+00
         21   -1    0    0  503  502  0.00000000000E+00  0.00000000000E+00  0.16000519994E+03  0.16000519994E+03  0.00000000000E+00 0.  1.
         21   -1    0    0  501  503 -0.00000000000E+00 -0.00000000000E+00 -0.52434203744E+03  0.52434203744E+03  0.00000000000E+00 0. -1.
          6    1    1    2  501    0  0.17524023588E+03  0.82020284985E+02 -0.33406032709E+03  0.42303873292E+03  0.17300000000E+03 0. -1.
         -6    1    1    2    0  502 -0.17524023588E+03 -0.82020284985E+02 -0.30276510407E+02  0.26130850446E+03  0.17300000000E+03 0. -1.
<mgrwt>
<rscale>  2 0.25954858E+03</rscale>
<asrwt>0</asrwt>
<pdfrwt beam="1">  1       21 0.24616185E-01 0.25954858E+03</pdfrwt>
<pdfrwt beam="2">  1       21 0.80668006E-01 0.25954858E+03</pdfrwt>
<totfact> 0.20309131E+04</totfact>
</mgrwt>
</event>
<event>
 4    1  0.3935877E+000  0.1751361E+03  0.7546771E-02  0.1172595E+00
         21   -1    0    0  503  502  0.00000000000E+00  0.00000000000E+00  0.56925143071E+02  0.56925143071E+02  0.00000000000E+00 0. -1.
         21   -1    0    0  501  503 -0.00000000000E+00 -0.00000000000E+00 -0.80432599388E+03  0.80432599388E+03  0.00000000000E+00 0. -1.
          6    1    1    2  501    0  0.25215040876E+02  0.10385932051E+02 -0.62111038922E+03  0.64532997875E+03  0.17300000000E+03 0. -1.
         -6    1    1    2    0  502 -0.25215040876E+02 -0.10385932051E+02 -0.12629046158E+03  0.21592115820E+03  0.17300000000E+03 0. -1.
<mgrwt>
<rscale>  2 0.17513614E+03</rscale>
<asrwt>0</asrwt>
<pdfrwt beam="1">  1       21 0.87577148E-02 0.17513614E+03</pdfrwt>
<pdfrwt beam="2">  1       21 0.12374245E+00 0.17513614E+03</pdfrwt>
<totfact> 0.50596784E+04</totfact>
</mgrwt>
</event>
<event>
 4    1  0.3935877E+000  0.1889343E+03  0.7546771E-02  0.1159426E+00
         21   -1    0    0  503  502  0.00000000000E+00  0.00000000000E+00  0.21432203653E+04  0.21432203653E+04  0.00000000000E+00 0.  1.
         21   -1    0    0  501  503 -0.00000000000E+00 -0.00000000000E+00 -0.29158926229E+02  0.29158926229E+02  0.00000000000E+00 0. -1.
          6    1    1    2  501    0 -0.75938167546E+02 -0.74067861570E+00  0.34575749167E+03  0.39401065588E+03  0.17300000000E+03 0. -1.
         -6    1    1    2    0  502  0.75938167546E+02  0.74067861570E+00  0.17683039474E+04  0.17783686356E+04  0.17300000000E+03 0.  1.
<mgrwt>
<rscale>  2 0.18893426E+03</rscale>
<asrwt>0</asrwt>
<pdfrwt beam="1">  1       21 0.32972609E+00 0.18893426E+03</pdfrwt>
<pdfrwt beam="2">  1       21 0.44859903E-02 0.18893426E+03</pdfrwt>
<totfact> 0.74602806E+03</totfact>
</mgrwt>
</event>
<event>
 4    1  0.3935877E+000  0.1998126E+03  0.7546771E-02  0.1149897E+00
         21   -1    0    0  501  502  0.00000000000E+00  0.00000000000E+00  0.57226326218E+02  0.57226326218E+02  0.00000000000E+00 0. -1.
         21   -1    0    0  502  503 -0.00000000000E+00 -0.00000000000E+00 -0.80653723006E+03  0.80653723006E+03  0.00000000000E+00 0. -1.
          6    1    1    2  501    0 -0.99683080482E+02  0.77036590972E+01 -0.21598274250E+03  0.29423393407E+03  0.17300000000E+03 0. -1.
         -6    1    1    2    0  503  0.99683080482E+02 -0.77036590972E+01 -0.53332816134E+03  0.56952962221E+03  0.17300000000E+03 0. -1.
<mgrwt>
<rscale>  2 0.19981257E+03</rscale>
<asrwt>0</asrwt>
<pdfrwt beam="1">  1       21 0.88040502E-02 0.19981257E+03</pdfrwt>
<pdfrwt beam="2">  1       21 0.12408265E+00 0.19981257E+03</pdfrwt>
<totfact> 0.49140419E+04</totfact>
</mgrwt>
</event>
<event>
 4    1  0.3935877E+000  0.2602898E+03  0.7546771E-02  0.1106969E+00
         21   -1    0    0  501  502  0.00000000000E+00  0.00000000000E+00  0.40448845260E+02  0.40448845260E+02  0.00000000000E+00 0.  1.
         21   -1    0    0  502  503 -0.00000000000E+00 -0.00000000000E+00 -0.17724055084E+04  0.17724055084E+04  0.00000000000E+00 0. -1.
          6    1    1    2  501    0 -0.22241895032E+02 -0.19320212325E+03 -0.65345765699E+03  0.70339012774E+03  0.17300000000E+03 0.  1.
         -6    1    1    2    0  503  0.22241895032E+02  0.19320212325E+03 -0.10784990061E+04  0.11094642259E+04  0.17300000000E+03 0. -1.
<mgrwt>
<rscale>  2 0.26028977E+03</rscale>
<asrwt>0</asrwt>
<pdfrwt beam="1">  1       21 0.62228996E-02 0.26028977E+03</pdfrwt>
<pdfrwt beam="2">  1       21 0.27267775E+00 0.26028977E+03</pdfrwt>
<totfact> 0.85538446E+03</totfact>
</mgrwt>
</event>
<event>
 4    1  0.3935877E+000  0.1890030E+03  0.7546771E-02  0.1159364E+00
         21   -1    0    0  501  502  0.00000000000E+00  0.00000000000E+00  0.77593215187E+02  0.77593215187E+02  0.00000000000E+00 0. -1.
         21   -1    0    0  502  503 -0.00000000000E+00 -0.00000000000E+00 -0.95793058558E+03  0.95793058558E+03  0.00000000000E+00 0. -1.
          6    1    1    2  501    0  0.36530425018E+02  0.66773262759E+02 -0.67019111777E+02  0.20053354312E+03  0.17300000000E+03 0. -1.
         -6    1    1    2    0  503 -0.36530425018E+02 -0.66773262759E+02 -0.81331825862E+03  0.83499025765E+03  0.17300000000E+03 0. -1.
<mgrwt>
<rscale>  2 0.18900302E+03</rscale>
<asrwt>0</asrwt>
<pdfrwt beam="1">  1       21 0.11937417E-01 0.18900302E+03</pdfrwt>
<pdfrwt beam="2">  1       21 0.14737395E+00 0.18900302E+03</pdfrwt>
<totfact> 0.18591350E+04</totfact>
</mgrwt>
</event>
<event>
 4    1  0.3935877E+000  0.2028935E+03  0.7546771E-02  0.1147320E+00
         21   -1    0    0  501  502  0.00000000000E+00  0.00000000000E+00  0.10019387542E+04  0.10019387542E+04  0.00000000000E+00 0. -1.
         21   -1    0    0  502  503 -0.00000000000E+00 -0.00000000000E+00 -0.42199385282E+02  0.42199385282E+02  0.00000000000E+00 0. -1.
          6    1    1    2  501    0 -0.10599355950E+03  0.14603980314E+01  0.39507358349E+03  0.44412712571E+03  0.17300000000E+03 0. -1.
         -6    1    1    2    0  503  0.10599355950E+03 -0.14603980314E+01  0.56466578546E+03  0.60001101381E+03  0.17300000000E+03 0. -1.
<mgrwt>
<rscale>  2 0.20289349E+03</rscale>
<asrwt>0</asrwt>
<pdfrwt beam="1">  1       21 0.15414440E+00 0.20289349E+03</pdfrwt>
<pdfrwt beam="2">  1       21 0.64922139E-02 0.20289349E+03</pdfrwt>
<totfact> 0.47619116E+04</totfact>
</mgrwt>
</event>
<event>
 4    1  0.3935877E+000  0.1793730E+03  0.7546771E-02  0.1168411E+00
         21   -1    0    0  501  502  0.00000000000E+00  0.00000000000E+00  0.13716956117E+03  0.13716956117E+03  0.00000000000E+00 0.  1.
         21   -1    0    0  502  503 -0.00000000000E+00 -0.00000000000E+00 -0.28775259288E+03  0.28775259288E+03  0.00000000000E+00 0.  1.
          6    1    1    2  501    0 -0.32048050176E+02 -0.34908383447E+02  0.16054574603E+02  0.18009003893E+03  0.17300000000E+03 0.  1.
         -6    1    1    2    0  503  0.32048050176E+02  0.34908383447E+02 -0.16663760632E+03  0.24483211512E+03  0.17300000000E+03 0.  1.
<mgrwt>
<rscale>  2 0.17937300E+03</rscale>
<asrwt>0</asrwt>
<pdfrwt beam="1">  1       21 0.21103009E-01 0.17937300E+03</pdfrwt>
<pdfrwt beam="2">  1       21 0.44269630E-01 0.17937300E+03</pdfrwt>
<totfact> 0.10280722E+05</totfact>
</mgrwt>
</event>
<event>
 4    1  0.3935877E+000  0.1975684E+03  0.7546771E-02  0.1151807E+00
         21   -1    0    0  503  502  0.00000000000E+00  0.00000000000E+00  0.55134690510E+03  0.55134690510E+03  0.00000000000E+00 0. -1.
         21   -1    0    0  501  503 -0.00000000000E+00 -0.00000000000E+00 -0.71321855191E+02  0.71321855191E+02  0.00000000000E+00 0. -1.
          6    1    1    2  501    0  0.24263972417E+02  0.92279673247E+02  0.21328512348E+03  0.29072980987E+03  0.17300000000E+03 0. -1.
         -6    1    1    2    0  502 -0.24263972417E+02 -0.92279673247E+02  0.26673992644E+03  0.33193895042E+03  0.17300000000E+03 0. -1.
<mgrwt>
<rscale>  2 0.19756841E+03</rscale>
<asrwt>0</asrwt>
<pdfrwt beam="1">  1       21 0.84822598E-01 0.19756841E+03</pdfrwt>
<pdfrwt beam="2">  1       21 0.10972593E-01 0.19756841E+03</pdfrwt>
<totfact> 0.82701036E+04</totfact>
</mgrwt>
</event>
<event>
 4    1  0.3935877E+000  0.1766801E+03  0.7546771E-02  0.1171055E+00
         21   -1    0    0  503  502  0.00000000000E+00  0.00000000000E+00  0.55076435919E+02  0.55076435919E+02  0.00000000000E+00 0. -1.
         21   -1    0    0  501  503 -0.00000000000E+00 -0.00000000000E+00 -0.60087513605E+03  0.60087513605E+03  0.00000000000E+00 0. -1.
          6    1    1    2  501    0 -0.26474234560E+02  0.24206750980E+02 -0.35103310813E+03  0.39298867019E+03  0.17300000000E+03 0.  1.
         -6    1    1    2    0  502  0.26474234560E+02 -0.24206750980E+02 -0.19476559200E+03  0.26296290179E+03  0.17300000000E+03 0.  1.
<mgrwt>
<rscale>  2 0.17668008E+03</rscale>
<asrwt>0</asrwt>
<pdfrwt beam="1">  1       21 0.84732978E-02 0.17668008E+03</pdfrwt>
<pdfrwt beam="2">  1       21 0.92442329E-01 0.17668008E+03</pdfrwt>
<totfact> 0.10785855E+05</totfact>
</mgrwt>
</event>
<event>
 4    1  0.3935877E+000  0.2074042E+03  0.7546771E-02  0.1143638E+00
         21   -1    0    0  503  502  0.00000000000E+00  0.00000000000E+00  0.63338520334E+02  0.63338520334E+02  0.00000000000E+00 0.  1.
         21   -1    0    0  501  503 -0.00000000000E+00 -0.00000000000E+00 -0.69993949396E+03  0.69993949396E+03  0.00000000000E+00 0.  1.
          6    1    1    2  501    0 -0.11439360957E+03 -0.12688667515E+01 -0.38406921209E+03  0.43649245997E+03  0.17300000000E+03 0.  1.
         -6    1    1    2    0  502  0.11439360957E+03  0.12688667515E+01 -0.25253176154E+03  0.32678555433E+03  0.17300000000E+03 0.  1.
<mgrwt>
<rscale>  2 0.20740421E+03</rscale>
<asrwt>0</asrwt>
<pdfrwt beam="1">  1       21 0.97443877E-02 0.20740421E+03</pdfrwt>
<pdfrwt beam="2">  1       21 0.10768300E+00 0.20740421E+03</pdfrwt>
<totfact> 0.57973076E+04</totfact>
</mgrwt>
</event>
<event>
 4    1  0.3935877E+000  0.1943825E+03  0.7546771E-02  0.1154567E+00
         21   -1    0    0  503  502  0.00000000000E+00  0.00000000000E+00  0.29241073925E+03  0.29241073925E+03  0.00000000000E+00 0. -1.
         21   -1    0    0  501  503 -0.00000000000E+00 -0.00000000000E+00 -0.13165996618E+03  0.13165996618E+03  0.00000000000E+00 0.  1.
          6    1    1    2  501    0 -0.77352326149E+02  0.43268600178E+02  0.51494868201E+02  0.20108773104E+03  0.17300000000E+03 0.  1.
         -6    1    1    2    0  502  0.77352326149E+02 -0.43268600178E+02  0.10925590487E+03  0.22298297440E+03  0.17300000000E+03 0. -1.
<mgrwt>
<rscale>  2 0.19438249E+03</rscale>
<asrwt>0</asrwt>
<pdfrwt beam="1">  1       21 0.44986267E-01 0.19438249E+03</pdfrwt>
<pdfrwt beam="2">  1       21 0.20255380E-01 0.19438249E+03</pdfrwt>
<totfact> 0.10681939E+05</totfact>
</mgrwt>
</event>
<event>
 4    1  0.3935877E+000  0.1855710E+03  0.7546771E-02  0.1162518E+00
         21   -1    0    0  503  502  0.00000000000E+00  0.00000000000E+00  0.74848087073E+02  0.74848087073E+02  0.00000000000E+00 0. -1.
         21   -1    0    0  501  503 -0.00000000000E+00 -0.00000000000E+00 -0.51395853431E+03  0.51395853431E+03  0.00000000000E+00 0. -1.
          6    1    1    2  501    0  0.22678726219E+02  0.63192256542E+02 -0.31487012312E+03  0.36548567735E+03  0.17300000000E+03 0.  1.
         -6    1    1    2    0  502 -0.22678726219E+02 -0.63192256542E+02 -0.12424032412E+03  0.22332094404E+03  0.17300000000E+03 0.  1.
<mgrwt>
<rscale>  2 0.18557097E+03</rscale>
<asrwt>0</asrwt>
<pdfrwt beam="1">  1       21 0.11515090E-01 0.18557097E+03</pdfrwt>
<pdfrwt beam="2">  1       21 0.79070545E-01 0.18557097E+03</pdfrwt>
<totfact> 0.89459631E+04</totfact>
</mgrwt>
</event>
<event>
 4    1  0.3935877E+000  0.1854340E+03  0.7546771E-02  0.1162645E+00
         21   -1    0    0  503  502  0.00000000000E+00  0.00000000000E+00  0.32275861414E+03  0.32275861414E+03  0.00000000000E+00 0.  1.
         21   -1    0    0  501  503 -0.00000000000E+00 -0.00000000000E+00 -0.28279117535E+03  0.28279117535E+03  0.00000000000E+00 0.  1.
          6    1    1    2  501    0 -0.65576213724E+02 -0.12510513162E+02 -0.21904857083E+03  0.28699830858E+03  0.17300000000E+03 0.  1.
         -6    1    1    2    0  502  0.65576213724E+02  0.12510513162E+02  0.25901600963E+03  0.31855148091E+03  0.17300000000E+03 0.  1.
<mgrwt>
<rscale>  2 0.18543396E+03</rscale>
<asrwt>0</asrwt>
<pdfrwt beam="1">  1       21 0.49655171E-01 0.18543396E+03</pdfrwt>
<pdfrwt beam="2">  1       21 0.43506335E-01 0.18543396E+03</pdfrwt>
<totfact> 0.19714565E+04</totfact>
</mgrwt>
</event>
<event>
 4    1  0.3935877E+000  0.3715953E+03  0.7546771E-02  0.1054085E+00
         21   -1    0    0  503  502  0.00000000000E+00  0.00000000000E+00  0.68913440519E+03  0.68913440519E+03  0.00000000000E+00 0. -1.
         21   -1    0    0  501  503 -0.00000000000E+00 -0.00000000000E+00 -0.21782249379E+03  0.21782249379E+03  0.00000000000E+00 0.  1.
          6    1    1    2  501    0 -0.19256847341E+03  0.26659223027E+03  0.10730093849E+03  0.38677710065E+03  0.17300000000E+03 0.  1.
         -6    1    1    2    0  502  0.19256847341E+03 -0.26659223027E+03  0.36401097291E+03  0.52017979833E+03  0.17300000000E+03 0. -1.
<mgrwt>
<rscale>  2 0.37159526E+03</rscale>
<asrwt>0</asrwt>
<pdfrwt beam="1">  1       21 0.10602068E+00 0.37159526E+03</pdfrwt>
<pdfrwt beam="2">  1       21 0.33511153E-01 0.37159526E+03</pdfrwt>
<totfact> 0.55369927E+03</totfact>
</mgrwt>
</event>
<event>
 4    1  0.3935877E+000  0.2077935E+03  0.7546771E-02  0.1143325E+00
         21   -1    0    0  501  502  0.00000000000E+00  0.00000000000E+00  0.40836443168E+02  0.40836443168E+02  0.00000000000E+00 0.  1.
         21   -1    0    0  502  503 -0.00000000000E+00 -0.00000000000E+00 -0.11020822095E+04  0.11020822095E+04  0.00000000000E+00 0. -1.
          6    1    1    2  501    0  0.71445243714E+02 -0.90248045265E+02 -0.41548403920E+03  0.46454829604E+03  0.17300000000E+03 0.  1.
         -6    1    1    2    0  503 -0.71445243714E+02  0.90248045265E+02 -0.64576172713E+03  0.67837035662E+03  0.17300000000E+03 0. -1.
<mgrwt>
<rscale>  2 0.20779349E+03</rscale>
<asrwt>0</asrwt>
<pdfrwt beam="1">  1       21 0.62825308E-02 0.20779349E+03</pdfrwt>
<pdfrwt beam="2">  1       21 0.16955108E+00 0.20779349E+03</pdfrwt>
<totfact> 0.38799418E+04</totfact>
</mgrwt>
</event>
<event>
 4    1  0.3935877E+000  0.2242061E+03  0.7546771E-02  0.1130785E+00
         21   -1    0    0  503  502  0.00000000000E+00  0.00000000000E+00  0.22970319212E+03  0.22970319212E+03  0.00000000000E+00 0.  1.
         21   -1    0    0  501  503 -0.00000000000E+00 -0.00000000000E+00 -0.22550973344E+03  0.22550973344E+03  0.00000000000E+00 0.  1.
          6    1    1    2  501    0  0.12472329903E+03  0.69162801734E+02 -0.37044568213E+02  0.22724588995E+03  0.17300000000E+03 0.  1.
         -6    1    1    2    0  502 -0.12472329903E+03 -0.69162801734E+02  0.41238026885E+02  0.22796703561E+03  0.17300000000E+03 0.  1.
<mgrwt>
<rscale>  2 0.22420614E+03</rscale>
<asrwt>0</asrwt>
<pdfrwt beam="1">  1       21 0.35338953E-01 0.22420614E+03</pdfrwt>
<pdfrwt beam="2">  1       21 0.34693805E-01 0.22420614E+03</pdfrwt>
<totfact> 0.60958203E+04</totfact>
</mgrwt>
</event>
<event>
 4    1  0.3935877E+000  0.1907918E+03  0.7546771E-02  0.1157749E+00
         21   -1    0    0  503  502  0.00000000000E+00  0.00000000000E+00  0.20513288113E+04  0.20513288113E+04  0.00000000000E+00 0.  1.
         21   -1    0    0  501  503 -0.00000000000E+00 -0.00000000000E+00 -0.31799592214E+02  0.31799592214E+02  0.00000000000E+00 0.  1.
          6    1    1    2  501    0 -0.73754791677E+02 -0.32136533455E+02  0.31732938981E+03  0.37026945285E+03  0.17300000000E+03 0.  1.
         -6    1    1    2    0  502  0.73754791677E+02  0.32136533455E+02  0.17021998293E+04  0.17128589506E+04  0.17300000000E+03 0.  1.
<mgrwt>
<rscale>  2 0.19079184E+03</rscale>
<asrwt>0</asrwt>
<pdfrwt beam="1">  1       21 0.31558894E+00 0.19079184E+03</pdfrwt>
<pdfrwt beam="2">  1       21 0.48922466E-02 0.19079184E+03</pdfrwt>
<totfact> 0.77631568E+03</totfact>
</mgrwt>
</event>
<event>
 4    1  0.3935877E+000  0.1846083E+03  0.7546771E-02  0.1163416E+00
         21   -1    0    0  501  502  0.00000000000E+00  0.00000000000E+00  0.57660897062E+02  0.57660897062E+02  0.00000000000E+00 0. -1.
         21   -1    0    0  502  503 -0.00000000000E+00 -0.00000000000E+00 -0.64231199990E+03  0.64231199990E+03  0.00000000000E+00 0. -1.
          6    1    1    2  501    0 -0.62275007210E+02 -0.16524678813E+02 -0.19344907012E+03  0.26740004537E+03  0.17300000000E+03 0.  1.
         -6    1    1    2    0  503  0.62275007210E+02  0.16524678813E+02 -0.39120203272E+03  0.43257285160E+03  0.17300000000E+03 0.  1.
<mgrwt>
<rscale>  2 0.18460835E+03</rscale>
<asrwt>0</asrwt>
<pdfrwt beam="1">  1       21 0.88709069E-02 0.18460835E+03</pdfrwt>
<pdfrwt beam="2">  1       21 0.98817235E-01 0.18460835E+03</pdfrwt>
<totfact> 0.84891093E+04</totfact>
</mgrwt>
</event>
<event>
 4    1  0.3935877E+000  0.2899356E+03  0.7546771E-02  0.1090383E+00
         21   -1    0    0  503  502  0.00000000000E+00  0.00000000000E+00  0.11716851984E+04  0.11716851984E+04  0.00000000000E+00 0.  1.
         21   -1    0    0  501  503 -0.00000000000E+00 -0.00000000000E+00 -0.18783742604E+03  0.18783742604E+03  0.00000000000E+00 0.  1.
          6    1    1    2  501    0  0.48568705136E+02 -0.22754066772E+03 -0.42476952793E+02  0.29303065727E+03  0.17300000000E+03 0.  1.
         -6    1    1    2    0  502 -0.48568705136E+02  0.22754066772E+03  0.10263247251E+04  0.10664919671E+04  0.17300000000E+03 0.  1.
<mgrwt>
<rscale>  2 0.28993564E+03</rscale>
<asrwt>0</asrwt>
<pdfrwt beam="1">  1       21 0.18025926E+00 0.28993564E+03</pdfrwt>
<pdfrwt beam="2">  1       21 0.28898066E-01 0.28993564E+03</pdfrwt>
<totfact> 0.19163156E+03</totfact>
</mgrwt>
</event>
<event>
 4    1  0.3935877E+000  0.1826718E+03  0.7546771E-02  0.1165242E+00
         21   -1    0    0  501  502  0.00000000000E+00  0.00000000000E+00  0.74874707701E+03  0.74874707701E+03  0.00000000000E+00 0.  1.
         21   -1    0    0  502  503 -0.00000000000E+00 -0.00000000000E+00 -0.46343489393E+02  0.46343489393E+02  0.00000000000E+00 0.  1.
          6    1    1    2  501    0  0.75582956355E+01  0.58162191716E+02  0.42904949501E+03  0.46631795756E+03  0.17300000000E+03 0.  1.
         -6    1    1    2    0  503 -0.75582956355E+01 -0.58162191716E+02  0.27335409260E+03  0.32877260884E+03  0.17300000000E+03 0.  1.
<mgrwt>
<rscale>  2 0.18267175E+03</rscale>
<asrwt>0</asrwt>
<pdfrwt beam="1">  1       21 0.11519185E+00 0.18267175E+03</pdfrwt>
<pdfrwt beam="2">  1       21 0.71297681E-02 0.18267175E+03</pdfrwt>
<totfact> 0.85942562E+04</totfact>
</mgrwt>
</event>
<event>
 4    1  0.3935877E+000  0.1870826E+03  0.7546771E-02  0.1161119E+00
         21   -1    0    0  501  502  0.00000000000E+00  0.00000000000E+00  0.54825863092E+03  0.54825863092E+03  0.00000000000E+00 0.  1.
         21   -1    0    0  502  503 -0.00000000000E+00 -0.00000000000E+00 -0.67763056005E+02  0.67763056005E+02  0.00000000000E+00 0.  1.
          6    1    1    2  501    0 -0.63356579798E+02  0.32508893467E+02  0.31437494017E+03  0.36582986123E+03  0.17300000000E+03 0. -1.
         -6    1    1    2    0  503  0.63356579798E+02 -0.32508893467E+02  0.16612063474E+03  0.25019182570E+03  0.17300000000E+03 0. -1.
<mgrwt>
<rscale>  2 0.18708256E+03</rscale>
<asrwt>0</asrwt>
<pdfrwt beam="1">  1       21 0.84347479E-01 0.18708256E+03</pdfrwt>
<pdfrwt beam="2">  1       21 0.10425086E-01 0.18708256E+03</pdfrwt>
<totfact> 0.92142622E+04</totfact>
</mgrwt>
</event>
<event>
 4    1  0.3935877E+000  0.1982930E+03  0.7546771E-02  0.1151187E+00
         21   -1    0    0  503  502  0.00000000000E+00  0.00000000000E+00  0.71585055172E+03  0.71585055172E+03  0.00000000000E+00 0.  1.
         21   -1    0    0  501  503 -0.00000000000E+00 -0.00000000000E+00 -0.77284494949E+02  0.77284494949E+02  0.00000000000E+00 0.  1.
          6    1    1    2  501    0 -0.96855534365E+02 -0.31839804871E+01  0.10599117601E+03  0.22484274874E+03  0.17300000000E+03 0.  1.
         -6    1    1    2    0  502  0.96855534365E+02  0.31839804871E+01  0.53257488076E+03  0.56829229793E+03  0.17300000000E+03 0.  1.
<mgrwt>
<rscale>  2 0.19829305E+03</rscale>
<asrwt>0</asrwt>
<pdfrwt beam="1">  1       21 0.11013085E+00 0.19829305E+03</pdfrwt>
<pdfrwt beam="2">  1       21 0.11889923E-01 0.19829305E+03</pdfrwt>
<totfact> 0.38729656E+04</totfact>
</mgrwt>
</event>
<event>
 4    1  0.3935877E+000  0.1998514E+03  0.7546771E-02  0.1149864E+00
         21   -1    0    0  503  502  0.00000000000E+00  0.00000000000E+00  0.32380664617E+02  0.32380664617E+02  0.00000000000E+00 0.  1.
         21   -1    0    0  501  503 -0.00000000000E+00 -0.00000000000E+00 -0.12452458521E+04  0.12452458521E+04  0.00000000000E+00 0. -1.
          6    1    1    2  501    0  0.54018007831E+02  0.84223831718E+02 -0.66855250144E+03  0.69778438373E+03  0.17300000000E+03 0. -1.
         -6    1    1    2    0  502 -0.54018007831E+02 -0.84223831718E+02 -0.54431268607E+03  0.57984213301E+03  0.17300000000E+03 0.  1.
<mgrwt>
<rscale>  2 0.19985144E+03</rscale>
<asrwt>0</asrwt>
<pdfrwt beam="1">  1       21 0.49816406E-02 0.19985144E+03</pdfrwt>
<pdfrwt beam="2">  1       21 0.19157629E+00 0.19985144E+03</pdfrwt>
<totfact> 0.41025672E+04</totfact>
</mgrwt>
</event>
<event>
 4    1  0.3935877E+000  0.2667758E+03  0.7546771E-02  0.1103139E+00
         21   -1    0    0  501  502  0.00000000000E+00  0.00000000000E+00  0.78695652370E+02  0.78695652370E+02  0.00000000000E+00 0.  1.
         21   -1    0    0  502  503 -0.00000000000E+00 -0.00000000000E+00 -0.93348913199E+03  0.93348913199E+03  0.00000000000E+00 0.  1.
          6    1    1    2  501    0 -0.14148955166E+03 -0.14567439843E+03 -0.33799885224E+03  0.43059557325E+03  0.17300000000E+03 0.  1.
         -6    1    1    2    0  503  0.14148955166E+03  0.14567439843E+03 -0.51679462739E+03  0.58158921111E+03  0.17300000000E+03 0.  1.
<mgrwt>
<rscale>  2 0.26677579E+03</rscale>
<asrwt>0</asrwt>
<pdfrwt beam="1">  1       21 0.12107024E-01 0.26677579E+03</pdfrwt>
<pdfrwt beam="2">  1       21 0.14361370E+00 0.26677579E+03</pdfrwt>
<totfact> 0.18517075E+04</totfact>
</mgrwt>
</event>
<event>
 4    1  0.3935877E+000  0.1744882E+03  0.7546771E-02  0.1173247E+00
         21   -1    0    0  501  502  0.00000000000E+00  0.00000000000E+00  0.78835449980E+03  0.78835449980E+03  0.00000000000E+00 0. -1.
         21   -1    0    0  502  503 -0.00000000000E+00 -0.00000000000E+00 -0.46476914096E+02  0.46476914096E+02  0.00000000000E+00 0. -1.
          6    1    1    2  501    0 -0.82629728775E+01  0.21186082226E+02  0.54256377047E+03  0.56993119920E+03  0.17300000000E+03 0. -1.
         -6    1    1    2    0  503  0.82629728775E+01 -0.21186082226E+02  0.19931381524E+03  0.26490021470E+03  0.17300000000E+03 0. -1.
<mgrwt>
<rscale>  2 0.17448819E+03</rscale>
<asrwt>0</asrwt>
<pdfrwt beam="1">  1       21 0.12128530E+00 0.17448819E+03</pdfrwt>
<pdfrwt beam="2">  1       21 0.71502950E-02 0.17448819E+03</pdfrwt>
<totfact> 0.75642374E+04</totfact>
</mgrwt>
</event>
<event>
 4    1  0.3935877E+000  0.2292068E+03  0.7546771E-02  0.1127199E+00
         21   -1    0    0  501  502  0.00000000000E+00  0.00000000000E+00  0.14262293172E+04  0.14262293172E+04  0.00000000000E+00 0. -1.
         21   -1    0    0  502  503 -0.00000000000E+00 -0.00000000000E+00 -0.38301297862E+02  0.38301297862E+02  0.00000000000E+00 0. -1.
          6    1    1    2  501    0  0.27143335743E+02 -0.14788509910E+03  0.83721902947E+03  0.86802734204E+03  0.17300000000E+03 0. -1.
         -6    1    1    2    0  503 -0.27143335743E+02  0.14788509910E+03  0.55070898987E+03  0.59650327303E+03  0.17300000000E+03 0. -1.
<mgrwt>
<rscale>  2 0.22920681E+03</rscale>
<asrwt>0</asrwt>
<pdfrwt beam="1">  1       21 0.21941985E+00 0.22920681E+03</pdfrwt>
<pdfrwt beam="2">  1       21 0.58925085E-02 0.22920681E+03</pdfrwt>
<totfact> 0.20063610E+04</totfact>
</mgrwt>
</event>
<event>
 4    1  0.3935877E+000  0.2009614E+03  0.7546771E-02  0.1148930E+00
         21   -1    0    0  503  502  0.00000000000E+00  0.00000000000E+00  0.37892871227E+02  0.37892871227E+02  0.00000000000E+00 0. -1.
         21   -1    0    0  501  503 -0.00000000000E+00 -0.00000000000E+00 -0.14377090369E+04  0.14377090369E+04  0.00000000000E+00 0. -1.
          6    1    1    2  501    0  0.80218047639E+02  0.63415613166E+02 -0.10751692167E+04  0.10937889741E+04  0.17300000000E+03 0. -1.
         -6    1    1    2    0  502 -0.80218047639E+02 -0.63415613166E+02 -0.32464694888E+03  0.38181293401E+03  0.17300000000E+03 0. -1.
<mgrwt>
<rscale>  2 0.20096138E+03</rscale>
<asrwt>0</asrwt>
<pdfrwt beam="1">  1       21 0.58296726E-02 0.20096138E+03</pdfrwt>
<pdfrwt beam="2">  1       21 0.22118600E+00 0.20096138E+03</pdfrwt>
<totfact> 0.20355406E+04</totfact>
</mgrwt>
</event>
<event>
 4    1  0.3935877E+000  0.1935471E+03  0.7546771E-02  0.1155300E+00
         21   -1    0    0  501  502  0.00000000000E+00  0.00000000000E+00  0.70115130023E+03  0.70115130023E+03  0.00000000000E+00 0.  1.
         21   -1    0    0  502  503 -0.00000000000E+00 -0.00000000000E+00 -0.57750890225E+02  0.57750890225E+02  0.00000000000E+00 0.  1.
          6    1    1    2  501    0  0.86297656292E+02 -0.91763194609E+01  0.42552667362E+03  0.46747560395E+03  0.17300000000E+03 0.  1.
         -6    1    1    2    0  503 -0.86297656292E+02  0.91763194609E+01  0.21787373639E+03  0.29142658651E+03  0.17300000000E+03 0.  1.
<mgrwt>
<rscale>  2 0.19354713E+03</rscale>
<asrwt>0</asrwt>
<pdfrwt beam="1">  1       21 0.10786942E+00 0.19354713E+03</pdfrwt>
<pdfrwt beam="2">  1       21 0.88847529E-02 0.19354713E+03</pdfrwt>
<totfact> 0.68387476E+04</totfact>
</mgrwt>
</event>
<event>
 4    1  0.3935877E+000  0.1747803E+03  0.7546771E-02  0.1172952E+00
         21   -1    0    0  503  502  0.00000000000E+00  0.00000000000E+00  0.21437698839E+03  0.21437698839E+03  0.00000000000E+00 0.  1.
         21   -1    0    0  501  503 -0.00000000000E+00 -0.00000000000E+00 -0.33094093141E+03  0.33094093141E+03  0.00000000000E+00 0.  1.
          6    1    1    2  501    0  0.49820995323E+01  0.24378971226E+02 -0.26402976715E+03  0.31663839549E+03  0.17300000000E+03 0.  1.
         -6    1    1    2    0  502 -0.49820995323E+01 -0.24378971226E+02  0.14746582413E+03  0.22867952431E+03  0.17300000000E+03 0.  1.
<mgrwt>
<rscale>  2 0.17478031E+03</rscale>
<asrwt>0</asrwt>
<pdfrwt beam="1">  1       21 0.32981075E-01 0.17478031E+03</pdfrwt>
<pdfrwt beam="2">  1       21 0.50913989E-01 0.17478031E+03</pdfrwt>
<totfact> 0.32784640E+04</totfact>
</mgrwt>
</event>
<event>
 4    1  0.3935877E+000  0.1946621E+03  0.7546771E-02  0.1154322E+00
         21   -1    0    0  501  502  0.00000000000E+00  0.00000000000E+00  0.43587672367E+02  0.43587672367E+02  0.00000000000E+00 0.  1.
         21   -1    0    0  502  503 -0.00000000000E+00 -0.00000000000E+00 -0.33771941869E+04  0.33771941869E+04  0.00000000000E+00 0.  1.
          6    1    1    2  501    0  0.17304362313E+02  0.87549270924E+02 -0.19290704525E+03  0.27405554893E+03  0.17300000000E+03 0.  1.
         -6    1    1    2    0  503 -0.17304362313E+02 -0.87549270924E+02 -0.31406994693E+04  0.31467263103E+04  0.17300000000E+03 0.  1.
<mgrwt>
<rscale>  2 0.19466206E+03</rscale>
<asrwt>0</asrwt>
<pdfrwt beam="1">  1       21 0.67057952E-02 0.19466206E+03</pdfrwt>
<pdfrwt beam="2">  1       21 0.51956838E+00 0.19466206E+03</pdfrwt>
<totfact> 0.22284139E+02</totfact>
</mgrwt>
</event>
<event>
 4    1  0.3935877E+000  0.2841718E+03  0.7546771E-02  0.1093432E+00
         21   -1    0    0  501  502  0.00000000000E+00  0.00000000000E+00  0.22360801865E+03  0.22360801865E+03  0.00000000000E+00 0. -1.
         21   -1    0    0  502  503 -0.00000000000E+00 -0.00000000000E+00 -0.36173267132E+03  0.36173267132E+03  0.00000000000E+00 0.  1.
          6    1    1    2  501    0  0.16964174423E+03  0.14847989390E+03 -0.57206861928E+02  0.28987277439E+03  0.17300000000E+03 0. -1.
         -6    1    1    2    0  503 -0.16964174423E+03 -0.14847989390E+03 -0.80917790748E+02  0.29546791558E+03  0.17300000000E+03 0.  1.
<mgrwt>
<rscale>  2 0.28417178E+03</rscale>
<asrwt>0</asrwt>
<pdfrwt beam="1">  1       21 0.34401234E-01 0.28417178E+03</pdfrwt>
<pdfrwt beam="2">  1       21 0.55651180E-01 0.28417178E+03</pdfrwt>
<totfact> 0.23685146E+04</totfact>
</mgrwt>
</event>
<event>
 4    1  0.3935877E+000  0.1742936E+03  0.7546771E-02  0.1173443E+00
         21   -1    0    0  503  502  0.00000000000E+00  0.00000000000E+00  0.48760945167E+03  0.48760945167E+03  0.00000000000E+00 0. -1.
         21   -1    0    0  501  503 -0.00000000000E+00 -0.00000000000E+00 -0.31961597652E+03  0.31961597652E+03  0.00000000000E+00 0. -1.
          6    1    1    2  501    0 -0.20601106705E+02  0.49860539913E+01 -0.27814921229E+03  0.32824571685E+03  0.17300000000E+03 0. -1.
         -6    1    1    2    0  502  0.20601106705E+02 -0.49860539913E+01  0.44614268743E+03  0.47897971134E+03  0.17300000000E+03 0. -1.
<mgrwt>
<rscale>  2 0.17429362E+03</rscale>
<asrwt>0</asrwt>
<pdfrwt beam="1">  1       21 0.75016838E-01 0.17429362E+03</pdfrwt>
<pdfrwt beam="2">  1       21 0.49171689E-01 0.17429362E+03</pdfrwt>
<totfact> 0.63589190E+03</totfact>
</mgrwt>
</event>
<event>
 4    1  0.3935877E+000  0.1964788E+03  0.7546771E-02  0.1152744E+00
         21   -1    0    0  503  502  0.00000000000E+00  0.00000000000E+00  0.17297162198E+03  0.17297162198E+03  0.00000000000E+00 0.  1.
         21   -1    0    0  501  503 -0.00000000000E+00 -0.00000000000E+00 -0.27087554043E+03  0.27087554043E+03  0.00000000000E+00 0.  1.
          6    1    1    2  501    0  0.91183620229E+02 -0.18985699256E+02 -0.14207448317E+03  0.24246457090E+03  0.17300000000E+03 0.  1.
         -6    1    1    2    0  502 -0.91183620229E+02  0.18985699256E+02  0.44170564717E+02  0.20138259151E+03  0.17300000000E+03 0.  1.
<mgrwt>
<rscale>  2 0.19647878E+03</rscale>
<asrwt>0</asrwt>
<pdfrwt beam="1">  1       21 0.26611019E-01 0.19647878E+03</pdfrwt>
<pdfrwt beam="2">  1       21 0.41673160E-01 0.19647878E+03</pdfrwt>
<totfact> 0.74378125E+04</totfact>
</mgrwt>
</event>
<event>
 4    1  0.3935877E+000  0.1946836E+03  0.7546771E-02  0.1154304E+00
         21   -1    0    0  503  502  0.00000000000E+00  0.00000000000E+00  0.25512323355E+03  0.25512323355E+03  0.00000000000E+00 0. -1.
         21   -1    0    0  501  503 -0.00000000000E+00 -0.00000000000E+00 -0.16733946925E+03  0.16733946925E+03  0.00000000000E+00 0. -1.
          6    1    1    2  501    0 -0.85240871935E+02  0.26583427766E+02 -0.26865975313E+02  0.19652853612E+03  0.17300000000E+03 0. -1.
         -6    1    1    2    0  502  0.85240871935E+02 -0.26583427766E+02  0.11464973962E+03  0.22593416668E+03  0.17300000000E+03 0. -1.
<mgrwt>
<rscale>  2 0.19468355E+03</rscale>
<asrwt>0</asrwt>
<pdfrwt beam="1">  1       21 0.39249728E-01 0.19468355E+03</pdfrwt>
<pdfrwt beam="2">  1       21 0.25744534E-01 0.19468355E+03</pdfrwt>
<totfact> 0.89546831E+04</totfact>
</mgrwt>
</event>
<event>
 4    1  0.3935877E+000  0.1875531E+03  0.7546771E-02  0.1160687E+00
         21   -1    0    0  501  502  0.00000000000E+00  0.00000000000E+00  0.60730437141E+02  0.60730437141E+02  0.00000000000E+00 0.  1.
         21   -1    0    0  502  503 -0.00000000000E+00 -0.00000000000E+00 -0.82455531958E+03  0.82455531958E+03  0.00000000000E+00 0.  1.
          6    1    1    2  501    0  0.56157382923E+02  0.45755132066E+02 -0.14046362631E+03  0.23432075043E+03  0.17300000000E+03 0.  1.
         -6    1    1    2    0  503 -0.56157382923E+02 -0.45755132066E+02 -0.62336125613E+03  0.65096500628E+03  0.17300000000E+03 0.  1.
<mgrwt>
<rscale>  2 0.18755315E+03</rscale>
<asrwt>0</asrwt>
<pdfrwt beam="1">  1       21 0.93431447E-02 0.18755315E+03</pdfrwt>
<pdfrwt beam="2">  1       21 0.12685466E+00 0.18755315E+03</pdfrwt>
<totfact> 0.42168615E+04</totfact>
</mgrwt>
</event>
<event>
 4    1  0.3935877E+000  0.2548504E+03  0.7546771E-02  0.1110277E+00
         21   -1    0    0  501  502  0.00000000000E+00  0.00000000000E+00  0.87258215284E+02  0.87258215284E+02  0.00000000000E+00 0. -1.
         21   -1    0    0  502  503 -0.00000000000E+00 -0.00000000000E+00 -0.95293041424E+03  0.95293041424E+03  0.00000000000E+00 0. -1.
          6    1    1    2  501    0 -0.11913826148E+03 -0.14431153894E+03 -0.18949748814E+03  0.31758155430E+03  0.17300000000E+03 0. -1.
         -6    1    1    2    0  503  0.11913826148E+03  0.14431153894E+03 -0.67617471082E+03  0.72260707523E+03  0.17300000000E+03 0. -1.
<mgrwt>
<rscale>  2 0.25485044E+03</rscale>
<asrwt>0</asrwt>
<pdfrwt beam="1">  1       21 0.13424340E-01 0.25485044E+03</pdfrwt>
<pdfrwt beam="2">  1       21 0.14660468E+00 0.25485044E+03</pdfrwt>
<totfact> 0.14638888E+04</totfact>
</mgrwt>
</event>
<event>
 4    1  0.3935877E+000  0.2318135E+03  0.7546771E-02  0.1125370E+00
         21   -1    0    0  503  502  0.00000000000E+00  0.00000000000E+00  0.11302920533E+03  0.11302920533E+03  0.00000000000E+00 0. -1.
         21   -1    0    0  501  503 -0.00000000000E+00 -0.00000000000E+00 -0.65081399744E+03  0.65081399744E+03  0.00000000000E+00 0.  1.
          6    1    1    2  501    0  0.13122404976E+03 -0.81171157357E+02 -0.46715481550E+03  0.52150851352E+03  0.17300000000E+03 0.  1.
         -6    1    1    2    0  502 -0.13122404976E+03  0.81171157357E+02 -0.70629976602E+02  0.24233468926E+03  0.17300000000E+03 0. -1.
<mgrwt>
<rscale>  2 0.23181352E+03</rscale>
<asrwt>0</asrwt>
<pdfrwt beam="1">  1       21 0.17389108E-01 0.23181352E+03</pdfrwt>
<pdfrwt beam="2">  1       21 0.10012523E+00 0.23181352E+03</pdfrwt>
<totfact> 0.23954692E+04</totfact>
</mgrwt>
</event>
<event>
 4    1  0.3935877E+000  0.2669116E+03  0.7546771E-02  0.1103060E+00
         21   -1    0    0  503  502  0.00000000000E+00  0.00000000000E+00  0.78531948833E+02  0.78531948833E+02  0.00000000000E+00 0. -1.
         21   -1    0    0  501  503 -0.00000000000E+00 -0.00000000000E+00 -0.10167856702E+04  0.10167856702E+04  0.00000000000E+00 0.  1.
          6    1    1    2  501    0  0.16219103341E+03  0.12250247919E+03 -0.64894466184E+03  0.70169150120E+03  0.17300000000E+03 0.  1.
         -6    1    1    2    0  502 -0.16219103341E+03 -0.12250247919E+03 -0.28930905957E+03  0.39362611788E+03  0.17300000000E+03 0. -1.
<mgrwt>
<rscale>  2 0.26691157E+03</rscale>
<asrwt>0</asrwt>
<pdfrwt beam="1">  1       21 0.12081837E-01 0.26691157E+03</pdfrwt>
<pdfrwt beam="2">  1       21 0.15642858E+00 0.26691157E+03</pdfrwt>
<totfact> 0.14797773E+04</totfact>
</mgrwt>
</event>
<event>
 4    1  0.3935877E+000  0.2059391E+03  0.7546771E-02  0.1144823E+00
         21   -1    0    0  503  502  0.00000000000E+00  0.00000000000E+00  0.64809380274E+02  0.64809380274E+02  0.00000000000E+00 0.  1.
         21   -1    0    0  501  503 -0.00000000000E+00 -0.00000000000E+00 -0.74967899656E+03  0.74967899656E+03  0.00000000000E+00 0. -1.
          6    1    1    2  501    0 -0.43856694326E+02 -0.10275458366E+03 -0.48762187115E+03  0.52932598965E+03  0.17300000000E+03 0. -1.
         -6    1    1    2    0  502  0.43856694326E+02  0.10275458366E+03 -0.19724774514E+03  0.28516238718E+03  0.17300000000E+03 0.  1.
<mgrwt>
<rscale>  2 0.20593910E+03</rscale>
<asrwt>0</asrwt>
<pdfrwt beam="1">  1       21 0.99706738E-02 0.20593910E+03</pdfrwt>
<pdfrwt beam="2">  1       21 0.11533523E+00 0.20593910E+03</pdfrwt>
<totfact> 0.47147050E+04</totfact>
</mgrwt>
</event>
<event>
 4    1  0.3935877E+000  0.1765019E+03  0.7546771E-02  0.1171232E+00
         21   -1    0    0  501  502  0.00000000000E+00  0.00000000000E+00  0.86008990029E+02  0.86008990029E+02  0.00000000000E+00 0.  1.
         21   -1    0    0  502  503 -0.00000000000E+00 -0.00000000000E+00 -0.47702254968E+03  0.47702254968E+03  0.00000000000E+00 0.  1.
          6    1    1    2  501    0 -0.31911763198E+02  0.14337291768E+02 -0.57393099033E+02  0.18559872409E+03  0.17300000000E+03 0.  1.
         -6    1    1    2    0  503  0.31911763198E+02 -0.14337291768E+02 -0.33362046062E+03  0.37743281562E+03  0.17300000000E+03 0.  1.
<mgrwt>
<rscale>  2 0.17650189E+03</rscale>
<asrwt>0</asrwt>
<pdfrwt beam="1">  1       21 0.13232152E-01 0.17650189E+03</pdfrwt>
<pdfrwt beam="2">  1       21 0.73388085E-01 0.17650189E+03</pdfrwt>
<totfact> 0.82718936E+04</totfact>
</mgrwt>
</event>
<event>
 4    1  0.3935877E+000  0.2669959E+03  0.7546771E-02  0.1103011E+00
         21   -1    0    0  501  502  0.00000000000E+00  0.00000000000E+00  0.46220214240E+03  0.46220214240E+03  0.00000000000E+00 0.  1.
         21   -1    0    0  502  503 -0.00000000000E+00 -0.00000000000E+00 -0.20994377540E+03  0.20994377540E+03  0.00000000000E+00 0. -1.
          6    1    1    2  501    0  0.18128858433E+03 -0.92153347741E+02  0.29925105797E+03  0.40104611456E+03  0.17300000000E+03 0. -1.
         -6    1    1    2    0  503 -0.18128858433E+03  0.92153347741E+02 -0.46992690979E+02  0.27109980323E+03  0.17300000000E+03 0. -1.
<mgrwt>
<rscale>  2 0.26699586E+03</rscale>
<asrwt>0</asrwt>
<pdfrwt beam="1">  1       21 0.71108022E-01 0.26699586E+03</pdfrwt>
<pdfrwt beam="2">  1       21 0.32299042E-01 0.26699586E+03</pdfrwt>
<totfact> 0.15839139E+04</totfact>
</mgrwt>
</event>
<event>
 4    1  0.3935877E+000  0.2010753E+03  0.7546771E-02  0.1148835E+00
         21   -1    0    0  501  502  0.00000000000E+00  0.00000000000E+00  0.49154980738E+03  0.49154980738E+03  0.00000000000E+00 0. -1.
         21   -1    0    0  502  503 -0.00000000000E+00 -0.00000000000E+00 -0.90888044447E+02  0.90888044447E+02  0.00000000000E+00 0. -1.
          6    1    1    2  501    0  0.22785766272E+02  0.99915403128E+02  0.29009588816E+03  0.35296870011E+03  0.17300000000E+03 0. -1.
         -6    1    1    2    0  503 -0.22785766272E+02 -0.99915403128E+02  0.11056587477E+03  0.22946915172E+03  0.17300000000E+03 0. -1.
<mgrwt>
<rscale>  2 0.20107531E+03</rscale>
<asrwt>0</asrwt>
<pdfrwt beam="1">  1       21 0.75623046E-01 0.20107531E+03</pdfrwt>
<pdfrwt beam="2">  1       21 0.13982776E-01 0.20107531E+03</pdfrwt>
<totfact> 0.69286004E+04</totfact>
</mgrwt>
</event>
<event>
 4    1  0.3935877E+000  0.2316169E+03  0.7546771E-02  0.1125507E+00
         21   -1    0    0  503  502  0.00000000000E+00  0.00000000000E+00  0.98784050631E+03  0.98784050631E+03  0.00000000000E+00 0.  1.
         21   -1    0    0  501  503 -0.00000000000E+00 -0.00000000000E+00 -0.17092212022E+03  0.17092212022E+03  0.00000000000E+00 0. -1.
          6    1    1    2  501    0 -0.15006697970E+03  0.34602035638E+02 -0.70108372269E+02  0.24199500641E+03  0.17300000000E+03 0. -1.
         -6    1    1    2    0  502  0.15006697970E+03 -0.34602035638E+02  0.88702675835E+03  0.91676762012E+03  0.17300000000E+03 0.  1.
<mgrwt>
<rscale>  2 0.23161692E+03</rscale>
<asrwt>0</asrwt>
<pdfrwt beam="1">  1       21 0.15197546E+00 0.23161692E+03</pdfrwt>
<pdfrwt beam="2">  1       21 0.26295711E-01 0.23161692E+03</pdfrwt>
<totfact> 0.38452200E+03</totfact>
</mgrwt>
</event>
<event>
 4    1  0.3935877E+000  0.1959799E+03  0.7546771E-02  0.1153176E+00
         21   -1    0    0  503  502  0.00000000000E+00  0.00000000000E+00  0.77031415134E+02  0.77031415134E+02  0.00000000000E+00 0. -1.
         21   -1    0    0  501  503 -0.00000000000E+00 -0.00000000000E+00 -0.49922333411E+03  0.49922333411E+03  0.00000000000E+00 0. -1.
          6    1    1    2  501    0  0.23285919935E+02 -0.89089283870E+02 -0.20094356276E+03  0.28068924094E+03  0.17300000000E+03 0. -1.
         -6    1    1    2    0  502 -0.23285919935E+02  0.89089283870E+02 -0.22124835622E+03  0.29556550830E+03  0.17300000000E+03 0. -1.
<mgrwt>
<rscale>  2 0.19597993E+03</rscale>
<asrwt>0</asrwt>
<pdfrwt beam="1">  1       21 0.11850987E-01 0.19597993E+03</pdfrwt>
<pdfrwt beam="2">  1       21 0.76803591E-01 0.19597993E+03</pdfrwt>
<totfact> 0.90341332E+04</totfact>
</mgrwt>
</event>
<event>
 4    1  0.3935877E+000  0.1926805E+03  0.7546771E-02  0.1156066E+00
         21   -1    0    0  501  502  0.00000000000E+00  0.00000000000E+00  0.80066785195E+03  0.80066785195E+03  0.00000000000E+00 0. -1.
         21   -1    0    0  502  503 -0.00000000000E+00 -0.00000000000E+00 -0.55587160355E+02  0.55587160355E+02  0.00000000000E+00 0.  1.
          6    1    1    2  501    0  0.81005940515E+02  0.25195725347E+02  0.54688924708E+03  0.57983931873E+03  0.17300000000E+03 0. -1.
         -6    1    1    2    0  503 -0.81005940515E+02 -0.25195725347E+02  0.19819144451E+03  0.27641569357E+03  0.17300000000E+03 0.  1.
<mgrwt>
<rscale>  2 0.19268053E+03</rscale>
<asrwt>0</asrwt>
<pdfrwt beam="1">  1       21 0.12317966E+00 0.19268053E+03</pdfrwt>
<pdfrwt beam="2">  1       21 0.85518714E-02 0.19268053E+03</pdfrwt>
<totfact> 0.52860456E+04</totfact>
</mgrwt>
</event>
<event>
 4    1  0.3935877E+000  0.2282258E+03  0.7546771E-02  0.1127895E+00
         21   -1    0    0  501  502  0.00000000000E+00  0.00000000000E+00  0.79144148162E+03  0.79144148162E+03  0.00000000000E+00 0. -1.
         21   -1    0    0  502  503 -0.00000000000E+00 -0.00000000000E+00 -0.21606192681E+03  0.21606192681E+03  0.00000000000E+00 0.  1.
          6    1    1    2  501    0  0.14303131773E+03  0.41231688786E+02  0.70777105825E+03  0.74365777136E+03  0.17300000000E+03 0. -1.
         -6    1    1    2    0  503 -0.14303131773E+03 -0.41231688786E+02 -0.13239150344E+03  0.26384563706E+03  0.17300000000E+03 0.  1.
<mgrwt>
<rscale>  2 0.22822579E+03</rscale>
<asrwt>0</asrwt>
<pdfrwt beam="1">  1       21 0.12176023E+00 0.22822579E+03</pdfrwt>
<pdfrwt beam="2">  1       21 0.33240297E-01 0.22822579E+03</pdfrwt>
<totfact> 0.43168195E+03</totfact>
</mgrwt>
</event>
<event>
 4    1  0.3935877E+000  0.2365554E+03  0.7546771E-02  0.1122109E+00
         21   -1    0    0  503  502  0.00000000000E+00  0.00000000000E+00  0.16373822008E+03  0.16373822008E+03  0.00000000000E+00 0. -1.
         21   -1    0    0  501  503 -0.00000000000E+00 -0.00000000000E+00 -0.64557190449E+03  0.64557190449E+03  0.00000000000E+00 0. -1.
          6    1    1    2  501    0  0.94066353884E+02  0.13107629641E+03 -0.51851598126E+03  0.56992744910E+03  0.17300000000E+03 0. -1.
         -6    1    1    2    0  502 -0.94066353884E+02 -0.13107629641E+03  0.36682296857E+02  0.23938267547E+03  0.17300000000E+03 0. -1.
<mgrwt>
<rscale>  2 0.23655544E+03</rscale>
<asrwt>0</asrwt>
<pdfrwt beam="1">  1       21 0.25190496E-01 0.23655544E+03</pdfrwt>
<pdfrwt beam="2">  1       21 0.99318753E-01 0.23655544E+03</pdfrwt>
<totfact> 0.12112692E+04</totfact>
</mgrwt>
</event>
<event>
 4    1  0.3935877E+000  0.2241710E+03  0.7546771E-02  0.1130811E+00
         21   -1    0    0  501  502  0.00000000000E+00  0.00000000000E+00  0.32725942728E+03  0.32725942728E+03  0.00000000000E+00 0. -1.
         21   -1    0    0  502  503 -0.00000000000E+00 -0.00000000000E+00 -0.17762822374E+03  0.17762822374E+03  0.00000000000E+00 0.  1.
          6    1    1    2  501    0 -0.45621550994E+02  0.13506406736E+03  0.16774806200E+03  0.27998578627E+03  0.17300000000E+03 0. -1.
         -6    1    1    2    0  503  0.45621550994E+02 -0.13506406736E+03 -0.18116858462E+02  0.22490186475E+03  0.17300000000E+03 0. -1.
<mgrwt>
<rscale>  2 0.22417098E+03</rscale>
<asrwt>0</asrwt>
<pdfrwt beam="1">  1       21 0.50347604E-01 0.22417098E+03</pdfrwt>
<pdfrwt beam="2">  1       21 0.27327419E-01 0.22417098E+03</pdfrwt>
<totfact> 0.47242618E+04</totfact>
</mgrwt>
</event>
<event>
 4    1  0.3935877E+000  0.1939068E+03  0.7546771E-02  0.1154984E+00
         21   -1    0    0  503  502  0.00000000000E+00  0.00000000000E+00  0.16503482161E+03  0.16503482161E+03  0.00000000000E+00 0. -1.
         21   -1    0    0  501  503 -0.00000000000E+00 -0.00000000000E+00 -0.29151426454E+03  0.29151426454E+03  0.00000000000E+00 0. -1.
          6    1    1    2  501    0 -0.87523862720E+02  0.32274050824E+01 -0.16993482444E+03  0.25783267296E+03  0.17300000000E+03 0. -1.
         -6    1    1    2    0  502  0.87523862720E+02 -0.32274050824E+01  0.43455381502E+02  0.19871641319E+03  0.17300000000E+03 0. -1.
<mgrwt>
<rscale>  2 0.19390679E+03</rscale>
<asrwt>0</asrwt>
<pdfrwt beam="1">  1       21 0.25389973E-01 0.19390679E+03</pdfrwt>
<pdfrwt beam="2">  1       21 0.44848348E-01 0.19390679E+03</pdfrwt>
<totfact> 0.70133583E+04</totfact>
</mgrwt>
</event>
<event>
 4    1  0.3935877E+000  0.1865331E+03  0.7546771E-02  0.1161626E+00
         21   -1    0    0  501  502  0.00000000000E+00  0.00000000000E+00  0.21003253996E+03  0.21003253996E+03  0.00000000000E+00 0. -1.
         21   -1    0    0  502  503 -0.00000000000E+00 -0.00000000000E+00 -0.22394583961E+03  0.22394583961E+03  0.00000000000E+00 0. -1.
          6    1    1    2  501    0 -0.36912590703E+02 -0.59186482679E+02  0.10374081835E+03  0.21344024100E+03  0.17300000000E+03 0. -1.
         -6    1    1    2    0  503  0.36912590703E+02  0.59186482679E+02 -0.11765411799E+03  0.22053813857E+03  0.17300000000E+03 0. -1.
<mgrwt>
<rscale>  2 0.18653305E+03</rscale>
<asrwt>0</asrwt>
<pdfrwt beam="1">  1       21 0.32312699E-01 0.18653305E+03</pdfrwt>
<pdfrwt beam="2">  1       21 0.34453206E-01 0.18653305E+03</pdfrwt>
<totfact> 0.75001727E+04</totfact>
</mgrwt>
</event>
<event>
 4    1  0.3935877E+000  0.1879422E+03  0.7546771E-02  0.1160331E+00
         21   -1    0    0  503  502  0.00000000000E+00  0.00000000000E+00  0.37328326756E+03  0.37328326756E+03  0.00000000000E+00 0.  1.
         21   -1    0    0  501  503 -0.00000000000E+00 -0.00000000000E+00 -0.34616762991E+03  0.34616762991E+03  0.00000000000E+00 0.  1.
          6    1    1    2  501    0  0.52704057314E+02 -0.51142495776E+02 -0.29308510010E+03  0.34816827603E+03  0.17300000000E+03 0.  1.
         -6    1    1    2    0  502 -0.52704057314E+02  0.51142495776E+02  0.32020073775E+03  0.37128262145E+03  0.17300000000E+03 0.  1.
<mgrwt>
<rscale>  2 0.18794221E+03</rscale>
<asrwt>0</asrwt>
<pdfrwt beam="1">  1       21 0.57428195E-01 0.18794221E+03</pdfrwt>
<pdfrwt beam="2">  1       21 0.53256559E-01 0.18794221E+03</pdfrwt>
<totfact> 0.95321577E+03</totfact>
</mgrwt>
</event>
<event>
 4    1  0.3935877E+000  0.1953274E+03  0.7546771E-02  0.1153742E+00
         21   -1    0    0  503  502  0.00000000000E+00  0.00000000000E+00  0.13214159877E+04  0.13214159877E+04  0.00000000000E+00 0. -1.
         21   -1    0    0  501  503 -0.00000000000E+00 -0.00000000000E+00 -0.31509876606E+02  0.31509876606E+02  0.00000000000E+00 0. -1.
          6    1    1    2  501    0 -0.79449289152E+02 -0.43721870551E+02  0.44925174160E+03  0.48987745288E+03  0.17300000000E+03 0. -1.
         -6    1    1    2    0  502  0.79449289152E+02  0.43721870551E+02  0.84065436948E+03  0.86304841141E+03  0.17300000000E+03 0. -1.
<mgrwt>
<rscale>  2 0.19532740E+03</rscale>
<asrwt>0</asrwt>
<pdfrwt beam="1">  1       21 0.20329472E+00 0.19532740E+03</pdfrwt>
<pdfrwt beam="2">  1       21 0.48476743E-02 0.19532740E+03</pdfrwt>
<totfact> 0.36191612E+04</totfact>
</mgrwt>
</event>
<event>
 4    1  0.3935877E+000  0.1823082E+03  0.7546771E-02  0.1165588E+00
         21   -1    0    0  501  502  0.00000000000E+00  0.00000000000E+00  0.19688859223E+03  0.19688859223E+03  0.00000000000E+00 0.  1.
         21   -1    0    0  502  503 -0.00000000000E+00 -0.00000000000E+00 -0.36417482096E+03  0.36417482096E+03  0.00000000000E+00 0. -1.
          6    1    1    2  501    0 -0.46830818673E+02  0.33379100328E+02  0.12182898109E+03  0.21926830722E+03  0.17300000000E+03 0.  1.
         -6    1    1    2    0  503  0.46830818673E+02 -0.33379100328E+02 -0.28911520982E+03  0.34179510597E+03  0.17300000000E+03 0. -1.
<mgrwt>
<rscale>  2 0.18230823E+03</rscale>
<asrwt>0</asrwt>
<pdfrwt beam="1">  1       21 0.30290553E-01 0.18230823E+03</pdfrwt>
<pdfrwt beam="2">  1       21 0.56026895E-01 0.18230823E+03</pdfrwt>
<totfact> 0.31539304E+04</totfact>
</mgrwt>
</event>
<event>
 4    1  0.3935877E+000  0.2294890E+03  0.7546771E-02  0.1127000E+00
         21   -1    0    0  501  502  0.00000000000E+00  0.00000000000E+00  0.75541142159E+03  0.75541142159E+03  0.00000000000E+00 0. -1.
         21   -1    0    0  502  503 -0.00000000000E+00 -0.00000000000E+00 -0.13738447470E+03  0.13738447470E+03  0.00000000000E+00 0. -1.
          6    1    1    2  501    0 -0.12548251120E+03 -0.83608228819E+02  0.62230062742E+03  0.66326711620E+03  0.17300000000E+03 0. -1.
         -6    1    1    2    0  503  0.12548251120E+03  0.83608228819E+02 -0.42736805334E+01  0.22952878009E+03  0.17300000000E+03 0. -1.
<mgrwt>
<rscale>  2 0.22948899E+03</rscale>
<asrwt>0</asrwt>
<pdfrwt beam="1">  1       21 0.11621714E+00 0.22948899E+03</pdfrwt>
<pdfrwt beam="2">  1       21 0.21136073E-01 0.22948899E+03</pdfrwt>
<totfact> 0.11605448E+04</totfact>
</mgrwt>
</event>
<event>
 4    1  0.3935877E+000  0.1810819E+03  0.7546771E-02  0.1166760E+00
         21   -1    0    0  501  502  0.00000000000E+00  0.00000000000E+00  0.45070203512E+02  0.45070203512E+02  0.00000000000E+00 0. -1.
         21   -1    0    0  502  503 -0.00000000000E+00 -0.00000000000E+00 -0.77406351217E+03  0.77406351217E+03  0.00000000000E+00 0. -1.
          6    1    1    2  501    0  0.52657621614E+02  0.94256260250E+01 -0.26409461210E+03  0.32021341584E+03  0.17300000000E+03 0.  1.
         -6    1    1    2    0  503 -0.52657621614E+02 -0.94256260250E+01 -0.46489869656E+03  0.49892029985E+03  0.17300000000E+03 0.  1.
<mgrwt>
<rscale>  2 0.18108194E+03</rscale>
<asrwt>0</asrwt>
<pdfrwt beam="1">  1       21 0.69338777E-02 0.18108194E+03</pdfrwt>
<pdfrwt beam="2">  1       21 0.11908669E+00 0.18108194E+03</pdfrwt>
<totfact> 0.83191468E+04</totfact>
</mgrwt>
</event>
<event>
 4    1  0.3935877E+000  0.1886117E+03  0.7546771E-02  0.1159719E+00
         21   -1    0    0  503  502  0.00000000000E+00  0.00000000000E+00  0.41696451057E+03  0.41696451057E+03  0.00000000000E+00 0. -1.
         21   -1    0    0  501  503 -0.00000000000E+00 -0.00000000000E+00 -0.27706272244E+03  0.27706272244E+03  0.00000000000E+00 0. -1.
          6    1    1    2  501    0  0.74135713468E+02  0.12217281244E+02 -0.21873113796E+03  0.28882118462E+03  0.17300000000E+03 0. -1.
         -6    1    1    2    0  502 -0.74135713468E+02 -0.12217281244E+02  0.35863292610E+03  0.40520604839E+03  0.17300000000E+03 0. -1.
<mgrwt>
<rscale>  2 0.18861168E+03</rscale>
<asrwt>0</asrwt>
<pdfrwt beam="1">  1       21 0.64148387E-01 0.18861168E+03</pdfrwt>
<pdfrwt beam="2">  1       21 0.42625034E-01 0.18861168E+03</pdfrwt>
<totfact> 0.11907104E+04</totfact>
</mgrwt>
</event>
<event>
 4    1  0.3935877E+000  0.2300601E+03  0.7546771E-02  0.1126597E+00
         21   -1    0    0  501  502  0.00000000000E+00  0.00000000000E+00  0.19926490559E+04  0.19926490559E+04  0.00000000000E+00 0.  1.
         21   -1    0    0  502  503 -0.00000000000E+00 -0.00000000000E+00 -0.33994654444E+02  0.33994654444E+02  0.00000000000E+00 0.  1.
          6    1    1    2  501    0 -0.92007156707E+02 -0.12055424216E+03  0.14531655668E+04  0.14712640167E+04  0.17300000000E+03 0.  1.
         -6    1    1    2    0  503  0.92007156707E+02  0.12055424216E+03  0.50548883461E+03  0.55537969364E+03  0.17300000000E+03 0.  1.
<mgrwt>
<rscale>  2 0.23006008E+03</rscale>
<asrwt>0</asrwt>
<pdfrwt beam="1">  1       21 0.30656130E+00 0.23006008E+03</pdfrwt>
<pdfrwt beam="2">  1       21 0.52299484E-02 0.23006008E+03</pdfrwt>
<totfact> 0.74988466E+03</totfact>
</mgrwt>
</event>
<event>
 4    1  0.3935877E+000  0.1941389E+03  0.7546771E-02  0.1154780E+00
         21   -1    0    0  503  502  0.00000000000E+00  0.00000000000E+00  0.20455328746E+03  0.20455328746E+03  0.00000000000E+00 0.  1.
         21   -1    0    0  501  503 -0.00000000000E+00 -0.00000000000E+00 -0.21575773217E+03  0.21575773217E+03  0.00000000000E+00 0.  1.
          6    1    1    2  501    0 -0.62405247956E+02  0.62181152645E+02 -0.85905554997E+02  0.21229619661E+03  0.17300000000E+03 0.  1.
         -6    1    1    2    0  502  0.62405247956E+02 -0.62181152645E+02  0.74701110282E+02  0.20801482302E+03  0.17300000000E+03 0.  1.
<mgrwt>
<rscale>  2 0.19413890E+03</rscale>
<asrwt>0</asrwt>
<pdfrwt beam="1">  1       21 0.31469737E-01 0.19413890E+03</pdfrwt>
<pdfrwt beam="2">  1       21 0.33193497E-01 0.19413890E+03</pdfrwt>
<totfact> 0.84769096E+04</totfact>
</mgrwt>
</event>
<event>
 4    1  0.3935877E+000  0.2100690E+03  0.7546771E-02  0.1141511E+00
         21   -1    0    0  503  502  0.00000000000E+00  0.00000000000E+00  0.30330497327E+03  0.30330497327E+03  0.00000000000E+00 0.  1.
         21   -1    0    0  501  503 -0.00000000000E+00 -0.00000000000E+00 -0.29903755674E+03  0.29903755674E+03  0.00000000000E+00 0.  1.
          6    1    1    2  501    0 -0.11899378796E+03  0.63624389199E+01 -0.21367387636E+03  0.29964233286E+03  0.17300000000E+03 0.  1.
         -6    1    1    2    0  502  0.11899378796E+03 -0.63624389199E+01  0.21794129290E+03  0.30270019715E+03  0.17300000000E+03 0.  1.
<mgrwt>
<rscale>  2 0.21006904E+03</rscale>
<asrwt>0</asrwt>
<pdfrwt beam="1">  1       21 0.46662304E-01 0.21006904E+03</pdfrwt>
<pdfrwt beam="2">  1       21 0.46005778E-01 0.21006904E+03</pdfrwt>
<totfact> 0.19707011E+04</totfact>
</mgrwt>
</event>
<event>
 4    1  0.3935877E+000  0.2034580E+03  0.7546771E-02  0.1146854E+00
         21   -1    0    0  501  502  0.00000000000E+00  0.00000000000E+00  0.10450281666E+04  0.10450281666E+04  0.00000000000E+00 0.  1.
         21   -1    0    0  502  503 -0.00000000000E+00 -0.00000000000E+00 -0.41353977251E+02  0.41353977251E+02  0.00000000000E+00 0. -1.
          6    1    1    2  501    0  0.85827348950E+02 -0.64029814925E+02  0.61333723542E+03  0.64620253434E+03  0.17300000000E+03 0. -1.
         -6    1    1    2    0  503 -0.85827348950E+02  0.64029814925E+02  0.39033695389E+03  0.44017960948E+03  0.17300000000E+03 0.  1.
<mgrwt>
<rscale>  2 0.20345798E+03</rscale>
<asrwt>0</asrwt>
<pdfrwt beam="1">  1       21 0.16077354E+00 0.20345798E+03</pdfrwt>
<pdfrwt beam="2">  1       21 0.63621512E-02 0.20345798E+03</pdfrwt>
<totfact> 0.44017489E+04</totfact>
</mgrwt>
</event>
<event>
 4    1  0.3935877E+000  0.2572899E+03  0.7546771E-02  0.1108783E+00
         21   -1    0    0  503  502  0.00000000000E+00  0.00000000000E+00  0.92939727079E+03  0.92939727079E+03  0.00000000000E+00 0.  1.
         21   -1    0    0  501  503 -0.00000000000E+00 -0.00000000000E+00 -0.71781979865E+02  0.71781979865E+02  0.00000000000E+00 0. -1.
          6    1    1    2  501    0 -0.84341341279E+01  0.19025760494E+03  0.38478764754E+03  0.46288186890E+03  0.17300000000E+03 0.  1.
         -6    1    1    2    0  502  0.84341341279E+01 -0.19025760494E+03  0.47282764338E+03  0.53829738175E+03  0.17300000000E+03 0. -1.
<mgrwt>
<rscale>  2 0.25728990E+03</rscale>
<asrwt>0</asrwt>
<pdfrwt beam="1">  1       21 0.14298419E+00 0.25728990E+03</pdfrwt>
<pdfrwt beam="2">  1       21 0.11043382E-01 0.25728990E+03</pdfrwt>
<totfact> 0.22204353E+04</totfact>
</mgrwt>
</event>
<event>
 4    1  0.3935877E+000  0.1888926E+03  0.7546771E-02  0.1159464E+00
         21   -1    0    0  503  502  0.00000000000E+00  0.00000000000E+00  0.24522769346E+02  0.24522769346E+02  0.00000000000E+00 0. -1.
         21   -1    0    0  501  503 -0.00000000000E+00 -0.00000000000E+00 -0.14555383948E+04  0.14555383948E+04  0.00000000000E+00 0. -1.
          6    1    1    2  501    0  0.19697604280E+02  0.73235289869E+02 -0.70115372922E+03  0.72615215713E+03  0.17300000000E+03 0. -1.
         -6    1    1    2    0  502 -0.19697604280E+02 -0.73235289869E+02 -0.72986189625E+03  0.75390900704E+03  0.17300000000E+03 0. -1.
<mgrwt>
<rscale>  2 0.18889257E+03</rscale>
<asrwt>0</asrwt>
<pdfrwt beam="1">  1       21 0.37727342E-02 0.18889257E+03</pdfrwt>
<pdfrwt beam="2">  1       21 0.22392896E+00 0.18889257E+03</pdfrwt>
<totfact> 0.41248988E+04</totfact>
</mgrwt>
</event>
<event>
 4    1  0.3935877E+000  0.2595765E+03  0.7546771E-02  0.1107398E+00
         21   -1    0    0  501  502  0.00000000000E+00  0.00000000000E+00  0.10772152048E+04  0.10772152048E+04  0.00000000000E+00 0.  1.
         21   -1    0    0  502  503 -0.00000000000E+00 -0.00000000000E+00 -0.65548706008E+02  0.65548706008E+02  0.00000000000E+00 0.  1.
          6    1    1    2  501    0  0.13870076777E+03  0.13495576727E+03  0.62804170367E+03  0.67957070540E+03  0.17300000000E+03 0.  1.
         -6    1    1    2    0  503 -0.13870076777E+03 -0.13495576727E+03  0.38362479511E+03  0.46319320539E+03  0.17300000000E+03 0.  1.
<mgrwt>
<rscale>  2 0.25957651E+03</rscale>
<asrwt>0</asrwt>
<pdfrwt beam="1">  1       21 0.16572540E+00 0.25957651E+03</pdfrwt>
<pdfrwt beam="2">  1       21 0.10084417E-01 0.25957651E+03</pdfrwt>
<totfact> 0.17533970E+04</totfact>
</mgrwt>
</event>
<event>
 4    1  0.3935877E+000  0.2139093E+03  0.7546771E-02  0.1138507E+00
         21   -1    0    0  503  502  0.00000000000E+00  0.00000000000E+00  0.64104457514E+03  0.64104457514E+03  0.00000000000E+00 0. -1.
         21   -1    0    0  501  503 -0.00000000000E+00 -0.00000000000E+00 -0.12943385806E+03  0.12943385806E+03  0.00000000000E+00 0.  1.
          6    1    1    2  501    0 -0.68357079118E+02  0.10561959272E+03 -0.21980421612E+01  0.21392059280E+03  0.17300000000E+03 0.  1.
         -6    1    1    2    0  502  0.68357079118E+02 -0.10561959272E+03  0.51380875924E+03  0.55655784040E+03  0.17300000000E+03 0. -1.
<mgrwt>
<rscale>  2 0.21390930E+03</rscale>
<asrwt>0</asrwt>
<pdfrwt beam="1">  1       21 0.98622241E-01 0.21390930E+03</pdfrwt>
<pdfrwt beam="2">  1       21 0.19912902E-01 0.21390930E+03</pdfrwt>
<totfact> 0.19487547E+04</totfact>
</mgrwt>
</event>
<event>
 4    1  0.3935877E+000  0.2000953E+03  0.7546771E-02  0.1149659E+00
         21   -1    0    0  503  502  0.00000000000E+00  0.00000000000E+00  0.31245801396E+03  0.31245801396E+03  0.00000000000E+00 0. -1.
         21   -1    0    0  501  503 -0.00000000000E+00 -0.00000000000E+00 -0.17203876786E+03  0.17203876786E+03  0.00000000000E+00 0. -1.
          6    1    1    2  501    0  0.90764963751E+02  0.43253356754E+02 -0.52161142968E+02  0.20678229216E+03  0.17300000000E+03 0. -1.
         -6    1    1    2    0  502 -0.90764963751E+02 -0.43253356754E+02  0.19258038906E+03  0.27771448966E+03  0.17300000000E+03 0. -1.
<mgrwt>
<rscale>  2 0.20009531E+03</rscale>
<asrwt>0</asrwt>
<pdfrwt beam="1">  1       21 0.48070463E-01 0.20009531E+03</pdfrwt>
<pdfrwt beam="2">  1       21 0.26467503E-01 0.20009531E+03</pdfrwt>
<totfact> 0.55957362E+04</totfact>
</mgrwt>
</event>
<event>
 4    1  0.3935877E+000  0.3195142E+03  0.7546771E-02  0.1075873E+00
         21   -1    0    0  503  502  0.00000000000E+00  0.00000000000E+00  0.13720658753E+04  0.13720658753E+04  0.00000000000E+00 0.  1.
         21   -1    0    0  501  503 -0.00000000000E+00 -0.00000000000E+00 -0.16279921537E+03  0.16279921537E+03  0.00000000000E+00 0.  1.
          6    1    1    2  501    0 -0.17770069015E+03  0.20145177291E+03  0.39143802925E+02  0.32190307454E+03  0.17300000000E+03 0.  1.
         -6    1    1    2    0  502  0.17770069015E+03 -0.20145177291E+03  0.11701228570E+04  0.12129620161E+04  0.17300000000E+03 0.  1.
<mgrwt>
<rscale>  2 0.31951424E+03</rscale>
<asrwt>0</asrwt>
<pdfrwt beam="1">  1       21 0.21108705E+00 0.31951424E+03</pdfrwt>
<pdfrwt beam="2">  1       21 0.25046034E-01 0.31951424E+03</pdfrwt>
<totfact> 0.15494512E+03</totfact>
</mgrwt>
</event>
<event>
 4    1  0.3935877E+000  0.2369519E+03  0.7546771E-02  0.1121840E+00
         21   -1    0    0  501  502  0.00000000000E+00  0.00000000000E+00  0.20035310864E+03  0.20035310864E+03  0.00000000000E+00 0.  1.
         21   -1    0    0  502  503 -0.00000000000E+00 -0.00000000000E+00 -0.28545300039E+03  0.28545300039E+03  0.00000000000E+00 0.  1.
          6    1    1    2  501    0 -0.26307051375E+02  0.15976590042E+03 -0.97127783573E+01  0.23715088436E+03  0.17300000000E+03 0.  1.
         -6    1    1    2    0  503  0.26307051375E+02 -0.15976590042E+03 -0.75387113391E+02  0.24865522467E+03  0.17300000000E+03 0.  1.
<mgrwt>
<rscale>  2 0.23695190E+03</rscale>
<asrwt>0</asrwt>
<pdfrwt beam="1">  1       21 0.30823555E-01 0.23695190E+03</pdfrwt>
<pdfrwt beam="2">  1       21 0.43915846E-01 0.23695190E+03</pdfrwt>
<totfact> 0.49339765E+04</totfact>
</mgrwt>
</event>
<event>
 4    1  0.3935877E+000  0.2214912E+03  0.7546771E-02  0.1132776E+00
         21   -1    0    0  501  502  0.00000000000E+00  0.00000000000E+00  0.31147541954E+03  0.31147541954E+03  0.00000000000E+00 0.  1.
         21   -1    0    0  502  503 -0.00000000000E+00 -0.00000000000E+00 -0.20128237618E+03  0.20128237618E+03  0.00000000000E+00 0. -1.
          6    1    1    2  501    0 -0.11172780794E+03  0.81524431882E+02  0.17466420597E+03  0.28207431806E+03  0.17300000000E+03 0.  1.
         -6    1    1    2    0  503  0.11172780794E+03 -0.81524431882E+02 -0.64471162603E+02  0.23068347766E+03  0.17300000000E+03 0. -1.
<mgrwt>
<rscale>  2 0.22149116E+03</rscale>
<asrwt>0</asrwt>
<pdfrwt beam="1">  1       21 0.47919295E-01 0.22149116E+03</pdfrwt>
<pdfrwt beam="2">  1       21 0.30966519E-01 0.22149116E+03</pdfrwt>
<totfact> 0.41100967E+04</totfact>
</mgrwt>
</event>
<event>
 4    1  0.3935877E+000  0.1800606E+03  0.7546771E-02  0.1167744E+00
         21   -1    0    0  501  502  0.00000000000E+00  0.00000000000E+00  0.22521248576E+02  0.22521248576E+02  0.00000000000E+00 0. -1.
         21   -1    0    0  502  503 -0.00000000000E+00 -0.00000000000E+00 -0.14868699112E+04  0.14868699112E+04  0.00000000000E+00 0.  1.
          6    1    1    2  501    0 -0.14997393393E+02  0.47622456980E+02 -0.59762528085E+03  0.62416167499E+03  0.17300000000E+03 0. -1.
         -6    1    1    2    0  503  0.14997393393E+02 -0.47622456980E+02 -0.86672338176E+03  0.88522948477E+03  0.17300000000E+03 0.  1.
<mgrwt>
<rscale>  2 0.18006060E+03</rscale>
<asrwt>0</asrwt>
<pdfrwt beam="1">  1       21 0.34648052E-02 0.18006060E+03</pdfrwt>
<pdfrwt beam="2">  1       21 0.22874937E+00 0.18006060E+03</pdfrwt>
<totfact> 0.44746573E+04</totfact>
</mgrwt>
</event>
<event>
 4    1  0.3935877E+000  0.1778453E+03  0.7546771E-02  0.1169905E+00
         21   -1    0    0  501  502  0.00000000000E+00  0.00000000000E+00  0.22759572837E+03  0.22759572837E+03  0.00000000000E+00 0. -1.
         21   -1    0    0  502  503 -0.00000000000E+00 -0.00000000000E+00 -0.32372421725E+03  0.32372421725E+03  0.00000000000E+00 0. -1.
          6    1    1    2  501    0  0.39441742763E+02  0.12012581600E+02  0.16018499528E+03  0.23934950575E+03  0.17300000000E+03 0. -1.
         -6    1    1    2    0  503 -0.39441742763E+02 -0.12012581600E+02 -0.25631348417E+03  0.31197043987E+03  0.17300000000E+03 0. -1.
<mgrwt>
<rscale>  2 0.17784531E+03</rscale>
<asrwt>0</asrwt>
<pdfrwt beam="1">  1       21 0.35014727E-01 0.17784531E+03</pdfrwt>
<pdfrwt beam="2">  1       21 0.49803726E-01 0.17784531E+03</pdfrwt>
<totfact> 0.30450246E+04</totfact>
</mgrwt>
</event>
<event>
 4    1  0.3935877E+000  0.1777208E+03  0.7546771E-02  0.1170027E+00
         21   -1    0    0  503  502  0.00000000000E+00  0.00000000000E+00  0.86809350264E+03  0.86809350264E+03  0.00000000000E+00 0.  1.
         21   -1    0    0  501  503 -0.00000000000E+00 -0.00000000000E+00 -0.36706964543E+02  0.36706964543E+02  0.00000000000E+00 0.  1.
          6    1    1    2  501    0 -0.17719146959E+02 -0.36629491718E+02  0.45813042530E+03  0.49139411313E+03  0.17300000000E+03 0.  1.
         -6    1    1    2    0  502  0.17719146959E+02  0.36629491718E+02  0.37325611280E+03  0.41340635406E+03  0.17300000000E+03 0.  1.
<mgrwt>
<rscale>  2 0.17772081E+03</rscale>
<asrwt>0</asrwt>
<pdfrwt beam="1">  1       21 0.13355283E+00 0.17772081E+03</pdfrwt>
<pdfrwt beam="2">  1       21 0.56472260E-02 0.17772081E+03</pdfrwt>
<totfact> 0.88913339E+04</totfact>
</mgrwt>
</event>
<event>
 4    1  0.3935877E+000  0.1753280E+03  0.7546771E-02  0.1172403E+00
         21   -1    0    0  503  502  0.00000000000E+00  0.00000000000E+00  0.82537683656E+02  0.82537683656E+02  0.00000000000E+00 0. -1.
         21   -1    0    0  501  503 -0.00000000000E+00 -0.00000000000E+00 -0.43572923208E+03  0.43572923208E+03  0.00000000000E+00 0. -1.
          6    1    1    2  501    0  0.12685651867E+02 -0.25494638415E+02 -0.27535962963E+03  0.32643962379E+03  0.17300000000E+03 0. -1.
         -6    1    1    2    0  502 -0.12685651867E+02  0.25494638415E+02 -0.77831918794E+02  0.19182729194E+03  0.17300000000E+03 0. -1.
<mgrwt>
<rscale>  2 0.17532799E+03</rscale>
<asrwt>0</asrwt>
<pdfrwt beam="1">  1       21 0.12698105E-01 0.17532799E+03</pdfrwt>
<pdfrwt beam="2">  1       21 0.67035268E-01 0.17532799E+03</pdfrwt>
<totfact> 0.10875888E+05</totfact>
</mgrwt>
</event>
<event>
 4    1  0.3935877E+000  0.2018226E+03  0.7546771E-02  0.1148210E+00
         21   -1    0    0  503  502  0.00000000000E+00  0.00000000000E+00  0.14099093986E+03  0.14099093986E+03  0.00000000000E+00 0.  1.
         21   -1    0    0  501  503 -0.00000000000E+00 -0.00000000000E+00 -0.65824439918E+03  0.65824439918E+03  0.00000000000E+00 0.  1.
          6    1    1    2  501    0 -0.12877737891E+02 -0.10313839062E+03 -0.55796794435E+03  0.59334693955E+03  0.17300000000E+03 0.  1.
         -6    1    1    2    0  502  0.12877737891E+02  0.10313839062E+03  0.40714485032E+02  0.20588839949E+03  0.17300000000E+03 0.  1.
<mgrwt>
<rscale>  2 0.20182260E+03</rscale>
<asrwt>0</asrwt>
<pdfrwt beam="1">  1       21 0.21690915E-01 0.20182260E+03</pdfrwt>
<pdfrwt beam="2">  1       21 0.10126837E+00 0.20182260E+03</pdfrwt>
<totfact> 0.15699905E+04</totfact>
</mgrwt>
</event>
<event>
 4    1  0.3935877E+000  0.4791598E+03  0.7546771E-02  0.1019366E+00
         21   -1    0    0  503  502  0.00000000000E+00  0.00000000000E+00  0.19361792215E+03  0.19361792215E+03  0.00000000000E+00 0. -1.
         21   -1    0    0  501  503 -0.00000000000E+00 -0.00000000000E+00 -0.13220883224E+04  0.13220883224E+04  0.00000000000E+00 0.  1.
          6    1    1    2  501    0  0.55200418685E+02  0.44341634430E+03 -0.80754948312E+03  0.93900495648E+03  0.17300000000E+03 0.  1.
         -6    1    1    2    0  502 -0.55200418685E+02 -0.44341634430E+03 -0.32092091716E+03  0.57670128809E+03  0.17300000000E+03 0. -1.
<mgrwt>
<rscale>  2 0.47915983E+03</rscale>
<asrwt>0</asrwt>
<pdfrwt beam="1">  1       21 0.29787372E-01 0.47915983E+03</pdfrwt>
<pdfrwt beam="2">  1       21 0.20339821E+00 0.47915983E+03</pdfrwt>
<totfact> 0.11388093E+03</totfact>
</mgrwt>
</event>
<event>
 4    1  0.3935877E+000  0.1974964E+03  0.7546771E-02  0.1151869E+00
         21   -1    0    0  503  502  0.00000000000E+00  0.00000000000E+00  0.25901971575E+03  0.25901971575E+03  0.00000000000E+00 0. -1.
         21   -1    0    0  501  503 -0.00000000000E+00 -0.00000000000E+00 -0.22622371833E+03  0.22622371833E+03  0.00000000000E+00 0. -1.
          6    1    1    2  501    0  0.69343185796E+02 -0.65324934657E+02 -0.12389271000E+03  0.23313993244E+03  0.17300000000E+03 0. -1.
         -6    1    1    2    0  502 -0.69343185796E+02  0.65324934657E+02  0.15668870743E+03  0.25210350164E+03  0.17300000000E+03 0. -1.
<mgrwt>
<rscale>  2 0.19749639E+03</rscale>
<asrwt>0</asrwt>
<pdfrwt beam="1">  1       21 0.39849187E-01 0.19749639E+03</pdfrwt>
<pdfrwt beam="2">  1       21 0.34803649E-01 0.19749639E+03</pdfrwt>
<totfact> 0.48186475E+04</totfact>
</mgrwt>
</event>
<event>
 4    1  0.3935877E+000  0.2688367E+03  0.7546771E-02  0.1101947E+00
         21   -1    0    0  501  502  0.00000000000E+00  0.00000000000E+00  0.65332554133E+03  0.65332554133E+03  0.00000000000E+00 0.  1.
         21   -1    0    0  502  503 -0.00000000000E+00 -0.00000000000E+00 -0.11189731210E+03  0.11189731210E+03  0.00000000000E+00 0. -1.
          6    1    1    2  501    0 -0.11351090387E+03 -0.17163755342E+03  0.31153630964E+03  0.41149489336E+03  0.17300000000E+03 0. -1.
         -6    1    1    2    0  503  0.11351090387E+03  0.17163755342E+03  0.22989191960E+03  0.35372796007E+03  0.17300000000E+03 0. -1.
<mgrwt>
<rscale>  2 0.26883671E+03</rscale>
<asrwt>0</asrwt>
<pdfrwt beam="1">  1       21 0.10051162E+00 0.26883671E+03</pdfrwt>
<pdfrwt beam="2">  1       21 0.17214972E-01 0.26883671E+03</pdfrwt>
<totfact> 0.23754650E+04</totfact>
</mgrwt>
</event>
<event>
 4    1  0.3935877E+000  0.1739335E+03  0.7546771E-02  0.1173807E+00
         21   -1    0    0  503  502  0.00000000000E+00  0.00000000000E+00  0.52262294678E+02  0.52262294678E+02  0.00000000000E+00 0. -1.
         21   -1    0    0  501  503 -0.00000000000E+00 -0.00000000000E+00 -0.65905898717E+03  0.65905898717E+03  0.00000000000E+00 0. -1.
          6    1    1    2  501    0 -0.12501981201E+01 -0.17952815988E+02 -0.42746120969E+03  0.46149317697E+03  0.17300000000E+03 0.  1.
         -6    1    1    2    0  502  0.12501981201E+01  0.17952815988E+02 -0.17933548280E+03  0.24982810488E+03  0.17300000000E+03 0.  1.
<mgrwt>
<rscale>  2 0.17393351E+03</rscale>
<asrwt>0</asrwt>
<pdfrwt beam="1">  1       21 0.80403531E-02 0.17393351E+03</pdfrwt>
<pdfrwt beam="2">  1       21 0.10139369E+00 0.17393351E+03</pdfrwt>
<totfact> 0.95244940E+04</totfact>
</mgrwt>
</event>
<event>
 4    1  0.3935877E+000  0.2188187E+03  0.7546771E-02  0.1134767E+00
         21   -1    0    0  503  502  0.00000000000E+00  0.00000000000E+00  0.33186976675E+03  0.33186976675E+03  0.00000000000E+00 0. -1.
         21   -1    0    0  501  503 -0.00000000000E+00 -0.00000000000E+00 -0.14454440656E+03  0.14454440656E+03  0.00000000000E+00 0. -1.
          6    1    1    2  501    0  0.10280864221E+03  0.85924388923E+02  0.83442632748E+02  0.23418857890E+03  0.17300000000E+03 0. -1.
         -6    1    1    2    0  502 -0.10280864221E+03 -0.85924388923E+02  0.10388272745E+03  0.24222559441E+03  0.17300000000E+03 0. -1.
<mgrwt>
<rscale>  2 0.21881869E+03</rscale>
<asrwt>0</asrwt>
<pdfrwt beam="1">  1       21 0.51056887E-01 0.21881869E+03</pdfrwt>
<pdfrwt beam="2">  1       21 0.22237601E-01 0.21881869E+03</pdfrwt>
<totfact> 0.68207668E+04</totfact>
</mgrwt>
</event>
<event>
 4    1  0.3935877E+000  0.1816770E+03  0.7546771E-02  0.1166190E+00
         21   -1    0    0  501  502  0.00000000000E+00  0.00000000000E+00  0.50200050558E+02  0.50200050558E+02  0.00000000000E+00 0.  1.
         21   -1    0    0  502  503 -0.00000000000E+00 -0.00000000000E+00 -0.13769246134E+04  0.13769246134E+04  0.00000000000E+00 0. -1.
          6    1    1    2  501    0  0.24060746421E+02 -0.49986203863E+02 -0.14757641272E+03  0.23406267897E+03  0.17300000000E+03 0.  1.
         -6    1    1    2    0  503 -0.24060746421E+02  0.49986203863E+02 -0.11791481502E+04  0.11930619850E+04  0.17300000000E+03 0. -1.
<mgrwt>
<rscale>  2 0.18167702E+03</rscale>
<asrwt>0</asrwt>
<pdfrwt beam="1">  1       21 0.77230858E-02 0.18167702E+03</pdfrwt>
<pdfrwt beam="2">  1       21 0.21183452E+00 0.18167702E+03</pdfrwt>
<totfact> 0.14551629E+04</totfact>
</mgrwt>
</event>
<event>
 4    1  0.3935877E+000  0.1897014E+03  0.7546771E-02  0.1158731E+00
         21   -1    0    0  501  502  0.00000000000E+00  0.00000000000E+00  0.16094846152E+03  0.16094846152E+03  0.00000000000E+00 0. -1.
         21   -1    0    0  502  503 -0.00000000000E+00 -0.00000000000E+00 -0.22711468265E+03  0.22711468265E+03  0.00000000000E+00 0. -1.
          6    1    1    2  501    0  0.69554667079E+02  0.34925342716E+02 -0.89147757210E+01  0.18991078037E+03  0.17300000000E+03 0.  1.
         -6    1    1    2    0  503 -0.69554667079E+02 -0.34925342716E+02 -0.57251445403E+02  0.19815236379E+03  0.17300000000E+03 0.  1.
<mgrwt>
<rscale>  2 0.18970143E+03</rscale>
<asrwt>0</asrwt>
<pdfrwt beam="1">  1       21 0.24761302E-01 0.18970143E+03</pdfrwt>
<pdfrwt beam="2">  1       21 0.34940720E-01 0.18970143E+03</pdfrwt>
<totfact> 0.12193527E+05</totfact>
</mgrwt>
</event>
<event>
 4    1  0.3935877E+000  0.2358099E+03  0.7546771E-02  0.1122616E+00
         21   -1    0    0  501  502  0.00000000000E+00  0.00000000000E+00  0.12740924278E+04  0.12740924278E+04  0.00000000000E+00 0.  1.
         21   -1    0    0  502  503 -0.00000000000E+00 -0.00000000000E+00 -0.76600994411E+02  0.76600994411E+02  0.00000000000E+00 0. -1.
          6    1    1    2  501    0 -0.13934696241E+03  0.79118356105E+02  0.10417260212E+04  0.10680821099E+04  0.17300000000E+03 0.  1.
         -6    1    1    2    0  503  0.13934696241E+03 -0.79118356105E+02  0.15576541213E+03  0.28261131227E+03  0.17300000000E+03 0. -1.
<mgrwt>
<rscale>  2 0.23580986E+03</rscale>
<asrwt>0</asrwt>
<pdfrwt beam="1">  1       21 0.19601420E+00 0.23580986E+03</pdfrwt>
<pdfrwt beam="2">  1       21 0.11784769E-01 0.23580986E+03</pdfrwt>
<totfact> 0.83433975E+03</totfact>
</mgrwt>
</event>
<event>
 4    1  0.3935877E+000  0.7698092E+03  0.7546771E-02  0.9604775E-01
         21   -1    0    0  503  502  0.00000000000E+00  0.00000000000E+00  0.84416027763E+03  0.84416027763E+03  0.00000000000E+00 0.  1.
         21   -1    0    0  501  503 -0.00000000000E+00 -0.00000000000E+00 -0.98927537008E+03  0.98927537008E+03  0.00000000000E+00 0. -1.
          6    1    1    2  501    0 -0.64761718944E+03 -0.37850921692E+03 -0.56655093524E+03  0.95581703980E+03  0.17300000000E+03 0. -1.
         -6    1    1    2    0  502  0.64761718944E+03  0.37850921692E+03  0.42143584279E+03  0.87761860790E+03  0.17300000000E+03 0.  1.
<mgrwt>
<rscale>  2 0.76980923E+03</rscale>
<asrwt>0</asrwt>
<pdfrwt beam="1">  1       21 0.12987081E+00 0.76980923E+03</pdfrwt>
<pdfrwt beam="2">  1       21 0.15219621E+00 0.76980923E+03</pdfrwt>
<totfact> 0.87595339E+01</totfact>
</mgrwt>
</event>
<event>
 4    1  0.3935877E+000  0.1875162E+03  0.7546771E-02  0.1160721E+00
         21   -1    0    0  503  502  0.00000000000E+00  0.00000000000E+00  0.66065580468E+03  0.66065580468E+03  0.00000000000E+00 0.  1.
         21   -1    0    0  501  503 -0.00000000000E+00 -0.00000000000E+00 -0.64246910080E+02  0.64246910080E+02  0.00000000000E+00 0.  1.
          6    1    1    2  501    0 -0.32451006760E+02  0.64654900700E+02  0.14806864154E+03  0.23892812022E+03  0.17300000000E+03 0. -1.
         -6    1    1    2    0  502  0.32451006760E+02 -0.64654900700E+02  0.44834025306E+03  0.48597459454E+03  0.17300000000E+03 0. -1.
<mgrwt>
<rscale>  2 0.18751620E+03</rscale>
<asrwt>0</asrwt>
<pdfrwt beam="1">  1       21 0.10163935E+00 0.18751620E+03</pdfrwt>
<pdfrwt beam="2">  1       21 0.98841404E-02 0.18751620E+03</pdfrwt>
<totfact> 0.65575217E+04</totfact>
</mgrwt>
</event>
<event>
 4    1  0.3935877E+000  0.2560951E+03  0.7546771E-02  0.1109512E+00
         21   -1    0    0  503  502  0.00000000000E+00  0.00000000000E+00  0.19487734281E+03  0.19487734281E+03  0.00000000000E+00 0. -1.
         21   -1    0    0  501  503 -0.00000000000E+00 -0.00000000000E+00 -0.40121224275E+03  0.40121224275E+03  0.00000000000E+00 0. -1.
          6    1    1    2  501    0 -0.18301170522E+03 -0.46501808696E+02 -0.22282543044E+03  0.33946409959E+03  0.17300000000E+03 0. -1.
         -6    1    1    2    0  502  0.18301170522E+03  0.46501808696E+02  0.16490530492E+02  0.25662548598E+03  0.17300000000E+03 0. -1.
<mgrwt>
<rscale>  2 0.25609510E+03</rscale>
<asrwt>0</asrwt>
<pdfrwt beam="1">  1       21 0.29981130E-01 0.25609510E+03</pdfrwt>
<pdfrwt beam="2">  1       21 0.61724960E-01 0.25609510E+03</pdfrwt>
<totfact> 0.25174215E+04</totfact>
</mgrwt>
</event>
<event>
 4    1  0.3935877E+000  0.1944842E+03  0.7546771E-02  0.1154478E+00
         21   -1    0    0  503  502  0.00000000000E+00  0.00000000000E+00  0.16037399843E+03  0.16037399843E+03  0.00000000000E+00 0. -1.
         21   -1    0    0  501  503 -0.00000000000E+00 -0.00000000000E+00 -0.34769852623E+03  0.34769852623E+03  0.00000000000E+00 0. -1.
          6    1    1    2  501    0 -0.10712859358E+02  0.88206149333E+02 -0.23774463388E+03  0.30715891827E+03  0.17300000000E+03 0. -1.
         -6    1    1    2    0  502  0.10712859358E+02 -0.88206149333E+02  0.50420106073E+02  0.20091360639E+03  0.17300000000E+03 0. -1.
<mgrwt>
<rscale>  2 0.19448416E+03</rscale>
<asrwt>0</asrwt>
<pdfrwt beam="1">  1       21 0.24672923E-01 0.19448416E+03</pdfrwt>
<pdfrwt beam="2">  1       21 0.53492081E-01 0.19448416E+03</pdfrwt>
<totfact> 0.51332840E+04</totfact>
</mgrwt>
</event>
<event>
 4    1  0.3935877E+000  0.2223115E+03  0.7546771E-02  0.1132171E+00
         21   -1    0    0  501  502  0.00000000000E+00  0.00000000000E+00  0.10699635825E+04  0.10699635825E+04  0.00000000000E+00 0.  1.
         21   -1    0    0  502  503 -0.00000000000E+00 -0.00000000000E+00 -0.50982634095E+02  0.50982634095E+02  0.00000000000E+00 0. -1.
          6    1    1    2  501    0 -0.13349510998E+03  0.40895888498E+02  0.68131964452E+03  0.71667208408E+03  0.17300000000E+03 0. -1.
         -6    1    1    2    0  503  0.13349510998E+03 -0.40895888498E+02  0.33766130391E+03  0.40427413254E+03  0.17300000000E+03 0. -1.
<mgrwt>
<rscale>  2 0.22231153E+03</rscale>
<asrwt>0</asrwt>
<pdfrwt beam="1">  1       21 0.16460977E+00 0.22231153E+03</pdfrwt>
<pdfrwt beam="2">  1       21 0.78434830E-02 0.22231153E+03</pdfrwt>
<totfact> 0.28406815E+04</totfact>
</mgrwt>
</event>
<event>
 4    1  0.3935877E+000  0.2096130E+03  0.7546771E-02  0.1141873E+00
         21   -1    0    0  501  502  0.00000000000E+00  0.00000000000E+00  0.22347396708E+03  0.22347396708E+03  0.00000000000E+00 0. -1.
         21   -1    0    0  502  503 -0.00000000000E+00 -0.00000000000E+00 -0.20160073713E+03  0.20160073713E+03  0.00000000000E+00 0.  1.
          6    1    1    2  501    0  0.40845260480E+02 -0.11108685849E+03  0.44370893431E+02  0.21425779243E+03  0.17300000000E+03 0. -1.
         -6    1    1    2    0  503 -0.40845260480E+02  0.11108685849E+03 -0.22497663482E+02  0.21081691179E+03  0.17300000000E+03 0.  1.
<mgrwt>
<rscale>  2 0.20961304E+03</rscale>
<asrwt>0</asrwt>
<pdfrwt beam="1">  1       21 0.34380611E-01 0.20961304E+03</pdfrwt>
<pdfrwt beam="2">  1       21 0.31015498E-01 0.20961304E+03</pdfrwt>
<totfact> 0.80827085E+04</totfact>
</mgrwt>
</event>
<event>
 4    1  0.3935877E+000  0.1885171E+03  0.7546771E-02  0.1159806E+00
         21   -1    0    0  501  502  0.00000000000E+00  0.00000000000E+00  0.17114486380E+03  0.17114486380E+03  0.00000000000E+00 0.  1.
         21   -1    0    0  502  503 -0.00000000000E+00 -0.00000000000E+00 -0.21581089887E+03  0.21581089887E+03  0.00000000000E+00 0.  1.
          6    1    1    2  501    0  0.73006511205E+02  0.16725929363E+02  0.15284449690E+02  0.18913572321E+03  0.17300000000E+03 0.  1.
         -6    1    1    2    0  503 -0.73006511205E+02 -0.16725929363E+02 -0.59950484763E+02  0.19782003947E+03  0.17300000000E+03 0.  1.
<mgrwt>
<rscale>  2 0.18851713E+03</rscale>
<asrwt>0</asrwt>
<pdfrwt beam="1">  1       21 0.26329979E-01 0.18851713E+03</pdfrwt>
<pdfrwt beam="2">  1       21 0.33201677E-01 0.18851713E+03</pdfrwt>
<totfact> 0.11998509E+05</totfact>
</mgrwt>
</event>
<event>
 4    1  0.3935877E+000  0.2789716E+03  0.7546771E-02  0.1096252E+00
         21   -1    0    0  501  502  0.00000000000E+00  0.00000000000E+00  0.49415079882E+03  0.49415079882E+03  0.00000000000E+00 0. -1.
         21   -1    0    0  502  503 -0.00000000000E+00 -0.00000000000E+00 -0.23414724706E+03  0.23414724706E+03  0.00000000000E+00 0.  1.
          6    1    1    2  501    0 -0.48734387307E+02 -0.21335672690E+03  0.33835663814E+03  0.43853203759E+03  0.17300000000E+03 0. -1.
         -6    1    1    2    0  503  0.48734387307E+02  0.21335672690E+03 -0.78353086376E+02  0.28976600830E+03  0.17300000000E+03 0.  1.
<mgrwt>
<rscale>  2 0.27897156E+03</rscale>
<asrwt>0</asrwt>
<pdfrwt beam="1">  1       21 0.76023200E-01 0.27897156E+03</pdfrwt>
<pdfrwt beam="2">  1       21 0.36022654E-01 0.27897156E+03</pdfrwt>
<totfact> 0.10902153E+04</totfact>
</mgrwt>
</event>
<event>
 4    1  0.3935877E+000  0.1830514E+03  0.7546771E-02  0.1164882E+00
         21   -1    0    0  501  502  0.00000000000E+00  0.00000000000E+00  0.60120773640E+03  0.60120773640E+03  0.00000000000E+00 0. -1.
         21   -1    0    0  502  503 -0.00000000000E+00 -0.00000000000E+00 -0.84109043718E+02  0.84109043718E+02  0.00000000000E+00 0. -1.
          6    1    1    2  501    0  0.41508016037E+02  0.43080180732E+02  0.45757403382E+03  0.49283041078E+03  0.17300000000E+03 0. -1.
         -6    1    1    2    0  503 -0.41508016037E+02 -0.43080180732E+02  0.59524658863E+02  0.19248636934E+03  0.17300000000E+03 0. -1.
<mgrwt>
<rscale>  2 0.18305141E+03</rscale>
<asrwt>0</asrwt>
<pdfrwt beam="1">  1       21 0.92493495E-01 0.18305141E+03</pdfrwt>
<pdfrwt beam="2">  1       21 0.12939853E-01 0.18305141E+03</pdfrwt>
<totfact> 0.50777839E+04</totfact>
</mgrwt>
</event>
<event>
 4    1  0.3935877E+000  0.2045867E+03  0.7546771E-02  0.1145926E+00
         21   -1    0    0  501  502  0.00000000000E+00  0.00000000000E+00  0.84072996569E+02  0.84072996569E+02  0.00000000000E+00 0. -1.
         21   -1    0    0  502  503 -0.00000000000E+00 -0.00000000000E+00 -0.58872236956E+03  0.58872236956E+03  0.00000000000E+00 0.  1.
          6    1    1    2  501    0 -0.46225335479E+02 -0.98944068419E+02 -0.12016027234E+03  0.23726399087E+03  0.17300000000E+03 0. -1.
         -6    1    1    2    0  503  0.46225335479E+02  0.98944068419E+02 -0.38448910064E+03  0.43553137525E+03  0.17300000000E+03 0.  1.
<mgrwt>
<rscale>  2 0.20458668E+03</rscale>
<asrwt>0</asrwt>
<pdfrwt beam="1">  1       21 0.12934307E-01 0.20458668E+03</pdfrwt>
<pdfrwt beam="2">  1       21 0.90572674E-01 0.20458668E+03</pdfrwt>
<totfact> 0.52790183E+04</totfact>
</mgrwt>
</event>
<event>
 4    1  0.3935877E+000  0.2184110E+03  0.7546771E-02  0.1135073E+00
         21   -1    0    0  501  502  0.00000000000E+00  0.00000000000E+00  0.15445378551E+03  0.15445378551E+03  0.00000000000E+00 0.  1.
         21   -1    0    0  502  503 -0.00000000000E+00 -0.00000000000E+00 -0.32916502139E+03  0.32916502139E+03  0.00000000000E+00 0. -1.
          6    1    1    2  501    0  0.12688774583E+03  0.40912633608E+02 -0.27286012282E+02  0.22010876879E+03  0.17300000000E+03 0.  1.
         -6    1    1    2    0  503 -0.12688774583E+03 -0.40912633608E+02 -0.14742522360E+03  0.26351003811E+03  0.17300000000E+03 0. -1.
<mgrwt>
<rscale>  2 0.21841095E+03</rscale>
<asrwt>0</asrwt>
<pdfrwt beam="1">  1       21 0.23762121E-01 0.21841095E+03</pdfrwt>
<pdfrwt beam="2">  1       21 0.50640772E-01 0.21841095E+03</pdfrwt>
<totfact> 0.61190306E+04</totfact>
</mgrwt>
</event>
<event>
 4    1  0.3935877E+000  0.2257005E+03  0.7546771E-02  0.1129703E+00
         21   -1    0    0  501  502  0.00000000000E+00  0.00000000000E+00  0.13048433553E+03  0.13048433553E+03  0.00000000000E+00 0.  1.
         21   -1    0    0  502  503 -0.00000000000E+00 -0.00000000000E+00 -0.54987418858E+03  0.54987418858E+03  0.00000000000E+00 0.  1.
          6    1    1    2  501    0 -0.13496333510E+03 -0.52882942116E+02 -0.26494996104E+02  0.22725028538E+03  0.17300000000E+03 0.  1.
         -6    1    1    2    0  503  0.13496333510E+03  0.52882942116E+02 -0.39289485695E+03  0.45310823873E+03  0.17300000000E+03 0.  1.
<mgrwt>
<rscale>  2 0.22570048E+03</rscale>
<asrwt>0</asrwt>
<pdfrwt beam="1">  1       21 0.20074513E-01 0.22570048E+03</pdfrwt>
<pdfrwt beam="2">  1       21 0.84596030E-01 0.22570048E+03</pdfrwt>
<totfact> 0.27268191E+04</totfact>
</mgrwt>
</event>
<event>
 4    1  0.3935877E+000  0.1774855E+03  0.7546771E-02  0.1170259E+00
         21   -1    0    0  503  502  0.00000000000E+00  0.00000000000E+00  0.53928280848E+03  0.53928280848E+03  0.00000000000E+00 0.  1.
         21   -1    0    0  501  503 -0.00000000000E+00 -0.00000000000E+00 -0.71435591613E+02  0.71435591613E+02  0.00000000000E+00 0.  1.
          6    1    1    2  501    0 -0.35140019530E+02  0.18365573328E+02  0.10354607799E+03  0.20548212945E+03  0.17300000000E+03 0.  1.
         -6    1    1    2    0  502  0.35140019530E+02 -0.18365573328E+02  0.36430113888E+03  0.40523627064E+03  0.17300000000E+03 0.  1.
<mgrwt>
<rscale>  2 0.17748554E+03</rscale>
<asrwt>0</asrwt>
<pdfrwt beam="1">  1       21 0.82966583E-01 0.17748554E+03</pdfrwt>
<pdfrwt beam="2">  1       21 0.10990091E-01 0.17748554E+03</pdfrwt>
<totfact> 0.87474426E+04</totfact>
</mgrwt>
</event>
<event>
 4    1  0.3935877E+000  0.1886398E+03  0.7546771E-02  0.1159694E+00
         21   -1    0    0  503  502  0.00000000000E+00  0.00000000000E+00  0.45569922473E+02  0.45569922473E+02  0.00000000000E+00 0.  1.
         21   -1    0    0  501  503 -0.00000000000E+00 -0.00000000000E+00 -0.10526590368E+04  0.10526590368E+04  0.00000000000E+00 0.  1.
          6    1    1    2  501    0 -0.45866121417E+02 -0.59600957891E+02 -0.78255544550E+03  0.80497080727E+03  0.17300000000E+03 0.  1.
         -6    1    1    2    0  502  0.45866121417E+02  0.59600957891E+02 -0.22453366880E+03  0.29325815198E+03  0.17300000000E+03 0.  1.
<mgrwt>
<rscale>  2 0.18863980E+03</rscale>
<asrwt>0</asrwt>
<pdfrwt beam="1">  1       21 0.70107578E-02 0.18863980E+03</pdfrwt>
<pdfrwt beam="2">  1       21 0.16194753E+00 0.18863980E+03</pdfrwt>
<totfact> 0.36841422E+04</totfact>
</mgrwt>
</event>
<event>
 4    1  0.3935877E+000  0.1741536E+03  0.7546771E-02  0.1173584E+00
         21   -1    0    0  503  502  0.00000000000E+00  0.00000000000E+00  0.48673537815E+03  0.48673537815E+03  0.00000000000E+00 0. -1.
         21   -1    0    0  501  503 -0.00000000000E+00 -0.00000000000E+00 -0.75428401952E+02  0.75428401952E+02  0.00000000000E+00 0. -1.
          6    1    1    2  501    0  0.99015140831E+01 -0.17390283827E+02  0.88441365702E+02  0.19532367271E+03  0.17300000000E+03 0. -1.
         -6    1    1    2    0  502 -0.99015140831E+01  0.17390283827E+02  0.32286561050E+03  0.36684010740E+03  0.17300000000E+03 0. -1.
<mgrwt>
<rscale>  2 0.17415356E+03</rscale>
<asrwt>0</asrwt>
<pdfrwt beam="1">  1       21 0.74882364E-01 0.17415356E+03</pdfrwt>
<pdfrwt beam="2">  1       21 0.11604370E-01 0.17415356E+03</pdfrwt>
<totfact> 0.10013705E+05</totfact>
</mgrwt>
</event>
<event>
 4    1  0.3935877E+000  0.1799629E+03  0.7546771E-02  0.1167839E+00
         21   -1    0    0  503  502  0.00000000000E+00  0.00000000000E+00  0.16625576131E+03  0.16625576131E+03  0.00000000000E+00 0.  1.
         21   -1    0    0  501  503 -0.00000000000E+00 -0.00000000000E+00 -0.12092162549E+04  0.12092162549E+04  0.00000000000E+00 0.  1.
          6    1    1    2  501    0  0.76163745232E+01  0.48986003353E+02 -0.11513893073E+04  0.11653686004E+04  0.17300000000E+03 0.  1.
         -6    1    1    2    0  502 -0.76163745232E+01 -0.48986003353E+02  0.10842881376E+03  0.21010341582E+03  0.17300000000E+03 0.  1.
<mgrwt>
<rscale>  2 0.17996288E+03</rscale>
<asrwt>0</asrwt>
<pdfrwt beam="1">  1       21 0.25577809E-01 0.17996288E+03</pdfrwt>
<pdfrwt beam="2">  1       21 0.18603327E+00 0.17996288E+03</pdfrwt>
<totfact> 0.24338364E+03</totfact>
</mgrwt>
</event>
<event>
 4    1  0.3935877E+000  0.2690086E+03  0.7546771E-02  0.1101848E+00
         21   -1    0    0  503  502  0.00000000000E+00  0.00000000000E+00  0.11134011312E+03  0.11134011312E+03  0.00000000000E+00 0. -1.
         21   -1    0    0  501  503 -0.00000000000E+00 -0.00000000000E+00 -0.66881059478E+03  0.66881059478E+03  0.00000000000E+00 0.  1.
          6    1    1    2  501    0 -0.87626320929E+02 -0.18643570344E+03 -0.21323235221E+03  0.34326910677E+03  0.17300000000E+03 0.  1.
         -6    1    1    2    0  502  0.87626320929E+02  0.18643570344E+03 -0.34423812945E+03  0.43688160113E+03  0.17300000000E+03 0.  1.
<mgrwt>
<rscale>  2 0.26900863E+03</rscale>
<asrwt>0</asrwt>
<pdfrwt beam="1">  1       21 0.17129248E-01 0.26900863E+03</pdfrwt>
<pdfrwt beam="2">  1       21 0.10289394E+00 0.26900863E+03</pdfrwt>
<totfact> 0.22657648E+04</totfact>
</mgrwt>
</event>
<event>
 4    1  0.3935877E+000  0.2612493E+03  0.7546771E-02  0.1106395E+00
         21   -1    0    0  503  502  0.00000000000E+00  0.00000000000E+00  0.76790722945E+03  0.76790722945E+03  0.00000000000E+00 0. -1.
         21   -1    0    0  501  503 -0.00000000000E+00 -0.00000000000E+00 -0.22224062561E+03  0.22224062561E+03  0.00000000000E+00 0.  1.
          6    1    1    2  501    0  0.79662525293E+02 -0.17881853007E+03 -0.11067344710E+03  0.28372486060E+03  0.17300000000E+03 0.  1.
         -6    1    1    2    0  502 -0.79662525293E+02  0.17881853007E+03  0.65634005094E+03  0.70642299446E+03  0.17300000000E+03 0. -1.
<mgrwt>
<rscale>  2 0.26124928E+03</rscale>
<asrwt>0</asrwt>
<pdfrwt beam="1">  1       21 0.11813957E+00 0.26124928E+03</pdfrwt>
<pdfrwt beam="2">  1       21 0.34190866E-01 0.26124928E+03</pdfrwt>
<totfact> 0.43054030E+03</totfact>
</mgrwt>
</event>
<event>
 4    1  0.3935877E+000  0.1900419E+03  0.7546771E-02  0.1158424E+00
         21   -1    0    0  501  502  0.00000000000E+00  0.00000000000E+00  0.11632238126E+03  0.11632238126E+03  0.00000000000E+00 0.  1.
         21   -1    0    0  502  503 -0.00000000000E+00 -0.00000000000E+00 -0.46155315021E+03  0.46155315021E+03  0.00000000000E+00 0.  1.
          6    1    1    2  501    0 -0.78219191795E+02 -0.82871958186E+01 -0.73106543030E+01  0.19018245252E+03  0.17300000000E+03 0.  1.
         -6    1    1    2    0  503  0.78219191795E+02  0.82871958186E+01 -0.33792011465E+03  0.38769307895E+03  0.17300000000E+03 0.  1.
<mgrwt>
<rscale>  2 0.19004189E+03</rscale>
<asrwt>0</asrwt>
<pdfrwt beam="1">  1       21 0.17895751E-01 0.19004189E+03</pdfrwt>
<pdfrwt beam="2">  1       21 0.71008178E-01 0.19004189E+03</pdfrwt>
<totfact> 0.51013496E+04</totfact>
</mgrwt>
</event>
<event>
 4    1  0.3935877E+000  0.2085332E+03  0.7546771E-02  0.1142733E+00
         21   -1    0    0  503  502  0.00000000000E+00  0.00000000000E+00  0.94874505749E+02  0.94874505749E+02  0.00000000000E+00 0.  1.
         21   -1    0    0  501  503 -0.00000000000E+00 -0.00000000000E+00 -0.45918122251E+03  0.45918122251E+03  0.00000000000E+00 0.  1.
          6    1    1    2  501    0  0.11570955041E+03  0.12976292494E+02 -0.19391347657E+03  0.28476046182E+03  0.17300000000E+03 0.  1.
         -6    1    1    2    0  502 -0.11570955041E+03 -0.12976292494E+02 -0.17039324019E+03  0.26929526644E+03  0.17300000000E+03 0.  1.
<mgrwt>
<rscale>  2 0.20853317E+03</rscale>
<asrwt>0</asrwt>
<pdfrwt beam="1">  1       21 0.14596078E-01 0.20853317E+03</pdfrwt>
<pdfrwt beam="2">  1       21 0.70643265E-01 0.20853317E+03</pdfrwt>
<totfact> 0.74332615E+04</totfact>
</mgrwt>
</event>
<event>
 4    1  0.3935877E+000  0.1985347E+03  0.7546771E-02  0.1150981E+00
         21   -1    0    0  501  502  0.00000000000E+00  0.00000000000E+00  0.45132436576E+02  0.45132436576E+02  0.00000000000E+00 0.  1.
         21   -1    0    0  502  503 -0.00000000000E+00 -0.00000000000E+00 -0.14214988881E+04  0.14214988881E+04  0.00000000000E+00 0. -1.
          6    1    1    2  501    0  0.27938144268E+01 -0.97361255357E+02 -0.23280692365E+03  0.30596582022E+03  0.17300000000E+03 0.  1.
         -6    1    1    2    0  503 -0.27938144268E+01  0.97361255357E+02 -0.11435595279E+04  0.11606655044E+04  0.17300000000E+03 0. -1.
<mgrwt>
<rscale>  2 0.19853468E+03</rscale>
<asrwt>0</asrwt>
<pdfrwt beam="1">  1       21 0.69434506E-02 0.19853468E+03</pdfrwt>
<pdfrwt beam="2">  1       21 0.21869218E+00 0.19853468E+03</pdfrwt>
<totfact> 0.15643506E+04</totfact>
</mgrwt>
</event>
<event>
 4    1  0.3935877E+000  0.1767489E+03  0.7546771E-02  0.1170987E+00
         21   -1    0    0  501  502  0.00000000000E+00  0.00000000000E+00  0.10432772151E+03  0.10432772151E+03  0.00000000000E+00 0.  1.
         21   -1    0    0  502  503 -0.00000000000E+00 -0.00000000000E+00 -0.30567221298E+03  0.30567221298E+03  0.00000000000E+00 0.  1.
          6    1    1    2  501    0 -0.33736995620E+02  0.13152673346E+02 -0.71407023181E+02  0.19062827872E+03  0.17300000000E+03 0.  1.
         -6    1    1    2    0  503  0.33736995620E+02 -0.13152673346E+02 -0.12993746828E+03  0.21937165577E+03  0.17300000000E+03 0.  1.
<mgrwt>
<rscale>  2 0.17674891E+03</rscale>
<asrwt>0</asrwt>
<pdfrwt beam="1">  1       21 0.16050419E-01 0.17674891E+03</pdfrwt>
<pdfrwt beam="2">  1       21 0.47026494E-01 0.17674891E+03</pdfrwt>
<totfact> 0.15080739E+05</totfact>
</mgrwt>
</event>
<event>
 4    1  0.3935877E+000  0.3001148E+03  0.7546771E-02  0.1085183E+00
         21   -1    0    0  503  502  0.00000000000E+00  0.00000000000E+00  0.19054577056E+03  0.19054577056E+03  0.00000000000E+00 0. -1.
         21   -1    0    0  501  503 -0.00000000000E+00 -0.00000000000E+00 -0.59620035429E+03  0.59620035429E+03  0.00000000000E+00 0.  1.
          6    1    1    2  501    0 -0.58874388865E+02 -0.23806238148E+03 -0.38187218197E+03  0.48569049249E+03  0.17300000000E+03 0.  1.
         -6    1    1    2    0  502  0.58874388865E+02  0.23806238148E+03 -0.23782401756E+02  0.30105563235E+03  0.17300000000E+03 0. -1.
<mgrwt>
<rscale>  2 0.30011480E+03</rscale>
<asrwt>0</asrwt>
<pdfrwt beam="1">  1       21 0.29314734E-01 0.30011480E+03</pdfrwt>
<pdfrwt beam="2">  1       21 0.91723130E-01 0.30011480E+03</pdfrwt>
<totfact> 0.10544663E+04</totfact>
</mgrwt>
</event>
<event>
 4    1  0.3935877E+000  0.2206233E+03  0.7546771E-02  0.1133419E+00
         21   -1    0    0  501  502  0.00000000000E+00  0.00000000000E+00  0.24841180889E+03  0.24841180889E+03  0.00000000000E+00 0.  1.
         21   -1    0    0  502  503 -0.00000000000E+00 -0.00000000000E+00 -0.20797782445E+03  0.20797782445E+03  0.00000000000E+00 0. -1.
          6    1    1    2  501    0  0.11557593932E+03 -0.73402039257E+02  0.75109077262E+02  0.23305799837E+03  0.17300000000E+03 0.  1.
         -6    1    1    2    0  503 -0.11557593932E+03  0.73402039257E+02 -0.34675092823E+02  0.22333163497E+03  0.17300000000E+03 0. -1.
<mgrwt>
<rscale>  2 0.22062334E+03</rscale>
<asrwt>0</asrwt>
<pdfrwt beam="1">  1       21 0.38217201E-01 0.22062334E+03</pdfrwt>
<pdfrwt beam="2">  1       21 0.31996589E-01 0.22062334E+03</pdfrwt>
<totfact> 0.61253783E+04</totfact>
</mgrwt>
</event>
<event>
 4    1  0.3935877E+000  0.1813735E+03  0.7546771E-02  0.1166480E+00
         21   -1    0    0  501  502  0.00000000000E+00  0.00000000000E+00  0.11946477868E+03  0.11946477868E+03  0.00000000000E+00 0.  1.
         21   -1    0    0  502  503 -0.00000000000E+00 -0.00000000000E+00 -0.29863353787E+03  0.29863353787E+03  0.00000000000E+00 0.  1.
          6    1    1    2  501    0 -0.31198264502E+02  0.44654454349E+02 -0.31230612543E+02  0.18404266669E+03  0.17300000000E+03 0.  1.
         -6    1    1    2    0  503  0.31198264502E+02 -0.44654454349E+02 -0.14793814665E+03  0.23405564987E+03  0.17300000000E+03 0.  1.
<mgrwt>
<rscale>  2 0.18137352E+03</rscale>
<asrwt>0</asrwt>
<pdfrwt beam="1">  1       21 0.18379197E-01 0.18137352E+03</pdfrwt>
<pdfrwt beam="2">  1       21 0.45943621E-01 0.18137352E+03</pdfrwt>
<totfact> 0.12314181E+05</totfact>
</mgrwt>
</event>
<event>
 4    1  0.3935877E+000  0.1799989E+03  0.7546771E-02  0.1167804E+00
         21   -1    0    0  503  502  0.00000000000E+00  0.00000000000E+00  0.21355787167E+03  0.21355787167E+03  0.00000000000E+00 0. -1.
         21   -1    0    0  501  503 -0.00000000000E+00 -0.00000000000E+00 -0.18910657771E+03  0.18910657771E+03  0.00000000000E+00 0. -1.
          6    1    1    2  501    0  0.46932561495E+02 -0.16368762399E+02 -0.77301730947E+02  0.19589578688E+03  0.17300000000E+03 0. -1.
         -6    1    1    2    0  502 -0.46932561495E+02  0.16368762399E+02  0.10175302491E+03  0.20676866249E+03  0.17300000000E+03 0. -1.
<mgrwt>
<rscale>  2 0.17999889E+03</rscale>
<asrwt>0</asrwt>
<pdfrwt beam="1">  1       21 0.32855057E-01 0.17999889E+03</pdfrwt>
<pdfrwt beam="2">  1       21 0.29093319E-01 0.17999889E+03</pdfrwt>
<totfact> 0.10135231E+05</totfact>
</mgrwt>
</event>
<event>
 4    1  0.3935877E+000  0.1917696E+03  0.7546771E-02  0.1156875E+00
         21   -1    0    0  503  502  0.00000000000E+00  0.00000000000E+00  0.13317393106E+04  0.13317393106E+04  0.00000000000E+00 0.  1.
         21   -1    0    0  501  503 -0.00000000000E+00 -0.00000000000E+00 -0.49647123646E+02  0.49647123646E+02  0.00000000000E+00 0. -1.
          6    1    1    2  501    0 -0.79488608639E+02 -0.22981418218E+02  0.18092805467E+03  0.26364852636E+03  0.17300000000E+03 0. -1.
         -6    1    1    2    0  502  0.79488608639E+02  0.22981418218E+02  0.11011641322E+04  0.11177379078E+04  0.17300000000E+03 0.  1.
<mgrwt>
<rscale>  2 0.19176961E+03</rscale>
<asrwt>0</asrwt>
<pdfrwt beam="1">  1       21 0.20488294E+00 0.19176961E+03</pdfrwt>
<pdfrwt beam="2">  1       21 0.76380200E-02 0.19176961E+03</pdfrwt>
<totfact> 0.16266466E+04</totfact>
</mgrwt>
</event>
<event>
 4    1  0.3935877E+000  0.2125751E+03  0.7546771E-02  0.1139543E+00
         21   -1    0    0  501  502  0.00000000000E+00  0.00000000000E+00  0.46461075196E+02  0.46461075196E+02  0.00000000000E+00 0.  1.
         21   -1    0    0  502  503 -0.00000000000E+00 -0.00000000000E+00 -0.11948352110E+04  0.11948352110E+04  0.00000000000E+00 0.  1.
          6    1    1    2  501    0 -0.11495085811E+03  0.45226835288E+02 -0.30651979942E+03  0.37301816825E+03  0.17300000000E+03 0.  1.
         -6    1    1    2    0  503  0.11495085811E+03 -0.45226835288E+02 -0.84185433634E+03  0.86827811790E+03  0.17300000000E+03 0.  1.
<mgrwt>
<rscale>  2 0.21257508E+03</rscale>
<asrwt>0</asrwt>
<pdfrwt beam="1">  1       21 0.71478582E-02 0.21257508E+03</pdfrwt>
<pdfrwt beam="2">  1       21 0.18382079E+00 0.21257508E+03</pdfrwt>
<totfact> 0.24672616E+04</totfact>
</mgrwt>
</event>
<event>
 4    1  0.3935877E+000  0.2393716E+03  0.7546771E-02  0.1120212E+00
         21   -1    0    0  501  502  0.00000000000E+00  0.00000000000E+00  0.39269945770E+02  0.39269945770E+02  0.00000000000E+00 0.  1.
         21   -1    0    0  502  503 -0.00000000000E+00 -0.00000000000E+00 -0.16422968650E+04  0.16422968650E+04  0.00000000000E+00 0.  1.
          6    1    1    2  501    0  0.12127007154E+03  0.11253137360E+03 -0.52069965574E+03  0.57308539659E+03  0.17300000000E+03 0.  1.
         -6    1    1    2    0  503 -0.12127007154E+03 -0.11253137360E+03 -0.10823272635E+04  0.11084814142E+04  0.17300000000E+03 0.  1.
<mgrwt>
<rscale>  2 0.23937155E+03</rscale>
<asrwt>0</asrwt>
<pdfrwt beam="1">  1       21 0.60415313E-02 0.23937155E+03</pdfrwt>
<pdfrwt beam="2">  1       21 0.25266100E+00 0.23937155E+03</pdfrwt>
<totfact> 0.12006574E+04</totfact>
</mgrwt>
</event>
<event>
 4    1  0.3935877E+000  0.2409975E+03  0.7546771E-02  0.1119130E+00
         21   -1    0    0  501  502  0.00000000000E+00  0.00000000000E+00  0.78011711027E+03  0.78011711027E+03  0.00000000000E+00 0. -1.
         21   -1    0    0  502  503 -0.00000000000E+00 -0.00000000000E+00 -0.12662508331E+03  0.12662508331E+03  0.00000000000E+00 0. -1.
          6    1    1    2  501    0 -0.16765044271E+03  0.66440055687E+01  0.61776748137E+03  0.66311120846E+03  0.17300000000E+03 0. -1.
         -6    1    1    2    0  503  0.16765044271E+03 -0.66440055687E+01  0.35724545593E+02  0.24363098511E+03  0.17300000000E+03 0. -1.
<mgrwt>
<rscale>  2 0.24099754E+03</rscale>
<asrwt>0</asrwt>
<pdfrwt beam="1">  1       21 0.12001801E+00 0.24099754E+03</pdfrwt>
<pdfrwt beam="2">  1       21 0.19480783E-01 0.24099754E+03</pdfrwt>
<totfact> 0.12407054E+04</totfact>
</mgrwt>
</event>
<event>
 4    1  0.3935877E+000  0.1789783E+03  0.7546771E-02  0.1168795E+00
         21   -1    0    0  501  502  0.00000000000E+00  0.00000000000E+00  0.14428147613E+03  0.14428147613E+03  0.00000000000E+00 0.  1.
         21   -1    0    0  502  503 -0.00000000000E+00 -0.00000000000E+00 -0.22570928194E+03  0.22570928194E+03  0.00000000000E+00 0.  1.
          6    1    1    2  501    0  0.20898659574E+02  0.40834909281E+02 -0.17059612010E+02  0.17978952736E+03  0.17300000000E+03 0.  1.
         -6    1    1    2    0  503 -0.20898659574E+02 -0.40834909281E+02 -0.64368193805E+02  0.19020123070E+03  0.17300000000E+03 0.  1.
<mgrwt>
<rscale>  2 0.17897833E+03</rscale>
<asrwt>0</asrwt>
<pdfrwt beam="1">  1       21 0.22197150E-01 0.17897833E+03</pdfrwt>
<pdfrwt beam="2">  1       21 0.34724505E-01 0.17897833E+03</pdfrwt>
<totfact> 0.15239432E+05</totfact>
</mgrwt>
</event>
<event>
 4    1  0.3935877E+000  0.1735172E+03  0.7546771E-02  0.1174229E+00
         21   -1    0    0  503  502  0.00000000000E+00  0.00000000000E+00  0.98236277266E+02  0.98236277266E+02  0.00000000000E+00 0.  1.
         21   -1    0    0  501  503 -0.00000000000E+00 -0.00000000000E+00 -0.33657648669E+03  0.33657648669E+03  0.00000000000E+00 0.  1.
          6    1    1    2  501    0  0.13331452340E+02 -0.12230837452E+01 -0.18417286422E+03  0.25303728474E+03  0.17300000000E+03 0. -1.
         -6    1    1    2    0  502 -0.13331452340E+02  0.12230837452E+01 -0.54167345199E+02  0.18177547921E+03  0.17300000000E+03 0. -1.
<mgrwt>
<rscale>  2 0.17351721E+03</rscale>
<asrwt>0</asrwt>
<pdfrwt beam="1">  1       21 0.15113274E-01 0.17351721E+03</pdfrwt>
<pdfrwt beam="2">  1       21 0.51780997E-01 0.17351721E+03</pdfrwt>
<totfact> 0.13793769E+05</totfact>
</mgrwt>
</event>
<event>
 4    1  0.3935877E+000  0.2114054E+03  0.7546771E-02  0.1140458E+00
         21   -1    0    0  503  502  0.00000000000E+00  0.00000000000E+00  0.76750268192E+02  0.76750268192E+02  0.00000000000E+00 0.  1.
         21   -1    0    0  501  503 -0.00000000000E+00 -0.00000000000E+00 -0.12156049470E+04  0.12156049470E+04  0.00000000000E+00 0.  1.
          6    1    1    2  501    0  0.69312981899E+02 -0.99794596771E+02 -0.10358284428E+04  0.10571815426E+04  0.17300000000E+03 0.  1.
         -6    1    1    2    0  502 -0.69312981899E+02  0.99794596771E+02 -0.10302623604E+03  0.23517367267E+03  0.17300000000E+03 0.  1.
<mgrwt>
<rscale>  2 0.21140542E+03</rscale>
<asrwt>0</asrwt>
<pdfrwt beam="1">  1       21 0.11807733E-01 0.21140542E+03</pdfrwt>
<pdfrwt beam="2">  1       21 0.18701615E+00 0.21140542E+03</pdfrwt>
<totfact> 0.97116119E+03</totfact>
</mgrwt>
</event>
<event>
 4    1  0.3935877E+000  0.3160703E+03  0.7546771E-02  0.1077472E+00
         21   -1    0    0  503  502  0.00000000000E+00  0.00000000000E+00  0.19788518594E+03  0.19788518594E+03  0.00000000000E+00 0. -1.
         21   -1    0    0  501  503 -0.00000000000E+00 -0.00000000000E+00 -0.67232103274E+03  0.67232103274E+03  0.00000000000E+00 0. -1.
          6    1    1    2  501    0 -0.24035621678E+03  0.11045495718E+03 -0.45438116578E+03  0.55350036344E+03  0.17300000000E+03 0. -1.
         -6    1    1    2    0  502  0.24035621678E+03 -0.11045495718E+03 -0.20054681024E+02  0.31670585524E+03  0.17300000000E+03 0. -1.
<mgrwt>
<rscale>  2 0.31607026E+03</rscale>
<asrwt>0</asrwt>
<pdfrwt beam="1">  1       21 0.30443876E-01 0.31607026E+03</pdfrwt>
<pdfrwt beam="2">  1       21 0.10343400E+00 0.31607026E+03</pdfrwt>
<totfact> 0.72920226E+03</totfact>
</mgrwt>
</event>
<event>
 4    1  0.3935877E+000  0.1899033E+03  0.7546771E-02  0.1158549E+00
         21   -1    0    0  501  502  0.00000000000E+00  0.00000000000E+00  0.10471151105E+03  0.10471151105E+03  0.00000000000E+00 0. -1.
         21   -1    0    0  502  503 -0.00000000000E+00 -0.00000000000E+00 -0.42733914626E+03  0.42733914626E+03  0.00000000000E+00 0. -1.
          6    1    1    2  501    0 -0.20297431778E+02 -0.75645717496E+02 -0.44120990987E+02  0.19496133503E+03  0.17300000000E+03 0.  1.
         -6    1    1    2    0  503  0.20297431778E+02  0.75645717496E+02 -0.27850664423E+03  0.33708932228E+03  0.17300000000E+03 0.  1.
<mgrwt>
<rscale>  2 0.18990329E+03</rscale>
<asrwt>0</asrwt>
<pdfrwt beam="1">  1       21 0.16109463E-01 0.18990329E+03</pdfrwt>
<pdfrwt beam="2">  1       21 0.65744484E-01 0.18990329E+03</pdfrwt>
<totfact> 0.73300129E+04</totfact>
</mgrwt>
</event>
<event>
 4    1  0.3935877E+000  0.2035070E+03  0.7546771E-02  0.1146813E+00
         21   -1    0    0  503  502  0.00000000000E+00  0.00000000000E+00  0.40173114340E+03  0.40173114340E+03  0.00000000000E+00 0.  1.
         21   -1    0    0  501  503 -0.00000000000E+00 -0.00000000000E+00 -0.10730697989E+03  0.10730697989E+03  0.00000000000E+00 0.  1.
          6    1    1    2  501    0  0.48481132976E+02  0.95580757850E+02  0.96766247973E+02  0.22534153694E+03  0.17300000000E+03 0.  1.
         -6    1    1    2    0  502 -0.48481132976E+02 -0.95580757850E+02  0.19765791554E+03  0.28369658634E+03  0.17300000000E+03 0.  1.
<mgrwt>
<rscale>  2 0.20350701E+03</rscale>
<asrwt>0</asrwt>
<pdfrwt beam="1">  1       21 0.61804791E-01 0.20350701E+03</pdfrwt>
<pdfrwt beam="2">  1       21 0.16508766E-01 0.20350701E+03</pdfrwt>
<totfact> 0.79662021E+04</totfact>
</mgrwt>
</event>
<event>
 4    1  0.3935877E+000  0.1788782E+03  0.7546771E-02  0.1168893E+00
         21   -1    0    0  501  502  0.00000000000E+00  0.00000000000E+00  0.65717596796E+02  0.65717596796E+02  0.00000000000E+00 0.  1.
         21   -1    0    0  502  503 -0.00000000000E+00 -0.00000000000E+00 -0.11918248190E+04  0.11918248190E+04  0.00000000000E+00 0.  1.
          6    1    1    2  501    0 -0.37587554627E+02  0.25604723578E+02 -0.79482836005E+02  0.19574204288E+03  0.17300000000E+03 0.  1.
         -6    1    1    2    0  503  0.37587554627E+02 -0.25604723578E+02 -0.10466243862E+04  0.10618003729E+04  0.17300000000E+03 0.  1.
<mgrwt>
<rscale>  2 0.17887824E+03</rscale>
<asrwt>0</asrwt>
<pdfrwt beam="1">  1       21 0.10110400E-01 0.17887824E+03</pdfrwt>
<pdfrwt beam="2">  1       21 0.18335766E+00 0.17887824E+03</pdfrwt>
<totfact> 0.13892841E+04</totfact>
</mgrwt>
</event>
<event>
 4    1  0.3935877E+000  0.2014442E+03  0.7546771E-02  0.1148526E+00
         21   -1    0    0  503  502  0.00000000000E+00  0.00000000000E+00  0.56882261092E+03  0.56882261092E+03  0.00000000000E+00 0.  1.
         21   -1    0    0  501  503 -0.00000000000E+00 -0.00000000000E+00 -0.89263546430E+02  0.89263546430E+02  0.00000000000E+00 0. -1.
          6    1    1    2  501    0 -0.99790307659E+02  0.26318730810E+02  0.92335168942E+02  0.22159775386E+03  0.17300000000E+03 0. -1.
         -6    1    1    2    0  502  0.99790307659E+02 -0.26318730810E+02  0.38722389555E+03  0.43648840348E+03  0.17300000000E+03 0.  1.
<mgrwt>
<rscale>  2 0.20144424E+03</rscale>
<asrwt>0</asrwt>
<pdfrwt beam="1">  1       21 0.87511169E-01 0.20144424E+03</pdfrwt>
<pdfrwt beam="2">  1       21 0.13732854E-01 0.20144424E+03</pdfrwt>
<totfact> 0.51377567E+04</totfact>
</mgrwt>
</event>
<event>
 4    1  0.3935877E+000  0.1771758E+03  0.7546771E-02  0.1170565E+00
         21   -1    0    0  503  502  0.00000000000E+00  0.00000000000E+00  0.26655904458E+02  0.26655904458E+02  0.00000000000E+00 0.  1.
         21   -1    0    0  501  503 -0.00000000000E+00 -0.00000000000E+00 -0.11798964963E+04  0.11798964963E+04  0.00000000000E+00 0.  1.
          6    1    1    2  501    0  0.28958657583E+02  0.24973480998E+02 -0.60295439555E+03  0.62844672146E+03  0.17300000000E+03 0.  1.
         -6    1    1    2    0  502 -0.28958657583E+02 -0.24973480998E+02 -0.55028619625E+03  0.57810567925E+03  0.17300000000E+03 0.  1.
<mgrwt>
<rscale>  2 0.17717584E+03</rscale>
<asrwt>0</asrwt>
<pdfrwt beam="1">  1       21 0.41009083E-02 0.17717584E+03</pdfrwt>
<pdfrwt beam="2">  1       21 0.18152254E+00 0.17717584E+03</pdfrwt>
<totfact> 0.67384643E+04</totfact>
</mgrwt>
</event>
<event>
 4    1  0.3935877E+000  0.1853883E+03  0.7546771E-02  0.1162688E+00
         21   -1    0    0  501  502  0.00000000000E+00  0.00000000000E+00  0.30883400830E+03  0.30883400830E+03  0.00000000000E+00 0.  1.
         21   -1    0    0  502  503 -0.00000000000E+00 -0.00000000000E+00 -0.15222918637E+03  0.15222918637E+03  0.00000000000E+00 0. -1.
          6    1    1    2  501    0  0.26116237769E+02  0.61300751224E+02  0.19785896010E+03  0.27114020002E+03  0.17300000000E+03 0.  1.
         -6    1    1    2    0  503 -0.26116237769E+02 -0.61300751224E+02 -0.41254138172E+02  0.18992299464E+03  0.17300000000E+03 0. -1.
<mgrwt>
<rscale>  2 0.18538835E+03</rscale>
<asrwt>0</asrwt>
<pdfrwt beam="1">  1       21 0.47512924E-01 0.18538835E+03</pdfrwt>
<pdfrwt beam="2">  1       21 0.23419875E-01 0.18538835E+03</pdfrwt>
<totfact> 0.72877836E+04</totfact>
</mgrwt>
</event>
<event>
 4    1  0.3935877E+000  0.3221078E+03  0.7546771E-02  0.1074683E+00
         21   -1    0    0  503  502  0.00000000000E+00  0.00000000000E+00  0.96458129181E+03  0.96458129181E+03  0.00000000000E+00 0. -1.
         21   -1    0    0  501  503 -0.00000000000E+00 -0.00000000000E+00 -0.12665083840E+03  0.12665083840E+03  0.00000000000E+00 0. -1.
          6    1    1    2  501    0 -0.20924029175E+02 -0.27089963613E+03  0.20714887662E+03  0.38296747243E+03  0.17300000000E+03 0. -1.
         -6    1    1    2    0  502  0.20924029175E+02  0.27089963613E+03  0.63078157679E+03  0.70826465778E+03  0.17300000000E+03 0. -1.
<mgrwt>
<rscale>  2 0.32210779E+03</rscale>
<asrwt>0</asrwt>
<pdfrwt beam="1">  1       21 0.14839712E+00 0.32210779E+03</pdfrwt>
<pdfrwt beam="2">  1       21 0.19484745E-01 0.32210779E+03</pdfrwt>
<totfact> 0.68725086E+03</totfact>
</mgrwt>
</event>
<event>
 4    1  0.3935877E+000  0.2283815E+03  0.7546771E-02  0.1127784E+00
         21   -1    0    0  501  502  0.00000000000E+00  0.00000000000E+00  0.28651962144E+03  0.28651962144E+03  0.00000000000E+00 0. -1.
         21   -1    0    0  502  503 -0.00000000000E+00 -0.00000000000E+00 -0.11940414906E+04  0.11940414906E+04  0.00000000000E+00 0. -1.
          6    1    1    2  501    0 -0.75458178692E+02 -0.12858911292E+03  0.22775679917E+03  0.32253876707E+03  0.17300000000E+03 0. -1.
         -6    1    1    2    0  503  0.75458178692E+02  0.12858911292E+03 -0.11352786683E+04  0.11580223450E+04  0.17300000000E+03 0. -1.
<mgrwt>
<rscale>  2 0.22838147E+03</rscale>
<asrwt>0</asrwt>
<pdfrwt beam="1">  1       21 0.44079942E-01 0.22838147E+03</pdfrwt>
<pdfrwt beam="2">  1       21 0.18369869E+00 0.22838147E+03</pdfrwt>
<totfact> 0.81787034E+02</totfact>
</mgrwt>
</event>
<event>
 4    1  0.3935877E+000  0.1820356E+03  0.7546771E-02  0.1165847E+00
         21   -1    0    0  501  502  0.00000000000E+00  0.00000000000E+00  0.11073486178E+04  0.11073486178E+04  0.00000000000E+00 0.  1.
         21   -1    0    0  502  503 -0.00000000000E+00 -0.00000000000E+00 -0.23091315219E+03  0.23091315219E+03  0.00000000000E+00 0.  1.
          6    1    1    2  501    0 -0.53132965140E+02  0.19617795177E+02  0.10624876347E+04  0.10779688974E+04  0.17300000000E+03 0.  1.
         -6    1    1    2    0  503  0.53132965140E+02 -0.19617795177E+02 -0.18605216912E+03  0.26029287256E+03  0.17300000000E+03 0.  1.
<mgrwt>
<rscale>  2 0.18203563E+03</rscale>
<asrwt>0</asrwt>
<pdfrwt beam="1">  1       21 0.17036132E+00 0.18203563E+03</pdfrwt>
<pdfrwt beam="2">  1       21 0.35525101E-01 0.18203563E+03</pdfrwt>
<totfact> 0.16386855E+03</totfact>
</mgrwt>
</event>
<event>
 4    1  0.3935877E+000  0.2751188E+03  0.7546771E-02  0.1098385E+00
         21   -1    0    0  501  502  0.00000000000E+00  0.00000000000E+00  0.10545553072E+03  0.10545553072E+03  0.00000000000E+00 0. -1.
         21   -1    0    0  502  503 -0.00000000000E+00 -0.00000000000E+00 -0.17819062436E+04  0.17819062436E+04  0.00000000000E+00 0.  1.
          6    1    1    2  501    0  0.11002035304E+03 -0.18345815436E+03 -0.10895916421E+03  0.29590956719E+03  0.17300000000E+03 0. -1.
         -6    1    1    2    0  503 -0.11002035304E+03  0.18345815436E+03 -0.15674915487E+04  0.15914522072E+04  0.17300000000E+03 0.  1.
<mgrwt>
<rscale>  2 0.27511883E+03</rscale>
<asrwt>0</asrwt>
<pdfrwt beam="1">  1       21 0.16223928E-01 0.27511883E+03</pdfrwt>
<pdfrwt beam="2">  1       21 0.27413942E+00 0.27511883E+03</pdfrwt>
<totfact> 0.15011114E+03</totfact>
</mgrwt>
</event>
<event>
 4    1  0.3935877E+000  0.2143869E+03  0.7546771E-02  0.1138138E+00
         21   -1    0    0  503  502  0.00000000000E+00  0.00000000000E+00  0.36123618312E+03  0.36123618312E+03  0.00000000000E+00 0.  1.
         21   -1    0    0  501  503 -0.00000000000E+00 -0.00000000000E+00 -0.17346045520E+03  0.17346045520E+03  0.00000000000E+00 0.  1.
          6    1    1    2  501    0 -0.35632117302E+02  0.12150354131E+03 -0.44124969566E+02  0.21888072385E+03  0.17300000000E+03 0.  1.
         -6    1    1    2    0  502  0.35632117302E+02 -0.12150354131E+03  0.23190069749E+03  0.31581591447E+03  0.17300000000E+03 0.  1.
<mgrwt>
<rscale>  2 0.21438694E+03</rscale>
<asrwt>0</asrwt>
<pdfrwt beam="1">  1       21 0.55574797E-01 0.21438694E+03</pdfrwt>
<pdfrwt beam="2">  1       21 0.26686224E-01 0.21438694E+03</pdfrwt>
<totfact> 0.40338261E+04</totfact>
</mgrwt>
</event>
<event>
 4    1  0.3935877E+000  0.2159058E+03  0.7546771E-02  0.1136973E+00
         21   -1    0    0  503  502  0.00000000000E+00  0.00000000000E+00  0.36480192468E+03  0.36480192468E+03  0.00000000000E+00 0.  1.
         21   -1    0    0  501  503 -0.00000000000E+00 -0.00000000000E+00 -0.14004669341E+03  0.14004669341E+03  0.00000000000E+00 0.  1.
          6    1    1    2  501    0  0.69081026811E+02  0.10915190359E+03  0.18707631819E+03  0.28567967227E+03  0.17300000000E+03 0.  1.
         -6    1    1    2    0  502 -0.69081026811E+02 -0.10915190359E+03  0.37678913084E+02  0.21916894582E+03  0.17300000000E+03 0.  1.
<mgrwt>
<rscale>  2 0.21590583E+03</rscale>
<asrwt>0</asrwt>
<pdfrwt beam="1">  1       21 0.56123373E-01 0.21590583E+03</pdfrwt>
<pdfrwt beam="2">  1       21 0.21545645E-01 0.21590583E+03</pdfrwt>
<totfact> 0.59358532E+04</totfact>
</mgrwt>
</event>
<event>
 4    1  0.3935877E+000  0.1908180E+03  0.7546771E-02  0.1157726E+00
         21   -1    0    0  501  502  0.00000000000E+00  0.00000000000E+00  0.15365308400E+03  0.15365308400E+03  0.00000000000E+00 0.  1.
         21   -1    0    0  502  503 -0.00000000000E+00 -0.00000000000E+00 -0.24723034681E+03  0.24723034681E+03  0.00000000000E+00 0.  1.
          6    1    1    2  501    0  0.52796094261E+01 -0.80340817330E+02 -0.59595090923E+01  0.19091107080E+03  0.17300000000E+03 0. -1.
         -6    1    1    2    0  503 -0.52796094261E+01  0.80340817330E+02 -0.87617753716E+02  0.20997236002E+03  0.17300000000E+03 0. -1.
<mgrwt>
<rscale>  2 0.19081803E+03</rscale>
<asrwt>0</asrwt>
<pdfrwt beam="1">  1       21 0.23638936E-01 0.19081803E+03</pdfrwt>
<pdfrwt beam="2">  1       21 0.38035438E-01 0.19081803E+03</pdfrwt>
<totfact> 0.11240303E+05</totfact>
</mgrwt>
</event>
<event>
 4    1  0.3935877E+000  0.1772578E+03  0.7546771E-02  0.1170484E+00
         21   -1    0    0  501  502  0.00000000000E+00  0.00000000000E+00  0.13334946254E+03  0.13334946254E+03  0.00000000000E+00 0.  1.
         21   -1    0    0  502  503 -0.00000000000E+00 -0.00000000000E+00 -0.28390210627E+03  0.28390210627E+03  0.00000000000E+00 0.  1.
          6    1    1    2  501    0  0.15611906120E+02 -0.35321396070E+02  0.10755441879E+02  0.17758381729E+03  0.17300000000E+03 0. -1.
         -6    1    1    2    0  503 -0.15611906120E+02  0.35321396070E+02 -0.16130808562E+03  0.23966775152E+03  0.17300000000E+03 0. -1.
<mgrwt>
<rscale>  2 0.17725781E+03</rscale>
<asrwt>0</asrwt>
<pdfrwt beam="1">  1       21 0.20515302E-01 0.17725781E+03</pdfrwt>
<pdfrwt beam="2">  1       21 0.43677247E-01 0.17725781E+03</pdfrwt>
<totfact> 0.11150065E+05</totfact>
</mgrwt>
</event>
<event>
 4    1  0.3935877E+000  0.3001700E+03  0.7546771E-02  0.1085156E+00
         21   -1    0    0  503  502  0.00000000000E+00  0.00000000000E+00  0.64853417445E+03  0.64853417445E+03  0.00000000000E+00 0.  1.
         21   -1    0    0  501  503 -0.00000000000E+00 -0.00000000000E+00 -0.14701965540E+03  0.14701965540E+03  0.00000000000E+00 0.  1.
          6    1    1    2  501    0 -0.13993552959E+02 -0.24490250720E+03  0.15746040152E+03  0.33896288234E+03  0.17300000000E+03 0.  1.
         -6    1    1    2    0  502  0.13993552959E+02  0.24490250720E+03  0.34405411754E+03  0.45659094751E+03  0.17300000000E+03 0.  1.
<mgrwt>
<rscale>  2 0.30017005E+03</rscale>
<asrwt>0</asrwt>
<pdfrwt beam="1">  1       21 0.99774487E-01 0.30017005E+03</pdfrwt>
<pdfrwt beam="2">  1       21 0.22618409E-01 0.30017005E+03</pdfrwt>
<totfact> 0.14264563E+04</totfact>
</mgrwt>
</event>
<event>
 4    1  0.3935877E+000  0.3043764E+03  0.7546771E-02  0.1083073E+00
         21   -1    0    0  501  502  0.00000000000E+00  0.00000000000E+00  0.66259964145E+03  0.66259964145E+03  0.00000000000E+00 0. -1.
         21   -1    0    0  502  503 -0.00000000000E+00 -0.00000000000E+00 -0.24673196298E+03  0.24673196298E+03  0.00000000000E+00 0.  1.
          6    1    1    2  501    0  0.22972907728E+03  0.99702400096E+02  0.50722349432E+03  0.59154094594E+03  0.17300000000E+03 0. -1.
         -6    1    1    2    0  503 -0.22972907728E+03 -0.99702400096E+02 -0.91355815847E+02  0.31779065849E+03  0.17300000000E+03 0. -1.
<mgrwt>
<rscale>  2 0.30437644E+03</rscale>
<asrwt>0</asrwt>
<pdfrwt beam="1">  1       21 0.10193841E+00 0.30437644E+03</pdfrwt>
<pdfrwt beam="2">  1       21 0.37958764E-01 0.30437644E+03</pdfrwt>
<totfact> 0.48863459E+03</totfact>
</mgrwt>
</event>
<event>
 4    1  0.3935877E+000  0.1789558E+03  0.7546771E-02  0.1168817E+00
         21   -1    0    0  501  502  0.00000000000E+00  0.00000000000E+00  0.42168030554E+03  0.42168030554E+03  0.00000000000E+00 0. -1.
         21   -1    0    0  502  503 -0.00000000000E+00 -0.00000000000E+00 -0.76343068233E+02  0.76343068233E+02  0.00000000000E+00 0. -1.
          6    1    1    2  501    0 -0.45041038310E+02  0.82153978898E+01  0.19061331045E+03  0.26145481830E+03  0.17300000000E+03 0.  1.
         -6    1    1    2    0  503  0.45041038310E+02 -0.82153978898E+01  0.15472392686E+03  0.23656855547E+03  0.17300000000E+03 0.  1.
<mgrwt>
<rscale>  2 0.17895583E+03</rscale>
<asrwt>0</asrwt>
<pdfrwt beam="1">  1       21 0.64873892E-01 0.17895583E+03</pdfrwt>
<pdfrwt beam="2">  1       21 0.11745088E-01 0.17895583E+03</pdfrwt>
<totfact> 0.13410171E+05</totfact>
</mgrwt>
</event>
<event>
 4    1  0.3935877E+000  0.1999465E+03  0.7546771E-02  0.1149784E+00
         21   -1    0    0  503  502  0.00000000000E+00  0.00000000000E+00  0.24319437476E+03  0.24319437476E+03  0.00000000000E+00 0.  1.
         21   -1    0    0  501  503 -0.00000000000E+00 -0.00000000000E+00 -0.30620754844E+03  0.30620754844E+03  0.00000000000E+00 0.  1.
          6    1    1    2  501    0  0.86434839428E+02  0.50780039257E+02 -0.21845338657E+03  0.29614266150E+03  0.17300000000E+03 0.  1.
         -6    1    1    2    0  502 -0.86434839428E+02 -0.50780039257E+02  0.15544021289E+03  0.25325926170E+03  0.17300000000E+03 0.  1.
<mgrwt>
<rscale>  2 0.19994648E+03</rscale>
<asrwt>0</asrwt>
<pdfrwt beam="1">  1       21 0.37414519E-01 0.19994648E+03</pdfrwt>
<pdfrwt beam="2">  1       21 0.47108854E-01 0.19994648E+03</pdfrwt>
<totfact> 0.29588220E+04</totfact>
</mgrwt>
</event>
<event>
 4    1  0.3935877E+000  0.1990386E+03  0.7546771E-02  0.1150553E+00
         21   -1    0    0  501  502  0.00000000000E+00  0.00000000000E+00  0.16587388842E+04  0.16587388842E+04  0.00000000000E+00 0. -1.
         21   -1    0    0  502  503 -0.00000000000E+00 -0.00000000000E+00 -0.11864580205E+03  0.11864580205E+03  0.00000000000E+00 0. -1.
          6    1    1    2  501    0  0.42223600538E+02 -0.88907474197E+02  0.15642709229E+04  0.15768829670E+04  0.17300000000E+03 0. -1.
         -6    1    1    2    0  503 -0.42223600538E+02  0.88907474197E+02 -0.24177840800E+02  0.20050171919E+03  0.17300000000E+03 0. -1.
<mgrwt>
<rscale>  2 0.19903862E+03</rscale>
<asrwt>0</asrwt>
<pdfrwt beam="1">  1       21 0.25519058E+00 0.19903862E+03</pdfrwt>
<pdfrwt beam="2">  1       21 0.18253201E-01 0.19903862E+03</pdfrwt>
<totfact> 0.16834036E+03</totfact>
</mgrwt>
</event>
<event>
 4    1  0.3935877E+000  0.2308328E+03  0.7546771E-02  0.1126055E+00
         21   -1    0    0  503  502  0.00000000000E+00  0.00000000000E+00  0.65348177504E+02  0.65348177504E+02  0.00000000000E+00 0.  1.
         21   -1    0    0  501  503 -0.00000000000E+00 -0.00000000000E+00 -0.13240443084E+04  0.13240443084E+04  0.00000000000E+00 0. -1.
          6    1    1    2  501    0 -0.37996765736E+02 -0.14802371691E+03 -0.10599323359E+04  0.10847766275E+04  0.17300000000E+03 0. -1.
         -6    1    1    2    0  502  0.37996765736E+02  0.14802371691E+03 -0.19876379504E+03  0.30461585841E+03  0.17300000000E+03 0.  1.
<mgrwt>
<rscale>  2 0.23083279E+03</rscale>
<asrwt>0</asrwt>
<pdfrwt beam="1">  1       21 0.10053567E-01 0.23083279E+03</pdfrwt>
<pdfrwt beam="2">  1       21 0.20369911E+00 0.23083279E+03</pdfrwt>
<totfact> 0.99137408E+03</totfact>
</mgrwt>
</event>
<event>
 4    1  0.3935877E+000  0.1766542E+03  0.7546771E-02  0.1171081E+00
         21   -1    0    0  503  502  0.00000000000E+00  0.00000000000E+00  0.28561118172E+04  0.28561118172E+04  0.00000000000E+00 0.  1.
         21   -1    0    0  501  503 -0.00000000000E+00 -0.00000000000E+00 -0.12326527575E+02  0.12326527575E+02  0.00000000000E+00 0.  1.
          6    1    1    2  501    0 -0.84581495002E+01 -0.34730093977E+02  0.93850531133E+03  0.95498635546E+03  0.17300000000E+03 0.  1.
         -6    1    1    2    0  502  0.84581495002E+01  0.34730093977E+02  0.19052799783E+04  0.19134519893E+04  0.17300000000E+03 0.  1.
<mgrwt>
<rscale>  2 0.17665424E+03</rscale>
<asrwt>0</asrwt>
<pdfrwt beam="1">  1       21 0.43940129E+00 0.17665424E+03</pdfrwt>
<pdfrwt beam="2">  1       21 0.18963911E-02 0.17665424E+03</pdfrwt>
<totfact> 0.67112509E+03</totfact>
</mgrwt>
</event>
<event>
 4    1  0.3935877E+000  0.1950753E+03  0.7546771E-02  0.1153962E+00
         21   -1    0    0  503  502  0.00000000000E+00  0.00000000000E+00  0.27058135197E+03  0.27058135197E+03  0.00000000000E+00 0. -1.
         21   -1    0    0  501  503 -0.00000000000E+00 -0.00000000000E+00 -0.25349977203E+03  0.25349977203E+03  0.00000000000E+00 0.  1.
          6    1    1    2  501    0 -0.74620311765E+02 -0.50568486908E+02 -0.16630320933E+03  0.25634180352E+03  0.17300000000E+03 0.  1.
         -6    1    1    2    0  502  0.74620311765E+02  0.50568486908E+02  0.18338478928E+03  0.26773932049E+03  0.17300000000E+03 0. -1.
<mgrwt>
<rscale>  2 0.19507527E+03</rscale>
<asrwt>0</asrwt>
<pdfrwt beam="1">  1       21 0.41627900E-01 0.19507527E+03</pdfrwt>
<pdfrwt beam="2">  1       21 0.38999965E-01 0.19507527E+03</pdfrwt>
<totfact> 0.35174952E+04</totfact>
</mgrwt>
</event>
<event>
 4    1  0.3935877E+000  0.1936291E+03  0.7546771E-02  0.1155228E+00
         21   -1    0    0  503  502  0.00000000000E+00  0.00000000000E+00  0.66825702622E+02  0.66825702622E+02  0.00000000000E+00 0. -1.
         21   -1    0    0  501  503 -0.00000000000E+00 -0.00000000000E+00 -0.69135061592E+03  0.69135061592E+03  0.00000000000E+00 0. -1.
          6    1    1    2  501    0 -0.70621475920E+02 -0.50752572041E+02 -0.47684086427E+03  0.51465466701E+03  0.17300000000E+03 0. -1.
         -6    1    1    2    0  502  0.70621475920E+02  0.50752572041E+02 -0.14768404902E+03  0.24352165153E+03  0.17300000000E+03 0. -1.
<mgrwt>
<rscale>  2 0.19362907E+03</rscale>
<asrwt>0</asrwt>
<pdfrwt beam="1">  1       21 0.10280878E-01 0.19362907E+03</pdfrwt>
<pdfrwt beam="2">  1       21 0.10636163E+00 0.19362907E+03</pdfrwt>
<totfact> 0.54706080E+04</totfact>
</mgrwt>
</event>
<event>
 4    1  0.3935877E+000  0.1919571E+03  0.7546771E-02  0.1156708E+00
         21   -1    0    0  503  502  0.00000000000E+00  0.00000000000E+00  0.76975160996E+03  0.76975160996E+03  0.00000000000E+00 0. -1.
         21   -1    0    0  501  503 -0.00000000000E+00 -0.00000000000E+00 -0.48258899828E+02  0.48258899828E+02  0.00000000000E+00 0. -1.
          6    1    1    2  501    0  0.73973800030E+02 -0.38031866428E+02  0.32400162245E+03  0.37659606650E+03  0.17300000000E+03 0. -1.
         -6    1    1    2    0  502 -0.73973800030E+02  0.38031866428E+02  0.39749108768E+03  0.44141444329E+03  0.17300000000E+03 0. -1.
<mgrwt>
<rscale>  2 0.19195715E+03</rscale>
<asrwt>0</asrwt>
<pdfrwt beam="1">  1       21 0.11842332E+00 0.19195715E+03</pdfrwt>
<pdfrwt beam="2">  1       21 0.74244467E-02 0.19195715E+03</pdfrwt>
<totfact> 0.74577831E+04</totfact>
</mgrwt>
</event>
<event>
 4    1  0.3935877E+000  0.3007633E+03  0.7546771E-02  0.1084860E+00
         21   -1    0    0  503  502  0.00000000000E+00  0.00000000000E+00  0.10054902252E+03  0.10054902252E+03  0.00000000000E+00 0. -1.
         21   -1    0    0  501  503 -0.00000000000E+00 -0.00000000000E+00 -0.94436467900E+03  0.94436467900E+03  0.00000000000E+00 0.  1.
          6    1    1    2  501    0  0.21780270681E+03 -0.11441826059E+03 -0.53559815649E+03  0.61426699626E+03  0.17300000000E+03 0.  1.
         -6    1    1    2    0  502 -0.21780270681E+03  0.11441826059E+03 -0.30821749999E+03  0.43064670526E+03  0.17300000000E+03 0. -1.
<mgrwt>
<rscale>  2 0.30076329E+03</rscale>
<asrwt>0</asrwt>
<pdfrwt beam="1">  1       21 0.15469080E-01 0.30076329E+03</pdfrwt>
<pdfrwt beam="2">  1       21 0.14528687E+00 0.30076329E+03</pdfrwt>
<totfact> 0.11295865E+04</totfact>
</mgrwt>
</event>
<event>
 4    1  0.3935877E+000  0.2112335E+03  0.7546771E-02  0.1140593E+00
         21   -1    0    0  503  502  0.00000000000E+00  0.00000000000E+00  0.11423142132E+03  0.11423142132E+03  0.00000000000E+00 0. -1.
         21   -1    0    0  501  503 -0.00000000000E+00 -0.00000000000E+00 -0.40410361129E+03  0.40410361129E+03  0.00000000000E+00 0. -1.
          6    1    1    2  501    0 -0.68200523591E+02  0.10019616062E+03 -0.19230006389E+03  0.28565520579E+03  0.17300000000E+03 0. -1.
         -6    1    1    2    0  502  0.68200523591E+02 -0.10019616062E+03 -0.97572126081E+02  0.23267982682E+03  0.17300000000E+03 0. -1.
<mgrwt>
<rscale>  2 0.21123348E+03</rscale>
<asrwt>0</asrwt>
<pdfrwt beam="1">  1       21 0.17574065E-01 0.21123348E+03</pdfrwt>
<pdfrwt beam="2">  1       21 0.62169786E-01 0.21123348E+03</pdfrwt>
<totfact> 0.69856676E+04</totfact>
</mgrwt>
</event>
<event>
 4    1  0.3935877E+000  0.1789932E+03  0.7546771E-02  0.1168781E+00
         21   -1    0    0  503  502  0.00000000000E+00  0.00000000000E+00  0.35177808558E+03  0.35177808558E+03  0.00000000000E+00 0.  1.
         21   -1    0    0  501  503 -0.00000000000E+00 -0.00000000000E+00 -0.13353571706E+03  0.13353571706E+03  0.00000000000E+00 0.  1.
          6    1    1    2  501    0  0.45922427731E+02  0.84205676383E+00 -0.27709005309E+02  0.18112528096E+03  0.17300000000E+03 0. -1.
         -6    1    1    2    0  502 -0.45922427731E+02 -0.84205676383E+00  0.24595137384E+03  0.30418852168E+03  0.17300000000E+03 0. -1.
<mgrwt>
<rscale>  2 0.17899324E+03</rscale>
<asrwt>0</asrwt>
<pdfrwt beam="1">  1       21 0.54119705E-01 0.17899324E+03</pdfrwt>
<pdfrwt beam="2">  1       21 0.20543957E-01 0.17899324E+03</pdfrwt>
<totfact> 0.71264084E+04</totfact>
</mgrwt>
</event>
<event>
 4    1  0.3935877E+000  0.1793154E+03  0.7546771E-02  0.1168467E+00
         21   -1    0    0  503  502  0.00000000000E+00  0.00000000000E+00  0.18125959579E+04  0.18125959579E+04  0.00000000000E+00 0. -1.
         21   -1    0    0  501  503 -0.00000000000E+00 -0.00000000000E+00 -0.20444811283E+02  0.20444811283E+02  0.00000000000E+00 0. -1.
          6    1    1    2  501    0 -0.41961358719E+02 -0.21546803725E+02  0.56266261711E+03  0.59054486796E+03  0.17300000000E+03 0. -1.
         -6    1    1    2    0  502  0.41961358719E+02  0.21546803725E+02  0.12294885295E+04  0.12424959013E+04  0.17300000000E+03 0. -1.
<mgrwt>
<rscale>  2 0.17931542E+03</rscale>
<asrwt>0</asrwt>
<pdfrwt beam="1">  1       21 0.27886079E+00 0.17931542E+03</pdfrwt>
<pdfrwt beam="2">  1       21 0.31453570E-02 0.17931542E+03</pdfrwt>
<totfact> 0.26764753E+04</totfact>
</mgrwt>
</event>
<event>
 4    1  0.3935877E+000  0.2717382E+03  0.7546771E-02  0.1100289E+00
         21   -1    0    0  501  502  0.00000000000E+00  0.00000000000E+00  0.24401550889E+04  0.24401550889E+04  0.00000000000E+00 0. -1.
         21   -1    0    0  502  503 -0.00000000000E+00 -0.00000000000E+00 -0.88726379338E+02  0.88726379338E+02  0.00000000000E+00 0. -1.
          6    1    1    2  501    0 -0.10703399766E+03  0.18015658630E+03  0.22021252956E+04  0.22188279541E+04  0.17300000000E+03 0. -1.
         -6    1    1    2    0  503  0.10703399766E+03 -0.18015658630E+03  0.14930341401E+03  0.31005351422E+03  0.17300000000E+03 0. -1.
<mgrwt>
<rscale>  2 0.27173824E+03</rscale>
<asrwt>0</asrwt>
<pdfrwt beam="1">  1       21 0.37540842E+00 0.27173824E+03</pdfrwt>
<pdfrwt beam="2">  1       21 0.13650214E-01 0.27173824E+03</pdfrwt>
<totfact> 0.51693071E+02</totfact>
</mgrwt>
</event>
<event>
 4    1  0.3935877E+000  0.2182976E+03  0.7546771E-02  0.1135159E+00
         21   -1    0    0  501  502  0.00000000000E+00  0.00000000000E+00  0.91537600115E+03  0.91537600115E+03  0.00000000000E+00 0. -1.
         21   -1    0    0  502  503 -0.00000000000E+00 -0.00000000000E+00 -0.62178197428E+02  0.62178197428E+02  0.00000000000E+00 0. -1.
          6    1    1    2  501    0  0.45277745990E+02 -0.12519891421E+03  0.62377677709E+03  0.66087162902E+03  0.17300000000E+03 0. -1.
         -6    1    1    2    0  503 -0.45277745990E+02  0.12519891421E+03  0.22942102663E+03  0.31668256956E+03  0.17300000000E+03 0. -1.
<mgrwt>
<rscale>  2 0.21829760E+03</rscale>
<asrwt>0</asrwt>
<pdfrwt beam="1">  1       21 0.14082707E+00 0.21829760E+03</pdfrwt>
<pdfrwt beam="2">  1       21 0.95658772E-02 0.21829760E+03</pdfrwt>
<totfact> 0.30456628E+04</totfact>
</mgrwt>
</event>
<event>
 4    1  0.3935877E+000  0.1982598E+03  0.7546771E-02  0.1151216E+00
         21   -1    0    0  503  502  0.00000000000E+00  0.00000000000E+00  0.17083693181E+03  0.17083693181E+03  0.00000000000E+00 0. -1.
         21   -1    0    0  501  503 -0.00000000000E+00 -0.00000000000E+00 -0.23012806591E+03  0.23012806591E+03  0.00000000000E+00 0.  1.
          6    1    1    2  501    0  0.52986306467E+02  0.81057916475E+02 -0.32403190423E+02  0.20089027166E+03  0.17300000000E+03 0.  1.
         -6    1    1    2    0  502 -0.52986306467E+02 -0.81057916475E+02 -0.26887943677E+02  0.20007472607E+03  0.17300000000E+03 0. -1.
<mgrwt>
<rscale>  2 0.19825977E+03</rscale>
<asrwt>0</asrwt>
<pdfrwt beam="1">  1       21 0.26282605E-01 0.19825977E+03</pdfrwt>
<pdfrwt beam="2">  1       21 0.35404318E-01 0.19825977E+03</pdfrwt>
<totfact> 0.10563411E+05</totfact>
</mgrwt>
</event>
<event>
 4    1  0.3935877E+000  0.2094566E+03  0.7546771E-02  0.1141997E+00
         21   -1    0    0  503  502  0.00000000000E+00  0.00000000000E+00  0.65677588693E+03  0.65677588693E+03  0.00000000000E+00 0.  1.
         21   -1    0    0  501  503 -0.00000000000E+00 -0.00000000000E+00 -0.67233115455E+02  0.67233115455E+02  0.00000000000E+00 0. -1.
          6    1    1    2  501    0  0.37003323053E+02 -0.11213313158E+03  0.26568838803E+03  0.33832292953E+03  0.17300000000E+03 0. -1.
         -6    1    1    2    0  502 -0.37003323053E+02  0.11213313158E+03  0.32385438344E+03  0.38568607285E+03  0.17300000000E+03 0. -1.
<mgrwt>
<rscale>  2 0.20945664E+03</rscale>
<asrwt>0</asrwt>
<pdfrwt beam="1">  1       21 0.10104244E+00 0.20945664E+03</pdfrwt>
<pdfrwt beam="2">  1       21 0.10343557E-01 0.20945664E+03</pdfrwt>
<totfact> 0.60724772E+04</totfact>
</mgrwt>
</event>
<event>
 4    1  0.3935877E+000  0.1824756E+03  0.7546771E-02  0.1165428E+00
         21   -1    0    0  503  502  0.00000000000E+00  0.00000000000E+00  0.46347499513E+03  0.46347499513E+03  0.00000000000E+00 0.  1.
         21   -1    0    0  501  503 -0.00000000000E+00 -0.00000000000E+00 -0.76938632322E+02  0.76938632322E+02  0.00000000000E+00 0.  1.
          6    1    1    2  501    0  0.21373663527E+02 -0.53958451006E+02  0.12372876720E+03  0.22046803796E+03  0.17300000000E+03 0. -1.
         -6    1    1    2    0  502 -0.21373663527E+02  0.53958451006E+02  0.26280759561E+03  0.31994558949E+03  0.17300000000E+03 0. -1.
<mgrwt>
<rscale>  2 0.18247561E+03</rscale>
<asrwt>0</asrwt>
<pdfrwt beam="1">  1       21 0.71303844E-01 0.18247561E+03</pdfrwt>
<pdfrwt beam="2">  1       21 0.11836713E-01 0.18247561E+03</pdfrwt>
<totfact> 0.10739148E+05</totfact>
</mgrwt>
</event>
<event>
 4    1  0.3935877E+000  0.2625763E+03  0.7546771E-02  0.1105605E+00
         21   -1    0    0  503  502  0.00000000000E+00  0.00000000000E+00  0.30291207622E+03  0.30291207622E+03  0.00000000000E+00 0. -1.
         21   -1    0    0  501  503 -0.00000000000E+00 -0.00000000000E+00 -0.22765800474E+03  0.22765800474E+03  0.00000000000E+00 0. -1.
          6    1    1    2  501    0  0.19607950749E+03  0.23877972680E+02  0.41410691546E+02  0.26582170004E+03  0.17300000000E+03 0. -1.
         -6    1    1    2    0  502 -0.19607950749E+03 -0.23877972680E+02  0.33843379930E+02  0.26474838092E+03  0.17300000000E+03 0. -1.
<mgrwt>
<rscale>  2 0.26257633E+03</rscale>
<asrwt>0</asrwt>
<pdfrwt beam="1">  1       21 0.46601858E-01 0.26257633E+03</pdfrwt>
<pdfrwt beam="2">  1       21 0.35024309E-01 0.26257633E+03</pdfrwt>
<totfact> 0.33519087E+04</totfact>
</mgrwt>
</event>
<event>
 4    1  0.3935877E+000  0.2330096E+03  0.7546771E-02  0.1124539E+00
         21   -1    0    0  501  502  0.00000000000E+00  0.00000000000E+00  0.16669929842E+03  0.16669929842E+03  0.00000000000E+00 0.  1.
         21   -1    0    0  502  503 -0.00000000000E+00 -0.00000000000E+00 -0.41724628256E+03  0.41724628256E+03  0.00000000000E+00 0. -1.
          6    1    1    2  501    0  0.13196077042E+03 -0.83371627665E+02  0.11491028317E+02  0.23329277091E+03  0.17300000000E+03 0.  1.
         -6    1    1    2    0  503 -0.13196077042E+03  0.83371627665E+02 -0.26203801246E+03  0.35065281006E+03  0.17300000000E+03 0. -1.
<mgrwt>
<rscale>  2 0.23300960E+03</rscale>
<asrwt>0</asrwt>
<pdfrwt beam="1">  1       21 0.25646046E-01 0.23300960E+03</pdfrwt>
<pdfrwt beam="2">  1       21 0.64191735E-01 0.23300960E+03</pdfrwt>
<totfact> 0.31640767E+04</totfact>
</mgrwt>
</event>
<event>
 4    1  0.3935877E+000  0.1943789E+03  0.7546771E-02  0.1154570E+00
         21   -1    0    0  501  502  0.00000000000E+00  0.00000000000E+00  0.60295247687E+03  0.60295247687E+03  0.00000000000E+00 0.  1.
         21   -1    0    0  502  503 -0.00000000000E+00 -0.00000000000E+00 -0.67720216115E+02  0.67720216115E+02  0.00000000000E+00 0.  1.
          6    1    1    2  501    0 -0.40165650802E+02 -0.78999134950E+02  0.35924948576E+03  0.40846460783E+03  0.17300000000E+03 0.  1.
         -6    1    1    2    0  503  0.40165650802E+02  0.78999134950E+02  0.17598277499E+03  0.26220808515E+03  0.17300000000E+03 0.  1.
<mgrwt>
<rscale>  2 0.19437886E+03</rscale>
<asrwt>0</asrwt>
<pdfrwt beam="1">  1       21 0.92761916E-01 0.19437886E+03</pdfrwt>
<pdfrwt beam="2">  1       21 0.10418495E-01 0.19437886E+03</pdfrwt>
<totfact> 0.73856896E+04</totfact>
</mgrwt>
</event>
<event>
 4    1  0.3935877E+000  0.2016385E+03  0.7546771E-02  0.1148364E+00
         21   -1    0    0  503  502  0.00000000000E+00  0.00000000000E+00  0.21053339493E+03  0.21053339493E+03  0.00000000000E+00 0. -1.
         21   -1    0    0  501  503 -0.00000000000E+00 -0.00000000000E+00 -0.19312089534E+03  0.19312089534E+03  0.00000000000E+00 0.  1.
          6    1    1    2  501    0 -0.23596647933E+02 -0.10085764237E+03  0.92829028548E+01  0.20185202031E+03  0.17300000000E+03 0.  1.
         -6    1    1    2    0  502  0.23596647933E+02  0.10085764237E+03  0.81295967351E+01  0.20180226996E+03  0.17300000000E+03 0.  1.
<mgrwt>
<rscale>  2 0.20163845E+03</rscale>
<asrwt>0</asrwt>
<pdfrwt beam="1">  1       21 0.32389753E-01 0.20163845E+03</pdfrwt>
<pdfrwt beam="2">  1       21 0.29710907E-01 0.20163845E+03</pdfrwt>
<totfact> 0.99233627E+04</totfact>
</mgrwt>
</event>
<event>
 4    1  0.3935877E+000  0.2441052E+03  0.7546771E-02  0.1117088E+00
         21   -1    0    0  503  502  0.00000000000E+00  0.00000000000E+00  0.32082529633E+03  0.32082529633E+03  0.00000000000E+00 0.  1.
         21   -1    0    0  501  503 -0.00000000000E+00 -0.00000000000E+00 -0.45249026016E+03  0.45249026016E+03  0.00000000000E+00 0.  1.
          6    1    1    2  501    0 -0.36283831784E+02 -0.16835035712E+03 -0.36271285664E+03  0.43720472958E+03  0.17300000000E+03 0.  1.
         -6    1    1    2    0  502  0.36283831784E+02  0.16835035712E+03  0.23104789281E+03  0.33611082691E+03  0.17300000000E+03 0.  1.
<mgrwt>
<rscale>  2 0.24410522E+03</rscale>
<asrwt>0</asrwt>
<pdfrwt beam="1">  1       21 0.49357738E-01 0.24410522E+03</pdfrwt>
<pdfrwt beam="2">  1       21 0.69613886E-01 0.24410522E+03</pdfrwt>
<totfact> 0.70926216E+03</totfact>
</mgrwt>
</event>
<event>
 4    1  0.3935877E+000  0.1921410E+03  0.7546771E-02  0.1156544E+00
         21   -1    0    0  503  502  0.00000000000E+00  0.00000000000E+00  0.40283188580E+02  0.40283188580E+02  0.00000000000E+00 0. -1.
         21   -1    0    0  501  503 -0.00000000000E+00 -0.00000000000E+00 -0.96171911190E+03  0.96171911190E+03  0.00000000000E+00 0. -1.
          6    1    1    2  501    0  0.83417539835E+02  0.55395061294E+01 -0.56939527632E+03  0.60094022396E+03  0.17300000000E+03 0. -1.
         -6    1    1    2    0  502 -0.83417539835E+02 -0.55395061294E+01 -0.35204064700E+03  0.40106207652E+03  0.17300000000E+03 0. -1.
<mgrwt>
<rscale>  2 0.19214102E+03</rscale>
<asrwt>0</asrwt>
<pdfrwt beam="1">  1       21 0.61974136E-02 0.19214102E+03</pdfrwt>
<pdfrwt beam="2">  1       21 0.14795679E+00 0.19214102E+03</pdfrwt>
<totfact> 0.57820797E+04</totfact>
</mgrwt>
</event>
<event>
 4    1  0.3935877E+000  0.2002549E+03  0.7546771E-02  0.1149524E+00
         21   -1    0    0  501  502  0.00000000000E+00  0.00000000000E+00  0.36221495012E+03  0.36221495012E+03  0.00000000000E+00 0. -1.
         21   -1    0    0  502  503 -0.00000000000E+00 -0.00000000000E+00 -0.38697905015E+03  0.38697905015E+03  0.00000000000E+00 0. -1.
          6    1    1    2  501    0  0.10085637944E+03 -0.10122508633E+01  0.30412547857E+03  0.36413505824E+03  0.17300000000E+03 0. -1.
         -6    1    1    2    0  503 -0.10085637944E+03  0.10122508633E+01 -0.32888957860E+03  0.38505894203E+03  0.17300000000E+03 0. -1.
<mgrwt>
<rscale>  2 0.20025492E+03</rscale>
<asrwt>0</asrwt>
<pdfrwt beam="1">  1       21 0.55725377E-01 0.20025492E+03</pdfrwt>
<pdfrwt beam="2">  1       21 0.59535238E-01 0.20025492E+03</pdfrwt>
<totfact> 0.79499056E+03</totfact>
</mgrwt>
</event>
<event>
 4    1  0.3935877E+000  0.1846928E+03  0.7546771E-02  0.1163337E+00
         21   -1    0    0  501  502  0.00000000000E+00  0.00000000000E+00  0.15044845145E+03  0.15044845145E+03  0.00000000000E+00 0.  1.
         21   -1    0    0  502  503 -0.00000000000E+00 -0.00000000000E+00 -0.27510493446E+03  0.27510493446E+03  0.00000000000E+00 0.  1.
          6    1    1    2  501    0 -0.91739221926E+01  0.64017808939E+02  0.26894836805E+02  0.18664075910E+03  0.17300000000E+03 0.  1.
         -6    1    1    2    0  503  0.91739221926E+01 -0.64017808939E+02 -0.15155131982E+03  0.23891262681E+03  0.17300000000E+03 0.  1.
<mgrwt>
<rscale>  2 0.18469283E+03</rscale>
<asrwt>0</asrwt>
<pdfrwt beam="1">  1       21 0.23145916E-01 0.18469283E+03</pdfrwt>
<pdfrwt beam="2">  1       21 0.42323835E-01 0.18469283E+03</pdfrwt>
<totfact> 0.94489976E+04</totfact>
</mgrwt>
</event>
<event>
 4    1  0.3935877E+000  0.2235417E+03  0.7546771E-02  0.1131270E+00
         21   -1    0    0  503  502  0.00000000000E+00  0.00000000000E+00  0.91972437705E+03  0.91972437705E+03  0.00000000000E+00 0.  1.
         21   -1    0    0  501  503 -0.00000000000E+00 -0.00000000000E+00 -0.27298017270E+03  0.27298017270E+03  0.00000000000E+00 0. -1.
          6    1    1    2  501    0  0.13715531485E+03  0.35075489168E+02 -0.21034339881E+03  0.30694497187E+03  0.17300000000E+03 0. -1.
         -6    1    1    2    0  502 -0.13715531485E+03 -0.35075489168E+02  0.85708760316E+03  0.88575957789E+03  0.17300000000E+03 0.  1.
<mgrwt>
<rscale>  2 0.22354165E+03</rscale>
<asrwt>0</asrwt>
<pdfrwt beam="1">  1       21 0.14149606E+00 0.22354165E+03</pdfrwt>
<pdfrwt beam="2">  1       21 0.41996950E-01 0.22354165E+03</pdfrwt>
<totfact> 0.18470229E+03</totfact>
</mgrwt>
</event>
<event>
 4    1  0.3935877E+000  0.2242837E+03  0.7546771E-02  0.1130729E+00
         21   -1    0    0  503  502  0.00000000000E+00  0.00000000000E+00  0.12789726529E+04  0.12789726529E+04  0.00000000000E+00 0. -1.
         21   -1    0    0  501  503 -0.00000000000E+00 -0.00000000000E+00 -0.67684333600E+02  0.67684333600E+02  0.00000000000E+00 0. -1.
          6    1    1    2  501    0  0.11354204996E+03 -0.86500697874E+02  0.16984578089E+03  0.28133744353E+03  0.17300000000E+03 0. -1.
         -6    1    1    2    0  502 -0.11354204996E+03  0.86500697874E+02  0.10414425384E+04  0.10653195430E+04  0.17300000000E+03 0. -1.
<mgrwt>
<rscale>  2 0.22428368E+03</rscale>
<asrwt>0</asrwt>
<pdfrwt beam="1">  1       21 0.19676501E+00 0.22428368E+03</pdfrwt>
<pdfrwt beam="2">  1       21 0.10412975E-01 0.22428368E+03</pdfrwt>
<totfact> 0.10378001E+04</totfact>
</mgrwt>
</event>
<event>
 4    1  0.3935877E+000  0.1896358E+03  0.7546771E-02  0.1158790E+00
         21   -1    0    0  503  502  0.00000000000E+00  0.00000000000E+00  0.36105928730E+03  0.36105928730E+03  0.00000000000E+00 0.  1.
         21   -1    0    0  501  503 -0.00000000000E+00 -0.00000000000E+00 -0.10431265598E+03  0.10431265598E+03  0.00000000000E+00 0.  1.
          6    1    1    2  501    0  0.49847674833E+02 -0.59564540993E+02  0.78918741907E+02  0.20540178445E+03  0.17300000000E+03 0.  1.
         -6    1    1    2    0  502 -0.49847674833E+02  0.59564540993E+02  0.17782788941E+03  0.25997015883E+03  0.17300000000E+03 0.  1.
<mgrwt>
<rscale>  2 0.18963577E+03</rscale>
<asrwt>0</asrwt>
<pdfrwt beam="1">  1       21 0.55547582E-01 0.18963577E+03</pdfrwt>
<pdfrwt beam="2">  1       21 0.16048101E-01 0.18963577E+03</pdfrwt>
<totfact> 0.10604026E+05</totfact>
</mgrwt>
</event>
<event>
 4    1  0.3935877E+000  0.1817352E+03  0.7546771E-02  0.1166134E+00
         21   -1    0    0  501  502  0.00000000000E+00  0.00000000000E+00  0.89061500734E+02  0.89061500734E+02  0.00000000000E+00 0.  1.
         21   -1    0    0  502  503 -0.00000000000E+00 -0.00000000000E+00 -0.41119908655E+03  0.41119908655E+03  0.00000000000E+00 0.  1.
          6    1    1    2  501    0  0.48146881453E+02  0.27938287327E+02 -0.82706947638E+02  0.19967000095E+03  0.17300000000E+03 0.  1.
         -6    1    1    2    0  503 -0.48146881453E+02 -0.27938287327E+02 -0.23943063817E+03  0.30059058633E+03  0.17300000000E+03 0.  1.
<mgrwt>
<rscale>  2 0.18173516E+03</rscale>
<asrwt>0</asrwt>
<pdfrwt beam="1">  1       21 0.13701770E-01 0.18173516E+03</pdfrwt>
<pdfrwt beam="2">  1       21 0.63261396E-01 0.18173516E+03</pdfrwt>
<totfact> 0.10730690E+05</totfact>
</mgrwt>
</event>
<event>
 4    1  0.3935877E+000  0.1834997E+03  0.7546771E-02  0.1164458E+00
         21   -1    0    0  501  502  0.00000000000E+00  0.00000000000E+00  0.14602578307E+03  0.14602578307E+03  0.00000000000E+00 0.  1.
         21   -1    0    0  502  503 -0.00000000000E+00 -0.00000000000E+00 -0.28880852783E+03  0.28880852783E+03  0.00000000000E+00 0.  1.
          6    1    1    2  501    0 -0.15860580217E+02  0.59089586895E+02  0.26223970775E+02  0.18536405781E+03  0.17300000000E+03 0.  1.
         -6    1    1    2    0  503  0.15860580217E+02 -0.59089586895E+02 -0.16900671553E+03  0.24947025309E+03  0.17300000000E+03 0.  1.
<mgrwt>
<rscale>  2 0.18349969E+03</rscale>
<asrwt>0</asrwt>
<pdfrwt beam="1">  1       21 0.22465505E-01 0.18349969E+03</pdfrwt>
<pdfrwt beam="2">  1       21 0.44432081E-01 0.18349969E+03</pdfrwt>
<totfact> 0.90570598E+04</totfact>
</mgrwt>
</event>
<event>
 4    1  0.3935877E+000  0.1774314E+03  0.7546771E-02  0.1170312E+00
         21   -1    0    0  503  502  0.00000000000E+00  0.00000000000E+00  0.21057917608E+03  0.21057917608E+03  0.00000000000E+00 0. -1.
         21   -1    0    0  501  503 -0.00000000000E+00 -0.00000000000E+00 -0.16749828935E+03  0.16749828935E+03  0.00000000000E+00 0. -1.
          6    1    1    2  501    0  0.34427378703E+02 -0.19174672696E+02 -0.40424001786E+02  0.18197805471E+03  0.17300000000E+03 0. -1.
         -6    1    1    2    0  502 -0.34427378703E+02  0.19174672696E+02  0.83504888511E+02  0.19609941071E+03  0.17300000000E+03 0. -1.
<mgrwt>
<rscale>  2 0.17743143E+03</rscale>
<asrwt>0</asrwt>
<pdfrwt beam="1">  1       21 0.32396796E-01 0.17743143E+03</pdfrwt>
<pdfrwt beam="2">  1       21 0.25768968E-01 0.17743143E+03</pdfrwt>
<totfact> 0.13172290E+05</totfact>
</mgrwt>
</event>
<event>
 4    1  0.3935877E+000  0.2473360E+03  0.7546771E-02  0.1115000E+00
         21   -1    0    0  503  502  0.00000000000E+00  0.00000000000E+00  0.87777043759E+03  0.87777043759E+03  0.00000000000E+00 0. -1.
         21   -1    0    0  501  503 -0.00000000000E+00 -0.00000000000E+00 -0.81919184955E+02  0.81919184955E+02  0.00000000000E+00 0. -1.
          6    1    1    2  501    0 -0.18849838671E+02  0.17575779090E+03  0.21255536187E+03  0.32612098881E+03  0.17300000000E+03 0. -1.
         -6    1    1    2    0  502  0.18849838671E+02 -0.17575779090E+03  0.58329589076E+03  0.63356863374E+03  0.17300000000E+03 0. -1.
<mgrwt>
<rscale>  2 0.24733604E+03</rscale>
<asrwt>0</asrwt>
<pdfrwt beam="1">  1       21 0.13504160E+00 0.24733604E+03</pdfrwt>
<pdfrwt beam="2">  1       21 0.12602952E-01 0.24733604E+03</pdfrwt>
<totfact> 0.20421384E+04</totfact>
</mgrwt>
</event>
<event>
 4    1  0.3935877E+000  0.1982627E+03  0.7546771E-02  0.1151213E+00
         21   -1    0    0  503  502  0.00000000000E+00  0.00000000000E+00  0.68697220801E+03  0.68697220801E+03  0.00000000000E+00 0. -1.
         21   -1    0    0  501  503 -0.00000000000E+00 -0.00000000000E+00 -0.59066371201E+02  0.59066371201E+02  0.00000000000E+00 0. -1.
          6    1    1    2  501    0  0.96817466421E+02 -0.23376667413E+01  0.24798998705E+03  0.31750137034E+03  0.17300000000E+03 0. -1.
         -6    1    1    2    0  502 -0.96817466421E+02  0.23376667413E+01  0.37991584975E+03  0.42853720887E+03  0.17300000000E+03 0. -1.
<mgrwt>
<rscale>  2 0.19826267E+03</rscale>
<asrwt>0</asrwt>
<pdfrwt beam="1">  1       21 0.10568803E+00 0.19826267E+03</pdfrwt>
<pdfrwt beam="2">  1       21 0.90871345E-02 0.19826267E+03</pdfrwt>
<totfact> 0.68893105E+04</totfact>
</mgrwt>
</event>
<event>
 4    1  0.3935877E+000  0.2082739E+03  0.7546771E-02  0.1142940E+00
         21   -1    0    0  503  502  0.00000000000E+00  0.00000000000E+00  0.49641628939E+03  0.49641628939E+03  0.00000000000E+00 0. -1.
         21   -1    0    0  501  503 -0.00000000000E+00 -0.00000000000E+00 -0.10546688383E+03  0.10546688383E+03  0.00000000000E+00 0.  1.
          6    1    1    2  501    0  0.11516130357E+03 -0.13670365778E+02  0.70857435217E+02  0.21999722922E+03  0.17300000000E+03 0.  1.
         -6    1    1    2    0  502 -0.11516130357E+03  0.13670365778E+02  0.32009197034E+03  0.38188594399E+03  0.17300000000E+03 0. -1.
<mgrwt>
<rscale>  2 0.20827387E+03</rscale>
<asrwt>0</asrwt>
<pdfrwt beam="1">  1       21 0.76371735E-01 0.20827387E+03</pdfrwt>
<pdfrwt beam="2">  1       21 0.16225675E-01 0.20827387E+03</pdfrwt>
<totfact> 0.51490690E+04</totfact>
</mgrwt>
</event>
<event>
 4    1  0.3935877E+000  0.1802188E+03  0.7546771E-02  0.1167591E+00
         21   -1    0    0  503  502  0.00000000000E+00  0.00000000000E+00  0.50815669259E+03  0.50815669259E+03  0.00000000000E+00 0.  1.
         21   -1    0    0  501  503 -0.00000000000E+00 -0.00000000000E+00 -0.63978537481E+02  0.63978537481E+02  0.00000000000E+00 0.  1.
          6    1    1    2  501    0  0.43861634928E+02  0.25019636573E+02  0.21307269632E+03  0.27906773219E+03  0.17300000000E+03 0.  1.
         -6    1    1    2    0  502 -0.43861634928E+02 -0.25019636573E+02  0.23110545879E+03  0.29306749788E+03  0.17300000000E+03 0.  1.
<mgrwt>
<rscale>  2 0.18021883E+03</rscale>
<asrwt>0</asrwt>
<pdfrwt beam="1">  1       21 0.78177950E-01 0.18021883E+03</pdfrwt>
<pdfrwt beam="2">  1       21 0.98428522E-02 0.18021883E+03</pdfrwt>
<totfact> 0.12144355E+05</totfact>
</mgrwt>
</event>
<event>
 4    1  0.3935877E+000  0.1862430E+03  0.7546771E-02  0.1161894E+00
         21   -1    0    0  501  502  0.00000000000E+00  0.00000000000E+00  0.33581598937E+02  0.33581598937E+02  0.00000000000E+00 0. -1.
         21   -1    0    0  502  503 -0.00000000000E+00 -0.00000000000E+00 -0.10758471629E+04  0.10758471629E+04  0.00000000000E+00 0.  1.
          6    1    1    2  501    0  0.65254197416E+02 -0.22345868526E+02 -0.41030231061E+03  0.45059342451E+03  0.17300000000E+03 0. -1.
         -6    1    1    2    0  503 -0.65254197416E+02  0.22345868526E+02 -0.63196325335E+03  0.65883533732E+03  0.17300000000E+03 0. -1.
<mgrwt>
<rscale>  2 0.18624298E+03</rscale>
<asrwt>0</asrwt>
<pdfrwt beam="1">  1       21 0.51664004E-02 0.18624298E+03</pdfrwt>
<pdfrwt beam="2">  1       21 0.16551493E+00 0.18624298E+03</pdfrwt>
<totfact> 0.58633116E+04</totfact>
</mgrwt>
</event>
<event>
 4    1  0.3935877E+000  0.1897764E+03  0.7546771E-02  0.1158663E+00
         21   -1    0    0  501  502  0.00000000000E+00  0.00000000000E+00  0.48755617444E+03  0.48755617444E+03  0.00000000000E+00 0. -1.
         21   -1    0    0  502  503 -0.00000000000E+00 -0.00000000000E+00 -0.10994836767E+03  0.10994836767E+03  0.00000000000E+00 0. -1.
          6    1    1    2  501    0 -0.17719299894E+02 -0.75974270292E+02  0.35994292415E+03  0.40690781755E+03  0.17300000000E+03 0. -1.
         -6    1    1    2    0  503  0.17719299894E+02  0.75974270292E+02  0.17664882626E+02  0.19059672456E+03  0.17300000000E+03 0. -1.
<mgrwt>
<rscale>  2 0.18977635E+03</rscale>
<asrwt>0</asrwt>
<pdfrwt beam="1">  1       21 0.75008641E-01 0.18977635E+03</pdfrwt>
<pdfrwt beam="2">  1       21 0.16915134E-01 0.18977635E+03</pdfrwt>
<totfact> 0.50116581E+04</totfact>
</mgrwt>
</event>
<event>
 4    1  0.3935877E+000  0.2067116E+03  0.7546771E-02  0.1144197E+00
         21   -1    0    0  503  502  0.00000000000E+00  0.00000000000E+00  0.76663804834E+03  0.76663804834E+03  0.00000000000E+00 0.  1.
         21   -1    0    0  501  503 -0.00000000000E+00 -0.00000000000E+00 -0.15328220784E+03  0.15328220784E+03  0.00000000000E+00 0. -1.
          6    1    1    2  501    0  0.10245990397E+03 -0.47986024367E+02 -0.60248078697E+02  0.21531261329E+03  0.17300000000E+03 0. -1.
         -6    1    1    2    0  502 -0.10245990397E+03  0.47986024367E+02  0.67360391920E+03  0.70460764289E+03  0.17300000000E+03 0.  1.
<mgrwt>
<rscale>  2 0.20671161E+03</rscale>
<asrwt>0</asrwt>
<pdfrwt beam="1">  1       21 0.11794431E+00 0.20671161E+03</pdfrwt>
<pdfrwt beam="2">  1       21 0.23581879E-01 0.20671161E+03</pdfrwt>
<totfact> 0.92349006E+03</totfact>
</mgrwt>
</event>
<event>
 4    1  0.3935877E+000  0.2560367E+03  0.7546771E-02  0.1109548E+00
         21   -1    0    0  503  502  0.00000000000E+00  0.00000000000E+00  0.55450306717E+03  0.55450306717E+03  0.00000000000E+00 0. -1.
         21   -1    0    0  501  503 -0.00000000000E+00 -0.00000000000E+00 -0.11960212300E+03  0.11960212300E+03  0.00000000000E+00 0. -1.
          6    1    1    2  501    0 -0.18817451693E+03  0.14701247127E+02  0.18125134937E+03  0.31369862470E+03  0.17300000000E+03 0. -1.
         -6    1    1    2    0  502  0.18817451693E+03 -0.14701247127E+02  0.25364959479E+03  0.36040656546E+03  0.17300000000E+03 0. -1.
<mgrwt>
<rscale>  2 0.25603667E+03</rscale>
<asrwt>0</asrwt>
<pdfrwt beam="1">  1       21 0.85308163E-01 0.25603667E+03</pdfrwt>
<pdfrwt beam="2">  1       21 0.18400327E-01 0.25603667E+03</pdfrwt>
<totfact> 0.31030553E+04</totfact>
</mgrwt>
</event>
<event>
 4    1  0.3935877E+000  0.2199316E+03  0.7546771E-02  0.1133934E+00
         21   -1    0    0  503  502  0.00000000000E+00  0.00000000000E+00  0.26673888902E+03  0.26673888902E+03  0.00000000000E+00 0. -1.
         21   -1    0    0  501  503 -0.00000000000E+00 -0.00000000000E+00 -0.22214120438E+03  0.22214120438E+03  0.00000000000E+00 0.  1.
          6    1    1    2  501    0  0.74022502015E+02  0.11384900209E+03 -0.82463293807E+02  0.23488320695E+03  0.17300000000E+03 0. -1.
         -6    1    1    2    0  502 -0.74022502015E+02 -0.11384900209E+03  0.12706097845E+03  0.25399688645E+03  0.17300000000E+03 0. -1.
<mgrwt>
<rscale>  2 0.21993164E+03</rscale>
<asrwt>0</asrwt>
<pdfrwt beam="1">  1       21 0.41036752E-01 0.21993164E+03</pdfrwt>
<pdfrwt beam="2">  1       21 0.34175570E-01 0.21993164E+03</pdfrwt>
<totfact> 0.46570430E+04</totfact>
</mgrwt>
</event>
<event>
 4    1  0.3935877E+000  0.1824346E+03  0.7546771E-02  0.1165467E+00
         21   -1    0    0  501  502  0.00000000000E+00  0.00000000000E+00  0.10257526331E+03  0.10257526331E+03  0.00000000000E+00 0. -1.
         21   -1    0    0  502  503 -0.00000000000E+00 -0.00000000000E+00 -0.37095065623E+03  0.37095065623E+03  0.00000000000E+00 0. -1.
          6    1    1    2  501    0 -0.56983416225E+02  0.10309495607E+02 -0.50376713396E+02  0.18926227484E+03  0.17300000000E+03 0. -1.
         -6    1    1    2    0  503  0.56983416225E+02 -0.10309495607E+02 -0.21799867952E+03  0.28426364470E+03  0.17300000000E+03 0. -1.
<mgrwt>
<rscale>  2 0.18243463E+03</rscale>
<asrwt>0</asrwt>
<pdfrwt beam="1">  1       21 0.15780810E-01 0.18243463E+03</pdfrwt>
<pdfrwt beam="2">  1       21 0.57069332E-01 0.18243463E+03</pdfrwt>
<totfact> 0.10352913E+05</totfact>
</mgrwt>
</event>
<event>
 4    1  0.3935877E+000  0.2201220E+03  0.7546771E-02  0.1133792E+00
         21   -1    0    0  503  502  0.00000000000E+00  0.00000000000E+00  0.10706933383E+03  0.10706933383E+03  0.00000000000E+00 0.  1.
         21   -1    0    0  501  503 -0.00000000000E+00 -0.00000000000E+00 -0.46094528262E+03  0.46094528262E+03  0.00000000000E+00 0. -1.
          6    1    1    2  501    0 -0.12274704676E+03 -0.58803641587E+02 -0.21527764514E+03  0.30789311497E+03  0.17300000000E+03 0. -1.
         -6    1    1    2    0  502  0.12274704676E+03  0.58803641587E+02 -0.13859830365E+03  0.26012150147E+03  0.17300000000E+03 0.  1.
<mgrwt>
<rscale>  2 0.22012202E+03</rscale>
<asrwt>0</asrwt>
<pdfrwt beam="1">  1       21 0.16472205E-01 0.22012202E+03</pdfrwt>
<pdfrwt beam="2">  1       21 0.70914662E-01 0.22012202E+03</pdfrwt>
<totfact> 0.58772023E+04</totfact>
</mgrwt>
</event>
<event>
 4    1  0.3935877E+000  0.2850244E+03  0.7546771E-02  0.1092976E+00
         21   -1    0    0  503  502  0.00000000000E+00  0.00000000000E+00  0.12941730119E+03  0.12941730119E+03  0.00000000000E+00 0. -1.
         21   -1    0    0  501  503 -0.00000000000E+00 -0.00000000000E+00 -0.62784204381E+03  0.62784204381E+03  0.00000000000E+00 0. -1.
          6    1    1    2  501    0  0.12144126108E+03  0.19121169411E+03 -0.25431048781E+03  0.38198523017E+03  0.17300000000E+03 0. -1.
         -6    1    1    2    0  502 -0.12144126108E+03 -0.19121169411E+03 -0.24411425481E+03  0.37527411483E+03  0.17300000000E+03 0. -1.
<mgrwt>
<rscale>  2 0.28502437E+03</rscale>
<asrwt>0</asrwt>
<pdfrwt beam="1">  1       21 0.19910354E-01 0.28502437E+03</pdfrwt>
<pdfrwt beam="2">  1       21 0.96591084E-01 0.28502437E+03</pdfrwt>
<totfact> 0.19758831E+04</totfact>
</mgrwt>
</event>
<event>
 4    1  0.3935877E+000  0.1915750E+03  0.7546771E-02  0.1157048E+00
         21   -1    0    0  503  502  0.00000000000E+00  0.00000000000E+00  0.53312805792E+02  0.53312805792E+02  0.00000000000E+00 0. -1.
         21   -1    0    0  501  503 -0.00000000000E+00 -0.00000000000E+00 -0.79309520302E+03  0.79309520302E+03  0.00000000000E+00 0.  1.
          6    1    1    2  501    0 -0.82012624809E+02  0.67766298514E+01 -0.52364741600E+03  0.55759089809E+03  0.17300000000E+03 0.  1.
         -6    1    1    2    0  502  0.82012624809E+02 -0.67766298514E+01 -0.21613498123E+03  0.28881711073E+03  0.17300000000E+03 0. -1.
<mgrwt>
<rscale>  2 0.19157503E+03</rscale>
<asrwt>0</asrwt>
<pdfrwt beam="1">  1       21 0.82019695E-02 0.19157503E+03</pdfrwt>
<pdfrwt beam="2">  1       21 0.12201466E+00 0.19157503E+03</pdfrwt>
<totfact> 0.58253391E+04</totfact>
</mgrwt>
</event>
<event>
 4    1  0.3935877E+000  0.1755725E+03  0.7546771E-02  0.1172158E+00
         21   -1    0    0  503  502  0.00000000000E+00  0.00000000000E+00  0.24309639489E+02  0.24309639489E+02  0.00000000000E+00 0.  1.
         21   -1    0    0  501  503 -0.00000000000E+00 -0.00000000000E+00 -0.14501390997E+04  0.14501390997E+04  0.00000000000E+00 0.  1.
          6    1    1    2  501    0  0.19609093221E+02  0.22631650836E+02 -0.97415685806E+03  0.98985215677E+03  0.17300000000E+03 0.  1.
         -6    1    1    2    0  502 -0.19609093221E+02 -0.22631650836E+02 -0.45167260213E+03  0.48459658239E+03  0.17300000000E+03 0.  1.
<mgrwt>
<rscale>  2 0.17557252E+03</rscale>
<asrwt>0</asrwt>
<pdfrwt beam="1">  1       21 0.37399446E-02 0.17557252E+03</pdfrwt>
<pdfrwt beam="2">  1       21 0.22309832E+00 0.17557252E+03</pdfrwt>
<totfact> 0.42767370E+04</totfact>
</mgrwt>
</event>
<event>
 4    1  0.3935877E+000  0.1769605E+03  0.7546771E-02  0.1170778E+00
         21   -1    0    0  503  502  0.00000000000E+00  0.00000000000E+00  0.45725181475E+03  0.45725181475E+03  0.00000000000E+00 0. -1.
         21   -1    0    0  501  503 -0.00000000000E+00 -0.00000000000E+00 -0.70338131661E+02  0.70338131661E+02  0.00000000000E+00 0. -1.
          6    1    1    2  501    0  0.14967771982E+02 -0.34087817755E+02  0.15064215978E+03  0.23239637222E+03  0.17300000000E+03 0. -1.
         -6    1    1    2    0  502 -0.14967771982E+02  0.34087817755E+02  0.23627152330E+03  0.29519357419E+03  0.17300000000E+03 0. -1.
<mgrwt>
<rscale>  2 0.17696049E+03</rscale>
<asrwt>0</asrwt>
<pdfrwt beam="1">  1       21 0.70346431E-01 0.17696049E+03</pdfrwt>
<pdfrwt beam="2">  1       21 0.10821251E-01 0.17696049E+03</pdfrwt>
<totfact> 0.13004647E+05</totfact>
</mgrwt>
</event>
<event>
 4    1  0.3935877E+000  0.1738867E+03  0.7546771E-02  0.1173854E+00
         21   -1    0    0  503  502  0.00000000000E+00  0.00000000000E+00  0.13341072061E+04  0.13341072061E+04  0.00000000000E+00 0.  1.
         21   -1    0    0  501  503 -0.00000000000E+00 -0.00000000000E+00 -0.22978708179E+02  0.22978708179E+02  0.00000000000E+00 0.  1.
          6    1    1    2  501    0 -0.17530309929E+02  0.52927097943E+00  0.57619199065E+03  0.60185862292E+03  0.17300000000E+03 0.  1.
         -6    1    1    2    0  502  0.17530309929E+02 -0.52927097943E+00  0.73493650725E+03  0.75522729134E+03  0.17300000000E+03 0.  1.
<mgrwt>
<rscale>  2 0.17388672E+03</rscale>
<asrwt>0</asrwt>
<pdfrwt beam="1">  1       21 0.20524720E+00 0.17388672E+03</pdfrwt>
<pdfrwt beam="2">  1       21 0.35351869E-02 0.17388672E+03</pdfrwt>
<totfact> 0.60629501E+04</totfact>
</mgrwt>
</event>
<event>
 4    1  0.3935877E+000  0.2856377E+03  0.7546771E-02  0.1092649E+00
         21   -1    0    0  503  502  0.00000000000E+00  0.00000000000E+00  0.51574495293E+03  0.51574495293E+03  0.00000000000E+00 0. -1.
         21   -1    0    0  501  503 -0.00000000000E+00 -0.00000000000E+00 -0.16094305916E+03  0.16094305916E+03  0.00000000000E+00 0. -1.
          6    1    1    2  501    0  0.22718584074E+03 -0.68181238660E+01  0.22160278752E+03  0.36151996969E+03  0.17300000000E+03 0. -1.
         -6    1    1    2    0  502 -0.22718584074E+03  0.68181238660E+01  0.13319910625E+03  0.31516804241E+03  0.17300000000E+03 0. -1.
<mgrwt>
<rscale>  2 0.28563770E+03</rscale>
<asrwt>0</asrwt>
<pdfrwt beam="1">  1       21 0.79345377E-01 0.28563770E+03</pdfrwt>
<pdfrwt beam="2">  1       21 0.24760471E-01 0.28563770E+03</pdfrwt>
<totfact> 0.20613272E+04</totfact>
</mgrwt>
</event>
<event>
 4    1  0.3935877E+000  0.2788166E+03  0.7546771E-02  0.1096337E+00
         21   -1    0    0  501  502  0.00000000000E+00  0.00000000000E+00  0.43065921408E+03  0.43065921408E+03  0.00000000000E+00 0.  1.
         21   -1    0    0  502  503 -0.00000000000E+00 -0.00000000000E+00 -0.22993722209E+03  0.22993722209E+03  0.00000000000E+00 0. -1.
          6    1    1    2  501    0  0.18640417787E+03  0.11429434141E+03  0.25349809473E+03  0.37682887103E+03  0.17300000000E+03 0.  1.
         -6    1    1    2    0  503 -0.18640417787E+03 -0.11429434141E+03 -0.52776102738E+02  0.28376756514E+03  0.17300000000E+03 0. -1.
<mgrwt>
<rscale>  2 0.27881663E+03</rscale>
<asrwt>0</asrwt>
<pdfrwt beam="1">  1       21 0.66255264E-01 0.27881663E+03</pdfrwt>
<pdfrwt beam="2">  1       21 0.35374957E-01 0.27881663E+03</pdfrwt>
<totfact> 0.15369716E+04</totfact>
</mgrwt>
</event>
<event>
 4    1  0.3935877E+000  0.1937106E+03  0.7546771E-02  0.1155157E+00
         21   -1    0    0  501  502  0.00000000000E+00  0.00000000000E+00  0.15130893257E+04  0.15130893257E+04  0.00000000000E+00 0. -1.
         21   -1    0    0  502  503 -0.00000000000E+00 -0.00000000000E+00 -0.26617357147E+02  0.26617357147E+02  0.00000000000E+00 0. -1.
          6    1    1    2  501    0  0.33192082069E+02 -0.80579686483E+02  0.94442767081E+03  0.96408890959E+03  0.17300000000E+03 0. -1.
         -6    1    1    2    0  503 -0.33192082069E+02  0.80579686483E+02  0.54204429775E+03  0.57561777328E+03  0.17300000000E+03 0. -1.
<mgrwt>
<rscale>  2 0.19371061E+03</rscale>
<asrwt>0</asrwt>
<pdfrwt beam="1">  1       21 0.23278291E+00 0.19371061E+03</pdfrwt>
<pdfrwt beam="2">  1       21 0.40949792E-02 0.19371061E+03</pdfrwt>
<totfact> 0.31673287E+04</totfact>
</mgrwt>
</event>
<event>
 4    1  0.3935877E+000  0.3261778E+03  0.7546771E-02  0.1072841E+00
         21   -1    0    0  503  502  0.00000000000E+00  0.00000000000E+00  0.43868751166E+03  0.43868751166E+03  0.00000000000E+00 0.  1.
         21   -1    0    0  501  503 -0.00000000000E+00 -0.00000000000E+00 -0.43368776428E+03  0.43368776428E+03  0.00000000000E+00 0. -1.
          6    1    1    2  501    0  0.25689917502E+03  0.10230230710E+03 -0.28709331102E+03  0.43452792476E+03  0.17300000000E+03 0. -1.
         -6    1    1    2    0  502 -0.25689917502E+03 -0.10230230710E+03  0.29209305840E+03  0.43784735118E+03  0.17300000000E+03 0.  1.
<mgrwt>
<rscale>  2 0.32617779E+03</rscale>
<asrwt>0</asrwt>
<pdfrwt beam="1">  1       21 0.67490386E-01 0.32617779E+03</pdfrwt>
<pdfrwt beam="2">  1       21 0.66721195E-01 0.32617779E+03</pdfrwt>
<totfact> 0.37999810E+03</totfact>
</mgrwt>
</event>
<event>
 4    1  0.3935877E+000  0.2600842E+03  0.7546771E-02  0.1107093E+00
         21   -1    0    0  503  502  0.00000000000E+00  0.00000000000E+00  0.46333436377E+03  0.46333436377E+03  0.00000000000E+00 0.  1.
         21   -1    0    0  501  503 -0.00000000000E+00 -0.00000000000E+00 -0.15892459052E+03  0.15892459052E+03  0.00000000000E+00 0.  1.
          6    1    1    2  501    0  0.16461216605E+03  0.10304185232E+03  0.63455819462E+02  0.26771333468E+03  0.17300000000E+03 0.  1.
         -6    1    1    2    0  502 -0.16461216605E+03 -0.10304185232E+03  0.24095395379E+03  0.35454561961E+03  0.17300000000E+03 0.  1.
<mgrwt>
<rscale>  2 0.26008420E+03</rscale>
<asrwt>0</asrwt>
<pdfrwt beam="1">  1       21 0.71282209E-01 0.26008420E+03</pdfrwt>
<pdfrwt beam="2">  1       21 0.24449937E-01 0.26008420E+03</pdfrwt>
<totfact> 0.27188766E+04</totfact>
</mgrwt>
</event>
<event>
 4    1  0.3935877E+000  0.2214489E+03  0.7546771E-02  0.1132807E+00
         21   -1    0    0  503  502  0.00000000000E+00  0.00000000000E+00  0.29098618700E+03  0.29098618700E+03  0.00000000000E+00 0.  1.
         21   -1    0    0  501  503 -0.00000000000E+00 -0.00000000000E+00 -0.17147861190E+03  0.17147861190E+03  0.00000000000E+00 0. -1.
          6    1    1    2  501    0  0.34695172556E+02 -0.13381644187E+03  0.29426735918E+02  0.22339545184E+03  0.17300000000E+03 0.  1.
         -6    1    1    2    0  502 -0.34695172556E+02  0.13381644187E+03  0.90080839184E+02  0.23906934706E+03  0.17300000000E+03 0.  1.
<mgrwt>
<rscale>  2 0.22144885E+03</rscale>
<asrwt>0</asrwt>
<pdfrwt beam="1">  1       21 0.44767106E-01 0.22144885E+03</pdfrwt>
<pdfrwt beam="2">  1       21 0.26381325E-01 0.22144885E+03</pdfrwt>
<totfact> 0.64617916E+04</totfact>
</mgrwt>
</event>
<event>
 4    1  0.3935877E+000  0.2640716E+03  0.7546771E-02  0.1104721E+00
         21   -1    0    0  501  502  0.00000000000E+00  0.00000000000E+00  0.12468506600E+04  0.12468506600E+04  0.00000000000E+00 0. -1.
         21   -1    0    0  502  503 -0.00000000000E+00 -0.00000000000E+00 -0.10983022007E+03  0.10983022007E+03  0.00000000000E+00 0. -1.
          6    1    1    2  501    0 -0.19193018998E+03  0.54475572151E+02  0.10437254602E+04  0.10766134971E+04  0.17300000000E+03 0. -1.
         -6    1    1    2    0  503  0.19193018998E+03 -0.54475572151E+02  0.93294979756E+02  0.28006738303E+03  0.17300000000E+03 0. -1.
<mgrwt>
<rscale>  2 0.26407155E+03</rscale>
<asrwt>0</asrwt>
<pdfrwt beam="1">  1       21 0.19182317E+00 0.26407155E+03</pdfrwt>
<pdfrwt beam="2">  1       21 0.16896958E-01 0.26407155E+03</pdfrwt>
<totfact> 0.45205492E+03</totfact>
</mgrwt>
</event>
<event>
 4    1  0.3935877E+000  0.4684487E+03  0.7546771E-02  0.1022359E+00
         21   -1    0    0  503  502  0.00000000000E+00  0.00000000000E+00  0.28835401942E+03  0.28835401942E+03  0.00000000000E+00 0.  1.
         21   -1    0    0  501  503 -0.00000000000E+00 -0.00000000000E+00 -0.79611531150E+03  0.79611531150E+03  0.00000000000E+00 0. -1.
          6    1    1    2  501    0  0.54649500758E+02  0.43188962133E+03 -0.36772240224E+03  0.59553671428E+03  0.17300000000E+03 0. -1.
         -6    1    1    2    0  502 -0.54649500758E+02 -0.43188962133E+03 -0.14003888984E+03  0.48893261664E+03  0.17300000000E+03 0.  1.
<mgrwt>
<rscale>  2 0.46844873E+03</rscale>
<asrwt>0</asrwt>
<pdfrwt beam="1">  1       21 0.44362158E-01 0.46844873E+03</pdfrwt>
<pdfrwt beam="2">  1       21 0.12247928E+00 0.46844873E+03</pdfrwt>
<totfact> 0.20945743E+03</totfact>
</mgrwt>
</event>
<event>
 4    1  0.3935877E+000  0.2966905E+03  0.7546771E-02  0.1086907E+00
         21   -1    0    0  501  502  0.00000000000E+00  0.00000000000E+00  0.81673914585E+03  0.81673914585E+03  0.00000000000E+00 0.  1.
         21   -1    0    0  502  503 -0.00000000000E+00 -0.00000000000E+00 -0.12376840359E+03  0.12376840359E+03  0.00000000000E+00 0.  1.
          6    1    1    2  501    0 -0.24101267002E+03 -0.30273173607E+01  0.51552079346E+03  0.59479993296E+03  0.17300000000E+03 0.  1.
         -6    1    1    2    0  503  0.24101267002E+03  0.30273173607E+01  0.17744994881E+03  0.34570761648E+03  0.17300000000E+03 0.  1.
<mgrwt>
<rscale>  2 0.29669053E+03</rscale>
<asrwt>0</asrwt>
<pdfrwt beam="1">  1       21 0.12565217E+00 0.29669053E+03</pdfrwt>
<pdfrwt beam="2">  1       21 0.19041293E-01 0.29669053E+03</pdfrwt>
<totfact> 0.11205316E+04</totfact>
</mgrwt>
</event>
<event>
 4    1  0.3935877E+000  0.1964639E+03  0.7546771E-02  0.1152757E+00
         21   -1    0    0  501  502  0.00000000000E+00  0.00000000000E+00  0.24790073668E+03  0.24790073668E+03  0.00000000000E+00 0.  1.
         21   -1    0    0  502  503 -0.00000000000E+00 -0.00000000000E+00 -0.12629551997E+04  0.12629551997E+04  0.00000000000E+00 0.  1.
          6    1    1    2  501    0  0.38295003371E+02 -0.84867785226E+02  0.19980431464E+03  0.28021386904E+03  0.17300000000E+03 0.  1.
         -6    1    1    2    0  503 -0.38295003371E+02  0.84867785226E+02 -0.12148587776E+04  0.12306420673E+04  0.17300000000E+03 0.  1.
<mgrwt>
<rscale>  2 0.19646386E+03</rscale>
<asrwt>0</asrwt>
<pdfrwt beam="1">  1       21 0.38138575E-01 0.19646386E+03</pdfrwt>
<pdfrwt beam="2">  1       21 0.19430080E+00 0.19646386E+03</pdfrwt>
<totfact> 0.96497786E+02</totfact>
</mgrwt>
</event>
<event>
 4    1  0.3935877E+000  0.1961485E+03  0.7546771E-02  0.1153030E+00
         21   -1    0    0  501  502  0.00000000000E+00  0.00000000000E+00  0.30881002038E+02  0.30881002038E+02  0.00000000000E+00 0.  1.
         21   -1    0    0  502  503 -0.00000000000E+00 -0.00000000000E+00 -0.30970012466E+04  0.30970012466E+04  0.00000000000E+00 0.  1.
          6    1    1    2  501    0  0.69960527104E+02  0.60421395164E+02 -0.32394851024E+03  0.37870418222E+03  0.17300000000E+03 0.  1.
         -6    1    1    2    0  503 -0.69960527104E+02 -0.60421395164E+02 -0.27421717343E+04  0.27491780664E+04  0.17300000000E+03 0.  1.
<mgrwt>
<rscale>  2 0.19614847E+03</rscale>
<asrwt>0</asrwt>
<pdfrwt beam="1">  1       21 0.47509250E-02 0.19614847E+03</pdfrwt>
<pdfrwt beam="2">  1       21 0.47646157E+00 0.19614847E+03</pdfrwt>
<totfact> 0.80472689E+02</totfact>
</mgrwt>
</event>
<event>
 4    1  0.3935877E+000  0.2744404E+03  0.7546771E-02  0.1098765E+00
         21   -1    0    0  503  502  0.00000000000E+00  0.00000000000E+00  0.57316861165E+03  0.57316861165E+03  0.00000000000E+00 0. -1.
         21   -1    0    0  501  503 -0.00000000000E+00 -0.00000000000E+00 -0.13175765545E+03  0.13175765545E+03  0.00000000000E+00 0. -1.
          6    1    1    2  501    0 -0.21112995443E+03  0.28507777471E+02  0.23892540677E+03  0.36387209433E+03  0.17300000000E+03 0. -1.
         -6    1    1    2    0  502  0.21112995443E+03 -0.28507777471E+02  0.20248554942E+03  0.34105417276E+03  0.17300000000E+03 0. -1.
<mgrwt>
<rscale>  2 0.27444043E+03</rscale>
<asrwt>0</asrwt>
<pdfrwt beam="1">  1       21 0.88179785E-01 0.27444043E+03</pdfrwt>
<pdfrwt beam="2">  1       21 0.20270409E-01 0.27444043E+03</pdfrwt>
<totfact> 0.23775749E+04</totfact>
</mgrwt>
</event>
<event>
 4    1  0.3935877E+000  0.2108588E+03  0.7546771E-02  0.1140888E+00
         21   -1    0    0  501  502  0.00000000000E+00  0.00000000000E+00  0.10798390609E+03  0.10798390609E+03  0.00000000000E+00 0.  1.
         21   -1    0    0  502  503 -0.00000000000E+00 -0.00000000000E+00 -0.10778850797E+04  0.10778850797E+04  0.00000000000E+00 0.  1.
          6    1    1    2  501    0 -0.31419056859E+02  0.11638416948E+03 -0.18823351341E+02  0.21169730890E+03  0.17300000000E+03 0.  1.
         -6    1    1    2    0  503  0.31419056859E+02 -0.11638416948E+03 -0.95107782223E+03  0.97417167685E+03  0.17300000000E+03 0.  1.
<mgrwt>
<rscale>  2 0.21085880E+03</rscale>
<asrwt>0</asrwt>
<pdfrwt beam="1">  1       21 0.16612908E-01 0.21085880E+03</pdfrwt>
<pdfrwt beam="2">  1       21 0.16582848E+00 0.21085880E+03</pdfrwt>
<totfact> 0.73260263E+03</totfact>
</mgrwt>
</event>
<event>
 4    1  0.3935877E+000  0.2233817E+03  0.7546771E-02  0.1131387E+00
         21   -1    0    0  503  502  0.00000000000E+00  0.00000000000E+00  0.32199570555E+03  0.32199570555E+03  0.00000000000E+00 0. -1.
         21   -1    0    0  501  503 -0.00000000000E+00 -0.00000000000E+00 -0.28419346488E+03  0.28419346488E+03  0.00000000000E+00 0. -1.
          6    1    1    2  501    0 -0.88824999632E+02 -0.10991126606E+03 -0.18548124923E+03  0.29034920490E+03  0.17300000000E+03 0. -1.
         -6    1    1    2    0  502  0.88824999632E+02  0.10991126606E+03  0.22328348990E+03  0.31583996554E+03  0.17300000000E+03 0. -1.
<mgrwt>
<rscale>  2 0.22338166E+03</rscale>
<asrwt>0</asrwt>
<pdfrwt beam="1">  1       21 0.49537801E-01 0.22338166E+03</pdfrwt>
<pdfrwt beam="2">  1       21 0.43722071E-01 0.22338166E+03</pdfrwt>
<totfact> 0.19181943E+04</totfact>
</mgrwt>
</event>
<event>
 4    1  0.3935877E+000  0.2020822E+03  0.7546771E-02  0.1147994E+00
         21   -1    0    0  501  502  0.00000000000E+00  0.00000000000E+00  0.76208092001E+02  0.76208092001E+02  0.00000000000E+00 0.  1.
         21   -1    0    0  502  503 -0.00000000000E+00 -0.00000000000E+00 -0.78116273647E+03  0.78116273647E+03  0.00000000000E+00 0. -1.
          6    1    1    2  501    0 -0.35540278535E+02  0.98209520112E+02 -0.11225406936E+03  0.23116703339E+03  0.17300000000E+03 0.  1.
         -6    1    1    2    0  503  0.35540278535E+02 -0.98209520112E+02 -0.59270057511E+03  0.62620379508E+03  0.17300000000E+03 0. -1.
<mgrwt>
<rscale>  2 0.20208221E+03</rscale>
<asrwt>0</asrwt>
<pdfrwt beam="1">  1       21 0.11724322E-01 0.20208221E+03</pdfrwt>
<pdfrwt beam="2">  1       21 0.12017889E+00 0.20208221E+03</pdfrwt>
<totfact> 0.32008638E+04</totfact>
</mgrwt>
</event>
<event>
 4    1  0.3935877E+000  0.1997523E+03  0.7546771E-02  0.1149948E+00
         21   -1    0    0  503  502  0.00000000000E+00  0.00000000000E+00  0.24094497214E+03  0.24094497214E+03  0.00000000000E+00 0. -1.
         21   -1    0    0  501  503 -0.00000000000E+00 -0.00000000000E+00 -0.47291325238E+03  0.47291325238E+03  0.00000000000E+00 0. -1.
          6    1    1    2  501    0 -0.72421311278E+02 -0.68754093774E+02 -0.40371103155E+03  0.45042598585E+03  0.17300000000E+03 0. -1.
         -6    1    1    2    0  502  0.72421311278E+02  0.68754093774E+02  0.17174275131E+03  0.26343223866E+03  0.17300000000E+03 0. -1.
<mgrwt>
<rscale>  2 0.19975228E+03</rscale>
<asrwt>0</asrwt>
<pdfrwt beam="1">  1       21 0.37068458E-01 0.19975228E+03</pdfrwt>
<pdfrwt beam="2">  1       21 0.72755884E-01 0.19975228E+03</pdfrwt>
<totfact> 0.11883593E+04</totfact>
</mgrwt>
</event>
<event>
 4    1  0.3935877E+000  0.1949211E+03  0.7546771E-02  0.1154096E+00
         21   -1    0    0  503  502  0.00000000000E+00  0.00000000000E+00  0.66716656641E+02  0.66716656641E+02  0.00000000000E+00 0. -1.
         21   -1    0    0  501  503 -0.00000000000E+00 -0.00000000000E+00 -0.73280682348E+03  0.73280682348E+03  0.00000000000E+00 0.  1.
          6    1    1    2  501    0 -0.57368797162E+02  0.69094592984E+02 -0.52176879233E+03  0.55698915099E+03  0.17300000000E+03 0.  1.
         -6    1    1    2    0  502  0.57368797162E+02 -0.69094592984E+02 -0.14432137450E+03  0.24253432913E+03  0.17300000000E+03 0. -1.
<mgrwt>
<rscale>  2 0.19492112E+03</rscale>
<asrwt>0</asrwt>
<pdfrwt beam="1">  1       21 0.10264101E-01 0.19492112E+03</pdfrwt>
<pdfrwt beam="2">  1       21 0.11273951E+00 0.19492112E+03</pdfrwt>
<totfact> 0.47622633E+04</totfact>
</mgrwt>
</event>
<event>
 4    1  0.3935877E+000  0.1932910E+03  0.7546771E-02  0.1155526E+00
         21   -1    0    0  501  502  0.00000000000E+00  0.00000000000E+00  0.15280164207E+03  0.15280164207E+03  0.00000000000E+00 0.  1.
         21   -1    0    0  502  503 -0.00000000000E+00 -0.00000000000E+00 -0.24590888225E+03  0.24590888225E+03  0.00000000000E+00 0.  1.
          6    1    1    2  501    0  0.24631075816E+02 -0.82617897738E+02 -0.31513348880E+02  0.19584304450E+03  0.17300000000E+03 0.  1.
         -6    1    1    2    0  503 -0.24631075816E+02  0.82617897738E+02 -0.61593891306E+02  0.20286747982E+03  0.17300000000E+03 0.  1.
<mgrwt>
<rscale>  2 0.19329099E+03</rscale>
<asrwt>0</asrwt>
<pdfrwt beam="1">  1       21 0.23507945E-01 0.19329099E+03</pdfrwt>
<pdfrwt beam="2">  1       21 0.37832135E-01 0.19329099E+03</pdfrwt>
<totfact> 0.11472272E+05</totfact>
</mgrwt>
</event>
<event>
 4    1  0.3935877E+000  0.2619904E+03  0.7546771E-02  0.1105953E+00
         21   -1    0    0  503  502  0.00000000000E+00  0.00000000000E+00  0.48599999252E+02  0.48599999252E+02  0.00000000000E+00 0.  1.
         21   -1    0    0  501  503 -0.00000000000E+00 -0.00000000000E+00 -0.16461544236E+04  0.16461544236E+04  0.00000000000E+00 0. -1.
          6    1    1    2  501    0 -0.19670194426E+03 -0.42805778189E+01 -0.11181451938E+04  0.11484283402E+04  0.17300000000E+03 0. -1.
         -6    1    1    2    0  502  0.19670194426E+03  0.42805778189E+01 -0.47940923056E+03  0.54632608264E+03  0.17300000000E+03 0.  1.
<mgrwt>
<rscale>  2 0.26199042E+03</rscale>
<asrwt>0</asrwt>
<pdfrwt beam="1">  1       21 0.74769217E-02 0.26199042E+03</pdfrwt>
<pdfrwt beam="2">  1       21 0.25325457E+00 0.26199042E+03</pdfrwt>
<totfact> 0.80926865E+03</totfact>
</mgrwt>
</event>
<event>
 4    1  0.3935877E+000  0.2018628E+03  0.7546771E-02  0.1148177E+00
         21   -1    0    0  501  502  0.00000000000E+00  0.00000000000E+00  0.61822444498E+03  0.61822444498E+03  0.00000000000E+00 0. -1.
         21   -1    0    0  502  503 -0.00000000000E+00 -0.00000000000E+00 -0.74681557897E+02  0.74681557897E+02  0.00000000000E+00 0.  1.
          6    1    1    2  501    0 -0.57005614915E+02 -0.87005411509E+02  0.39049027097E+03  0.43958074740E+03  0.17300000000E+03 0.  1.
         -6    1    1    2    0  503  0.57005614915E+02  0.87005411509E+02  0.15305261612E+03  0.25332525548E+03  0.17300000000E+03 0.  1.
<mgrwt>
<rscale>  2 0.20186278E+03</rscale>
<asrwt>0</asrwt>
<pdfrwt beam="1">  1       21 0.95111450E-01 0.20186278E+03</pdfrwt>
<pdfrwt beam="2">  1       21 0.11489471E-01 0.20186278E+03</pdfrwt>
<totfact> 0.58323690E+04</totfact>
</mgrwt>
</event>
<event>
 4    1  0.3935877E+000  0.1935375E+03  0.7546771E-02  0.1155309E+00
         21   -1    0    0  503  502  0.00000000000E+00  0.00000000000E+00  0.19458032866E+04  0.19458032866E+04  0.00000000000E+00 0.  1.
         21   -1    0    0  501  503 -0.00000000000E+00 -0.00000000000E+00 -0.19437932106E+03  0.19437932106E+03  0.00000000000E+00 0.  1.
          6    1    1    2  501    0  0.39091661779E+01 -0.86674686247E+02 -0.14001079572E+03  0.23887194422E+03  0.17300000000E+03 0.  1.
         -6    1    1    2    0  502 -0.39091661779E+01  0.86674686247E+02  0.18914347613E+04  0.19013106635E+04  0.17300000000E+03 0.  1.
<mgrwt>
<rscale>  2 0.19353755E+03</rscale>
<asrwt>0</asrwt>
<pdfrwt beam="1">  1       21 0.29935434E+00 0.19353755E+03</pdfrwt>
<pdfrwt beam="2">  1       21 0.29904512E-01 0.19353755E+03</pdfrwt>
<totfact> 0.36868025E+02</totfact>
</mgrwt>
</event>
<event>
 4    1  0.3935877E+000  0.1799362E+03  0.7546771E-02  0.1167865E+00
         21   -1    0    0  501  502  0.00000000000E+00  0.00000000000E+00  0.17170730601E+03  0.17170730601E+03  0.00000000000E+00 0. -1.
         21   -1    0    0  502  503 -0.00000000000E+00 -0.00000000000E+00 -0.22547037077E+03  0.22547037077E+03  0.00000000000E+00 0.  1.
          6    1    1    2  501    0  0.38195189136E+01 -0.49330164688E+02  0.53468655237E+02  0.18771241559E+03  0.17300000000E+03 0. -1.
         -6    1    1    2    0  503 -0.38195189136E+01  0.49330164688E+02 -0.10723172000E+03  0.20946526119E+03  0.17300000000E+03 0.  1.
<mgrwt>
<rscale>  2 0.17993625E+03</rscale>
<asrwt>0</asrwt>
<pdfrwt beam="1">  1       21 0.26416509E-01 0.17993625E+03</pdfrwt>
<pdfrwt beam="2">  1       21 0.34687749E-01 0.17993625E+03</pdfrwt>
<totfact> 0.10968789E+05</totfact>
</mgrwt>
</event>
<event>
 4    1  0.3935877E+000  0.2839111E+03  0.7546771E-02  0.1093572E+00
         21   -1    0    0  501  502  0.00000000000E+00  0.00000000000E+00  0.66447734184E+03  0.66447734184E+03  0.00000000000E+00 0. -1.
         21   -1    0    0  502  503 -0.00000000000E+00 -0.00000000000E+00 -0.12296014012E+03  0.12296014012E+03  0.00000000000E+00 0.  1.
          6    1    1    2  501    0 -0.20524151750E+03 -0.92479456362E+02  0.31641511352E+03  0.42511651863E+03  0.17300000000E+03 0.  1.
         -6    1    1    2    0  503  0.20524151750E+03  0.92479456362E+02  0.22510208821E+03  0.36232096333E+03  0.17300000000E+03 0. -1.
<mgrwt>
<rscale>  2 0.28391113E+03</rscale>
<asrwt>0</asrwt>
<pdfrwt beam="1">  1       21 0.10222728E+00 0.28391113E+03</pdfrwt>
<pdfrwt beam="2">  1       21 0.18916945E-01 0.28391113E+03</pdfrwt>
<totfact> 0.18999713E+04</totfact>
</mgrwt>
</event>
<event>
 4    1  0.3935877E+000  0.3692571E+03  0.7546771E-02  0.1054977E+00
         21   -1    0    0  501  502  0.00000000000E+00  0.00000000000E+00  0.13289885492E+03  0.13289885492E+03  0.00000000000E+00 0.  1.
         21   -1    0    0  502  503 -0.00000000000E+00 -0.00000000000E+00 -0.11589255360E+04  0.11589255360E+04  0.00000000000E+00 0. -1.
          6    1    1    2  501    0  0.23299638126E+03 -0.22832984524E+03 -0.29424139227E+03  0.47215339544E+03  0.17300000000E+03 0. -1.
         -6    1    1    2    0  503 -0.23299638126E+03  0.22832984524E+03 -0.73178528886E+03  0.81967099552E+03  0.17300000000E+03 0.  1.
<mgrwt>
<rscale>  2 0.36925714E+03</rscale>
<asrwt>0</asrwt>
<pdfrwt beam="1">  1       21 0.20445977E-01 0.36925714E+03</pdfrwt>
<pdfrwt beam="2">  1       21 0.17829624E+00 0.36925714E+03</pdfrwt>
<totfact> 0.36850475E+03</totfact>
</mgrwt>
</event>
<event>
 4    1  0.3935877E+000  0.1762711E+03  0.7546771E-02  0.1171461E+00
         21   -1    0    0  503  502  0.00000000000E+00  0.00000000000E+00  0.34300458995E+03  0.34300458995E+03  0.00000000000E+00 0.  1.
         21   -1    0    0  501  503 -0.00000000000E+00 -0.00000000000E+00 -0.12133430353E+03  0.12133430353E+03  0.00000000000E+00 0.  1.
          6    1    1    2  501    0  0.12404743776E+02 -0.31442466618E+02 -0.60399416279E+01  0.17637456526E+03  0.17300000000E+03 0.  1.
         -6    1    1    2    0  502 -0.12404743776E+02  0.31442466618E+02  0.22771022804E+03  0.28796432822E+03  0.17300000000E+03 0.  1.
<mgrwt>
<rscale>  2 0.17627112E+03</rscale>
<asrwt>0</asrwt>
<pdfrwt beam="1">  1       21 0.52769937E-01 0.17627112E+03</pdfrwt>
<pdfrwt beam="2">  1       21 0.18666816E-01 0.17627112E+03</pdfrwt>
<totfact> 0.89918002E+04</totfact>
</mgrwt>
</event>
<event>
 4    1  0.3935877E+000  0.4291434E+03  0.7546771E-02  0.1034131E+00
         21   -1    0    0  503  502  0.00000000000E+00  0.00000000000E+00  0.35228818636E+03  0.35228818636E+03  0.00000000000E+00 0.  1.
         21   -1    0    0  501  503 -0.00000000000E+00 -0.00000000000E+00 -0.59821561988E+03  0.59821561988E+03  0.00000000000E+00 0.  1.
          6    1    1    2  501    0 -0.35621121416E+03 -0.16537424034E+03 -0.29174539305E+03  0.51892142259E+03  0.17300000000E+03 0.  1.
         -6    1    1    2    0  502  0.35621121416E+03  0.16537424034E+03  0.45817959529E+02  0.43158238365E+03  0.17300000000E+03 0.  1.
<mgrwt>
<rscale>  2 0.42914341E+03</rscale>
<asrwt>0</asrwt>
<pdfrwt beam="1">  1       21 0.54198183E-01 0.42914341E+03</pdfrwt>
<pdfrwt beam="2">  1       21 0.92033171E-01 0.42914341E+03</pdfrwt>
<totfact> 0.28099992E+03</totfact>
</mgrwt>
</event>
<event>
 4    1  0.3935877E+000  0.2531595E+03  0.7546771E-02  0.1111324E+00
         21   -1    0    0  501  502  0.00000000000E+00  0.00000000000E+00  0.51421884971E+03  0.51421884971E+03  0.00000000000E+00 0. -1.
         21   -1    0    0  502  503 -0.00000000000E+00 -0.00000000000E+00 -0.26806931404E+03  0.26806931404E+03  0.00000000000E+00 0.  1.
          6    1    1    2  501    0 -0.10896025503E+03 -0.14929301167E+03  0.40918904130E+03  0.48117087612E+03  0.17300000000E+03 0. -1.
         -6    1    1    2    0  503  0.10896025503E+03  0.14929301167E+03 -0.16303950563E+03  0.30111728763E+03  0.17300000000E+03 0.  1.
<mgrwt>
<rscale>  2 0.25315952E+03</rscale>
<asrwt>0</asrwt>
<pdfrwt beam="1">  1       21 0.79110592E-01 0.25315952E+03</pdfrwt>
<pdfrwt beam="2">  1       21 0.41241433E-01 0.25315952E+03</pdfrwt>
<totfact> 0.76775763E+03</totfact>
</mgrwt>
</event>
<event>
 4    1  0.3935877E+000  0.1947197E+03  0.7546771E-02  0.1154272E+00
         21   -1    0    0  503  502  0.00000000000E+00  0.00000000000E+00  0.56789491891E+02  0.56789491891E+02  0.00000000000E+00 0. -1.
         21   -1    0    0  501  503 -0.00000000000E+00 -0.00000000000E+00 -0.72526453354E+03  0.72526453354E+03  0.00000000000E+00 0. -1.
          6    1    1    2  501    0 -0.21667576904E+01  0.89342393601E+02 -0.44444414909E+03  0.48522815231E+03  0.17300000000E+03 0. -1.
         -6    1    1    2    0  502  0.21667576904E+01 -0.89342393601E+02 -0.22403089255E+03  0.29682587312E+03  0.17300000000E+03 0. -1.
<mgrwt>
<rscale>  2 0.19471969E+03</rscale>
<asrwt>0</asrwt>
<pdfrwt beam="1">  1       21 0.87368448E-02 0.19471969E+03</pdfrwt>
<pdfrwt beam="2">  1       21 0.11157916E+00 0.19471969E+03</pdfrwt>
<totfact> 0.64857113E+04</totfact>
</mgrwt>
</event>
<event>
 4    1  0.3935877E+000  0.2085265E+03  0.7546771E-02  0.1142738E+00
         21   -1    0    0  501  502  0.00000000000E+00  0.00000000000E+00  0.13714310431E+04  0.13714310431E+04  0.00000000000E+00 0.  1.
         21   -1    0    0  502  503 -0.00000000000E+00 -0.00000000000E+00 -0.34664524977E+02  0.34664524977E+02  0.00000000000E+00 0.  1.
          6    1    1    2  501    0 -0.40450818893E+02  0.10916980854E+03  0.87375521036E+03  0.89829365103E+03  0.17300000000E+03 0.  1.
         -6    1    1    2    0  503  0.40450818893E+02 -0.10916980854E+03  0.46301130779E+03  0.50780191708E+03  0.17300000000E+03 0.  1.
<mgrwt>
<rscale>  2 0.20852654E+03</rscale>
<asrwt>0</asrwt>
<pdfrwt beam="1">  1       21 0.21098935E+00 0.20852654E+03</pdfrwt>
<pdfrwt beam="2">  1       21 0.53330049E-02 0.20852654E+03</pdfrwt>
<totfact> 0.27259911E+04</totfact>
</mgrwt>
</event>
<event>
 4    1  0.3935877E+000  0.1961820E+03  0.7546771E-02  0.1153001E+00
         21   -1    0    0  501  502  0.00000000000E+00  0.00000000000E+00  0.19748904695E+03  0.19748904695E+03  0.00000000000E+00 0. -1.
         21   -1    0    0  502  503 -0.00000000000E+00 -0.00000000000E+00 -0.19503587607E+03  0.19503587607E+03  0.00000000000E+00 0. -1.
          6    1    1    2  501    0  0.88203671211E+02 -0.27901407350E+02  0.67105906329E+01  0.19629673501E+03  0.17300000000E+03 0.  1.
         -6    1    1    2    0  503 -0.88203671211E+02  0.27901407350E+02 -0.42574197592E+01  0.19622818801E+03  0.17300000000E+03 0.  1.
<mgrwt>
<rscale>  2 0.19618200E+03</rscale>
<asrwt>0</asrwt>
<pdfrwt beam="1">  1       21 0.30382930E-01 0.19618200E+03</pdfrwt>
<pdfrwt beam="2">  1       21 0.30005519E-01 0.19618200E+03</pdfrwt>
<totfact> 0.11059183E+05</totfact>
</mgrwt>
</event>
<event>
 4    1  0.3935877E+000  0.2309667E+03  0.7546771E-02  0.1125961E+00
         21   -1    0    0  501  502  0.00000000000E+00  0.00000000000E+00  0.26106571968E+03  0.26106571968E+03  0.00000000000E+00 0. -1.
         21   -1    0    0  502  503 -0.00000000000E+00 -0.00000000000E+00 -0.31529993411E+03  0.31529993411E+03  0.00000000000E+00 0. -1.
          6    1    1    2  501    0 -0.86888315052E+02  0.12596441586E+03  0.14384246351E+03  0.27209606330E+03  0.17300000000E+03 0. -1.
         -6    1    1    2    0  503  0.86888315052E+02 -0.12596441586E+03 -0.19807667793E+03  0.30426959049E+03  0.17300000000E+03 0. -1.
<mgrwt>
<rscale>  2 0.23096669E+03</rscale>
<asrwt>0</asrwt>
<pdfrwt beam="1">  1       21 0.40163957E-01 0.23096669E+03</pdfrwt>
<pdfrwt beam="2">  1       21 0.48507682E-01 0.23096669E+03</pdfrwt>
<totfact> 0.23739853E+04</totfact>
</mgrwt>
</event>
<event>
 4    1  0.3935877E+000  0.1823846E+03  0.7546771E-02  0.1165515E+00
         21   -1    0    0  503  502  0.00000000000E+00  0.00000000000E+00  0.68099045640E+03  0.68099045640E+03  0.00000000000E+00 0.  1.
         21   -1    0    0  501  503 -0.00000000000E+00 -0.00000000000E+00 -0.56385746615E+02  0.56385746615E+02  0.00000000000E+00 0.  1.
          6    1    1    2  501    0  0.57489216291E+02  0.54890941965E+01  0.17748912442E+03  0.25449269033E+03  0.17300000000E+03 0.  1.
         -6    1    1    2    0  502 -0.57489216291E+02 -0.54890941965E+01  0.44711558536E+03  0.48288351268E+03  0.17300000000E+03 0.  1.
<mgrwt>
<rscale>  2 0.18238459E+03</rscale>
<asrwt>0</asrwt>
<pdfrwt beam="1">  1       21 0.10476776E+00 0.18238459E+03</pdfrwt>
<pdfrwt beam="2">  1       21 0.86747307E-02 0.18238459E+03</pdfrwt>
<totfact> 0.76879947E+04</totfact>
</mgrwt>
</event>
<event>
 4    1  0.3935877E+000  0.1912428E+03  0.7546771E-02  0.1157345E+00
         21   -1    0    0  503  502  0.00000000000E+00  0.00000000000E+00  0.74913197511E+02  0.74913197511E+02  0.00000000000E+00 0. -1.
         21   -1    0    0  501  503 -0.00000000000E+00 -0.00000000000E+00 -0.61591253921E+03  0.61591253921E+03  0.00000000000E+00 0. -1.
          6    1    1    2  501    0 -0.25428449190E+02  0.77448040979E+02 -0.42777801555E+03  0.46858066079E+03  0.17300000000E+03 0. -1.
         -6    1    1    2    0  502  0.25428449190E+02 -0.77448040979E+02 -0.11322132615E+03  0.22224507593E+03  0.17300000000E+03 0. -1.
<mgrwt>
<rscale>  2 0.19124279E+03</rscale>
<asrwt>0</asrwt>
<pdfrwt beam="1">  1       21 0.11525108E-01 0.19124279E+03</pdfrwt>
<pdfrwt beam="2">  1       21 0.94755771E-01 0.19124279E+03</pdfrwt>
<totfact> 0.58820300E+04</totfact>
</mgrwt>
</event>
<event>
 4    1  0.3935877E+000  0.2084943E+03  0.7546771E-02  0.1142764E+00
         21   -1    0    0  501  502  0.00000000000E+00  0.00000000000E+00  0.89883964742E+02  0.89883964742E+02  0.00000000000E+00 0.  1.
         21   -1    0    0  502  503 -0.00000000000E+00 -0.00000000000E+00 -0.54783455266E+03  0.54783455266E+03  0.00000000000E+00 0. -1.
          6    1    1    2  501    0  0.11501710714E+03  0.17661634266E+02 -0.11981012688E+03  0.24046690992E+03  0.17300000000E+03 0.  1.
         -6    1    1    2    0  503 -0.11501710714E+03 -0.17661634266E+02 -0.33814046103E+03  0.39725160748E+03  0.17300000000E+03 0. -1.
<mgrwt>
<rscale>  2 0.20849429E+03</rscale>
<asrwt>0</asrwt>
<pdfrwt beam="1">  1       21 0.13828302E-01 0.20849429E+03</pdfrwt>
<pdfrwt beam="2">  1       21 0.84282238E-01 0.20849429E+03</pdfrwt>
<totfact> 0.55122108E+04</totfact>
</mgrwt>
</event>
<event>
 4    1  0.3935877E+000  0.2000951E+03  0.7546771E-02  0.1149659E+00
         21   -1    0    0  501  502  0.00000000000E+00  0.00000000000E+00  0.20747667281E+03  0.20747667281E+03  0.00000000000E+00 0. -1.
         21   -1    0    0  502  503 -0.00000000000E+00 -0.00000000000E+00 -0.21466402928E+03  0.21466402928E+03  0.00000000000E+00 0. -1.
          6    1    1    2  501    0  0.97130439185E+02  0.25975437279E+02  0.63496095847E+02  0.20992808232E+03  0.17300000000E+03 0. -1.
         -6    1    1    2    0  503 -0.97130439185E+02 -0.25975437279E+02 -0.70683452313E+02  0.21221261977E+03  0.17300000000E+03 0. -1.
<mgrwt>
<rscale>  2 0.20009509E+03</rscale>
<asrwt>0</asrwt>
<pdfrwt beam="1">  1       21 0.31919488E-01 0.20009509E+03</pdfrwt>
<pdfrwt beam="2">  1       21 0.33025235E-01 0.20009509E+03</pdfrwt>
<totfact> 0.83056351E+04</totfact>
</mgrwt>
</event>
<event>
 4    1  0.3935877E+000  0.1937467E+03  0.7546771E-02  0.1155125E+00
         21   -1    0    0  503  502  0.00000000000E+00  0.00000000000E+00  0.45190211491E+03  0.45190211491E+03  0.00000000000E+00 0.  1.
         21   -1    0    0  501  503 -0.00000000000E+00 -0.00000000000E+00 -0.10359794408E+03  0.10359794408E+03  0.00000000000E+00 0. -1.
          6    1    1    2  501    0 -0.85704538320E+02  0.16232853939E+02  0.50502721033E+02  0.20022062398E+03  0.17300000000E+03 0.  1.
         -6    1    1    2    0  502  0.85704538320E+02 -0.16232853939E+02  0.29780144980E+03  0.35527943500E+03  0.17300000000E+03 0. -1.
<mgrwt>
<rscale>  2 0.19374667E+03</rscale>
<asrwt>0</asrwt>
<pdfrwt beam="1">  1       21 0.69523401E-01 0.19374667E+03</pdfrwt>
<pdfrwt beam="2">  1       21 0.15938145E-01 0.19374667E+03</pdfrwt>
<totfact> 0.66025075E+04</totfact>
</mgrwt>
</event>
<event>
 4    1  0.3935877E+000  0.2229526E+03  0.7546771E-02  0.1131701E+00
         21   -1    0    0  501  502  0.00000000000E+00  0.00000000000E+00  0.55514792931E+03  0.55514792931E+03  0.00000000000E+00 0.  1.
         21   -1    0    0  502  503 -0.00000000000E+00 -0.00000000000E+00 -0.91948104491E+02  0.91948104491E+02  0.00000000000E+00 0. -1.
          6    1    1    2  501    0 -0.49021060332E+02 -0.13181722571E+03  0.28396252384E+03  0.36102986067E+03  0.17300000000E+03 0. -1.
         -6    1    1    2    0  503  0.49021060332E+02  0.13181722571E+03  0.17923730098E+03  0.28606617313E+03  0.17300000000E+03 0.  1.
<mgrwt>
<rscale>  2 0.22295256E+03</rscale>
<asrwt>0</asrwt>
<pdfrwt beam="1">  1       21 0.85407371E-01 0.22295256E+03</pdfrwt>
<pdfrwt beam="2">  1       21 0.14145863E-01 0.22295256E+03</pdfrwt>
<totfact> 0.50967240E+04</totfact>
</mgrwt>
</event>
<event>
 4    1  0.3935877E+000  0.2053751E+03  0.7546771E-02  0.1145282E+00
         21   -1    0    0  501  502  0.00000000000E+00  0.00000000000E+00  0.28591190178E+03  0.28591190178E+03  0.00000000000E+00 0.  1.
         21   -1    0    0  502  503 -0.00000000000E+00 -0.00000000000E+00 -0.15446758800E+03  0.15446758800E+03  0.00000000000E+00 0.  1.
          6    1    1    2  501    0  0.81404957191E+02 -0.74987787496E+02  0.11240560726E+03  0.23412380458E+03  0.17300000000E+03 0.  1.
         -6    1    1    2    0  503 -0.81404957191E+02  0.74987787496E+02  0.19038706518E+02  0.20625568519E+03  0.17300000000E+03 0.  1.
<mgrwt>
<rscale>  2 0.20537511E+03</rscale>
<asrwt>0</asrwt>
<pdfrwt beam="1">  1       21 0.43986446E-01 0.20537511E+03</pdfrwt>
<pdfrwt beam="2">  1       21 0.23764244E-01 0.20537511E+03</pdfrwt>
<totfact> 0.82380779E+04</totfact>
</mgrwt>
</event>
<event>
 4    1  0.3935877E+000  0.1941798E+03  0.7546771E-02  0.1154745E+00
         21   -1    0    0  501  502  0.00000000000E+00  0.00000000000E+00  0.68104422046E+03  0.68104422046E+03  0.00000000000E+00 0.  1.
         21   -1    0    0  502  503 -0.00000000000E+00 -0.00000000000E+00 -0.74735386833E+02  0.74735386833E+02  0.00000000000E+00 0.  1.
          6    1    1    2  501    0  0.20944751921E+02 -0.85662725156E+02  0.49554106697E+03  0.53222808472E+03  0.17300000000E+03 0.  1.
         -6    1    1    2    0  503 -0.20944751921E+02  0.85662725156E+02  0.11076776666E+03  0.22355152257E+03  0.17300000000E+03 0.  1.
<mgrwt>
<rscale>  2 0.19417978E+03</rscale>
<asrwt>0</asrwt>
<pdfrwt beam="1">  1       21 0.10477603E+00 0.19417978E+03</pdfrwt>
<pdfrwt beam="2">  1       21 0.11497752E-01 0.19417978E+03</pdfrwt>
<totfact> 0.46479262E+04</totfact>
</mgrwt>
</event>
<event>
 4    1  0.3935877E+000  0.1988301E+03  0.7546771E-02  0.1150730E+00
         21   -1    0    0  503  502  0.00000000000E+00  0.00000000000E+00  0.11238273171E+03  0.11238273171E+03  0.00000000000E+00 0.  1.
         21   -1    0    0  501  503 -0.00000000000E+00 -0.00000000000E+00 -0.46351621709E+03  0.46351621709E+03  0.00000000000E+00 0. -1.
          6    1    1    2  501    0  0.97568477120E+02 -0.92079904440E+01 -0.31694779984E+03  0.37415144346E+03  0.17300000000E+03 0. -1.
         -6    1    1    2    0  502 -0.97568477120E+02  0.92079904440E+01 -0.34185685546E+02  0.20174750534E+03  0.17300000000E+03 0.  1.
<mgrwt>
<rscale>  2 0.19883007E+03</rscale>
<asrwt>0</asrwt>
<pdfrwt beam="1">  1       21 0.17289651E-01 0.19883007E+03</pdfrwt>
<pdfrwt beam="2">  1       21 0.71310189E-01 0.19883007E+03</pdfrwt>
<totfact> 0.53624860E+04</totfact>
</mgrwt>
</event>
<event>
 4    1  0.3935877E+000  0.1911301E+03  0.7546771E-02  0.1157446E+00
         21   -1    0    0  503  502  0.00000000000E+00  0.00000000000E+00  0.23078963471E+03  0.23078963471E+03  0.00000000000E+00 0. -1.
         21   -1    0    0  501  503 -0.00000000000E+00 -0.00000000000E+00 -0.19377389640E+03  0.19377389640E+03  0.00000000000E+00 0. -1.
          6    1    1    2  501    0 -0.78360002156E+02 -0.21480886348E+02 -0.72338275429E+02  0.20436130874E+03  0.17300000000E+03 0. -1.
         -6    1    1    2    0  502  0.78360002156E+02  0.21480886348E+02  0.10935401374E+03  0.22020222237E+03  0.17300000000E+03 0. -1.
<mgrwt>
<rscale>  2 0.19113011E+03</rscale>
<asrwt>0</asrwt>
<pdfrwt beam="1">  1       21 0.35506098E-01 0.19113011E+03</pdfrwt>
<pdfrwt beam="2">  1       21 0.29811369E-01 0.19113011E+03</pdfrwt>
<totfact> 0.82561295E+04</totfact>
</mgrwt>
</event>
<event>
 4    1  0.3935877E+000  0.2317911E+03  0.7546771E-02  0.1125385E+00
         21   -1    0    0  501  502  0.00000000000E+00  0.00000000000E+00  0.12943333206E+03  0.12943333206E+03  0.00000000000E+00 0. -1.
         21   -1    0    0  502  503 -0.00000000000E+00 -0.00000000000E+00 -0.42141169906E+03  0.42141169906E+03  0.00000000000E+00 0.  1.
          6    1    1    2  501    0 -0.70838831551E+02  0.13704006310E+03 -0.11226869162E+03  0.25754878774E+03  0.17300000000E+03 0.  1.
         -6    1    1    2    0  503  0.70838831551E+02 -0.13704006310E+03 -0.17970967539E+03  0.29329624338E+03  0.17300000000E+03 0.  1.
<mgrwt>
<rscale>  2 0.23179111E+03</rscale>
<asrwt>0</asrwt>
<pdfrwt beam="1">  1       21 0.19912820E-01 0.23179111E+03</pdfrwt>
<pdfrwt beam="2">  1       21 0.64832570E-01 0.23179111E+03</pdfrwt>
<totfact> 0.50083385E+04</totfact>
</mgrwt>
</event>
<event>
 4    1  0.3935877E+000  0.2013920E+03  0.7546771E-02  0.1148570E+00
         21   -1    0    0  501  502  0.00000000000E+00  0.00000000000E+00  0.81634377177E+03  0.81634377177E+03  0.00000000000E+00 0.  1.
         21   -1    0    0  502  503 -0.00000000000E+00 -0.00000000000E+00 -0.77349236843E+02  0.77349236843E+02  0.00000000000E+00 0.  1.
          6    1    1    2  501    0 -0.54196678352E+02  0.87706596031E+02  0.63673779680E+03  0.66782763405E+03  0.17300000000E+03 0.  1.
         -6    1    1    2    0  503  0.54196678352E+02 -0.87706596031E+02  0.10225673813E+03  0.22586537456E+03  0.17300000000E+03 0.  1.
<mgrwt>
<rscale>  2 0.20139197E+03</rscale>
<asrwt>0</asrwt>
<pdfrwt beam="1">  1       21 0.12559134E+00 0.20139197E+03</pdfrwt>
<pdfrwt beam="2">  1       21 0.11899883E-01 0.20139197E+03</pdfrwt>
<totfact> 0.27933241E+04</totfact>
</mgrwt>
</event>
<event>
 4    1  0.3935877E+000  0.2055294E+03  0.7546771E-02  0.1145156E+00
         21   -1    0    0  503  502  0.00000000000E+00  0.00000000000E+00  0.16246632348E+03  0.16246632348E+03  0.00000000000E+00 0.  1.
         21   -1    0    0  501  503 -0.00000000000E+00 -0.00000000000E+00 -0.49528319545E+03  0.49528319545E+03  0.00000000000E+00 0.  1.
          6    1    1    2  501    0  0.80316936654E+02  0.76567125595E+02 -0.39307789315E+03  0.44356799379E+03  0.17300000000E+03 0.  1.
         -6    1    1    2    0  502 -0.80316936654E+02 -0.76567125595E+02  0.60261021174E+02  0.21418152513E+03  0.17300000000E+03 0.  1.
<mgrwt>
<rscale>  2 0.20552940E+03</rscale>
<asrwt>0</asrwt>
<pdfrwt beam="1">  1       21 0.24994819E-01 0.20552940E+03</pdfrwt>
<pdfrwt beam="2">  1       21 0.76197413E-01 0.20552940E+03</pdfrwt>
<totfact> 0.23077860E+04</totfact>
</mgrwt>
</event>
<event>
 4    1  0.3935877E+000  0.2458428E+03  0.7546771E-02  0.1115961E+00
         21   -1    0    0  503  502  0.00000000000E+00  0.00000000000E+00  0.19886387786E+03  0.19886387786E+03  0.00000000000E+00 0.  1.
         21   -1    0    0  501  503 -0.00000000000E+00 -0.00000000000E+00 -0.35023020843E+03  0.35023020843E+03  0.00000000000E+00 0.  1.
          6    1    1    2  501    0  0.10562815315E+03  0.13911282117E+03 -0.17551727525E+03  0.30206786930E+03  0.17300000000E+03 0.  1.
         -6    1    1    2    0  502 -0.10562815315E+03 -0.13911282117E+03  0.24150944674E+02  0.24702621699E+03  0.17300000000E+03 0.  1.
<mgrwt>
<rscale>  2 0.24584280E+03</rscale>
<asrwt>0</asrwt>
<pdfrwt beam="1">  1       21 0.30594443E-01 0.24584280E+03</pdfrwt>
<pdfrwt beam="2">  1       21 0.53881571E-01 0.24584280E+03</pdfrwt>
<totfact> 0.32538067E+04</totfact>
</mgrwt>
</event>
<event>
 4    1  0.3935877E+000  0.1897665E+03  0.7546771E-02  0.1158672E+00
         21   -1    0    0  503  502  0.00000000000E+00  0.00000000000E+00  0.12848102491E+03  0.12848102491E+03  0.00000000000E+00 0.  1.
         21   -1    0    0  501  503 -0.00000000000E+00 -0.00000000000E+00 -0.33949280537E+03  0.33949280537E+03  0.00000000000E+00 0.  1.
          6    1    1    2  501    0 -0.50636907287E+02  0.59314706909E+02 -0.20322173748E+03  0.27804748771E+03  0.17300000000E+03 0.  1.
         -6    1    1    2    0  502  0.50636907287E+02 -0.59314706909E+02 -0.77900429765E+01  0.18992634258E+03  0.17300000000E+03 0.  1.
<mgrwt>
<rscale>  2 0.18976652E+03</rscale>
<asrwt>0</asrwt>
<pdfrwt beam="1">  1       21 0.19766312E-01 0.18976652E+03</pdfrwt>
<pdfrwt beam="2">  1       21 0.52229662E-01 0.18976652E+03</pdfrwt>
<totfact> 0.82163021E+04</totfact>
</mgrwt>
</event>
<event>
 4    1  0.3935877E+000  0.2126178E+03  0.7546771E-02  0.1139510E+00
         21   -1    0    0  503  502  0.00000000000E+00  0.00000000000E+00  0.52298389080E+03  0.52298389080E+03  0.00000000000E+00 0. -1.
         21   -1    0    0  501  503 -0.00000000000E+00 -0.00000000000E+00 -0.96591016815E+02  0.96591016815E+02  0.00000000000E+00 0. -1.
          6    1    1    2  501    0  0.74779643223E+02 -0.98414125698E+02  0.11276578613E+03  0.24067084929E+03  0.17300000000E+03 0. -1.
         -6    1    1    2    0  502 -0.74779643223E+02  0.98414125698E+02  0.31362708785E+03  0.37890405832E+03  0.17300000000E+03 0. -1.
<mgrwt>
<rscale>  2 0.21261781E+03</rscale>
<asrwt>0</asrwt>
<pdfrwt beam="1">  1       21 0.80459058E-01 0.21261781E+03</pdfrwt>
<pdfrwt beam="2">  1       21 0.14860157E-01 0.21261781E+03</pdfrwt>
<totfact> 0.53653471E+04</totfact>
</mgrwt>
</event>
<event>
 4    1  0.3935877E+000  0.1808499E+03  0.7546771E-02  0.1166983E+00
         21   -1    0    0  503  502  0.00000000000E+00  0.00000000000E+00  0.14891901638E+03  0.14891901638E+03  0.00000000000E+00 0.  1.
         21   -1    0    0  501  503 -0.00000000000E+00 -0.00000000000E+00 -0.22246383269E+03  0.22246383269E+03  0.00000000000E+00 0.  1.
          6    1    1    2  501    0 -0.41580116100E+02  0.32384648681E+02 -0.57740608495E+02  0.18984374995E+03  0.17300000000E+03 0.  1.
         -6    1    1    2    0  502  0.41580116100E+02 -0.32384648681E+02 -0.15804207823E+02  0.18153909912E+03  0.17300000000E+03 0.  1.
<mgrwt>
<rscale>  2 0.18084986E+03</rscale>
<asrwt>0</asrwt>
<pdfrwt beam="1">  1       21 0.22910618E-01 0.18084986E+03</pdfrwt>
<pdfrwt beam="2">  1       21 0.34225205E-01 0.18084986E+03</pdfrwt>
<totfact> 0.14764790E+05</totfact>
</mgrwt>
</event>
<event>
 4    1  0.3935877E+000  0.2303507E+03  0.7546771E-02  0.1126393E+00
         21   -1    0    0  503  502  0.00000000000E+00  0.00000000000E+00  0.71841530867E+03  0.71841530867E+03  0.00000000000E+00 0. -1.
         21   -1    0    0  501  503 -0.00000000000E+00 -0.00000000000E+00 -0.84504377640E+02  0.84504377640E+02  0.00000000000E+00 0.  1.
          6    1    1    2  501    0 -0.10454611586E+03  0.11046522240E+03  0.17446608719E+03  0.28896344281E+03  0.17300000000E+03 0. -1.
         -6    1    1    2    0  502  0.10454611586E+03 -0.11046522240E+03  0.45944484384E+03  0.51395624350E+03  0.17300000000E+03 0. -1.
<mgrwt>
<rscale>  2 0.23035072E+03</rscale>
<asrwt>0</asrwt>
<pdfrwt beam="1">  1       21 0.11052543E+00 0.23035072E+03</pdfrwt>
<pdfrwt beam="2">  1       21 0.13000674E-01 0.23035072E+03</pdfrwt>
<totfact> 0.32146357E+04</totfact>
</mgrwt>
</event>
<event>
 4    1  0.3935877E+000  0.2026903E+03  0.7546771E-02  0.1147489E+00
         21   -1    0    0  501  502  0.00000000000E+00  0.00000000000E+00  0.22746919196E+02  0.22746919196E+02  0.00000000000E+00 0. -1.
         21   -1    0    0  502  503 -0.00000000000E+00 -0.00000000000E+00 -0.18114881594E+04  0.18114881594E+04  0.00000000000E+00 0. -1.
          6    1    1    2  501    0  0.28106945314E+02  0.10180553344E+03 -0.84438438182E+03  0.86837109076E+03  0.17300000000E+03 0. -1.
         -6    1    1    2    0  503 -0.28106945314E+02 -0.10180553344E+03 -0.94435685840E+03  0.96586398785E+03  0.17300000000E+03 0. -1.
<mgrwt>
<rscale>  2 0.20269032E+03</rscale>
<asrwt>0</asrwt>
<pdfrwt beam="1">  1       21 0.34995261E-02 0.20269032E+03</pdfrwt>
<pdfrwt beam="2">  1       21 0.27869048E+00 0.20269032E+03</pdfrwt>
<totfact> 0.21981669E+04</totfact>
</mgrwt>
</event>
<event>
 4    1  0.3935877E+000  0.1867702E+03  0.7546771E-02  0.1161407E+00
         21   -1    0    0  503  502  0.00000000000E+00  0.00000000000E+00  0.22038787049E+03  0.22038787049E+03  0.00000000000E+00 0.  1.
         21   -1    0    0  501  503 -0.00000000000E+00 -0.00000000000E+00 -0.16100850421E+03  0.16100850421E+03  0.00000000000E+00 0.  1.
          6    1    1    2  501    0  0.70367812150E+02 -0.15785758295E+01  0.54511751880E+02  0.19456271992E+03  0.17300000000E+03 0.  1.
         -6    1    1    2    0  502 -0.70367812150E+02  0.15785758295E+01  0.48676143942E+01  0.18683365478E+03  0.17300000000E+03 0.  1.
<mgrwt>
<rscale>  2 0.18677024E+03</rscale>
<asrwt>0</asrwt>
<pdfrwt beam="1">  1       21 0.33905826E-01 0.18677024E+03</pdfrwt>
<pdfrwt beam="2">  1       21 0.24770539E-01 0.18677024E+03</pdfrwt>
<totfact> 0.12944862E+05</totfact>
</mgrwt>
</event>
<event>
 4    1  0.3935877E+000  0.2042212E+03  0.7546771E-02  0.1146226E+00
         21   -1    0    0  501  502  0.00000000000E+00  0.00000000000E+00  0.23372895001E+03  0.23372895001E+03  0.00000000000E+00 0. -1.
         21   -1    0    0  502  503 -0.00000000000E+00 -0.00000000000E+00 -0.22692954515E+03  0.22692954515E+03  0.00000000000E+00 0. -1.
          6    1    1    2  501    0  0.10668166946E+03 -0.19907487233E+02  0.10987123574E+03  0.23190078717E+03  0.17300000000E+03 0. -1.
         -6    1    1    2    0  503 -0.10668166946E+03  0.19907487233E+02 -0.10307183088E+03  0.22875770800E+03  0.17300000000E+03 0. -1.
<mgrwt>
<rscale>  2 0.20422117E+03</rscale>
<asrwt>0</asrwt>
<pdfrwt beam="1">  1       21 0.35958300E-01 0.20422117E+03</pdfrwt>
<pdfrwt beam="2">  1       21 0.34912238E-01 0.20422117E+03</pdfrwt>
<totfact> 0.58664431E+04</totfact>
</mgrwt>
</event>
<event>
 4    1  0.3935877E+000  0.1743895E+03  0.7546771E-02  0.1173346E+00
         21   -1    0    0  501  502  0.00000000000E+00  0.00000000000E+00  0.53842438417E+03  0.53842438417E+03  0.00000000000E+00 0. -1.
         21   -1    0    0  502  503 -0.00000000000E+00 -0.00000000000E+00 -0.62929620263E+02  0.62929620263E+02  0.00000000000E+00 0. -1.
          6    1    1    2  501    0 -0.15258914890E+02 -0.15807123669E+02  0.33398536466E+03  0.37677303971E+03  0.17300000000E+03 0. -1.
         -6    1    1    2    0  503  0.15258914890E+02  0.15807123669E+02  0.14150939924E+03  0.22458096472E+03  0.17300000000E+03 0. -1.
<mgrwt>
<rscale>  2 0.17438951E+03</rscale>
<asrwt>0</asrwt>
<pdfrwt beam="1">  1       21 0.82834518E-01 0.17438951E+03</pdfrwt>
<pdfrwt beam="2">  1       21 0.96814804E-02 0.17438951E+03</pdfrwt>
<totfact> 0.10996948E+05</totfact>
</mgrwt>
</event>
<event>
 4    1  0.3935877E+000  0.2455521E+03  0.7546771E-02  0.1116148E+00
         21   -1    0    0  503  502  0.00000000000E+00  0.00000000000E+00  0.74941322942E+02  0.74941322942E+02  0.00000000000E+00 0.  1.
         21   -1    0    0  501  503 -0.00000000000E+00 -0.00000000000E+00 -0.92308120255E+03  0.92308120255E+03  0.00000000000E+00 0. -1.
          6    1    1    2  501    0 -0.12958094697E+03  0.11651441766E+03 -0.60286807228E+03  0.65095755922E+03  0.17300000000E+03 0. -1.
         -6    1    1    2    0  502  0.12958094697E+03 -0.11651441766E+03 -0.24527180733E+03  0.34706496627E+03  0.17300000000E+03 0.  1.
<mgrwt>
<rscale>  2 0.24555209E+03</rscale>
<asrwt>0</asrwt>
<pdfrwt beam="1">  1       21 0.11529434E-01 0.24555209E+03</pdfrwt>
<pdfrwt beam="2">  1       21 0.14201250E+00 0.24555209E+03</pdfrwt>
<totfact> 0.21053885E+04</totfact>
</mgrwt>
</event>
<event>
 4    1  0.3935877E+000  0.2784436E+03  0.7546771E-02  0.1096542E+00
         21   -1    0    0  503  502  0.00000000000E+00  0.00000000000E+00  0.17636288023E+04  0.17636288023E+04  0.00000000000E+00 0. -1.
         21   -1    0    0  501  503 -0.00000000000E+00 -0.00000000000E+00 -0.56719658194E+02  0.56719658194E+02  0.00000000000E+00 0.  1.
          6    1    1    2  501    0  0.18304967507E+03 -0.11872085658E+03  0.42177567596E+03  0.50539642476E+03  0.17300000000E+03 0.  1.
         -6    1    1    2    0  502 -0.18304967507E+03  0.11872085658E+03  0.12851334681E+04  0.13149520357E+04  0.17300000000E+03 0. -1.
<mgrwt>
<rscale>  2 0.27844358E+03</rscale>
<asrwt>0</asrwt>
<pdfrwt beam="1">  1       21 0.27132747E+00 0.27844358E+03</pdfrwt>
<pdfrwt beam="2">  1       21 0.87261026E-02 0.27844358E+03</pdfrwt>
<totfact> 0.47616322E+03</totfact>
</mgrwt>
</event>
<event>
 4    1  0.3935877E+000  0.2300678E+03  0.7546771E-02  0.1126592E+00
         21   -1    0    0  501  502  0.00000000000E+00  0.00000000000E+00  0.24356155160E+03  0.24356155160E+03  0.00000000000E+00 0. -1.
         21   -1    0    0  502  503 -0.00000000000E+00 -0.00000000000E+00 -0.23945318981E+03  0.23945318981E+03  0.00000000000E+00 0.  1.
          6    1    1    2  501    0  0.15160059781E+03 -0.44107352516E+01  0.75476143594E+02  0.24213187336E+03  0.17300000000E+03 0. -1.
         -6    1    1    2    0  503 -0.15160059781E+03  0.44107352516E+01 -0.71367781796E+02  0.24088286805E+03  0.17300000000E+03 0.  1.
<mgrwt>
<rscale>  2 0.23006781E+03</rscale>
<asrwt>0</asrwt>
<pdfrwt beam="1">  1       21 0.37471008E-01 0.23006781E+03</pdfrwt>
<pdfrwt beam="2">  1       21 0.36838952E-01 0.23006781E+03</pdfrwt>
<totfact> 0.47966824E+04</totfact>
</mgrwt>
</event>
<event>
 4    1  0.3935877E+000  0.1851793E+03  0.7546771E-02  0.1162883E+00
         21   -1    0    0  501  502  0.00000000000E+00  0.00000000000E+00  0.37135038317E+03  0.37135038317E+03  0.00000000000E+00 0. -1.
         21   -1    0    0  502  503 -0.00000000000E+00 -0.00000000000E+00 -0.93404964437E+02  0.93404964437E+02  0.00000000000E+00 0. -1.
          6    1    1    2  501    0 -0.62435167687E+02  0.21546034861E+02  0.16375772356E+03  0.24720027065E+03  0.17300000000E+03 0. -1.
         -6    1    1    2    0  503  0.62435167687E+02 -0.21546034861E+02  0.11418769517E+03  0.21755507696E+03  0.17300000000E+03 0. -1.
<mgrwt>
<rscale>  2 0.18517932E+03</rscale>
<asrwt>0</asrwt>
<pdfrwt beam="1">  1       21 0.57130827E-01 0.18517932E+03</pdfrwt>
<pdfrwt beam="2">  1       21 0.14369995E-01 0.18517932E+03</pdfrwt>
<totfact> 0.12235805E+05</totfact>
</mgrwt>
</event>
<event>
 4    1  0.3935877E+000  0.1815971E+03  0.7546771E-02  0.1166266E+00
         21   -1    0    0  501  502  0.00000000000E+00  0.00000000000E+00  0.27472751576E+03  0.27472751576E+03  0.00000000000E+00 0.  1.
         21   -1    0    0  502  503 -0.00000000000E+00 -0.00000000000E+00 -0.20055051606E+03  0.20055051606E+03  0.00000000000E+00 0. -1.
          6    1    1    2  501    0  0.51754950521E+02  0.19233271391E+02  0.18765903240E+03  0.26113867212E+03  0.17300000000E+03 0.  1.
         -6    1    1    2    0  503 -0.51754950521E+02 -0.19233271391E+02 -0.11348203270E+03  0.21413935971E+03  0.17300000000E+03 0. -1.
<mgrwt>
<rscale>  2 0.18159706E+03</rscale>
<asrwt>0</asrwt>
<pdfrwt beam="1">  1       21 0.42265772E-01 0.18159706E+03</pdfrwt>
<pdfrwt beam="2">  1       21 0.30853926E-01 0.18159706E+03</pdfrwt>
<totfact> 0.54615831E+04</totfact>
</mgrwt>
</event>
<event>
 4    1  0.3935877E+000  0.2101509E+03  0.7546771E-02  0.1141447E+00
         21   -1    0    0  501  502  0.00000000000E+00  0.00000000000E+00  0.60101932656E+03  0.60101932656E+03  0.00000000000E+00 0.  1.
         21   -1    0    0  502  503 -0.00000000000E+00 -0.00000000000E+00 -0.76734908923E+02  0.76734908923E+02  0.00000000000E+00 0. -1.
          6    1    1    2  501    0 -0.69006197065E+01 -0.11910823608E+03  0.33192699291E+03  0.39285992297E+03  0.17300000000E+03 0. -1.
         -6    1    1    2    0  503  0.69006197065E+01  0.11910823608E+03  0.19235742473E+03  0.28489431251E+03  0.17300000000E+03 0. -1.
<mgrwt>
<rscale>  2 0.21015088E+03</rscale>
<asrwt>0</asrwt>
<pdfrwt beam="1">  1       21 0.92464509E-01 0.21015088E+03</pdfrwt>
<pdfrwt beam="2">  1       21 0.11805371E-01 0.21015088E+03</pdfrwt>
<totfact> 0.59119320E+04</totfact>
</mgrwt>
</event>
<event>
 4    1  0.3935877E+000  0.2000014E+03  0.7546771E-02  0.1149738E+00
         21   -1    0    0  501  502  0.00000000000E+00  0.00000000000E+00  0.22781913049E+03  0.22781913049E+03  0.00000000000E+00 0.  1.
         21   -1    0    0  502  503 -0.00000000000E+00 -0.00000000000E+00 -0.20292898024E+03  0.20292898024E+03  0.00000000000E+00 0.  1.
          6    1    1    2  501    0 -0.67596211247E+02  0.74177592502E+02  0.91510958439E+02  0.21994276191E+03  0.17300000000E+03 0.  1.
         -6    1    1    2    0  503  0.67596211247E+02 -0.74177592502E+02 -0.66620808187E+02  0.21080534881E+03  0.17300000000E+03 0.  1.
<mgrwt>
<rscale>  2 0.20000141E+03</rscale>
<asrwt>0</asrwt>
<pdfrwt beam="1">  1       21 0.35049097E-01 0.20000141E+03</pdfrwt>
<pdfrwt beam="2">  1       21 0.31219843E-01 0.20000141E+03</pdfrwt>
<totfact> 0.77114576E+04</totfact>
</mgrwt>
</event>
<event>
 4    1  0.3935877E+000  0.2068104E+03  0.7546771E-02  0.1144117E+00
         21   -1    0    0  501  502  0.00000000000E+00  0.00000000000E+00  0.57183898164E+02  0.57183898164E+02  0.00000000000E+00 0.  1.
         21   -1    0    0  502  503 -0.00000000000E+00 -0.00000000000E+00 -0.98782084089E+03  0.98782084089E+03  0.00000000000E+00 0. -1.
          6    1    1    2  501    0 -0.85984052560E+02 -0.73812524558E+02 -0.20784037818E+03  0.29320328934E+03  0.17300000000E+03 0.  1.
         -6    1    1    2    0  503  0.85984052560E+02  0.73812524558E+02 -0.72279656454E+03  0.75180144971E+03  0.17300000000E+03 0. -1.
<mgrwt>
<rscale>  2 0.20681041E+03</rscale>
<asrwt>0</asrwt>
<pdfrwt beam="1">  1       21 0.87975238E-02 0.20681041E+03</pdfrwt>
<pdfrwt beam="2">  1       21 0.15197242E+00 0.20681041E+03</pdfrwt>
<totfact> 0.29096124E+04</totfact>
</mgrwt>
</event>
<event>
 4    1  0.3935877E+000  0.2009260E+03  0.7546771E-02  0.1148960E+00
         21   -1    0    0  501  502  0.00000000000E+00  0.00000000000E+00  0.15865958437E+03  0.15865958437E+03  0.00000000000E+00 0. -1.
         21   -1    0    0  502  503 -0.00000000000E+00 -0.00000000000E+00 -0.26471378643E+03  0.26471378643E+03  0.00000000000E+00 0. -1.
          6    1    1    2  501    0  0.99295565183E+02  0.24137992781E+02 -0.11348196525E+02  0.20124620127E+03  0.17300000000E+03 0. -1.
         -6    1    1    2    0  503 -0.99295565183E+02 -0.24137992781E+02 -0.94706005531E+02  0.22212716953E+03  0.17300000000E+03 0. -1.
<mgrwt>
<rscale>  2 0.20092599E+03</rscale>
<asrwt>0</asrwt>
<pdfrwt beam="1">  1       21 0.24409167E-01 0.20092599E+03</pdfrwt>
<pdfrwt beam="2">  1       21 0.40725198E-01 0.20092599E+03</pdfrwt>
<totfact> 0.91770465E+04</totfact>
</mgrwt>
</event>
<event>
 4    1  0.3935877E+000  0.1825848E+03  0.7546771E-02  0.1165325E+00
         21   -1    0    0  503  502  0.00000000000E+00  0.00000000000E+00  0.13610433785E+04  0.13610433785E+04  0.00000000000E+00 0.  1.
         21   -1    0    0  501  503 -0.00000000000E+00 -0.00000000000E+00 -0.25842923368E+02  0.25842923368E+02  0.00000000000E+00 0.  1.
          6    1    1    2  501    0  0.56101105463E+02 -0.16152088311E+02  0.50916414833E+03  0.54091159531E+03  0.17300000000E+03 0.  1.
         -6    1    1    2    0  502 -0.56101105463E+02  0.16152088311E+02  0.82603630683E+03  0.84597470659E+03  0.17300000000E+03 0.  1.
<mgrwt>
<rscale>  2 0.18258484E+03</rscale>
<asrwt>0</asrwt>
<pdfrwt beam="1">  1       21 0.20939123E+00 0.18258484E+03</pdfrwt>
<pdfrwt beam="2">  1       21 0.39758354E-02 0.18258484E+03</pdfrwt>
<totfact> 0.46661655E+04</totfact>
</mgrwt>
</event>
<event>
 4    1  0.3935877E+000  0.1789327E+03  0.7546771E-02  0.1168840E+00
         21   -1    0    0  501  502  0.00000000000E+00  0.00000000000E+00  0.49861669639E+02  0.49861669639E+02  0.00000000000E+00 0.  1.
         21   -1    0    0  502  503 -0.00000000000E+00 -0.00000000000E+00 -0.12751443583E+04  0.12751443583E+04  0.00000000000E+00 0.  1.
          6    1    1    2  501    0  0.19231497367E+02 -0.41449550369E+02 -0.14585281189E+03  0.23084617920E+03  0.17300000000E+03 0.  1.
         -6    1    1    2    0  503 -0.19231497367E+02  0.41449550369E+02 -0.10794298768E+04  0.10941598488E+04  0.17300000000E+03 0.  1.
<mgrwt>
<rscale>  2 0.17893271E+03</rscale>
<asrwt>0</asrwt>
<pdfrwt beam="1">  1       21 0.76710256E-02 0.17893271E+03</pdfrwt>
<pdfrwt beam="2">  1       21 0.19617607E+00 0.17893271E+03</pdfrwt>
<totfact> 0.18542368E+04</totfact>
</mgrwt>
</event>
<event>
 4    1  0.3935877E+000  0.1779233E+03  0.7546771E-02  0.1169828E+00
         21   -1    0    0  501  502  0.00000000000E+00  0.00000000000E+00  0.10564573543E+03  0.10564573543E+03  0.00000000000E+00 0.  1.
         21   -1    0    0  502  503 -0.00000000000E+00 -0.00000000000E+00 -0.39001460472E+03  0.39001460472E+03  0.00000000000E+00 0.  1.
          6    1    1    2  501    0 -0.12178631523E+02 -0.39741351677E+02 -0.22891680435E+02  0.17938986352E+03  0.17300000000E+03 0.  1.
         -6    1    1    2    0  503  0.12178631523E+02  0.39741351677E+02 -0.26147718886E+03  0.31627047664E+03  0.17300000000E+03 0.  1.
<mgrwt>
<rscale>  2 0.17792328E+03</rscale>
<asrwt>0</asrwt>
<pdfrwt beam="1">  1       21 0.16253190E-01 0.17792328E+03</pdfrwt>
<pdfrwt beam="2">  1       21 0.60002246E-01 0.17792328E+03</pdfrwt>
<totfact> 0.88301601E+04</totfact>
</mgrwt>
</event>
<event>
 4    1  0.3935877E+000  0.1946918E+03  0.7546771E-02  0.1154296E+00
         21   -1    0    0  503  502  0.00000000000E+00  0.00000000000E+00  0.49912514155E+02  0.49912514155E+02  0.00000000000E+00 0. -1.
         21   -1    0    0  501  503 -0.00000000000E+00 -0.00000000000E+00 -0.78583646340E+03  0.78583646340E+03  0.00000000000E+00 0. -1.
          6    1    1    2  501    0  0.30888016204E+01  0.89254426847E+02 -0.44456791324E+03  0.48533032348E+03  0.17300000000E+03 0.  1.
         -6    1    1    2    0  502 -0.30888016204E+01 -0.89254426847E+02 -0.29135603601E+03  0.35041865408E+03  0.17300000000E+03 0.  1.
<mgrwt>
<rscale>  2 0.19469179E+03</rscale>
<asrwt>0</asrwt>
<pdfrwt beam="1">  1       21 0.76788488E-02 0.19469179E+03</pdfrwt>
<pdfrwt beam="2">  1       21 0.12089791E+00 0.19469179E+03</pdfrwt>
<totfact> 0.66738882E+04</totfact>
</mgrwt>
</event>
<event>
 4    1  0.3935877E+000  0.1758254E+03  0.7546771E-02  0.1171906E+00
         21   -1    0    0  501  502  0.00000000000E+00  0.00000000000E+00  0.51278180013E+03  0.51278180013E+03  0.00000000000E+00 0. -1.
         21   -1    0    0  502  503 -0.00000000000E+00 -0.00000000000E+00 -0.84993318187E+02  0.84993318187E+02  0.00000000000E+00 0. -1.
          6    1    1    2  501    0 -0.15720820231E+02  0.27173750280E+02  0.37503715951E+03  0.41420698679E+03  0.17300000000E+03 0. -1.
         -6    1    1    2    0  503  0.15720820231E+02 -0.27173750280E+02  0.52751322430E+02  0.18356813152E+03  0.17300000000E+03 0. -1.
<mgrwt>
<rscale>  2 0.17582536E+03</rscale>
<asrwt>0</asrwt>
<pdfrwt beam="1">  1       21 0.78889506E-01 0.17582536E+03</pdfrwt>
<pdfrwt beam="2">  1       21 0.13075895E-01 0.17582536E+03</pdfrwt>
<totfact> 0.71929078E+04</totfact>
</mgrwt>
</event>
<event>
 4    1  0.3935877E+000  0.1767991E+03  0.7546771E-02  0.1170937E+00
         21   -1    0    0  501  502  0.00000000000E+00  0.00000000000E+00  0.47371708316E+03  0.47371708316E+03  0.00000000000E+00 0.  1.
         21   -1    0    0  502  503 -0.00000000000E+00 -0.00000000000E+00 -0.16705105970E+03  0.16705105970E+03  0.00000000000E+00 0.  1.
          6    1    1    2  501    0  0.25071843234E+02 -0.26463943280E+02  0.40253428343E+03  0.43964961839E+03  0.17300000000E+03 0.  1.
         -6    1    1    2    0  503 -0.25071843234E+02  0.26463943280E+02 -0.95868259965E+02  0.20111852447E+03  0.17300000000E+03 0.  1.
<mgrwt>
<rscale>  2 0.17679914E+03</rscale>
<asrwt>0</asrwt>
<pdfrwt beam="1">  1       21 0.72879551E-01 0.17679914E+03</pdfrwt>
<pdfrwt beam="2">  1       21 0.25700163E-01 0.17679914E+03</pdfrwt>
<totfact> 0.24574239E+04</totfact>
</mgrwt>
</event>
<event>
 4    1  0.3935877E+000  0.2169236E+03  0.7546771E-02  0.1136198E+00
         21   -1    0    0  503  502  0.00000000000E+00  0.00000000000E+00  0.54468714633E+03  0.54468714633E+03  0.00000000000E+00 0. -1.
         21   -1    0    0  501  503 -0.00000000000E+00 -0.00000000000E+00 -0.21979758513E+03  0.21979758513E+03  0.00000000000E+00 0.  1.
          6    1    1    2  501    0  0.36698350761E+02  0.12561878807E+03 -0.13534970289E+03  0.25568611800E+03  0.17300000000E+03 0.  1.
         -6    1    1    2    0  502 -0.36698350761E+02 -0.12561878807E+03  0.46023926408E+03  0.50879861347E+03  0.17300000000E+03 0. -1.
<mgrwt>
<rscale>  2 0.21692360E+03</rscale>
<asrwt>0</asrwt>
<pdfrwt beam="1">  1       21 0.83798022E-01 0.21692360E+03</pdfrwt>
<pdfrwt beam="2">  1       21 0.33815013E-01 0.21692360E+03</pdfrwt>
<totfact> 0.10259787E+04</totfact>
</mgrwt>
</event>
<event>
 4    1  0.3935877E+000  0.1841772E+03  0.7546771E-02  0.1163820E+00
         21   -1    0    0  503  502  0.00000000000E+00  0.00000000000E+00  0.14390513343E+03  0.14390513343E+03  0.00000000000E+00 0.  1.
         21   -1    0    0  501  503 -0.00000000000E+00 -0.00000000000E+00 -0.23839069950E+03  0.23839069950E+03  0.00000000000E+00 0.  1.
          6    1    1    2  501    0 -0.70848409058E+01  0.62785721665E+02 -0.67476724845E+02  0.19614879610E+03  0.17300000000E+03 0.  1.
         -6    1    1    2    0  502  0.70848409058E+01 -0.62785721665E+02 -0.27008841219E+02  0.18614703683E+03  0.17300000000E+03 0.  1.
<mgrwt>
<rscale>  2 0.18417720E+03</rscale>
<asrwt>0</asrwt>
<pdfrwt beam="1">  1       21 0.22139252E-01 0.18417720E+03</pdfrwt>
<pdfrwt beam="2">  1       21 0.36675492E-01 0.18417720E+03</pdfrwt>
<totfact> 0.13715099E+05</totfact>
</mgrwt>
</event>
<event>
 4    1  0.3935877E+000  0.2549817E+03  0.7546771E-02  0.1110196E+00
         21   -1    0    0  503  502  0.00000000000E+00  0.00000000000E+00  0.40293324100E+03  0.40293324100E+03  0.00000000000E+00 0.  1.
         21   -1    0    0  501  503 -0.00000000000E+00 -0.00000000000E+00 -0.28978590833E+03  0.28978590833E+03  0.00000000000E+00 0. -1.
          6    1    1    2  501    0  0.17921829629E+03  0.54474352092E+02 -0.17400643946E+03  0.30869709058E+03  0.17300000000E+03 0. -1.
         -6    1    1    2    0  502 -0.17921829629E+03 -0.54474352092E+02  0.28715377212E+03  0.38402205875E+03  0.17300000000E+03 0.  1.
<mgrwt>
<rscale>  2 0.25498167E+03</rscale>
<asrwt>0</asrwt>
<pdfrwt beam="1">  1       21 0.61989730E-01 0.25498167E+03</pdfrwt>
<pdfrwt beam="2">  1       21 0.44582447E-01 0.25498167E+03</pdfrwt>
<totfact> 0.11236323E+04</totfact>
</mgrwt>
</event>
<event>
 4    1  0.3935877E+000  0.2044046E+03  0.7546771E-02  0.1146075E+00
         21   -1    0    0  501  502  0.00000000000E+00  0.00000000000E+00  0.45597473046E+03  0.45597473046E+03  0.00000000000E+00 0. -1.
         21   -1    0    0  502  503 -0.00000000000E+00 -0.00000000000E+00 -0.16141794869E+03  0.16141794869E+03  0.00000000000E+00 0.  1.
          6    1    1    2  501    0 -0.10570553810E+03 -0.26049640016E+02  0.35025400954E+03  0.40553559120E+03  0.17300000000E+03 0. -1.
         -6    1    1    2    0  503  0.10570553810E+03  0.26049640016E+02 -0.55697227775E+02  0.21185708795E+03  0.17300000000E+03 0.  1.
<mgrwt>
<rscale>  2 0.20440461E+03</rscale>
<asrwt>0</asrwt>
<pdfrwt beam="1">  1       21 0.70149958E-01 0.20440461E+03</pdfrwt>
<pdfrwt beam="2">  1       21 0.24833531E-01 0.20440461E+03</pdfrwt>
<totfact> 0.28105223E+04</totfact>
</mgrwt>
</event>
<event>
 4    1  0.3935877E+000  0.2022501E+03  0.7546771E-02  0.1147854E+00
         21   -1    0    0  503  502  0.00000000000E+00  0.00000000000E+00  0.12759602373E+03  0.12759602373E+03  0.00000000000E+00 0. -1.
         21   -1    0    0  501  503 -0.00000000000E+00 -0.00000000000E+00 -0.43146338185E+03  0.43146338185E+03  0.00000000000E+00 0. -1.
          6    1    1    2  501    0 -0.10110664831E+03 -0.27450507077E+02 -0.29363824027E+03  0.35655083904E+03  0.17300000000E+03 0. -1.
         -6    1    1    2    0  502  0.10110664831E+03  0.27450507077E+02 -0.10229117854E+02  0.20250856654E+03  0.17300000000E+03 0. -1.
<mgrwt>
<rscale>  2 0.20225005E+03</rscale>
<asrwt>0</asrwt>
<pdfrwt beam="1">  1       21 0.19630157E-01 0.20225005E+03</pdfrwt>
<pdfrwt beam="2">  1       21 0.66378982E-01 0.20225005E+03</pdfrwt>
<totfact> 0.49526251E+04</totfact>
</mgrwt>
</event>
<event>
 4    1  0.3935877E+000  0.1763577E+03  0.7546771E-02  0.1171375E+00
         21   -1    0    0  501  502  0.00000000000E+00  0.00000000000E+00  0.13209567428E+03  0.13209567428E+03  0.00000000000E+00 0. -1.
         21   -1    0    0  502  503 -0.00000000000E+00 -0.00000000000E+00 -0.31032138309E+03  0.31032138309E+03  0.00000000000E+00 0. -1.
          6    1    1    2  501    0  0.24226599522E+02  0.24210006838E+02  0.19542510961E+02  0.17743720661E+03  0.17300000000E+03 0.  1.
         -6    1    1    2    0  503 -0.24226599522E+02 -0.24210006838E+02 -0.19776821977E+03  0.26497985076E+03  0.17300000000E+03 0.  1.
<mgrwt>
<rscale>  2 0.17635774E+03</rscale>
<asrwt>0</asrwt>
<pdfrwt beam="1">  1       21 0.20322412E-01 0.17635774E+03</pdfrwt>
<pdfrwt beam="2">  1       21 0.47741751E-01 0.17635774E+03</pdfrwt>
<totfact> 0.94567581E+04</totfact>
</mgrwt>
</event>
<event>
 4    1  0.3935877E+000  0.2365665E+03  0.7546771E-02  0.1122101E+00
         21   -1    0    0  503  502  0.00000000000E+00  0.00000000000E+00  0.15876945612E+03  0.15876945612E+03  0.00000000000E+00 0. -1.
         21   -1    0    0  501  503 -0.00000000000E+00 -0.00000000000E+00 -0.42984942873E+03  0.42984942873E+03  0.00000000000E+00 0.  1.
          6    1    1    2  501    0  0.14568436865E+03 -0.69359662167E+02 -0.26039885576E+03  0.35181140130E+03  0.17300000000E+03 0.  1.
         -6    1    1    2    0  502 -0.14568436865E+03  0.69359662167E+02 -0.10681116844E+02  0.23680748354E+03  0.17300000000E+03 0. -1.
<mgrwt>
<rscale>  2 0.23656648E+03</rscale>
<asrwt>0</asrwt>
<pdfrwt beam="1">  1       21 0.24426070E-01 0.23656648E+03</pdfrwt>
<pdfrwt beam="2">  1       21 0.66130681E-01 0.23656648E+03</pdfrwt>
<totfact> 0.32497507E+04</totfact>
</mgrwt>
</event>
<event>
 4    1  0.3935877E+000  0.2418823E+03  0.7546771E-02  0.1118545E+00
         21   -1    0    0  501  502  0.00000000000E+00  0.00000000000E+00  0.10545210312E+03  0.10545210312E+03  0.00000000000E+00 0.  1.
         21   -1    0    0  502  503 -0.00000000000E+00 -0.00000000000E+00 -0.61836830267E+03  0.61836830267E+03  0.00000000000E+00 0.  1.
          6    1    1    2  501    0  0.10282941214E+03  0.13417955553E+03 -0.14043999055E+03  0.27969703622E+03  0.17300000000E+03 0.  1.
         -6    1    1    2    0  503 -0.10282941214E+03 -0.13417955553E+03 -0.37247620900E+03  0.44412336957E+03  0.17300000000E+03 0.  1.
<mgrwt>
<rscale>  2 0.24188229E+03</rscale>
<asrwt>0</asrwt>
<pdfrwt beam="1">  1       21 0.16223401E-01 0.24188229E+03</pdfrwt>
<pdfrwt beam="2">  1       21 0.95133585E-01 0.24188229E+03</pdfrwt>
<totfact> 0.30585756E+04</totfact>
</mgrwt>
</event>
<event>
 4    1  0.3935877E+000  0.1893272E+03  0.7546771E-02  0.1159070E+00
         21   -1    0    0  503  502  0.00000000000E+00  0.00000000000E+00  0.86386361982E+03  0.86386361982E+03  0.00000000000E+00 0. -1.
         21   -1    0    0  501  503 -0.00000000000E+00 -0.00000000000E+00 -0.63743617739E+02  0.63743617739E+02  0.00000000000E+00 0.  1.
          6    1    1    2  501    0  0.76449123256E+02  0.84448708543E+01  0.12604062885E+03  0.22744455239E+03  0.17300000000E+03 0.  1.
         -6    1    1    2    0  502 -0.76449123256E+02 -0.84448708543E+01  0.67407937323E+03  0.70016268517E+03  0.17300000000E+03 0. -1.
<mgrwt>
<rscale>  2 0.18932719E+03</rscale>
<asrwt>0</asrwt>
<pdfrwt beam="1">  1       21 0.13290209E+00 0.18932719E+03</pdfrwt>
<pdfrwt beam="2">  1       21 0.98067111E-02 0.18932719E+03</pdfrwt>
<totfact> 0.34399658E+04</totfact>
</mgrwt>
</event>
<event>
 4    1  0.3935877E+000  0.1896373E+03  0.7546771E-02  0.1158789E+00
         21   -1    0    0  503  502  0.00000000000E+00  0.00000000000E+00  0.14124577859E+03  0.14124577859E+03  0.00000000000E+00 0.  1.
         21   -1    0    0  501  503 -0.00000000000E+00 -0.00000000000E+00 -0.49059330827E+03  0.49059330827E+03  0.00000000000E+00 0.  1.
          6    1    1    2  501    0 -0.72729881871E+02  0.27269998016E+02 -0.39378178504E+03  0.43706565037E+03  0.17300000000E+03 0.  1.
         -6    1    1    2    0  502  0.72729881871E+02 -0.27269998016E+02  0.44434255358E+02  0.19477343648E+03  0.17300000000E+03 0.  1.
<mgrwt>
<rscale>  2 0.18963726E+03</rscale>
<asrwt>0</asrwt>
<pdfrwt beam="1">  1       21 0.21730120E-01 0.18963726E+03</pdfrwt>
<pdfrwt beam="2">  1       21 0.75475893E-01 0.18963726E+03</pdfrwt>
<totfact> 0.31022809E+04</totfact>
</mgrwt>
</event>
<event>
 4    1  0.3935877E+000  0.2071834E+03  0.7546771E-02  0.1143816E+00
         21   -1    0    0  501  502  0.00000000000E+00  0.00000000000E+00  0.68590082030E+02  0.68590082030E+02  0.00000000000E+00 0.  1.
         21   -1    0    0  502  503 -0.00000000000E+00 -0.00000000000E+00 -0.82573121686E+03  0.82573121686E+03  0.00000000000E+00 0.  1.
          6    1    1    2  501    0  0.87579924791E+02 -0.72977595479E+02 -0.15854965796E+03  0.26088880142E+03  0.17300000000E+03 0.  1.
         -6    1    1    2    0  503 -0.87579924791E+02  0.72977595479E+02 -0.59859147687E+03  0.63343249747E+03  0.17300000000E+03 0.  1.
<mgrwt>
<rscale>  2 0.20718343E+03</rscale>
<asrwt>0</asrwt>
<pdfrwt beam="1">  1       21 0.10552320E-01 0.20718343E+03</pdfrwt>
<pdfrwt beam="2">  1       21 0.12703557E+00 0.20718343E+03</pdfrwt>
<totfact> 0.33513804E+04</totfact>
</mgrwt>
</event>
<event>
 4    1  0.3935877E+000  0.3806994E+03  0.7546771E-02  0.1050676E+00
         21   -1    0    0  501  502  0.00000000000E+00  0.00000000000E+00  0.31663581837E+03  0.31663581837E+03  0.00000000000E+00 0. -1.
         21   -1    0    0  502  503 -0.00000000000E+00 -0.00000000000E+00 -0.52797236571E+03  0.52797236571E+03  0.00000000000E+00 0.  1.
          6    1    1    2  501    0  0.31212037448E+03 -0.13260439365E+03  0.48372418952E+02  0.38376026931E+03  0.17300000000E+03 0. -1.
         -6    1    1    2    0  503 -0.31212037448E+03  0.13260439365E+03 -0.25970896629E+03  0.46084791478E+03  0.17300000000E+03 0.  1.
<mgrwt>
<rscale>  2 0.38069943E+03</rscale>
<asrwt>0</asrwt>
<pdfrwt beam="1">  1       21 0.48713203E-01 0.38069943E+03</pdfrwt>
<pdfrwt beam="2">  1       21 0.81226517E-01 0.38069943E+03</pdfrwt>
<totfact> 0.48157305E+03</totfact>
</mgrwt>
</event>
<event>
 4    1  0.3935877E+000  0.1893489E+03  0.7546771E-02  0.1159050E+00
         21   -1    0    0  501  502  0.00000000000E+00  0.00000000000E+00  0.61653967140E+02  0.61653967140E+02  0.00000000000E+00 0. -1.
         21   -1    0    0  502  503 -0.00000000000E+00 -0.00000000000E+00 -0.79586840768E+03  0.79586840768E+03  0.00000000000E+00 0. -1.
          6    1    1    2  501    0  0.75530015809E+02  0.14805736150E+02 -0.14459425453E+03  0.23824460446E+03  0.17300000000E+03 0. -1.
         -6    1    1    2    0  503 -0.75530015809E+02 -0.14805736150E+02 -0.58962018601E+03  0.61927777036E+03  0.17300000000E+03 0. -1.
<mgrwt>
<rscale>  2 0.18934887E+03</rscale>
<asrwt>0</asrwt>
<pdfrwt beam="1">  1       21 0.94852257E-02 0.18934887E+03</pdfrwt>
<pdfrwt beam="2">  1       21 0.12244129E+00 0.18934887E+03</pdfrwt>
<totfact> 0.44820725E+04</totfact>
</mgrwt>
</event>
<event>
 4    1  0.3935877E+000  0.2562516E+03  0.7546771E-02  0.1109417E+00
         21   -1    0    0  503  502  0.00000000000E+00  0.00000000000E+00  0.56707008760E+02  0.56707008760E+02  0.00000000000E+00 0.  1.
         21   -1    0    0  501  503 -0.00000000000E+00 -0.00000000000E+00 -0.13878073946E+04  0.13878073946E+04  0.00000000000E+00 0. -1.
          6    1    1    2  501    0 -0.18692137738E+03  0.28218188355E+02 -0.95947760044E+03  0.99310731204E+03  0.17300000000E+03 0.  1.
         -6    1    1    2    0  502  0.18692137738E+03 -0.28218188355E+02 -0.37162278545E+03  0.45140709137E+03  0.17300000000E+03 0.  1.
<mgrwt>
<rscale>  2 0.25625157E+03</rscale>
<asrwt>0</asrwt>
<pdfrwt beam="1">  1       21 0.87241558E-02 0.25625157E+03</pdfrwt>
<pdfrwt beam="2">  1       21 0.21350881E+00 0.25625157E+03</pdfrwt>
<totfact> 0.10843533E+04</totfact>
</mgrwt>
</event>
<event>
 4    1  0.3935877E+000  0.2072796E+03  0.7546771E-02  0.1143739E+00
         21   -1    0    0  503  502  0.00000000000E+00  0.00000000000E+00  0.23334675474E+03  0.23334675474E+03  0.00000000000E+00 0.  1.
         21   -1    0    0  501  503 -0.00000000000E+00 -0.00000000000E+00 -0.18649280445E+03  0.18649280445E+03  0.00000000000E+00 0.  1.
          6    1    1    2  501    0 -0.89521131392E+02 -0.70864698446E+02 -0.22935702917E+00  0.20727974107E+03  0.17300000000E+03 0.  1.
         -6    1    1    2    0  502  0.89521131392E+02  0.70864698446E+02  0.47083307324E+02  0.21255981812E+03  0.17300000000E+03 0.  1.
<mgrwt>
<rscale>  2 0.20727961E+03</rscale>
<asrwt>0</asrwt>
<pdfrwt beam="1">  1       21 0.35899501E-01 0.20727961E+03</pdfrwt>
<pdfrwt beam="2">  1       21 0.28691200E-01 0.20727961E+03</pdfrwt>
<totfact> 0.86424722E+04</totfact>
</mgrwt>
</event>
<event>
 4    1  0.3935877E+000  0.2065818E+03  0.7546771E-02  0.1144302E+00
         21   -1    0    0  503  502  0.00000000000E+00  0.00000000000E+00  0.86411974164E+02  0.86411974164E+02  0.00000000000E+00 0. -1.
         21   -1    0    0  501  503 -0.00000000000E+00 -0.00000000000E+00 -0.61058845801E+03  0.61058845801E+03  0.00000000000E+00 0. -1.
          6    1    1    2  501    0  0.11191922825E+03  0.14870650587E+02 -0.41445966275E+03  0.46309055480E+03  0.17300000000E+03 0. -1.
         -6    1    1    2    0  502 -0.11191922825E+03 -0.14870650587E+02 -0.10971682110E+03  0.23390987738E+03  0.17300000000E+03 0. -1.
<mgrwt>
<rscale>  2 0.20658182E+03</rscale>
<asrwt>0</asrwt>
<pdfrwt beam="1">  1       21 0.13294150E-01 0.20658182E+03</pdfrwt>
<pdfrwt beam="2">  1       21 0.93936683E-01 0.20658182E+03</pdfrwt>
<totfact> 0.46099842E+04</totfact>
</mgrwt>
</event>
<event>
 4    1  0.3935877E+000  0.1879103E+03  0.7546771E-02  0.1160360E+00
         21   -1    0    0  501  502  0.00000000000E+00  0.00000000000E+00  0.19663983166E+02  0.19663983166E+02  0.00000000000E+00 0.  1.
         21   -1    0    0  502  503 -0.00000000000E+00 -0.00000000000E+00 -0.20570784104E+04  0.20570784104E+04  0.00000000000E+00 0.  1.
          6    1    1    2  501    0 -0.72318217292E+02 -0.12302950613E+02 -0.64855879463E+03  0.67523240239E+03  0.17300000000E+03 0.  1.
         -6    1    1    2    0  503  0.72318217292E+02  0.12302950613E+02 -0.13888556326E+04  0.14015099911E+04  0.17300000000E+03 0.  1.
<mgrwt>
<rscale>  2 0.18791032E+03</rscale>
<asrwt>0</asrwt>
<pdfrwt beam="1">  1       21 0.30252285E-02 0.18791032E+03</pdfrwt>
<pdfrwt beam="2">  1       21 0.31647356E+00 0.18791032E+03</pdfrwt>
<totfact> 0.17204746E+04</totfact>
</mgrwt>
</event>
<event>
 4    1  0.3935877E+000  0.2144263E+03  0.7546771E-02  0.1138108E+00
         21   -1    0    0  503  502  0.00000000000E+00  0.00000000000E+00  0.58919681185E+03  0.58919681185E+03  0.00000000000E+00 0. -1.
         21   -1    0    0  501  503 -0.00000000000E+00 -0.00000000000E+00 -0.86016791861E+02  0.86016791861E+02  0.00000000000E+00 0.  1.
          6    1    1    2  501    0 -0.10003666308E+03  0.77732216172E+02  0.14875538369E+03  0.26097278703E+03  0.17300000000E+03 0. -1.
         -6    1    1    2    0  502  0.10003666308E+03 -0.77732216172E+02  0.35442463630E+03  0.41424081669E+03  0.17300000000E+03 0. -1.
<mgrwt>
<rscale>  2 0.21442628E+03</rscale>
<asrwt>0</asrwt>
<pdfrwt beam="1">  1       21 0.90645661E-01 0.21442628E+03</pdfrwt>
<pdfrwt beam="2">  1       21 0.13233353E-01 0.21442628E+03</pdfrwt>
<totfact> 0.50321276E+04</totfact>
</mgrwt>
</event>
<event>
 4    1  0.3935877E+000  0.1807677E+03  0.7546771E-02  0.1167062E+00
         21   -1    0    0  501  502  0.00000000000E+00  0.00000000000E+00  0.64470551977E+03  0.64470551977E+03  0.00000000000E+00 0.  1.
         21   -1    0    0  502  503 -0.00000000000E+00 -0.00000000000E+00 -0.89277751312E+02  0.89277751312E+02  0.00000000000E+00 0.  1.
          6    1    1    2  501    0  0.49229739181E+02  0.18011178103E+02  0.51900248212E+03  0.54958215601E+03  0.17300000000E+03 0.  1.
         -6    1    1    2    0  503 -0.49229739181E+02 -0.18011178103E+02  0.36425286342E+02  0.18440111508E+03  0.17300000000E+03 0.  1.
<mgrwt>
<rscale>  2 0.18076772E+03</rscale>
<asrwt>0</asrwt>
<pdfrwt beam="1">  1       21 0.99185462E-01 0.18076772E+03</pdfrwt>
<pdfrwt beam="2">  1       21 0.13735039E-01 0.18076772E+03</pdfrwt>
<totfact> 0.38770169E+04</totfact>
</mgrwt>
</event>
<event>
 4    1  0.3935877E+000  0.1735066E+03  0.7546771E-02  0.1174240E+00
         21   -1    0    0  501  502  0.00000000000E+00  0.00000000000E+00  0.39645112773E+02  0.39645112773E+02  0.00000000000E+00 0.  1.
         21   -1    0    0  502  503 -0.00000000000E+00 -0.00000000000E+00 -0.84254011505E+03  0.84254011505E+03  0.00000000000E+00 0.  1.
          6    1    1    2  501    0  0.65776327861E+01 -0.11501649498E+02 -0.26284600109E+03  0.31494852513E+03  0.17300000000E+03 0.  1.
         -6    1    1    2    0  503 -0.65776327861E+01  0.11501649498E+02 -0.54004900119E+03  0.56723670269E+03  0.17300000000E+03 0.  1.
<mgrwt>
<rscale>  2 0.17350664E+03</rscale>
<asrwt>0</asrwt>
<pdfrwt beam="1">  1       21 0.60992480E-02 0.17350664E+03</pdfrwt>
<pdfrwt beam="2">  1       21 0.12962156E+00 0.17350664E+03</pdfrwt>
<totfact> 0.84240764E+04</totfact>
</mgrwt>
</event>
<event>
 4    1  0.3935877E+000  0.2039514E+03  0.7546771E-02  0.1146447E+00
         21   -1    0    0  501  502  0.00000000000E+00  0.00000000000E+00  0.46696479942E+02  0.46696479942E+02  0.00000000000E+00 0. -1.
         21   -1    0    0  502  503 -0.00000000000E+00 -0.00000000000E+00 -0.14945128173E+04  0.14945128173E+04  0.00000000000E+00 0. -1.
          6    1    1    2  501    0  0.86155472974E+01 -0.10767059279E+03 -0.23412369664E+03  0.31049974160E+03  0.17300000000E+03 0. -1.
         -6    1    1    2    0  503 -0.86155472974E+01  0.10767059279E+03 -0.12136926407E+04  0.12307095556E+04  0.17300000000E+03 0. -1.
<mgrwt>
<rscale>  2 0.20395143E+03</rscale>
<asrwt>0</asrwt>
<pdfrwt beam="1">  1       21 0.71840734E-02 0.20395143E+03</pdfrwt>
<pdfrwt beam="2">  1       21 0.22992506E+00 0.20395143E+03</pdfrwt>
<totfact> 0.12537895E+04</totfact>
</mgrwt>
</event>
<event>
 4    1  0.3935877E+000  0.1778893E+03  0.7546771E-02  0.1169862E+00
         21   -1    0    0  501  502  0.00000000000E+00  0.00000000000E+00  0.11640445809E+03  0.11640445809E+03  0.00000000000E+00 0. -1.
         21   -1    0    0  502  503 -0.00000000000E+00 -0.00000000000E+00 -0.27613288728E+03  0.27613288728E+03  0.00000000000E+00 0. -1.
          6    1    1    2  501    0 -0.85546898619E+01 -0.40526707587E+02 -0.55421990551E+02  0.18632282142E+03  0.17300000000E+03 0. -1.
         -6    1    1    2    0  503  0.85546898619E+01  0.40526707587E+02 -0.10430643864E+03  0.20621452395E+03  0.17300000000E+03 0. -1.
<mgrwt>
<rscale>  2 0.17788928E+03</rscale>
<asrwt>0</asrwt>
<pdfrwt beam="1">  1       21 0.17908378E-01 0.17788928E+03</pdfrwt>
<pdfrwt beam="2">  1       21 0.42481982E-01 0.17788928E+03</pdfrwt>
<totfact> 0.15180989E+05</totfact>
</mgrwt>
</event>
<event>
 4    1  0.3935877E+000  0.1760154E+03  0.7546771E-02  0.1171716E+00
         21   -1    0    0  501  502  0.00000000000E+00  0.00000000000E+00  0.34489089629E+02  0.34489089629E+02  0.00000000000E+00 0. -1.
         21   -1    0    0  502  503 -0.00000000000E+00 -0.00000000000E+00 -0.11329041971E+04  0.11329041971E+04  0.00000000000E+00 0. -1.
          6    1    1    2  501    0 -0.13209508241E+02  0.29629674032E+02 -0.28358664212E+03  0.33377056832E+03  0.17300000000E+03 0. -1.
         -6    1    1    2    0  503  0.13209508241E+02 -0.29629674032E+02 -0.81482846534E+03  0.83362271839E+03  0.17300000000E+03 0. -1.
<mgrwt>
<rscale>  2 0.17601536E+03</rscale>
<asrwt>0</asrwt>
<pdfrwt beam="1">  1       21 0.53060142E-02 0.17601536E+03</pdfrwt>
<pdfrwt beam="2">  1       21 0.17429294E+00 0.17601536E+03</pdfrwt>
<totfact> 0.48928595E+04</totfact>
</mgrwt>
</event>
<event>
 4    1  0.3935877E+000  0.2639659E+03  0.7546771E-02  0.1104784E+00
         21   -1    0    0  501  502  0.00000000000E+00  0.00000000000E+00  0.11556103237E+03  0.11556103237E+03  0.00000000000E+00 0. -1.
         21   -1    0    0  502  503 -0.00000000000E+00 -0.00000000000E+00 -0.61905957024E+03  0.61905957024E+03  0.00000000000E+00 0.  1.
          6    1    1    2  501    0  0.18065404832E+03 -0.84339313863E+02 -0.19250411899E+03  0.32670451614E+03  0.17300000000E+03 0.  1.
         -6    1    1    2    0  503 -0.18065404832E+03  0.84339313863E+02 -0.31099441887E+03  0.40791608648E+03  0.17300000000E+03 0. -1.
<mgrwt>
<rscale>  2 0.26396592E+03</rscale>
<asrwt>0</asrwt>
<pdfrwt beam="1">  1       21 0.17778620E-01 0.26396592E+03</pdfrwt>
<pdfrwt beam="2">  1       21 0.95239936E-01 0.26396592E+03</pdfrwt>
<totfact> 0.25490445E+04</totfact>
</mgrwt>
</event>
<event>
 4    1  0.3935877E+000  0.1744188E+03  0.7546771E-02  0.1173317E+00
         21   -1    0    0  503  502  0.00000000000E+00  0.00000000000E+00  0.18640666228E+03  0.18640666228E+03  0.00000000000E+00 0. -1.
         21   -1    0    0  501  503 -0.00000000000E+00 -0.00000000000E+00 -0.35366318215E+03  0.35366318215E+03  0.00000000000E+00 0. -1.
          6    1    1    2  501    0  0.20596612447E+02 -0.82888049292E+01 -0.28179389321E+03  0.33140567735E+03  0.17300000000E+03 0. -1.
         -6    1    1    2    0  502 -0.20596612447E+02  0.82888049292E+01  0.11453737334E+03  0.20866416708E+03  0.17300000000E+03 0. -1.
<mgrwt>
<rscale>  2 0.17441882E+03</rscale>
<asrwt>0</asrwt>
<pdfrwt beam="1">  1       21 0.28677949E-01 0.17441882E+03</pdfrwt>
<pdfrwt beam="2">  1       21 0.54409719E-01 0.17441882E+03</pdfrwt>
<totfact> 0.37471174E+04</totfact>
</mgrwt>
</event>
<event>
 4    1  0.3935877E+000  0.1839381E+03  0.7546771E-02  0.1164045E+00
         21   -1    0    0  501  502  0.00000000000E+00  0.00000000000E+00  0.12355371819E+03  0.12355371819E+03  0.00000000000E+00 0.  1.
         21   -1    0    0  502  503 -0.00000000000E+00 -0.00000000000E+00 -0.28113894050E+03  0.28113894050E+03  0.00000000000E+00 0.  1.
          6    1    1    2  501    0 -0.17960491817E+02 -0.59846898858E+02 -0.46176066659E+02  0.18964561609E+03  0.17300000000E+03 0. -1.
         -6    1    1    2    0  503  0.17960491817E+02  0.59846898858E+02 -0.11140915565E+03  0.21504704260E+03  0.17300000000E+03 0. -1.
<mgrwt>
<rscale>  2 0.18393812E+03</rscale>
<asrwt>0</asrwt>
<pdfrwt beam="1">  1       21 0.19008264E-01 0.18393812E+03</pdfrwt>
<pdfrwt beam="2">  1       21 0.43252145E-01 0.18393812E+03</pdfrwt>
<totfact> 0.13080654E+05</totfact>
</mgrwt>
</event>
<event>
 4    1  0.3935877E+000  0.1895018E+03  0.7546771E-02  0.1158911E+00
         21   -1    0    0  503  502  0.00000000000E+00  0.00000000000E+00  0.98586448608E+02  0.98586448608E+02  0.00000000000E+00 0. -1.
         21   -1    0    0  501  503 -0.00000000000E+00 -0.00000000000E+00 -0.38332066963E+03  0.38332066963E+03  0.00000000000E+00 0. -1.
          6    1    1    2  501    0  0.43298297387E+02  0.64087376333E+02 -0.19610002741E+03  0.27270158619E+03  0.17300000000E+03 0. -1.
         -6    1    1    2    0  502 -0.43298297387E+02 -0.64087376333E+02 -0.88634193616E+02  0.20920553205E+03  0.17300000000E+03 0. -1.
<mgrwt>
<rscale>  2 0.18950181E+03</rscale>
<asrwt>0</asrwt>
<pdfrwt beam="1">  1       21 0.15167146E-01 0.18950181E+03</pdfrwt>
<pdfrwt beam="2">  1       21 0.58972411E-01 0.18950181E+03</pdfrwt>
<totfact> 0.10350102E+05</totfact>
</mgrwt>
</event>
<event>
 4    1  0.3935877E+000  0.1888793E+03  0.7546771E-02  0.1159476E+00
         21   -1    0    0  501  502  0.00000000000E+00  0.00000000000E+00  0.30664557128E+02  0.30664557128E+02  0.00000000000E+00 0. -1.
         21   -1    0    0  502  503 -0.00000000000E+00 -0.00000000000E+00 -0.11725445917E+04  0.11725445917E+04  0.00000000000E+00 0. -1.
          6    1    1    2  501    0 -0.46548881197E+02  0.59829774329E+02 -0.62404453339E+03  0.65200228518E+03  0.17300000000E+03 0. -1.
         -6    1    1    2    0  503  0.46548881197E+02 -0.59829774329E+02 -0.51783550115E+03  0.55120686360E+03  0.17300000000E+03 0. -1.
<mgrwt>
<rscale>  2 0.18887933E+03</rscale>
<asrwt>0</asrwt>
<pdfrwt beam="1">  1       21 0.47176250E-02 0.18887933E+03</pdfrwt>
<pdfrwt beam="2">  1       21 0.18039144E+00 0.18887933E+03</pdfrwt>
<totfact> 0.53799751E+04</totfact>
</mgrwt>
</event>
<event>
 4    1  0.3935877E+000  0.1794119E+03  0.7546771E-02  0.1168373E+00
         21   -1    0    0  503  502  0.00000000000E+00  0.00000000000E+00  0.68081257122E+03  0.68081257122E+03  0.00000000000E+00 0. -1.
         21   -1    0    0  501  503 -0.00000000000E+00 -0.00000000000E+00 -0.63364969676E+02  0.63364969676E+02  0.00000000000E+00 0. -1.
          6    1    1    2  501    0 -0.99011671442E+01 -0.46493070263E+02  0.12125213701E+03  0.21654265036E+03  0.17300000000E+03 0. -1.
         -6    1    1    2    0  502  0.99011671442E+01  0.46493070263E+02  0.49619546453E+03  0.52763489054E+03  0.17300000000E+03 0. -1.
<mgrwt>
<rscale>  2 0.17941192E+03</rscale>
<asrwt>0</asrwt>
<pdfrwt beam="1">  1       21 0.10474039E+00 0.17941192E+03</pdfrwt>
<pdfrwt beam="2">  1       21 0.97484573E-02 0.17941192E+03</pdfrwt>
<totfact> 0.62775936E+04</totfact>
</mgrwt>
</event>
<event>
 4    1  0.3935877E+000  0.3099233E+03  0.7546771E-02  0.1080383E+00
         21   -1    0    0  503  502  0.00000000000E+00  0.00000000000E+00  0.90555907903E+03  0.90555907903E+03  0.00000000000E+00 0. -1.
         21   -1    0    0  501  503 -0.00000000000E+00 -0.00000000000E+00 -0.31249264697E+03  0.31249264697E+03  0.00000000000E+00 0. -1.
          6    1    1    2  501    0 -0.25212645289E+03 -0.50554097805E+02 -0.19845484324E+03  0.36801737711E+03  0.17300000000E+03 0. -1.
         -6    1    1    2    0  502  0.25212645289E+03  0.50554097805E+02  0.79152127530E+03  0.85003434889E+03  0.17300000000E+03 0. -1.
<mgrwt>
<rscale>  2 0.30992332E+03</rscale>
<asrwt>0</asrwt>
<pdfrwt beam="1">  1       21 0.13931678E+00 0.30992332E+03</pdfrwt>
<pdfrwt beam="2">  1       21 0.48075792E-01 0.30992332E+03</pdfrwt>
<totfact> 0.13667406E+03</totfact>
</mgrwt>
</event>
<event>
 4    1  0.3935877E+000  0.1871142E+03  0.7546771E-02  0.1161090E+00
         21   -1    0    0  503  502  0.00000000000E+00  0.00000000000E+00  0.15064766184E+03  0.15064766184E+03  0.00000000000E+00 0. -1.
         21   -1    0    0  501  503 -0.00000000000E+00 -0.00000000000E+00 -0.24678339514E+03  0.24678339514E+03  0.00000000000E+00 0. -1.
          6    1    1    2  501    0  0.69406490795E+02  0.16292643561E+02 -0.96028487511E+02  0.21031686003E+03  0.17300000000E+03 0.  1.
         -6    1    1    2    0  502 -0.69406490795E+02 -0.16292643561E+02 -0.10724578674E+00  0.18711419695E+03  0.17300000000E+03 0.  1.
<mgrwt>
<rscale>  2 0.18711417E+03</rscale>
<asrwt>0</asrwt>
<pdfrwt beam="1">  1       21 0.23176564E-01 0.18711417E+03</pdfrwt>
<pdfrwt beam="2">  1       21 0.37966676E-01 0.18711417E+03</pdfrwt>
<totfact> 0.11726612E+05</totfact>
</mgrwt>
</event>
<event>
 4    1  0.3935877E+000  0.1974567E+03  0.7546771E-02  0.1151903E+00
         21   -1    0    0  503  502  0.00000000000E+00  0.00000000000E+00  0.15674580271E+02  0.15674580271E+02  0.00000000000E+00 0. -1.
         21   -1    0    0  501  503 -0.00000000000E+00 -0.00000000000E+00 -0.24935529489E+04  0.24935529489E+04  0.00000000000E+00 0.  1.
          6    1    1    2  501    0  0.24902305638E+02  0.91869496944E+02 -0.13012036868E+04  0.13161003623E+04  0.17300000000E+03 0.  1.
         -6    1    1    2    0  502 -0.24902305638E+02 -0.91869496944E+02 -0.11766746818E+04  0.11931271668E+04  0.17300000000E+03 0.  1.
<mgrwt>
<rscale>  2 0.19745665E+03</rscale>
<asrwt>0</asrwt>
<pdfrwt beam="1">  1       21 0.24114737E-02 0.19745665E+03</pdfrwt>
<pdfrwt beam="2">  1       21 0.38362356E+00 0.19745665E+03</pdfrwt>
<totfact> 0.99056108E+03</totfact>
</mgrwt>
</event>
<event>
 4    1  0.3935877E+000  0.1737454E+03  0.7546771E-02  0.1173997E+00
         21   -1    0    0  501  502  0.00000000000E+00  0.00000000000E+00  0.18552016398E+04  0.18552016398E+04  0.00000000000E+00 0. -1.
         21   -1    0    0  502  503 -0.00000000000E+00 -0.00000000000E+00 -0.45170652217E+02  0.45170652217E+02  0.00000000000E+00 0. -1.
          6    1    1    2  501    0 -0.13494279946E+01  0.16019734389E+02  0.16650282472E+04  0.16740688506E+04  0.17300000000E+03 0. -1.
         -6    1    1    2    0  503  0.13494279946E+01 -0.16019734389E+02  0.14500274041E+03  0.22630344136E+03  0.17300000000E+03 0. -1.
<mgrwt>
<rscale>  2 0.17374537E+03</rscale>
<asrwt>0</asrwt>
<pdfrwt beam="1">  1       21 0.28541558E+00 0.17374537E+03</pdfrwt>
<pdfrwt beam="2">  1       21 0.69493326E-02 0.17374537E+03</pdfrwt>
<totfact> 0.64825177E+03</totfact>
</mgrwt>
</event>
<event>
 4    1  0.3935877E+000  0.2008312E+03  0.7546771E-02  0.1149040E+00
         21   -1    0    0  503  502  0.00000000000E+00  0.00000000000E+00  0.44878115927E+03  0.44878115927E+03  0.00000000000E+00 0.  1.
         21   -1    0    0  501  503 -0.00000000000E+00 -0.00000000000E+00 -0.11155015411E+03  0.11155015411E+03  0.00000000000E+00 0.  1.
          6    1    1    2  501    0  0.10192673505E+03  0.38887534320E+01  0.45110716852E+02  0.20583527029E+03  0.17300000000E+03 0.  1.
         -6    1    1    2    0  502 -0.10192673505E+03 -0.38887534320E+01  0.29212028831E+03  0.35449604308E+03  0.17300000000E+03 0.  1.
<mgrwt>
<rscale>  2 0.20083123E+03</rscale>
<asrwt>0</asrwt>
<pdfrwt beam="1">  1       21 0.69043254E-01 0.20083123E+03</pdfrwt>
<pdfrwt beam="2">  1       21 0.17161562E-01 0.20083123E+03</pdfrwt>
<totfact> 0.58327737E+04</totfact>
</mgrwt>
</event>
<event>
 4    1  0.3935877E+000  0.1924129E+03  0.7546771E-02  0.1156303E+00
         21   -1    0    0  503  502  0.00000000000E+00  0.00000000000E+00  0.29794403933E+02  0.29794403933E+02  0.00000000000E+00 0.  1.
         21   -1    0    0  501  503 -0.00000000000E+00 -0.00000000000E+00 -0.13710657846E+04  0.13710657846E+04  0.00000000000E+00 0.  1.
          6    1    1    2  501    0  0.82317516198E+02 -0.17820182386E+02 -0.88503219359E+03  0.90570674949E+03  0.17300000000E+03 0.  1.
         -6    1    1    2    0  502 -0.82317516198E+02  0.17820182386E+02 -0.45623918706E+03  0.49515343902E+03  0.17300000000E+03 0.  1.
<mgrwt>
<rscale>  2 0.19241292E+03</rscale>
<asrwt>0</asrwt>
<pdfrwt beam="1">  1       21 0.45837555E-02 0.19241292E+03</pdfrwt>
<pdfrwt beam="2">  1       21 0.21093315E+00 0.19241292E+03</pdfrwt>
<totfact> 0.35681887E+04</totfact>
</mgrwt>
</event>
<event>
 4    1  0.3935877E+000  0.2736577E+03  0.7546771E-02  0.1099204E+00
         21   -1    0    0  501  502  0.00000000000E+00  0.00000000000E+00  0.11587086331E+04  0.11587086331E+04  0.00000000000E+00 0.  1.
         21   -1    0    0  502  503 -0.00000000000E+00 -0.00000000000E+00 -0.76338722375E+02  0.76338722375E+02  0.00000000000E+00 0.  1.
          6    1    1    2  501    0 -0.11736620735E+03 -0.17659194617E+03  0.78301857021E+03  0.82946164672E+03  0.17300000000E+03 0.  1.
         -6    1    1    2    0  503  0.11736620735E+03  0.17659194617E+03  0.29935134050E+03  0.40558570874E+03  0.17300000000E+03 0.  1.
<mgrwt>
<rscale>  2 0.27365771E+03</rscale>
<asrwt>0</asrwt>
<pdfrwt beam="1">  1       21 0.17826285E+00 0.27365771E+03</pdfrwt>
<pdfrwt beam="2">  1       21 0.11744420E-01 0.27365771E+03</pdfrwt>
<totfact> 0.10792887E+04</totfact>
</mgrwt>
</event>
<event>
 4    1  0.3935877E+000  0.2485740E+03  0.7546771E-02  0.1114209E+00
         21   -1    0    0  501  502  0.00000000000E+00  0.00000000000E+00  0.18571884517E+04  0.18571884517E+04  0.00000000000E+00 0. -1.
         21   -1    0    0  502  503 -0.00000000000E+00 -0.00000000000E+00 -0.63381240066E+02  0.63381240066E+02  0.00000000000E+00 0.  1.
          6    1    1    2  501    0 -0.17765511792E+03  0.17282556344E+02  0.15587887012E+04  0.15784838430E+04  0.17300000000E+03 0. -1.
         -6    1    1    2    0  503  0.17765511792E+03 -0.17282556344E+02  0.23501851047E+03  0.34208584879E+03  0.17300000000E+03 0.  1.
<mgrwt>
<rscale>  2 0.24857399E+03</rscale>
<asrwt>0</asrwt>
<pdfrwt beam="1">  1       21 0.28572126E+00 0.24857399E+03</pdfrwt>
<pdfrwt beam="2">  1       21 0.97509614E-02 0.24857399E+03</pdfrwt>
<totfact> 0.33018693E+03</totfact>
</mgrwt>
</event>
<event>
 4    1  0.3935877E+000  0.1768662E+03  0.7546771E-02  0.1170871E+00
         21   -1    0    0  501  502  0.00000000000E+00  0.00000000000E+00  0.34873235421E+02  0.34873235421E+02  0.00000000000E+00 0.  1.
         21   -1    0    0  502  503 -0.00000000000E+00 -0.00000000000E+00 -0.98262939256E+03  0.98262939256E+03  0.00000000000E+00 0.  1.
          6    1    1    2  501    0  0.36559153172E+02 -0.40120506630E+01 -0.32370407727E+03  0.36887124837E+03  0.17300000000E+03 0. -1.
         -6    1    1    2    0  503 -0.36559153172E+02  0.40120506630E+01 -0.62405207987E+03  0.64863137961E+03  0.17300000000E+03 0. -1.
<mgrwt>
<rscale>  2 0.17686624E+03</rscale>
<asrwt>0</asrwt>
<pdfrwt beam="1">  1       21 0.53651136E-02 0.17686624E+03</pdfrwt>
<pdfrwt beam="2">  1       21 0.15117374E+00 0.17686624E+03</pdfrwt>
<totfact> 0.70462044E+04</totfact>
</mgrwt>
</event>
<event>
 4    1  0.3935877E+000  0.2444167E+03  0.7546771E-02  0.1116885E+00
         21   -1    0    0  501  502  0.00000000000E+00  0.00000000000E+00  0.38350540184E+03  0.38350540184E+03  0.00000000000E+00 0.  1.
         21   -1    0    0  502  503 -0.00000000000E+00 -0.00000000000E+00 -0.18471400588E+03  0.18471400588E+03  0.00000000000E+00 0.  1.
          6    1    1    2  501    0  0.88322522114E+02 -0.14835652308E+03  0.21185569641E+03  0.32345380189E+03  0.17300000000E+03 0.  1.
         -6    1    1    2    0  503 -0.88322522114E+02  0.14835652308E+03 -0.13064300442E+02  0.24476560583E+03  0.17300000000E+03 0.  1.
<mgrwt>
<rscale>  2 0.24441671E+03</rscale>
<asrwt>0</asrwt>
<pdfrwt beam="1">  1       21 0.59000831E-01 0.24441671E+03</pdfrwt>
<pdfrwt beam="2">  1       21 0.28417539E-01 0.24441671E+03</pdfrwt>
<totfact> 0.30983324E+04</totfact>
</mgrwt>
</event>
<event>
 4    1  0.3935877E+000  0.1869127E+03  0.7546771E-02  0.1161276E+00
         21   -1    0    0  503  502  0.00000000000E+00  0.00000000000E+00  0.12074419855E+03  0.12074419855E+03  0.00000000000E+00 0. -1.
         21   -1    0    0  501  503 -0.00000000000E+00 -0.00000000000E+00 -0.39354226980E+03  0.39354226980E+03  0.00000000000E+00 0. -1.
          6    1    1    2  501    0 -0.62209626893E+02  0.33724025147E+02 -0.26871558959E+03  0.32732921599E+03  0.17300000000E+03 0. -1.
         -6    1    1    2    0  502  0.62209626893E+02 -0.33724025147E+02 -0.40824816529E+01  0.18695725235E+03  0.17300000000E+03 0. -1.
<mgrwt>
<rscale>  2 0.18691267E+03</rscale>
<asrwt>0</asrwt>
<pdfrwt beam="1">  1       21 0.18576031E-01 0.18691267E+03</pdfrwt>
<pdfrwt beam="2">  1       21 0.60544964E-01 0.18691267E+03</pdfrwt>
<totfact> 0.67475149E+04</totfact>
</mgrwt>
</event>
<event>
 4    1  0.3935877E+000  0.3298000E+03  0.7546771E-02  0.1071225E+00
         21   -1    0    0  503  502  0.00000000000E+00  0.00000000000E+00  0.84574630613E+03  0.84574630613E+03  0.00000000000E+00 0. -1.
         21   -1    0    0  501  503 -0.00000000000E+00 -0.00000000000E+00 -0.16616490855E+03  0.16616490855E+03  0.00000000000E+00 0.  1.
          6    1    1    2  501    0 -0.19318339863E+03  0.20376257487E+03  0.99243949813E+02  0.34440873101E+03  0.17300000000E+03 0.  1.
         -6    1    1    2    0  502  0.19318339863E+03 -0.20376257487E+03  0.58033744777E+03  0.66750248367E+03  0.17300000000E+03 0. -1.
<mgrwt>
<rscale>  2 0.32979996E+03</rscale>
<asrwt>0</asrwt>
<pdfrwt beam="1">  1       21 0.13011481E+00 0.32979996E+03</pdfrwt>
<pdfrwt beam="2">  1       21 0.25563833E-01 0.32979996E+03</pdfrwt>
<totfact> 0.57531629E+03</totfact>
</mgrwt>
</event>
<event>
 4    1  0.3935877E+000  0.1940008E+03  0.7546771E-02  0.1154902E+00
         21   -1    0    0  503  502  0.00000000000E+00  0.00000000000E+00  0.28470721502E+04  0.28470721502E+04  0.00000000000E+00 0. -1.
         21   -1    0    0  501  503 -0.00000000000E+00 -0.00000000000E+00 -0.13225397316E+02  0.13225397316E+02  0.00000000000E+00 0.  1.
          6    1    1    2  501    0  0.36067646060E+02 -0.80040331183E+02  0.14476054886E+04  0.14605471510E+04  0.17300000000E+03 0. -1.
         -6    1    1    2    0  502 -0.36067646060E+02  0.80040331183E+02  0.13862412643E+04  0.13997503965E+04  0.17300000000E+03 0. -1.
<mgrwt>
<rscale>  2 0.19400085E+03</rscale>
<asrwt>0</asrwt>
<pdfrwt beam="1">  1       21 0.43801061E+00 0.19400085E+03</pdfrwt>
<pdfrwt beam="2">  1       21 0.20346788E-02 0.19400085E+03</pdfrwt>
<totfact> 0.59594589E+03</totfact>
</mgrwt>
</event>
<event>
 4    1  0.3935877E+000  0.2058876E+03  0.7546771E-02  0.1144865E+00
         21   -1    0    0  501  502  0.00000000000E+00  0.00000000000E+00  0.12135939987E+03  0.12135939987E+03  0.00000000000E+00 0.  1.
         21   -1    0    0  502  503 -0.00000000000E+00 -0.00000000000E+00 -0.63270108553E+03  0.63270108553E+03  0.00000000000E+00 0. -1.
          6    1    1    2  501    0 -0.93782521161E+02 -0.60543875061E+02 -0.33316553614E+01  0.20591459883E+03  0.17300000000E+03 0.  1.
         -6    1    1    2    0  503  0.93782521161E+02  0.60543875061E+02 -0.50801003030E+03  0.54814588657E+03  0.17300000000E+03 0. -1.
<mgrwt>
<rscale>  2 0.20588764E+03</rscale>
<asrwt>0</asrwt>
<pdfrwt beam="1">  1       21 0.18670677E-01 0.20588764E+03</pdfrwt>
<pdfrwt beam="2">  1       21 0.97338626E-01 0.20588764E+03</pdfrwt>
<totfact> 0.22773658E+04</totfact>
</mgrwt>
</event>
<event>
 4    1  0.3935877E+000  0.1913145E+03  0.7546771E-02  0.1157281E+00
         21   -1    0    0  501  502  0.00000000000E+00  0.00000000000E+00  0.21274262043E+03  0.21274262043E+03  0.00000000000E+00 0.  1.
         21   -1    0    0  502  503 -0.00000000000E+00 -0.00000000000E+00 -0.17315155263E+03  0.17315155263E+03  0.00000000000E+00 0.  1.
          6    1    1    2  501    0  0.73291668863E+02  0.36063252618E+02  0.35222562459E+02  0.19452983273E+03  0.17300000000E+03 0.  1.
         -6    1    1    2    0  503 -0.73291668863E+02 -0.36063252618E+02  0.43685053416E+01  0.19136434034E+03  0.17300000000E+03 0.  1.
<mgrwt>
<rscale>  2 0.19131447E+03</rscale>
<asrwt>0</asrwt>
<pdfrwt beam="1">  1       21 0.32729634E-01 0.19131447E+03</pdfrwt>
<pdfrwt beam="2">  1       21 0.26638700E-01 0.19131447E+03</pdfrwt>
<totfact> 0.12057188E+05</totfact>
</mgrwt>
</event>
<event>
 4    1  0.3935877E+000  0.2041240E+03  0.7546771E-02  0.1146306E+00
         21   -1    0    0  501  502  0.00000000000E+00  0.00000000000E+00  0.53305188444E+03  0.53305188444E+03  0.00000000000E+00 0.  1.
         21   -1    0    0  502  503 -0.00000000000E+00 -0.00000000000E+00 -0.12334135634E+03  0.12334135634E+03  0.00000000000E+00 0.  1.
          6    1    1    2  501    0  0.10542832898E+03 -0.24949127815E+02  0.40347848290E+03  0.45217416744E+03  0.17300000000E+03 0.  1.
         -6    1    1    2    0  503 -0.10542832898E+03  0.24949127815E+02  0.62320451955E+01  0.20421907335E+03  0.17300000000E+03 0.  1.
<mgrwt>
<rscale>  2 0.20412396E+03</rscale>
<asrwt>0</asrwt>
<pdfrwt beam="1">  1       21 0.82007981E-01 0.20412396E+03</pdfrwt>
<pdfrwt beam="2">  1       21 0.18975593E-01 0.20412396E+03</pdfrwt>
<totfact> 0.32894725E+04</totfact>
</mgrwt>
</event>
<event>
 4    1  0.3935877E+000  0.2387745E+03  0.7546771E-02  0.1120612E+00
         21   -1    0    0  501  502  0.00000000000E+00  0.00000000000E+00  0.29887473354E+03  0.29887473354E+03  0.00000000000E+00 0. -1.
         21   -1    0    0  502  503 -0.00000000000E+00 -0.00000000000E+00 -0.22933974469E+03  0.22933974469E+03  0.00000000000E+00 0.  1.
          6    1    1    2  501    0  0.97453363281E+02  0.13261639929E+03  0.14309076493E+03  0.27836708567E+03  0.17300000000E+03 0.  1.
         -6    1    1    2    0  503 -0.97453363281E+02 -0.13261639929E+03 -0.73555776081E+02  0.24984739256E+03  0.17300000000E+03 0.  1.
<mgrwt>
<rscale>  2 0.23877451E+03</rscale>
<asrwt>0</asrwt>
<pdfrwt beam="1">  1       21 0.45980728E-01 0.23877451E+03</pdfrwt>
<pdfrwt beam="2">  1       21 0.35283038E-01 0.23877451E+03</pdfrwt>
<totfact> 0.34310673E+04</totfact>
</mgrwt>
</event>
<event>
 4    1  0.3935877E+000  0.1828763E+03  0.7546771E-02  0.1165048E+00
         21   -1    0    0  501  502  0.00000000000E+00  0.00000000000E+00  0.24145960516E+03  0.24145960516E+03  0.00000000000E+00 0. -1.
         21   -1    0    0  502  503 -0.00000000000E+00 -0.00000000000E+00 -0.16475281558E+03  0.16475281558E+03  0.00000000000E+00 0. -1.
          6    1    1    2  501    0  0.41324839650E+01  0.59141082912E+02  0.11941967727E+03  0.21841429539E+03  0.17300000000E+03 0. -1.
         -6    1    1    2    0  503 -0.41324839650E+01 -0.59141082912E+02 -0.42712887688E+02  0.18779812535E+03  0.17300000000E+03 0. -1.
<mgrwt>
<rscale>  2 0.18287631E+03</rscale>
<asrwt>0</asrwt>
<pdfrwt beam="1">  1       21 0.37147632E-01 0.18287631E+03</pdfrwt>
<pdfrwt beam="2">  1       21 0.25346587E-01 0.18287631E+03</pdfrwt>
<totfact> 0.10348593E+05</totfact>
</mgrwt>
</event>
<event>
 4    1  0.3935877E+000  0.1911708E+03  0.7546771E-02  0.1157410E+00
         21   -1    0    0  501  502  0.00000000000E+00  0.00000000000E+00  0.47513412064E+03  0.47513412064E+03  0.00000000000E+00 0. -1.
         21   -1    0    0  502  503 -0.00000000000E+00 -0.00000000000E+00 -0.62481436361E+03  0.62481436361E+03  0.00000000000E+00 0. -1.
          6    1    1    2  501    0  0.64179005091E+02 -0.49983176333E+02  0.44017044909E+03  0.47989195332E+03  0.17300000000E+03 0. -1.
         -6    1    1    2    0  503 -0.64179005091E+02  0.49983176333E+02 -0.58985069207E+03  0.62005653093E+03  0.17300000000E+03 0. -1.
<mgrwt>
<rscale>  2 0.19117077E+03</rscale>
<asrwt>0</asrwt>
<pdfrwt beam="1">  1       21 0.73097557E-01 0.19117077E+03</pdfrwt>
<pdfrwt beam="2">  1       21 0.96125286E-01 0.19117077E+03</pdfrwt>
<totfact> 0.15193176E+03</totfact>
</mgrwt>
</event>
<event>
 4    1  0.3935877E+000  0.2444746E+03  0.7546771E-02  0.1116847E+00
         21   -1    0    0  501  502  0.00000000000E+00  0.00000000000E+00  0.12586716029E+03  0.12586716029E+03  0.00000000000E+00 0.  1.
         21   -1    0    0  502  503 -0.00000000000E+00 -0.00000000000E+00 -0.62832984546E+03  0.62832984546E+03  0.00000000000E+00 0. -1.
          6    1    1    2  501    0 -0.13762906396E+03  0.10438906673E+03 -0.64855888353E+02  0.25293106324E+03  0.17300000000E+03 0.  1.
         -6    1    1    2    0  503  0.13762906396E+03 -0.10438906673E+03 -0.43760679682E+03  0.50126594251E+03  0.17300000000E+03 0. -1.
<mgrwt>
<rscale>  2 0.24447461E+03</rscale>
<asrwt>0</asrwt>
<pdfrwt beam="1">  1       21 0.19364179E-01 0.24447461E+03</pdfrwt>
<pdfrwt beam="2">  1       21 0.96666128E-01 0.24447461E+03</pdfrwt>
<totfact> 0.21177251E+04</totfact>
</mgrwt>
</event>
<event>
 4    1  0.3935877E+000  0.1853347E+03  0.7546771E-02  0.1162738E+00
         21   -1    0    0  501  502  0.00000000000E+00  0.00000000000E+00  0.11888477050E+04  0.11888477050E+04  0.00000000000E+00 0. -1.
         21   -1    0    0  502  503 -0.00000000000E+00 -0.00000000000E+00 -0.15292871285E+03  0.15292871285E+03  0.00000000000E+00 0. -1.
          6    1    1    2  501    0  0.48642383926E+02  0.45319513810E+02  0.11221580191E+04  0.11373599077E+04  0.17300000000E+03 0. -1.
         -6    1    1    2    0  503 -0.48642383926E+02 -0.45319513810E+02 -0.86239026951E+02  0.20441651013E+03  0.17300000000E+03 0. -1.
<mgrwt>
<rscale>  2 0.18533467E+03</rscale>
<asrwt>0</asrwt>
<pdfrwt beam="1">  1       21 0.18289964E+00 0.18533467E+03</pdfrwt>
<pdfrwt beam="2">  1       21 0.23527495E-01 0.18533467E+03</pdfrwt>
<totfact> 0.29780534E+03</totfact>
</mgrwt>
</event>
<event>
 4    1  0.3935877E+000  0.2176287E+03  0.7546771E-02  0.1135663E+00
         21   -1    0    0  501  502  0.00000000000E+00  0.00000000000E+00  0.21095261213E+03  0.21095261213E+03  0.00000000000E+00 0.  1.
         21   -1    0    0  502  503 -0.00000000000E+00 -0.00000000000E+00 -0.35797794376E+03  0.35797794376E+03  0.00000000000E+00 0.  1.
          6    1    1    2  501    0 -0.99446794534E+01 -0.13165992859E+03  0.10017935850E+03  0.23957908364E+03  0.17300000000E+03 0.  1.
         -6    1    1    2    0  503  0.99446794534E+01  0.13165992859E+03 -0.24720469013E+03  0.32935147224E+03  0.17300000000E+03 0.  1.
<mgrwt>
<rscale>  2 0.21762866E+03</rscale>
<asrwt>0</asrwt>
<pdfrwt beam="1">  1       21 0.32454248E-01 0.21762866E+03</pdfrwt>
<pdfrwt beam="2">  1       21 0.55073530E-01 0.21762866E+03</pdfrwt>
<totfact> 0.28030680E+04</totfact>
</mgrwt>
</event>
<event>
 4    1  0.3935877E+000  0.1845195E+03  0.7546771E-02  0.1163499E+00
         21   -1    0    0  501  502  0.00000000000E+00  0.00000000000E+00  0.50949948962E+03  0.50949948962E+03  0.00000000000E+00 0.  1.
         21   -1    0    0  502  503 -0.00000000000E+00 -0.00000000000E+00 -0.10453339392E+03  0.10453339392E+03  0.00000000000E+00 0.  1.
          6    1    1    2  501    0 -0.56231378119E+02  0.30927088015E+02  0.38687902373E+03  0.42862901402E+03  0.17300000000E+03 0.  1.
         -6    1    1    2    0  503  0.56231378119E+02 -0.30927088015E+02  0.18087071973E+02  0.18540386951E+03  0.17300000000E+03 0.  1.
<mgrwt>
<rscale>  2 0.18451952E+03</rscale>
<asrwt>0</asrwt>
<pdfrwt beam="1">  1       21 0.78384536E-01 0.18451952E+03</pdfrwt>
<pdfrwt beam="2">  1       21 0.16082061E-01 0.18451952E+03</pdfrwt>
<totfact> 0.49941007E+04</totfact>
</mgrwt>
</event>
<event>
 4    1  0.3935877E+000  0.2416506E+03  0.7546771E-02  0.1118698E+00
         21   -1    0    0  503  502  0.00000000000E+00  0.00000000000E+00  0.24396316458E+03  0.24396316458E+03  0.00000000000E+00 0.  1.
         21   -1    0    0  501  503 -0.00000000000E+00 -0.00000000000E+00 -0.92296499302E+03  0.92296499302E+03  0.00000000000E+00 0.  1.
          6    1    1    2  501    0  0.11794419226E+03 -0.12064486366E+03 -0.84164012070E+03  0.87564439608E+03  0.17300000000E+03 0.  1.
         -6    1    1    2    0  502 -0.11794419226E+03  0.12064486366E+03  0.16263829226E+03  0.29128376152E+03  0.17300000000E+03 0.  1.
<mgrwt>
<rscale>  2 0.24165061E+03</rscale>
<asrwt>0</asrwt>
<pdfrwt beam="1">  1       21 0.37532794E-01 0.24165061E+03</pdfrwt>
<pdfrwt beam="2">  1       21 0.14199462E+00 0.24165061E+03</pdfrwt>
<totfact> 0.22652833E+03</totfact>
</mgrwt>
</event>
<event>
 4    1  0.3935877E+000  0.1903455E+03  0.7546771E-02  0.1158150E+00
         21   -1    0    0  501  502  0.00000000000E+00  0.00000000000E+00  0.23244180595E+03  0.23244180595E+03  0.00000000000E+00 0. -1.
         21   -1    0    0  502  503 -0.00000000000E+00 -0.00000000000E+00 -0.20782024463E+03  0.20782024463E+03  0.00000000000E+00 0. -1.
          6    1    1    2  501    0 -0.69010485746E+02 -0.39242284521E+02  0.12236800241E+03  0.22628595195E+03  0.17300000000E+03 0. -1.
         -6    1    1    2    0  503  0.69010485746E+02  0.39242284521E+02 -0.97746441088E+02  0.21397609862E+03  0.17300000000E+03 0. -1.
<mgrwt>
<rscale>  2 0.19034549E+03</rscale>
<asrwt>0</asrwt>
<pdfrwt beam="1">  1       21 0.35760278E-01 0.19034549E+03</pdfrwt>
<pdfrwt beam="2">  1       21 0.31972345E-01 0.19034549E+03</pdfrwt>
<totfact> 0.71012454E+04</totfact>
</mgrwt>
</event>
<event>
 4    1  0.3935877E+000  0.2473138E+03  0.7546771E-02  0.1115014E+00
         21   -1    0    0  503  502  0.00000000000E+00  0.00000000000E+00  0.48160714607E+03  0.48160714607E+03  0.00000000000E+00 0. -1.
         21   -1    0    0  501  503 -0.00000000000E+00 -0.00000000000E+00 -0.26235071346E+03  0.26235071346E+03  0.00000000000E+00 0. -1.
          6    1    1    2  501    0 -0.17418051682E+03 -0.29937458064E+02 -0.15755397218E+03  0.29323601072E+03  0.17300000000E+03 0. -1.
         -6    1    1    2    0  502  0.17418051682E+03  0.29937458064E+02  0.37681040479E+03  0.45072184881E+03  0.17300000000E+03 0. -1.
<mgrwt>
<rscale>  2 0.24731378E+03</rscale>
<asrwt>0</asrwt>
<pdfrwt beam="1">  1       21 0.74093407E-01 0.24731378E+03</pdfrwt>
<pdfrwt beam="2">  1       21 0.40361648E-01 0.24731378E+03</pdfrwt>
<totfact> 0.93320886E+03</totfact>
</mgrwt>
</event>
<event>
 4    1  0.3935877E+000  0.2163978E+03  0.7546771E-02  0.1136597E+00
         21   -1    0    0  501  502  0.00000000000E+00  0.00000000000E+00  0.19134038411E+04  0.19134038411E+04  0.00000000000E+00 0. -1.
         21   -1    0    0  502  503 -0.00000000000E+00 -0.00000000000E+00 -0.30628934819E+02  0.30628934819E+02  0.00000000000E+00 0. -1.
          6    1    1    2  501    0 -0.23813192833E+02  0.12779651701E+03  0.13771309785E+04  0.13940293217E+04  0.17300000000E+03 0. -1.
         -6    1    1    2    0  503  0.23813192833E+02 -0.12779651701E+03  0.50564392780E+03  0.55000345420E+03  0.17300000000E+03 0. -1.
<mgrwt>
<rscale>  2 0.21639782E+03</rscale>
<asrwt>0</asrwt>
<pdfrwt beam="1">  1       21 0.29436973E+00 0.21639782E+03</pdfrwt>
<pdfrwt beam="2">  1       21 0.47121453E-02 0.21639782E+03</pdfrwt>
<totfact> 0.10679198E+04</totfact>
</mgrwt>
</event>
<event>
 4    1  0.3935877E+000  0.1997756E+03  0.7546771E-02  0.1149928E+00
         21   -1    0    0  503  502  0.00000000000E+00  0.00000000000E+00  0.61541858456E+03  0.61541858456E+03  0.00000000000E+00 0. -1.
         21   -1    0    0  501  503 -0.00000000000E+00 -0.00000000000E+00 -0.75303348527E+02  0.75303348527E+02  0.00000000000E+00 0. -1.
          6    1    1    2  501    0 -0.99629917501E+02  0.74275276036E+01  0.14138665773E+03  0.24474573666E+03  0.17300000000E+03 0. -1.
         -6    1    1    2    0  502  0.99629917501E+02 -0.74275276036E+01  0.39872857830E+03  0.44597619643E+03  0.17300000000E+03 0. -1.
<mgrwt>
<rscale>  2 0.19977560E+03</rscale>
<asrwt>0</asrwt>
<pdfrwt beam="1">  1       21 0.94679779E-01 0.19977560E+03</pdfrwt>
<pdfrwt beam="2">  1       21 0.11585131E-01 0.19977560E+03</pdfrwt>
<totfact> 0.58142137E+04</totfact>
</mgrwt>
</event>
<event>
 4    1  0.3935877E+000  0.2306236E+03  0.7546771E-02  0.1126202E+00
         21   -1    0    0  503  502  0.00000000000E+00  0.00000000000E+00  0.79402416856E+02  0.79402416856E+02  0.00000000000E+00 0.  1.
         21   -1    0    0  501  503 -0.00000000000E+00 -0.00000000000E+00 -0.70051210533E+03  0.70051210533E+03  0.00000000000E+00 0.  1.
          6    1    1    2  501    0  0.49048091506E+02  0.14440406120E+03 -0.39214753699E+03  0.45493619216E+03  0.17300000000E+03 0.  1.
         -6    1    1    2    0  502 -0.49048091506E+02 -0.14440406120E+03 -0.22896215148E+03  0.32497833002E+03  0.17300000000E+03 0.  1.
<mgrwt>
<rscale>  2 0.23062361E+03</rscale>
<asrwt>0</asrwt>
<pdfrwt beam="1">  1       21 0.12215757E-01 0.23062361E+03</pdfrwt>
<pdfrwt beam="2">  1       21 0.10777109E+00 0.23062361E+03</pdfrwt>
<totfact> 0.38236214E+04</totfact>
</mgrwt>
</event>
<event>
 4    1  0.3935877E+000  0.2081494E+03  0.7546771E-02  0.1143040E+00
         21   -1    0    0  501  502  0.00000000000E+00  0.00000000000E+00  0.10272869680E+03  0.10272869680E+03  0.00000000000E+00 0. -1.
         21   -1    0    0  502  503 -0.00000000000E+00 -0.00000000000E+00 -0.43272578588E+03  0.43272578588E+03  0.00000000000E+00 0.  1.
          6    1    1    2  501    0 -0.97003820783E+02 -0.63146059815E+02 -0.12236623720E+03  0.24145322968E+03  0.17300000000E+03 0. -1.
         -6    1    1    2    0  503  0.97003820783E+02  0.63146059815E+02 -0.20763085188E+03  0.29400125300E+03  0.17300000000E+03 0. -1.
<mgrwt>
<rscale>  2 0.20814938E+03</rscale>
<asrwt>0</asrwt>
<pdfrwt beam="1">  1       21 0.15804415E-01 0.20814938E+03</pdfrwt>
<pdfrwt beam="2">  1       21 0.66573197E-01 0.20814938E+03</pdfrwt>
<totfact> 0.73266864E+04</totfact>
</mgrwt>
</event>
<event>
 4    1  0.3935877E+000  0.2103902E+03  0.7546771E-02  0.1141257E+00
         21   -1    0    0  503  502  0.00000000000E+00  0.00000000000E+00  0.34761590809E+03  0.34761590809E+03  0.00000000000E+00 0.  1.
         21   -1    0    0  501  503 -0.00000000000E+00 -0.00000000000E+00 -0.14511997565E+03  0.14511997565E+03  0.00000000000E+00 0. -1.
          6    1    1    2  501    0  0.11865209050E+03  0.16022748777E+02  0.15002941969E+02  0.21092447778E+03  0.17300000000E+03 0. -1.
         -6    1    1    2    0  502 -0.11865209050E+03 -0.16022748777E+02  0.18749299046E+03  0.28181140596E+03  0.17300000000E+03 0.  1.
<mgrwt>
<rscale>  2 0.21039023E+03</rscale>
<asrwt>0</asrwt>
<pdfrwt beam="1">  1       21 0.53479370E-01 0.21039023E+03</pdfrwt>
<pdfrwt beam="2">  1       21 0.22326150E-01 0.21039023E+03</pdfrwt>
<totfact> 0.61627776E+04</totfact>
</mgrwt>
</event>
<event>
 4    1  0.3935877E+000  0.1803680E+03  0.7546771E-02  0.1167447E+00
         21   -1    0    0  501  502  0.00000000000E+00  0.00000000000E+00  0.42031481542E+03  0.42031481542E+03  0.00000000000E+00 0. -1.
         21   -1    0    0  502  503 -0.00000000000E+00 -0.00000000000E+00 -0.77491859279E+02  0.77491859279E+02  0.00000000000E+00 0. -1.
          6    1    1    2  501    0 -0.24921561301E+02  0.44525722342E+02  0.17995253051E+03  0.25478527706E+03  0.17300000000E+03 0.  1.
         -6    1    1    2    0  503  0.24921561301E+02 -0.44525722342E+02  0.16287042563E+03  0.24302139765E+03  0.17300000000E+03 0.  1.
<mgrwt>
<rscale>  2 0.18036802E+03</rscale>
<asrwt>0</asrwt>
<pdfrwt beam="1">  1       21 0.64663816E-01 0.18036802E+03</pdfrwt>
<pdfrwt beam="2">  1       21 0.11921825E-01 0.18036802E+03</pdfrwt>
<totfact> 0.13143196E+05</totfact>
</mgrwt>
</event>
<event>
 4    1  0.3935877E+000  0.2000406E+03  0.7546771E-02  0.1149705E+00
         21   -1    0    0  503  502  0.00000000000E+00  0.00000000000E+00  0.15577391292E+03  0.15577391292E+03  0.00000000000E+00 0. -1.
         21   -1    0    0  501  503 -0.00000000000E+00 -0.00000000000E+00 -0.28274531690E+03  0.28274531690E+03  0.00000000000E+00 0. -1.
          6    1    1    2  501    0 -0.91923777491E+02 -0.40463024060E+02 -0.12979341996E+03  0.23845873658E+03  0.17300000000E+03 0. -1.
         -6    1    1    2    0  502  0.91923777491E+02  0.40463024060E+02  0.28220159757E+01  0.20006049325E+03  0.17300000000E+03 0. -1.
<mgrwt>
<rscale>  2 0.20004059E+03</rscale>
<asrwt>0</asrwt>
<pdfrwt beam="1">  1       21 0.23965217E-01 0.20004059E+03</pdfrwt>
<pdfrwt beam="2">  1       21 0.43499279E-01 0.20004059E+03</pdfrwt>
<totfact> 0.83130435E+04</totfact>
</mgrwt>
</event>
<event>
 4    1  0.3935877E+000  0.2639215E+03  0.7546771E-02  0.1104810E+00
         21   -1    0    0  501  502  0.00000000000E+00  0.00000000000E+00  0.56318229964E+02  0.56318229964E+02  0.00000000000E+00 0.  1.
         21   -1    0    0  502  503 -0.00000000000E+00 -0.00000000000E+00 -0.16228163448E+04  0.16228163448E+04  0.00000000000E+00 0.  1.
          6    1    1    2  501    0 -0.12113756273E+03 -0.15827590027E+03 -0.37377928968E+03  0.45756477913E+03  0.17300000000E+03 0.  1.
         -6    1    1    2    0  503  0.12113756273E+03  0.15827590027E+03 -0.11927188252E+04  0.12215697956E+04  0.17300000000E+03 0.  1.
<mgrwt>
<rscale>  2 0.26392152E+03</rscale>
<asrwt>0</asrwt>
<pdfrwt beam="1">  1       21 0.86643429E-02 0.26392152E+03</pdfrwt>
<pdfrwt beam="2">  1       21 0.24966406E+00 0.26392152E+03</pdfrwt>
<totfact> 0.65565151E+03</totfact>
</mgrwt>
</event>
<event>
 4    1  0.3935877E+000  0.2366494E+03  0.7546771E-02  0.1122045E+00
         21   -1    0    0  503  502  0.00000000000E+00  0.00000000000E+00  0.65083195168E+03  0.65083195168E+03  0.00000000000E+00 0.  1.
         21   -1    0    0  501  503 -0.00000000000E+00 -0.00000000000E+00 -0.87853591628E+02  0.87853591628E+02  0.00000000000E+00 0. -1.
          6    1    1    2  501    0 -0.50432929746E+02 -0.15339643144E+03  0.22854351005E+03  0.32899100530E+03  0.17300000000E+03 0. -1.
         -6    1    1    2    0  502  0.50432929746E+02  0.15339643144E+03  0.33443485000E+03  0.40969453801E+03  0.17300000000E+03 0.  1.
<mgrwt>
<rscale>  2 0.23664941E+03</rscale>
<asrwt>0</asrwt>
<pdfrwt beam="1">  1       21 0.10012799E+00 0.23664941E+03</pdfrwt>
<pdfrwt beam="2">  1       21 0.13515938E-01 0.23664941E+03</pdfrwt>
<totfact> 0.37921010E+04</totfact>
</mgrwt>
</event>
<event>
 4    1  0.3935877E+000  0.1918615E+03  0.7546771E-02  0.1156793E+00
         21   -1    0    0  501  502  0.00000000000E+00  0.00000000000E+00  0.13766010539E+04  0.13766010539E+04  0.00000000000E+00 0.  1.
         21   -1    0    0  502  503 -0.00000000000E+00 -0.00000000000E+00 -0.32888897935E+02  0.32888897935E+02  0.00000000000E+00 0.  1.
          6    1    1    2  501    0  0.70707771687E+02 -0.43384666264E+02  0.97657048429E+03  0.99523903110E+03  0.17300000000E+03 0.  1.
         -6    1    1    2    0  503 -0.70707771687E+02  0.43384666264E+02  0.36714167164E+03  0.41425092070E+03  0.17300000000E+03 0.  1.
<mgrwt>
<rscale>  2 0.19186146E+03</rscale>
<asrwt>0</asrwt>
<pdfrwt beam="1">  1       21 0.21178473E+00 0.19186146E+03</pdfrwt>
<pdfrwt beam="2">  1       21 0.50598315E-02 0.19186146E+03</pdfrwt>
<totfact> 0.29831758E+04</totfact>
</mgrwt>
</event>
<event>
 4    1  0.3935877E+000  0.2373530E+03  0.7546771E-02  0.1121569E+00
         21   -1    0    0  503  502  0.00000000000E+00  0.00000000000E+00  0.31289462946E+03  0.31289462946E+03  0.00000000000E+00 0.  1.
         21   -1    0    0  501  503 -0.00000000000E+00 -0.00000000000E+00 -0.31070199158E+03  0.31070199158E+03  0.00000000000E+00 0. -1.
          6    1    1    2  501    0 -0.61760267935E+02 -0.15031008709E+03 -0.20109427670E+03  0.31108738499E+03  0.17300000000E+03 0. -1.
         -6    1    1    2    0  502  0.61760267935E+02  0.15031008709E+03  0.20328691459E+03  0.31250923606E+03  0.17300000000E+03 0.  1.
<mgrwt>
<rscale>  2 0.23735301E+03</rscale>
<asrwt>0</asrwt>
<pdfrwt beam="1">  1       21 0.48137636E-01 0.23735301E+03</pdfrwt>
<pdfrwt beam="2">  1       21 0.47800306E-01 0.23735301E+03</pdfrwt>
<totfact> 0.16809674E+04</totfact>
</mgrwt>
</event>
<event>
 4    1  0.3935877E+000  0.2226097E+03  0.7546771E-02  0.1131952E+00
         21   -1    0    0  503  502  0.00000000000E+00  0.00000000000E+00  0.52085984267E+03  0.52085984267E+03  0.00000000000E+00 0.  1.
         21   -1    0    0  501  503 -0.00000000000E+00 -0.00000000000E+00 -0.95183001027E+02  0.95183001027E+02  0.00000000000E+00 0. -1.
          6    1    1    2  501    0  0.76899423044E+02  0.11710067069E+03  0.21931443131E+03  0.31249625297E+03  0.17300000000E+03 0.  1.
         -6    1    1    2    0  502 -0.76899423044E+02 -0.11710067069E+03  0.20636241033E+03  0.30354659072E+03  0.17300000000E+03 0.  1.
<mgrwt>
<rscale>  2 0.22260972E+03</rscale>
<asrwt>0</asrwt>
<pdfrwt beam="1">  1       21 0.80132282E-01 0.22260972E+03</pdfrwt>
<pdfrwt beam="2">  1       21 0.14643539E-01 0.22260972E+03</pdfrwt>
<totfact> 0.55368341E+04</totfact>
</mgrwt>
</event>
<event>
 4    1  0.3935877E+000  0.2114031E+03  0.7546771E-02  0.1140460E+00
         21   -1    0    0  503  502  0.00000000000E+00  0.00000000000E+00  0.58102070605E+03  0.58102070605E+03  0.00000000000E+00 0.  1.
         21   -1    0    0  501  503 -0.00000000000E+00 -0.00000000000E+00 -0.11475426437E+03  0.11475426437E+03  0.00000000000E+00 0. -1.
          6    1    1    2  501    0 -0.11141925886E+03 -0.48456572985E+02  0.33374772429E+02  0.21402141516E+03  0.17300000000E+03 0. -1.
         -6    1    1    2    0  502  0.11141925886E+03  0.48456572985E+02  0.43289166925E+03  0.48175355527E+03  0.17300000000E+03 0.  1.
<mgrwt>
<rscale>  2 0.21140315E+03</rscale>
<asrwt>0</asrwt>
<pdfrwt beam="1">  1       21 0.89387799E-01 0.21140315E+03</pdfrwt>
<pdfrwt beam="2">  1       21 0.17654502E-01 0.21140315E+03</pdfrwt>
<totfact> 0.30735645E+04</totfact>
</mgrwt>
</event>
<event>
 4    1  0.3935877E+000  0.2835118E+03  0.7546771E-02  0.1093786E+00
         21   -1    0    0  501  502  0.00000000000E+00  0.00000000000E+00  0.52510463835E+03  0.52510463835E+03  0.00000000000E+00 0. -1.
         21   -1    0    0  502  503 -0.00000000000E+00 -0.00000000000E+00 -0.15979067891E+03  0.15979067891E+03  0.00000000000E+00 0. -1.
          6    1    1    2  501    0 -0.22425385833E+03  0.12654753207E+02  0.25287573492E+03  0.37990139914E+03  0.17300000000E+03 0. -1.
         -6    1    1    2    0  503  0.22425385833E+03 -0.12654753207E+02  0.11243822452E+03  0.30499391812E+03  0.17300000000E+03 0. -1.
<mgrwt>
<rscale>  2 0.28351179E+03</rscale>
<asrwt>0</asrwt>
<pdfrwt beam="1">  1       21 0.80785328E-01 0.28351179E+03</pdfrwt>
<pdfrwt beam="2">  1       21 0.24583182E-01 0.28351179E+03</pdfrwt>
<totfact> 0.20076977E+04</totfact>
</mgrwt>
</event>
<event>
 4    1  0.3935877E+000  0.2302320E+03  0.7546771E-02  0.1126477E+00
         21   -1    0    0  501  502  0.00000000000E+00  0.00000000000E+00  0.80605181133E+02  0.80605181133E+02  0.00000000000E+00 0.  1.
         21   -1    0    0  502  503 -0.00000000000E+00 -0.00000000000E+00 -0.10891210945E+04  0.10891210945E+04  0.00000000000E+00 0.  1.
          6    1    1    2  501    0  0.10228209277E+03  0.11232167089E+03 -0.13611874416E+03  0.26746045832E+03  0.17300000000E+03 0.  1.
         -6    1    1    2    0  503 -0.10228209277E+03 -0.11232167089E+03 -0.87239716921E+03  0.90226581731E+03  0.17300000000E+03 0.  1.
<mgrwt>
<rscale>  2 0.23023202E+03</rscale>
<asrwt>0</asrwt>
<pdfrwt beam="1">  1       21 0.12400798E-01 0.23023202E+03</pdfrwt>
<pdfrwt beam="2">  1       21 0.16755708E+00 0.23023202E+03</pdfrwt>
<totfact> 0.11956165E+04</totfact>
</mgrwt>
</event>
<event>
 4    1  0.3935877E+000  0.2118551E+03  0.7546771E-02  0.1140105E+00
         21   -1    0    0  503  502  0.00000000000E+00  0.00000000000E+00  0.66057858473E+03  0.66057858473E+03  0.00000000000E+00 0.  1.
         21   -1    0    0  501  503 -0.00000000000E+00 -0.00000000000E+00 -0.27635714701E+03  0.27635714701E+03  0.00000000000E+00 0.  1.
          6    1    1    2  501    0 -0.94081285516E+02  0.78117121944E+02 -0.21471337146E+03  0.30163621286E+03  0.17300000000E+03 0.  1.
         -6    1    1    2    0  502  0.94081285516E+02 -0.78117121944E+02  0.59893480919E+03  0.63529951888E+03  0.17300000000E+03 0.  1.
<mgrwt>
<rscale>  2 0.21185508E+03</rscale>
<asrwt>0</asrwt>
<pdfrwt beam="1">  1       21 0.10162747E+00 0.21185508E+03</pdfrwt>
<pdfrwt beam="2">  1       21 0.42516484E-01 0.21185508E+03</pdfrwt>
<totfact> 0.41403192E+03</totfact>
</mgrwt>
</event>
<event>
 4    1  0.3935877E+000  0.1942472E+03  0.7546771E-02  0.1154685E+00
         21   -1    0    0  503  502  0.00000000000E+00  0.00000000000E+00  0.12007696923E+03  0.12007696923E+03  0.00000000000E+00 0. -1.
         21   -1    0    0  501  503 -0.00000000000E+00 -0.00000000000E+00 -0.42295655794E+03  0.42295655794E+03  0.00000000000E+00 0.  1.
          6    1    1    2  501    0 -0.79928348835E+02  0.37608842683E+02 -0.28910164173E+03  0.34829832794E+03  0.17300000000E+03 0.  1.
         -6    1    1    2    0  502  0.79928348835E+02 -0.37608842683E+02 -0.13777946968E+02  0.19473519923E+03  0.17300000000E+03 0. -1.
<mgrwt>
<rscale>  2 0.19424718E+03</rscale>
<asrwt>0</asrwt>
<pdfrwt beam="1">  1       21 0.18473380E-01 0.19424718E+03</pdfrwt>
<pdfrwt beam="2">  1       21 0.65070241E-01 0.19424718E+03</pdfrwt>
<totfact> 0.58142408E+04</totfact>
</mgrwt>
</event>
<event>
 4    1  0.3935877E+000  0.2547290E+03  0.7546771E-02  0.1110352E+00
         21   -1    0    0  501  502  0.00000000000E+00  0.00000000000E+00  0.15463942259E+03  0.15463942259E+03  0.00000000000E+00 0. -1.
         21   -1    0    0  502  503 -0.00000000000E+00 -0.00000000000E+00 -0.93591053164E+03  0.93591053164E+03  0.00000000000E+00 0. -1.
          6    1    1    2  501    0  0.13969248398E+03  0.12427328640E+03  0.14363041247E+02  0.25513356649E+03  0.17300000000E+03 0. -1.
         -6    1    1    2    0  503 -0.13969248398E+03 -0.12427328640E+03 -0.79563415029E+03  0.83541638774E+03  0.17300000000E+03 0. -1.
<mgrwt>
<rscale>  2 0.25472895E+03</rscale>
<asrwt>0</asrwt>
<pdfrwt beam="1">  1       21 0.23790681E-01 0.25472895E+03</pdfrwt>
<pdfrwt beam="2">  1       21 0.14398623E+00 0.25472895E+03</pdfrwt>
<totfact> 0.52908199E+03</totfact>
</mgrwt>
</event>
<event>
 4    1  0.3935877E+000  0.2958155E+03  0.7546771E-02  0.1087351E+00
         21   -1    0    0  503  502  0.00000000000E+00  0.00000000000E+00  0.39889888338E+03  0.39889888338E+03  0.00000000000E+00 0. -1.
         21   -1    0    0  501  503 -0.00000000000E+00 -0.00000000000E+00 -0.27552945411E+03  0.27552945411E+03  0.00000000000E+00 0. -1.
          6    1    1    2  501    0 -0.10130313462E+03  0.21752123970E+03 -0.90555603197E+02  0.30936569311E+03  0.17300000000E+03 0. -1.
         -6    1    1    2    0  502  0.10130313462E+03 -0.21752123970E+03  0.21392503247E+03  0.36506264438E+03  0.17300000000E+03 0. -1.
<mgrwt>
<rscale>  2 0.29581551E+03</rscale>
<asrwt>0</asrwt>
<pdfrwt beam="1">  1       21 0.61369059E-01 0.29581551E+03</pdfrwt>
<pdfrwt beam="2">  1       21 0.42389147E-01 0.29581551E+03</pdfrwt>
<totfact> 0.12495793E+04</totfact>
</mgrwt>
</event>
<event>
 4    1  0.3935877E+000  0.1961626E+03  0.7546771E-02  0.1153018E+00
         21   -1    0    0  503  502  0.00000000000E+00  0.00000000000E+00  0.63043258983E+03  0.63043258983E+03  0.00000000000E+00 0. -1.
         21   -1    0    0  501  503 -0.00000000000E+00 -0.00000000000E+00 -0.14712990880E+03  0.14712990880E+03  0.00000000000E+00 0. -1.
          6    1    1    2  501    0 -0.91009814429E+02 -0.16370066763E+02 -0.55746844069E+02  0.20393007633E+03  0.17300000000E+03 0. -1.
         -6    1    1    2    0  502  0.91009814429E+02  0.16370066763E+02  0.53904952509E+03  0.57363242230E+03  0.17300000000E+03 0. -1.
<mgrwt>
<rscale>  2 0.19616260E+03</rscale>
<asrwt>0</asrwt>
<pdfrwt beam="1">  1       21 0.96989628E-01 0.19616260E+03</pdfrwt>
<pdfrwt beam="2">  1       21 0.22635371E-01 0.19616260E+03</pdfrwt>
<totfact> 0.16105122E+04</totfact>
</mgrwt>
</event>
<event>
 4    1  0.3935877E+000  0.1884243E+03  0.7546771E-02  0.1159890E+00
         21   -1    0    0  503  502  0.00000000000E+00  0.00000000000E+00  0.28722752529E+02  0.28722752529E+02  0.00000000000E+00 0. -1.
         21   -1    0    0  501  503 -0.00000000000E+00 -0.00000000000E+00 -0.17860498606E+04  0.17860498606E+04  0.00000000000E+00 0. -1.
          6    1    1    2  501    0 -0.87090724626E+01  0.74154404290E+02 -0.13821797581E+04  0.13949640165E+04  0.17300000000E+03 0. -1.
         -6    1    1    2    0  502  0.87090724626E+01 -0.74154404290E+02 -0.37514735001E+03  0.41980859667E+03  0.17300000000E+03 0. -1.
<mgrwt>
<rscale>  2 0.18842432E+03</rscale>
<asrwt>0</asrwt>
<pdfrwt beam="1">  1       21 0.44188863E-02 0.18842432E+03</pdfrwt>
<pdfrwt beam="2">  1       21 0.27477682E+00 0.18842432E+03</pdfrwt>
<totfact> 0.15875607E+04</totfact>
</mgrwt>
</event>
<event>
 4    1  0.3935877E+000  0.1828675E+03  0.7546771E-02  0.1165056E+00
         21   -1    0    0  503  502  0.00000000000E+00  0.00000000000E+00  0.66417432476E+03  0.66417432476E+03  0.00000000000E+00 0.  1.
         21   -1    0    0  501  503 -0.00000000000E+00 -0.00000000000E+00 -0.83564892181E+02  0.83564892181E+02  0.00000000000E+00 0.  1.
          6    1    1    2  501    0 -0.49085212533E+02 -0.33198828817E+02  0.54593024855E+02  0.19084265427E+03  0.17300000000E+03 0.  1.
         -6    1    1    2    0  502  0.49085212533E+02  0.33198828817E+02  0.52601640772E+03  0.55689656268E+03  0.17300000000E+03 0.  1.
<mgrwt>
<rscale>  2 0.18286749E+03</rscale>
<asrwt>0</asrwt>
<pdfrwt beam="1">  1       21 0.10218066E+00 0.18286749E+03</pdfrwt>
<pdfrwt beam="2">  1       21 0.12856138E-01 0.18286749E+03</pdfrwt>
<totfact> 0.40649622E+04</totfact>
</mgrwt>
</event>
<event>
 4    1  0.3935877E+000  0.1883662E+03  0.7546771E-02  0.1159943E+00
         21   -1    0    0  503  502  0.00000000000E+00  0.00000000000E+00  0.10962611896E+03  0.10962611896E+03  0.00000000000E+00 0. -1.
         21   -1    0    0  501  503 -0.00000000000E+00 -0.00000000000E+00 -0.36634974646E+03  0.36634974646E+03  0.00000000000E+00 0. -1.
          6    1    1    2  501    0  0.62234660401E+02 -0.40983829316E+02 -0.20959953889E+03  0.28180453141E+03  0.17300000000E+03 0. -1.
         -6    1    1    2    0  502 -0.62234660401E+02  0.40983829316E+02 -0.47124088609E+02  0.19417133400E+03  0.17300000000E+03 0. -1.
<mgrwt>
<rscale>  2 0.18836621E+03</rscale>
<asrwt>0</asrwt>
<pdfrwt beam="1">  1       21 0.16865557E-01 0.18836621E+03</pdfrwt>
<pdfrwt beam="2">  1       21 0.56361500E-01 0.18836621E+03</pdfrwt>
<totfact> 0.93909968E+04</totfact>
</mgrwt>
</event>
<event>
 4    1  0.3935877E+000  0.2125120E+03  0.7546771E-02  0.1139592E+00
         21   -1    0    0  503  502  0.00000000000E+00  0.00000000000E+00  0.73026546390E+03  0.73026546390E+03  0.00000000000E+00 0. -1.
         21   -1    0    0  501  503 -0.00000000000E+00 -0.00000000000E+00 -0.17992289939E+03  0.17992289939E+03  0.00000000000E+00 0.  1.
          6    1    1    2  501    0  0.85992080609E+02 -0.88530794812E+02 -0.93506721401E+02  0.23217417278E+03  0.17300000000E+03 0.  1.
         -6    1    1    2    0  502 -0.85992080609E+02  0.88530794812E+02  0.64384928592E+03  0.67801419051E+03  0.17300000000E+03 0.  1.
<mgrwt>
<rscale>  2 0.21251198E+03</rscale>
<asrwt>0</asrwt>
<pdfrwt beam="1">  1       21 0.11234853E+00 0.21251198E+03</pdfrwt>
<pdfrwt beam="2">  1       21 0.27680446E-01 0.21251198E+03</pdfrwt>
<totfact> 0.76175178E+03</totfact>
</mgrwt>
</event>
<event>
 4    1  0.3935877E+000  0.1891918E+03  0.7546771E-02  0.1159192E+00
         21   -1    0    0  501  502  0.00000000000E+00  0.00000000000E+00  0.65260272582E+03  0.65260272582E+03  0.00000000000E+00 0. -1.
         21   -1    0    0  502  503 -0.00000000000E+00 -0.00000000000E+00 -0.55565647500E+02  0.55565647500E+02  0.00000000000E+00 0. -1.
          6    1    1    2  501    0  0.26692769432E+02 -0.71777723314E+02  0.25826089191E+03  0.32014408287E+03  0.17300000000E+03 0. -1.
         -6    1    1    2    0  503 -0.26692769432E+02  0.71777723314E+02  0.33877618641E+03  0.38802429045E+03  0.17300000000E+03 0. -1.
<mgrwt>
<rscale>  2 0.18919182E+03</rscale>
<asrwt>0</asrwt>
<pdfrwt beam="1">  1       21 0.10040041E+00 0.18919182E+03</pdfrwt>
<pdfrwt beam="2">  1       21 0.85485616E-02 0.18919182E+03</pdfrwt>
<totfact> 0.87055350E+04</totfact>
</mgrwt>
</event>
<event>
 4    1  0.3935877E+000  0.3170739E+03  0.7546771E-02  0.1077004E+00
         21   -1    0    0  501  502  0.00000000000E+00  0.00000000000E+00  0.42102032444E+03  0.42102032444E+03  0.00000000000E+00 0. -1.
         21   -1    0    0  502  503 -0.00000000000E+00 -0.00000000000E+00 -0.91920035097E+03  0.91920035097E+03  0.00000000000E+00 0.  1.
          6    1    1    2  501    0 -0.16901010882E+03 -0.20504256370E+03  0.32744589247E+03  0.45580333731E+03  0.17300000000E+03 0. -1.
         -6    1    1    2    0  503  0.16901010882E+03  0.20504256370E+03 -0.82562591899E+03  0.88441733810E+03  0.17300000000E+03 0.  1.
<mgrwt>
<rscale>  2 0.31707392E+03</rscale>
<asrwt>0</asrwt>
<pdfrwt beam="1">  1       21 0.64772358E-01 0.31707392E+03</pdfrwt>
<pdfrwt beam="2">  1       21 0.14141544E+00 0.31707392E+03</pdfrwt>
<totfact> 0.68954803E+02</totfact>
</mgrwt>
</event>
<event>
 4    1  0.3935877E+000  0.1778852E+03  0.7546771E-02  0.1169866E+00
         21   -1    0    0  501  502  0.00000000000E+00  0.00000000000E+00  0.66792475733E+03  0.66792475733E+03  0.00000000000E+00 0.  1.
         21   -1    0    0  502  503 -0.00000000000E+00 -0.00000000000E+00 -0.62645992142E+02  0.62645992142E+02  0.00000000000E+00 0.  1.
          6    1    1    2  501    0 -0.63536452212E+01  0.40911744941E+02  0.48298887146E+03  0.51470514825E+03  0.17300000000E+03 0.  1.
         -6    1    1    2    0  503  0.63536452212E+01 -0.40911744941E+02  0.12228989372E+03  0.21586560122E+03  0.17300000000E+03 0.  1.
<mgrwt>
<rscale>  2 0.17788519E+03</rscale>
<asrwt>0</asrwt>
<pdfrwt beam="1">  1       21 0.10275765E+00 0.17788519E+03</pdfrwt>
<pdfrwt beam="2">  1       21 0.96378454E-02 0.17788519E+03</pdfrwt>
<totfact> 0.67092142E+04</totfact>
</mgrwt>
</event>
<event>
 4    1  0.3935877E+000  0.2082260E+03  0.7546771E-02  0.1142979E+00
         21   -1    0    0  503  502  0.00000000000E+00  0.00000000000E+00  0.12436849030E+03  0.12436849030E+03  0.00000000000E+00 0.  1.
         21   -1    0    0  501  503 -0.00000000000E+00 -0.00000000000E+00 -0.36582025878E+03  0.36582025878E+03  0.00000000000E+00 0.  1.
          6    1    1    2  501    0  0.10490363785E+03  0.49236932107E+02 -0.17386267451E+03  0.27126790873E+03  0.17300000000E+03 0.  1.
         -6    1    1    2    0  502 -0.10490363785E+03 -0.49236932107E+02 -0.67589093968E+02  0.21892084035E+03  0.17300000000E+03 0.  1.
<mgrwt>
<rscale>  2 0.20822596E+03</rscale>
<asrwt>0</asrwt>
<pdfrwt beam="1">  1       21 0.19133614E-01 0.20822596E+03</pdfrwt>
<pdfrwt beam="2">  1       21 0.56280040E-01 0.20822596E+03</pdfrwt>
<totfact> 0.73965604E+04</totfact>
</mgrwt>
</event>
<event>
 4    1  0.3935877E+000  0.1999252E+03  0.7546771E-02  0.1149802E+00
         21   -1    0    0  503  502  0.00000000000E+00  0.00000000000E+00  0.52723336687E+03  0.52723336687E+03  0.00000000000E+00 0.  1.
         21   -1    0    0  501  503 -0.00000000000E+00 -0.00000000000E+00 -0.96304336859E+02  0.96304336859E+02  0.00000000000E+00 0.  1.
          6    1    1    2  501    0  0.57426736142E+02 -0.82117222109E+02  0.71645419138E+02  0.21237498505E+03  0.17300000000E+03 0.  1.
         -6    1    1    2    0  502 -0.57426736142E+02  0.82117222109E+02  0.35928361087E+03  0.41116271868E+03  0.17300000000E+03 0.  1.
<mgrwt>
<rscale>  2 0.19992516E+03</rscale>
<asrwt>0</asrwt>
<pdfrwt beam="1">  1       21 0.81112824E-01 0.19992516E+03</pdfrwt>
<pdfrwt beam="2">  1       21 0.14816052E-01 0.19992516E+03</pdfrwt>
<totfact> 0.53288231E+04</totfact>
</mgrwt>
</event>
<event>
 4    1  0.3935877E+000  0.2064478E+03  0.7546771E-02  0.1144410E+00
         21   -1    0    0  503  502  0.00000000000E+00  0.00000000000E+00  0.34125632071E+03  0.34125632071E+03  0.00000000000E+00 0. -1.
         21   -1    0    0  501  503 -0.00000000000E+00 -0.00000000000E+00 -0.15424530889E+03  0.15424530889E+03  0.00000000000E+00 0. -1.
          6    1    1    2  501    0  0.88874277366E+02  0.69231863038E+02 -0.14569862255E+02  0.20696127397E+03  0.17300000000E+03 0. -1.
         -6    1    1    2    0  502 -0.88874277366E+02 -0.69231863038E+02  0.20158087407E+03  0.28854035563E+03  0.17300000000E+03 0. -1.
<mgrwt>
<rscale>  2 0.20644779E+03</rscale>
<asrwt>0</asrwt>
<pdfrwt beam="1">  1       21 0.52500972E-01 0.20644779E+03</pdfrwt>
<pdfrwt beam="2">  1       21 0.23730048E-01 0.20644779E+03</pdfrwt>
<totfact> 0.57176574E+04</totfact>
</mgrwt>
</event>
<event>
 4    1  0.3935877E+000  0.1929106E+03  0.7546771E-02  0.1155862E+00
         21   -1    0    0  503  502  0.00000000000E+00  0.00000000000E+00  0.30918351155E+03  0.30918351155E+03  0.00000000000E+00 0. -1.
         21   -1    0    0  501  503 -0.00000000000E+00 -0.00000000000E+00 -0.26847421665E+03  0.26847421665E+03  0.00000000000E+00 0. -1.
          6    1    1    2  501    0 -0.78798008713E+02 -0.32808269138E+02 -0.19417240813E+03  0.27371049081E+03  0.17300000000E+03 0. -1.
         -6    1    1    2    0  502  0.78798008713E+02  0.32808269138E+02  0.23488170303E+03  0.30394723739E+03  0.17300000000E+03 0. -1.
<mgrwt>
<rscale>  2 0.19291062E+03</rscale>
<asrwt>0</asrwt>
<pdfrwt beam="1">  1       21 0.47566694E-01 0.19291062E+03</pdfrwt>
<pdfrwt beam="2">  1       21 0.41303726E-01 0.19291062E+03</pdfrwt>
<totfact> 0.23855972E+04</totfact>
</mgrwt>
</event>
<event>
 4    1  0.3935877E+000  0.1834602E+03  0.7546771E-02  0.1164496E+00
         21   -1    0    0  501  502  0.00000000000E+00  0.00000000000E+00  0.12413992580E+03  0.12413992580E+03  0.00000000000E+00 0. -1.
         21   -1    0    0  502  503 -0.00000000000E+00 -0.00000000000E+00 -0.40102808095E+03  0.40102808095E+03  0.00000000000E+00 0. -1.
          6    1    1    2  501    0  0.58893491518E+02 -0.16130267722E+02  0.11003204260E+02  0.18378982394E+03  0.17300000000E+03 0. -1.
         -6    1    1    2    0  503 -0.58893491518E+02  0.16130267722E+02 -0.28789135940E+03  0.34137818281E+03  0.17300000000E+03 0. -1.
<mgrwt>
<rscale>  2 0.18346016E+03</rscale>
<asrwt>0</asrwt>
<pdfrwt beam="1">  1       21 0.19098450E-01 0.18346016E+03</pdfrwt>
<pdfrwt beam="2">  1       21 0.61696629E-01 0.18346016E+03</pdfrwt>
<totfact> 0.61637458E+04</totfact>
</mgrwt>
</event>
<event>
 4    1  0.3935877E+000  0.2110064E+03  0.7546771E-02  0.1140772E+00
         21   -1    0    0  503  502  0.00000000000E+00  0.00000000000E+00  0.12457829020E+03  0.12457829020E+03  0.00000000000E+00 0.  1.
         21   -1    0    0  501  503 -0.00000000000E+00 -0.00000000000E+00 -0.35890789984E+03  0.35890789984E+03  0.00000000000E+00 0. -1.
          6    1    1    2  501    0 -0.59799365671E+02 -0.10497007591E+03 -0.10147053116E+03  0.23413660471E+03  0.17300000000E+03 0.  1.
         -6    1    1    2    0  502  0.59799365671E+02  0.10497007591E+03 -0.13285907848E+03  0.24934958533E+03  0.17300000000E+03 0. -1.
<mgrwt>
<rscale>  2 0.21100635E+03</rscale>
<asrwt>0</asrwt>
<pdfrwt beam="1">  1       21 0.19165891E-01 0.21100635E+03</pdfrwt>
<pdfrwt beam="2">  1       21 0.55216600E-01 0.21100635E+03</pdfrwt>
<totfact> 0.76692580E+04</totfact>
</mgrwt>
</event>
<event>
 4    1  0.3935877E+000  0.1806620E+03  0.7546771E-02  0.1167164E+00
         21   -1    0    0  501  502  0.00000000000E+00  0.00000000000E+00  0.11012423599E+04  0.11012423599E+04  0.00000000000E+00 0. -1.
         21   -1    0    0  502  503 -0.00000000000E+00 -0.00000000000E+00 -0.53386275045E+02  0.53386275045E+02  0.00000000000E+00 0. -1.
          6    1    1    2  501    0  0.45063929637E+02 -0.26057979271E+02  0.90897373264E+03  0.92675348538E+03  0.17300000000E+03 0. -1.
         -6    1    1    2    0  503 -0.45063929637E+02  0.26057979271E+02  0.13888235225E+03  0.22787514960E+03  0.17300000000E+03 0. -1.
<mgrwt>
<rscale>  2 0.18066205E+03</rscale>
<asrwt>0</asrwt>
<pdfrwt beam="1">  1       21 0.16942188E+00 0.18066205E+03</pdfrwt>
<pdfrwt beam="2">  1       21 0.82132739E-02 0.18066205E+03</pdfrwt>
<totfact> 0.24891944E+04</totfact>
</mgrwt>
</event>
<event>
 4    1  0.3935877E+000  0.2845326E+03  0.7546771E-02  0.1093239E+00
         21   -1    0    0  503  502  0.00000000000E+00  0.00000000000E+00  0.12941451052E+04  0.12941451052E+04  0.00000000000E+00 0. -1.
         21   -1    0    0  501  503 -0.00000000000E+00 -0.00000000000E+00 -0.70141980199E+02  0.70141980199E+02  0.00000000000E+00 0. -1.
          6    1    1    2  501    0 -0.17529175405E+02  0.22521667219E+03  0.38769490064E+03  0.48090140092E+03  0.17300000000E+03 0. -1.
         -6    1    1    2    0  502  0.17529175405E+02 -0.22521667219E+03  0.83630822440E+03  0.88338568452E+03  0.17300000000E+03 0. -1.
<mgrwt>
<rscale>  2 0.28453264E+03</rscale>
<asrwt>0</asrwt>
<pdfrwt beam="1">  1       21 0.19909923E+00 0.28453264E+03</pdfrwt>
<pdfrwt beam="2">  1       21 0.10791075E-01 0.28453264E+03</pdfrwt>
<totfact> 0.90366028E+03</totfact>
</mgrwt>
</event>
<event>
 4    1  0.3935877E+000  0.2156316E+03  0.7546771E-02  0.1137182E+00
         21   -1    0    0  501  502  0.00000000000E+00  0.00000000000E+00  0.14007007704E+04  0.14007007704E+04  0.00000000000E+00 0. -1.
         21   -1    0    0  502  503 -0.00000000000E+00 -0.00000000000E+00 -0.33307907025E+02  0.33307907025E+02  0.00000000000E+00 0. -1.
          6    1    1    2  501    0 -0.11141129681E+03 -0.64463237497E+02  0.72534616803E+03  0.75671926731E+03  0.17300000000E+03 0. -1.
         -6    1    1    2    0  503  0.11141129681E+03  0.64463237497E+02  0.64204669533E+03  0.67728941010E+03  0.17300000000E+03 0. -1.
<mgrwt>
<rscale>  2 0.21563160E+03</rscale>
<asrwt>0</asrwt>
<pdfrwt beam="1">  1       21 0.21549238E+00 0.21563160E+03</pdfrwt>
<pdfrwt beam="2">  1       21 0.51242945E-02 0.21563160E+03</pdfrwt>
<totfact> 0.27206960E+04</totfact>
</mgrwt>
</event>
<event>
 4    1  0.3935877E+000  0.2053530E+03  0.7546771E-02  0.1145300E+00
         21   -1    0    0  503  502  0.00000000000E+00  0.00000000000E+00  0.11681486576E+04  0.11681486576E+04  0.00000000000E+00 0.  1.
         21   -1    0    0  501  503 -0.00000000000E+00 -0.00000000000E+00 -0.10379806177E+03  0.10379806177E+03  0.00000000000E+00 0.  1.
          6    1    1    2  501    0 -0.46128705461E+02  0.10056336554E+03  0.18565507037E+02  0.20619050902E+03  0.17300000000E+03 0.  1.
         -6    1    1    2    0  502  0.46128705461E+02 -0.10056336554E+03  0.10457850888E+04  0.10657562103E+04  0.17300000000E+03 0.  1.
<mgrwt>
<rscale>  2 0.20535298E+03</rscale>
<asrwt>0</asrwt>
<pdfrwt beam="1">  1       21 0.17971517E+00 0.20535298E+03</pdfrwt>
<pdfrwt beam="2">  1       21 0.15968933E-01 0.20535298E+03</pdfrwt>
<totfact> 0.63270112E+03</totfact>
</mgrwt>
</event>
<event>
 4    1  0.3935877E+000  0.2822496E+03  0.7546771E-02  0.1094467E+00
         21   -1    0    0  503  502  0.00000000000E+00  0.00000000000E+00  0.21681002844E+04  0.21681002844E+04  0.00000000000E+00 0.  1.
         21   -1    0    0  501  503 -0.00000000000E+00 -0.00000000000E+00 -0.68860032160E+02  0.68860032160E+02  0.00000000000E+00 0. -1.
          6    1    1    2  501    0  0.22276659148E+03 -0.10529485240E+02  0.28577527469E+03  0.40166196231E+03  0.17300000000E+03 0. -1.
         -6    1    1    2    0  502 -0.22276659148E+03  0.10529485240E+02  0.18134649775E+04  0.18352983542E+04  0.17300000000E+03 0.  1.
<mgrwt>
<rscale>  2 0.28224958E+03</rscale>
<asrwt>0</asrwt>
<pdfrwt beam="1">  1       21 0.33355384E+00 0.28224958E+03</pdfrwt>
<pdfrwt beam="2">  1       21 0.10593853E-01 0.28224958E+03</pdfrwt>
<totfact> 0.14452876E+03</totfact>
</mgrwt>
</event>
<event>
 4    1  0.3935877E+000  0.2372802E+03  0.7546771E-02  0.1121618E+00
         21   -1    0    0  503  502  0.00000000000E+00  0.00000000000E+00  0.18763622756E+03  0.18763622756E+03  0.00000000000E+00 0.  1.
         21   -1    0    0  501  503 -0.00000000000E+00 -0.00000000000E+00 -0.30285151524E+03  0.30285151524E+03  0.00000000000E+00 0.  1.
          6    1    1    2  501    0 -0.74105546015E+02  0.14450349192E+03 -0.34057106467E+02  0.23971186376E+03  0.17300000000E+03 0.  1.
         -6    1    1    2    0  502  0.74105546015E+02 -0.14450349192E+03 -0.81158181219E+02  0.25077587904E+03  0.17300000000E+03 0.  1.
<mgrwt>
<rscale>  2 0.23728020E+03</rscale>
<asrwt>0</asrwt>
<pdfrwt beam="1">  1       21 0.28867112E-01 0.23728020E+03</pdfrwt>
<pdfrwt beam="2">  1       21 0.46592541E-01 0.23728020E+03</pdfrwt>
<totfact> 0.49637156E+04</totfact>
</mgrwt>
</event>
<event>
 4    1  0.3935877E+000  0.1742374E+03  0.7546771E-02  0.1173500E+00
         21   -1    0    0  501  502  0.00000000000E+00  0.00000000000E+00  0.15158741883E+02  0.15158741883E+02  0.00000000000E+00 0. -1.
         21   -1    0    0  502  503 -0.00000000000E+00 -0.00000000000E+00 -0.23399801310E+04  0.23399801310E+04  0.00000000000E+00 0. -1.
          6    1    1    2  501    0  0.14246522426E+02  0.15056427999E+02 -0.71535119669E+03  0.73626489393E+03  0.17300000000E+03 0. -1.
         -6    1    1    2    0  503 -0.14246522426E+02 -0.15056427999E+02 -0.16094701924E+04  0.16188739789E+04  0.17300000000E+03 0. -1.
<mgrwt>
<rscale>  2 0.17423737E+03</rscale>
<asrwt>0</asrwt>
<pdfrwt beam="1">  1       21 0.23321156E-02 0.17423737E+03</pdfrwt>
<pdfrwt beam="2">  1       21 0.35999672E+00 0.17423737E+03</pdfrwt>
<totfact> 0.14947010E+04</totfact>
</mgrwt>
</event>
<event>
 4    1  0.3935877E+000  0.1941715E+03  0.7546771E-02  0.1154752E+00
         21   -1    0    0  501  502  0.00000000000E+00  0.00000000000E+00  0.10210374949E+03  0.10210374949E+03  0.00000000000E+00 0.  1.
         21   -1    0    0  502  503 -0.00000000000E+00 -0.00000000000E+00 -0.49623237372E+03  0.49623237372E+03  0.00000000000E+00 0.  1.
          6    1    1    2  501    0  0.72034055055E+02  0.50839560218E+02 -0.45731977764E+02  0.19948428450E+03  0.17300000000E+03 0.  1.
         -6    1    1    2    0  503 -0.72034055055E+02 -0.50839560218E+02 -0.34839664646E+03  0.39885183871E+03  0.17300000000E+03 0.  1.
<mgrwt>
<rscale>  2 0.19417149E+03</rscale>
<asrwt>0</asrwt>
<pdfrwt beam="1">  1       21 0.15708269E-01 0.19417149E+03</pdfrwt>
<pdfrwt beam="2">  1       21 0.76343444E-01 0.19417149E+03</pdfrwt>
<totfact> 0.55065815E+04</totfact>
</mgrwt>
</event>
<event>
 4    1  0.3935877E+000  0.3125243E+03  0.7546771E-02  0.1079142E+00
         21   -1    0    0  503  502  0.00000000000E+00  0.00000000000E+00  0.13962844432E+04  0.13962844432E+04  0.00000000000E+00 0.  1.
         21   -1    0    0  501  503 -0.00000000000E+00 -0.00000000000E+00 -0.77949450349E+02  0.77949450349E+02  0.00000000000E+00 0.  1.
          6    1    1    2  501    0  0.13623199014E+03 -0.22177298330E+03  0.42304662079E+03  0.52596564015E+03  0.17300000000E+03 0.  1.
         -6    1    1    2    0  502 -0.13623199014E+03  0.22177298330E+03  0.89528837208E+03  0.94826825341E+03  0.17300000000E+03 0.  1.
<mgrwt>
<rscale>  2 0.31252426E+03</rscale>
<asrwt>0</asrwt>
<pdfrwt beam="1">  1       21 0.21481297E+00 0.31252426E+03</pdfrwt>
<pdfrwt beam="2">  1       21 0.11992224E-01 0.31252426E+03</pdfrwt>
<totfact> 0.58235382E+03</totfact>
</mgrwt>
</event>
<event>
 4    1  0.3935877E+000  0.2021227E+03  0.7546771E-02  0.1147960E+00
         21   -1    0    0  501  502  0.00000000000E+00  0.00000000000E+00  0.70725113852E+02  0.70725113852E+02  0.00000000000E+00 0.  1.
         21   -1    0    0  502  503 -0.00000000000E+00 -0.00000000000E+00 -0.62080342360E+03  0.62080342360E+03  0.00000000000E+00 0.  1.
          6    1    1    2  501    0  0.89607907746E+02 -0.53805379831E+02 -0.18386637855E+03  0.27324062873E+03  0.17300000000E+03 0.  1.
         -6    1    1    2    0  503 -0.89607907746E+02  0.53805379831E+02 -0.36621193120E+03  0.41828790872E+03  0.17300000000E+03 0.  1.
<mgrwt>
<rscale>  2 0.20212273E+03</rscale>
<asrwt>0</asrwt>
<pdfrwt beam="1">  1       21 0.10880787E-01 0.20212273E+03</pdfrwt>
<pdfrwt beam="2">  1       21 0.95508217E-01 0.20212273E+03</pdfrwt>
<totfact> 0.63632049E+04</totfact>
</mgrwt>
</event>
<event>
 4    1  0.3935877E+000  0.2248177E+03  0.7546771E-02  0.1130341E+00
         21   -1    0    0  501  502  0.00000000000E+00  0.00000000000E+00  0.69863836976E+02  0.69863836976E+02  0.00000000000E+00 0. -1.
         21   -1    0    0  502  503 -0.00000000000E+00 -0.00000000000E+00 -0.83161723297E+03  0.83161723297E+03  0.00000000000E+00 0. -1.
          6    1    1    2  501    0 -0.22998135422E+02  0.14172192986E+03 -0.21831734341E+03  0.31337753919E+03  0.17300000000E+03 0. -1.
         -6    1    1    2    0  503  0.22998135422E+02 -0.14172192986E+03 -0.54343605258E+03  0.58810353075E+03  0.17300000000E+03 0. -1.
<mgrwt>
<rscale>  2 0.22481775E+03</rscale>
<asrwt>0</asrwt>
<pdfrwt beam="1">  1       21 0.10748282E-01 0.22481775E+03</pdfrwt>
<pdfrwt beam="2">  1       21 0.12794112E+00 0.22481775E+03</pdfrwt>
<totfact> 0.31550181E+04</totfact>
</mgrwt>
</event>
<event>
 4    1  0.3935877E+000  0.1994424E+03  0.7546771E-02  0.1150210E+00
         21   -1    0    0  503  502  0.00000000000E+00  0.00000000000E+00  0.82235669357E+03  0.82235669357E+03  0.00000000000E+00 0.  1.
         21   -1    0    0  501  503 -0.00000000000E+00 -0.00000000000E+00 -0.48422463901E+02  0.48422463901E+02  0.00000000000E+00 0.  1.
          6    1    1    2  501    0 -0.98917280919E+02 -0.79788093955E+01  0.40131555510E+03  0.44814223705E+03  0.17300000000E+03 0. -1.
         -6    1    1    2    0  502  0.98917280919E+02  0.79788093955E+01  0.37261867456E+03  0.42263692041E+03  0.17300000000E+03 0. -1.
<mgrwt>
<rscale>  2 0.19944245E+03</rscale>
<asrwt>0</asrwt>
<pdfrwt beam="1">  1       21 0.12651640E+00 0.19944245E+03</pdfrwt>
<pdfrwt beam="2">  1       21 0.74496104E-02 0.19944245E+03</pdfrwt>
<totfact> 0.62642225E+04</totfact>
</mgrwt>
</event>
<event>
 4    1  0.3935877E+000  0.2231161E+03  0.7546771E-02  0.1131581E+00
         21   -1    0    0  501  502  0.00000000000E+00  0.00000000000E+00  0.13823776251E+04  0.13823776251E+04  0.00000000000E+00 0.  1.
         21   -1    0    0  502  503 -0.00000000000E+00 -0.00000000000E+00 -0.15126765777E+03  0.15126765777E+03  0.00000000000E+00 0. -1.
          6    1    1    2  501    0  0.63675313167E+02 -0.12568708227E+03  0.12849075213E+04  0.13041350109E+04  0.17300000000E+03 0.  1.
         -6    1    1    2    0  503 -0.63675313167E+02  0.12568708227E+03 -0.53797553981E+02  0.22951027203E+03  0.17300000000E+03 0. -1.
<mgrwt>
<rscale>  2 0.22311609E+03</rscale>
<asrwt>0</asrwt>
<pdfrwt beam="1">  1       21 0.21267347E+00 0.22311609E+03</pdfrwt>
<pdfrwt beam="2">  1       21 0.23271948E-01 0.22311609E+03</pdfrwt>
<totfact> 0.18790817E+03</totfact>
</mgrwt>
</event>
<event>
 4    1  0.3935877E+000  0.1753333E+03  0.7546771E-02  0.1172397E+00
         21   -1    0    0  501  502  0.00000000000E+00  0.00000000000E+00  0.84893414899E+03  0.84893414899E+03  0.00000000000E+00 0.  1.
         21   -1    0    0  502  503 -0.00000000000E+00 -0.00000000000E+00 -0.37402981244E+02  0.37402981244E+02  0.00000000000E+00 0.  1.
          6    1    1    2  501    0  0.11360563462E+02 -0.26147589713E+02  0.48483980278E+03  0.51556899947E+03  0.17300000000E+03 0.  1.
         -6    1    1    2    0  503 -0.11360563462E+02  0.26147589713E+02  0.32669136496E+03  0.37076813077E+03  0.17300000000E+03 0.  1.
<mgrwt>
<rscale>  2 0.17533328E+03</rscale>
<asrwt>0</asrwt>
<pdfrwt beam="1">  1       21 0.13060524E+00 0.17533328E+03</pdfrwt>
<pdfrwt beam="2">  1       21 0.57543055E-02 0.17533328E+03</pdfrwt>
<totfact> 0.91206951E+04</totfact>
</mgrwt>
</event>
<event>
 4    1  0.3935877E+000  0.1920359E+03  0.7546771E-02  0.1156638E+00
         21   -1    0    0  501  502  0.00000000000E+00  0.00000000000E+00  0.19077868122E+03  0.19077868122E+03  0.00000000000E+00 0. -1.
         21   -1    0    0  502  503 -0.00000000000E+00 -0.00000000000E+00 -0.59063133367E+03  0.59063133367E+03  0.00000000000E+00 0.  1.
          6    1    1    2  501    0  0.78322049457E+02 -0.28538497376E+02  0.12052816993E+03  0.22672633065E+03  0.17300000000E+03 0. -1.
         -6    1    1    2    0  503 -0.78322049457E+02  0.28538497376E+02 -0.52038082238E+03  0.55468368424E+03  0.17300000000E+03 0.  1.
<mgrwt>
<rscale>  2 0.19203591E+03</rscale>
<asrwt>0</asrwt>
<pdfrwt beam="1">  1       21 0.29350567E-01 0.19203591E+03</pdfrwt>
<pdfrwt beam="2">  1       21 0.90866358E-01 0.19203591E+03</pdfrwt>
<totfact> 0.11431406E+04</totfact>
</mgrwt>
</event>
<event>
 4    1  0.3935877E+000  0.1895110E+03  0.7546771E-02  0.1158903E+00
         21   -1    0    0  503  502  0.00000000000E+00  0.00000000000E+00  0.45919547162E+03  0.45919547162E+03  0.00000000000E+00 0.  1.
         21   -1    0    0  501  503 -0.00000000000E+00 -0.00000000000E+00 -0.14567712716E+03  0.14567712716E+03  0.00000000000E+00 0. -1.
          6    1    1    2  501    0 -0.69848720709E+02 -0.33265345107E+02 -0.49056806790E+02  0.19575749606E+03  0.17300000000E+03 0. -1.
         -6    1    1    2    0  502  0.69848720709E+02  0.33265345107E+02  0.36257515125E+03  0.40911510272E+03  0.17300000000E+03 0.  1.
<mgrwt>
<rscale>  2 0.18951102E+03</rscale>
<asrwt>0</asrwt>
<pdfrwt beam="1">  1       21 0.70645456E-01 0.18951102E+03</pdfrwt>
<pdfrwt beam="2">  1       21 0.22411866E-01 0.18951102E+03</pdfrwt>
<totfact> 0.33901229E+04</totfact>
</mgrwt>
</event>
<event>
 4    1  0.3935877E+000  0.2679683E+03  0.7546771E-02  0.1102448E+00
         21   -1    0    0  501  502  0.00000000000E+00  0.00000000000E+00  0.67208746825E+03  0.67208746825E+03  0.00000000000E+00 0. -1.
         21   -1    0    0  502  503 -0.00000000000E+00 -0.00000000000E+00 -0.16043253307E+03  0.16043253307E+03  0.00000000000E+00 0.  1.
          6    1    1    2  501    0 -0.20058947047E+02 -0.20365567728E+03  0.49640969531E+03  0.56411841119E+03  0.17300000000E+03 0. -1.
         -6    1    1    2    0  503  0.20058947047E+02  0.20365567728E+03  0.15245239861E+02  0.26840159013E+03  0.17300000000E+03 0. -1.
<mgrwt>
<rscale>  2 0.26796827E+03</rscale>
<asrwt>0</asrwt>
<pdfrwt beam="1">  1       21 0.10339807E+00 0.26796827E+03</pdfrwt>
<pdfrwt beam="2">  1       21 0.24681929E-01 0.26796827E+03</pdfrwt>
<totfact> 0.11242439E+04</totfact>
</mgrwt>
</event>
<event>
 4    1  0.3935877E+000  0.2538292E+03  0.7546771E-02  0.1110908E+00
         21   -1    0    0  501  502  0.00000000000E+00  0.00000000000E+00  0.15315831496E+03  0.15315831496E+03  0.00000000000E+00 0.  1.
         21   -1    0    0  502  503 -0.00000000000E+00 -0.00000000000E+00 -0.68191334923E+03  0.68191334923E+03  0.00000000000E+00 0.  1.
          6    1    1    2  501    0 -0.14455397570E+03  0.11663792508E+03 -0.59427327017E+01  0.25389874661E+03  0.17300000000E+03 0.  1.
         -6    1    1    2    0  503  0.14455397570E+03 -0.11663792508E+03 -0.52281230157E+03  0.58117291758E+03  0.17300000000E+03 0.  1.
<mgrwt>
<rscale>  2 0.25382919E+03</rscale>
<asrwt>0</asrwt>
<pdfrwt beam="1">  1       21 0.23562818E-01 0.25382919E+03</pdfrwt>
<pdfrwt beam="2">  1       21 0.10490975E+00 0.25382919E+03</pdfrwt>
<totfact> 0.11952351E+04</totfact>
</mgrwt>
</event>
<event>
 4    1  0.3935877E+000  0.3025206E+03  0.7546771E-02  0.1083987E+00
         21   -1    0    0  503  502  0.00000000000E+00  0.00000000000E+00  0.14133798290E+03  0.14133798290E+03  0.00000000000E+00 0. -1.
         21   -1    0    0  501  503 -0.00000000000E+00 -0.00000000000E+00 -0.66607024804E+03  0.66607024804E+03  0.00000000000E+00 0. -1.
          6    1    1    2  501    0 -0.23096799402E+03 -0.90793703880E+02 -0.32974381905E+03  0.44749267830E+03  0.17300000000E+03 0. -1.
         -6    1    1    2    0  502  0.23096799402E+03  0.90793703880E+02 -0.19498844609E+03  0.35991555264E+03  0.17300000000E+03 0. -1.
<mgrwt>
<rscale>  2 0.30252060E+03</rscale>
<asrwt>0</asrwt>
<pdfrwt beam="1">  1       21 0.21744306E-01 0.30252060E+03</pdfrwt>
<pdfrwt beam="2">  1       21 0.10247234E+00 0.30252060E+03</pdfrwt>
<totfact> 0.14403316E+04</totfact>
</mgrwt>
</event>
<event>
 4    1  0.3935877E+000  0.2027535E+03  0.7546771E-02  0.1147436E+00
         21   -1    0    0  501  502  0.00000000000E+00  0.00000000000E+00  0.98742812989E+02  0.98742812989E+02  0.00000000000E+00 0.  1.
         21   -1    0    0  502  503 -0.00000000000E+00 -0.00000000000E+00 -0.49153321810E+03  0.49153321810E+03  0.00000000000E+00 0.  1.
          6    1    1    2  501    0  0.39825221985E+01  0.10566038547E+03 -0.80947579975E+02  0.21831511227E+03  0.17300000000E+03 0.  1.
         -6    1    1    2    0  503 -0.39825221985E+01 -0.10566038547E+03 -0.31184282514E+03  0.37196091882E+03  0.17300000000E+03 0.  1.
<mgrwt>
<rscale>  2 0.20275349E+03</rscale>
<asrwt>0</asrwt>
<pdfrwt beam="1">  1       21 0.15191202E-01 0.20275349E+03</pdfrwt>
<pdfrwt beam="2">  1       21 0.75620494E-01 0.20275349E+03</pdfrwt>
<totfact> 0.59547840E+04</totfact>
</mgrwt>
</event>
<event>
 4    1  0.3935877E+000  0.2355160E+03  0.7546771E-02  0.1122817E+00
         21   -1    0    0  503  502  0.00000000000E+00  0.00000000000E+00  0.26193661836E+03  0.26193661836E+03  0.00000000000E+00 0. -1.
         21   -1    0    0  501  503 -0.00000000000E+00 -0.00000000000E+00 -0.29438127151E+03  0.29438127151E+03  0.00000000000E+00 0.  1.
          6    1    1    2  501    0 -0.15730912821E+03  0.28153393748E+02 -0.16358351170E+03  0.28675310059E+03  0.17300000000E+03 0.  1.
         -6    1    1    2    0  502  0.15730912821E+03 -0.28153393748E+02  0.13113885855E+03  0.26956478928E+03  0.17300000000E+03 0. -1.
<mgrwt>
<rscale>  2 0.23551598E+03</rscale>
<asrwt>0</asrwt>
<pdfrwt beam="1">  1       21 0.40297942E-01 0.23551598E+03</pdfrwt>
<pdfrwt beam="2">  1       21 0.45289426E-01 0.23551598E+03</pdfrwt>
<totfact> 0.27129717E+04</totfact>
</mgrwt>
</event>
<event>
 4    1  0.3935877E+000  0.1733681E+03  0.7546771E-02  0.1174380E+00
         21   -1    0    0  501  502  0.00000000000E+00  0.00000000000E+00  0.77818653428E+03  0.77818653428E+03  0.00000000000E+00 0. -1.
         21   -1    0    0  502  503 -0.00000000000E+00 -0.00000000000E+00 -0.42204926172E+02  0.42204926172E+02  0.00000000000E+00 0. -1.
          6    1    1    2  501    0 -0.60689692629E+01  0.95224420607E+01  0.48747770342E+03  0.51738865529E+03  0.17300000000E+03 0.  1.
         -6    1    1    2    0  503  0.60689692629E+01 -0.95224420607E+01  0.24850390469E+03  0.30300280516E+03  0.17300000000E+03 0.  1.
<mgrwt>
<rscale>  2 0.17336813E+03</rscale>
<asrwt>0</asrwt>
<pdfrwt beam="1">  1       21 0.11972099E+00 0.17336813E+03</pdfrwt>
<pdfrwt beam="2">  1       21 0.64930662E-02 0.17336813E+03</pdfrwt>
<totfact> 0.92254569E+04</totfact>
</mgrwt>
</event>
<event>
 4    1  0.3935877E+000  0.1859995E+03  0.7546771E-02  0.1162120E+00
         21   -1    0    0  503  502  0.00000000000E+00  0.00000000000E+00  0.96967517203E+02  0.96967517203E+02  0.00000000000E+00 0. -1.
         21   -1    0    0  501  503 -0.00000000000E+00 -0.00000000000E+00 -0.82670075163E+03  0.82670075163E+03  0.00000000000E+00 0. -1.
          6    1    1    2  501    0 -0.19075607024E+02  0.65596807882E+02 -0.71306389346E+03  0.73692329054E+03  0.17300000000E+03 0. -1.
         -6    1    1    2    0  502  0.19075607024E+02 -0.65596807882E+02 -0.16669340965E+02  0.18674497829E+03  0.17300000000E+03 0. -1.
<mgrwt>
<rscale>  2 0.18599952E+03</rscale>
<asrwt>0</asrwt>
<pdfrwt beam="1">  1       21 0.14918080E-01 0.18599952E+03</pdfrwt>
<pdfrwt beam="2">  1       21 0.12718473E+00 0.18599952E+03</pdfrwt>
<totfact> 0.18175665E+04</totfact>
</mgrwt>
</event>
<event>
 4    1  0.3935877E+000  0.2067240E+03  0.7546771E-02  0.1144187E+00
         21   -1    0    0  503  502  0.00000000000E+00  0.00000000000E+00  0.33343706605E+02  0.33343706605E+02  0.00000000000E+00 0.  1.
         21   -1    0    0  501  503 -0.00000000000E+00 -0.00000000000E+00 -0.13012269891E+04  0.13012269891E+04  0.00000000000E+00 0. -1.
          6    1    1    2  501    0 -0.10494411798E+03  0.42338648152E+02 -0.55208534423E+03  0.58951934349E+03  0.17300000000E+03 0.  1.
         -6    1    1    2    0  502  0.10494411798E+03 -0.42338648152E+02 -0.71579793831E+03  0.74505135226E+03  0.17300000000E+03 0. -1.
<mgrwt>
<rscale>  2 0.20672404E+03</rscale>
<asrwt>0</asrwt>
<pdfrwt beam="1">  1       21 0.51298008E-02 0.20672404E+03</pdfrwt>
<pdfrwt beam="2">  1       21 0.20018878E+00 0.20672404E+03</pdfrwt>
<totfact> 0.34149590E+04</totfact>
</mgrwt>
</event>
<event>
 4    1  0.3935877E+000  0.1803491E+03  0.7546771E-02  0.1167466E+00
         21   -1    0    0  501  502  0.00000000000E+00  0.00000000000E+00  0.16697360888E+03  0.16697360888E+03  0.00000000000E+00 0.  1.
         21   -1    0    0  502  503 -0.00000000000E+00 -0.00000000000E+00 -0.33766251620E+03  0.33766251620E+03  0.00000000000E+00 0.  1.
          6    1    1    2  501    0 -0.49709451359E+02  0.11214230153E+02  0.78779573936E+02  0.19680449635E+03  0.17300000000E+03 0.  1.
         -6    1    1    2    0  503  0.49709451359E+02 -0.11214230153E+02 -0.24946848125E+03  0.30783162873E+03  0.17300000000E+03 0.  1.
<mgrwt>
<rscale>  2 0.18034907E+03</rscale>
<asrwt>0</asrwt>
<pdfrwt beam="1">  1       21 0.25688248E-01 0.18034907E+03</pdfrwt>
<pdfrwt beam="2">  1       21 0.51948079E-01 0.18034907E+03</pdfrwt>
<totfact> 0.50879148E+04</totfact>
</mgrwt>
</event>
<event>
 4    1  0.3935877E+000  0.1998389E+03  0.7546771E-02  0.1149875E+00
         21   -1    0    0  503  502  0.00000000000E+00  0.00000000000E+00  0.24011455182E+02  0.24011455182E+02  0.00000000000E+00 0.  1.
         21   -1    0    0  501  503 -0.00000000000E+00 -0.00000000000E+00 -0.17442471654E+04  0.17442471654E+04  0.00000000000E+00 0.  1.
          6    1    1    2  501    0 -0.99349989179E+02 -0.11669573279E+02 -0.10507117195E+04  0.10695469680E+04  0.17300000000E+03 0.  1.
         -6    1    1    2    0  502  0.99349989179E+02  0.11669573279E+02 -0.66952399075E+03  0.69871165260E+03  0.17300000000E+03 0.  1.
<mgrwt>
<rscale>  2 0.19983893E+03</rscale>
<asrwt>0</asrwt>
<pdfrwt beam="1">  1       21 0.36940698E-02 0.19983893E+03</pdfrwt>
<pdfrwt beam="2">  1       21 0.26834574E+00 0.19983893E+03</pdfrwt>
<totfact> 0.23115140E+04</totfact>
</mgrwt>
</event>
<event>
 4    1  0.3935877E+000  0.1829881E+03  0.7546771E-02  0.1164942E+00
         21   -1    0    0  501  502  0.00000000000E+00  0.00000000000E+00  0.16926785406E+03  0.16926785406E+03  0.00000000000E+00 0. -1.
         21   -1    0    0  502  503 -0.00000000000E+00 -0.00000000000E+00 -0.21087428128E+03  0.21087428128E+03  0.00000000000E+00 0. -1.
          6    1    1    2  501    0 -0.59187558898E+02 -0.72446786817E+01  0.26487108988E+02  0.18489515797E+03  0.17300000000E+03 0. -1.
         -6    1    1    2    0  503  0.59187558898E+02  0.72446786817E+01 -0.68093536205E+02  0.19524697737E+03  0.17300000000E+03 0. -1.
<mgrwt>
<rscale>  2 0.18298812E+03</rscale>
<asrwt>0</asrwt>
<pdfrwt beam="1">  1       21 0.26041208E-01 0.18298812E+03</pdfrwt>
<pdfrwt beam="2">  1       21 0.32442197E-01 0.18298812E+03</pdfrwt>
<totfact> 0.12849965E+05</totfact>
</mgrwt>
</event>
<event>
 4    1  0.3935877E+000  0.1972170E+03  0.7546771E-02  0.1152109E+00
         21   -1    0    0  503  502  0.00000000000E+00  0.00000000000E+00  0.92079643082E+02  0.92079643082E+02  0.00000000000E+00 0.  1.
         21   -1    0    0  501  503 -0.00000000000E+00 -0.00000000000E+00 -0.44739258556E+03  0.44739258556E+03  0.00000000000E+00 0. -1.
          6    1    1    2  501    0 -0.83022142626E+02  0.45528716984E+02 -0.24140805202E+03  0.31172485916E+03  0.17300000000E+03 0. -1.
         -6    1    1    2    0  502  0.83022142626E+02 -0.45528716984E+02 -0.11390489045E+03  0.22774736948E+03  0.17300000000E+03 0.  1.
<mgrwt>
<rscale>  2 0.19721699E+03</rscale>
<asrwt>0</asrwt>
<pdfrwt beam="1">  1       21 0.14166099E-01 0.19721699E+03</pdfrwt>
<pdfrwt beam="2">  1       21 0.68829629E-01 0.19721699E+03</pdfrwt>
<totfact> 0.83532081E+04</totfact>
</mgrwt>
</event>
<event>
 4    1  0.3935877E+000  0.1794526E+03  0.7546771E-02  0.1168334E+00
         21   -1    0    0  501  502  0.00000000000E+00  0.00000000000E+00  0.12362420792E+03  0.12362420792E+03  0.00000000000E+00 0. -1.
         21   -1    0    0  502  503 -0.00000000000E+00 -0.00000000000E+00 -0.51448123973E+03  0.51448123973E+03  0.00000000000E+00 0. -1.
          6    1    1    2  501    0 -0.39600010492E+02  0.26572126014E+02  0.28745103407E+02  0.18174025333E+03  0.17300000000E+03 0. -1.
         -6    1    1    2    0  503  0.39600010492E+02 -0.26572126014E+02 -0.41960213521E+03  0.45636519432E+03  0.17300000000E+03 0. -1.
<mgrwt>
<rscale>  2 0.17945261E+03</rscale>
<asrwt>0</asrwt>
<pdfrwt beam="1">  1       21 0.19019109E-01 0.17945261E+03</pdfrwt>
<pdfrwt beam="2">  1       21 0.79150962E-01 0.17945261E+03</pdfrwt>
<totfact> 0.35966148E+04</totfact>
</mgrwt>
</event>
<event>
 4    1  0.3935877E+000  0.1812684E+03  0.7546771E-02  0.1166581E+00
         21   -1    0    0  501  502  0.00000000000E+00  0.00000000000E+00  0.10446414964E+03  0.10446414964E+03  0.00000000000E+00 0. -1.
         21   -1    0    0  502  503 -0.00000000000E+00 -0.00000000000E+00 -0.35312532561E+03  0.35312532561E+03  0.00000000000E+00 0. -1.
          6    1    1    2  501    0 -0.12383909721E+02  0.52686455007E+02 -0.48701492755E+02  0.18769672122E+03  0.17300000000E+03 0. -1.
         -6    1    1    2    0  503  0.12383909721E+02 -0.52686455007E+02 -0.19995968322E+03  0.26989275402E+03  0.17300000000E+03 0. -1.
<mgrwt>
<rscale>  2 0.18126837E+03</rscale>
<asrwt>0</asrwt>
<pdfrwt beam="1">  1       21 0.16071408E-01 0.18126837E+03</pdfrwt>
<pdfrwt beam="2">  1       21 0.54326972E-01 0.18126837E+03</pdfrwt>
<totfact> 0.11118320E+05</totfact>
</mgrwt>
</event>
<event>
 4    1  0.3935877E+000  0.1809302E+03  0.7546771E-02  0.1166906E+00
         21   -1    0    0  503  502  0.00000000000E+00  0.00000000000E+00  0.22158697301E+03  0.22158697301E+03  0.00000000000E+00 0.  1.
         21   -1    0    0  501  503 -0.00000000000E+00 -0.00000000000E+00 -0.18440820973E+03  0.18440820973E+03  0.00000000000E+00 0.  1.
          6    1    1    2  501    0 -0.58459764882E+00 -0.52975357073E+02 -0.71939358438E+02  0.19470747675E+03  0.17300000000E+03 0.  1.
         -6    1    1    2    0  502  0.58459764882E+00  0.52975357073E+02  0.10911812173E+03  0.21128770599E+03  0.17300000000E+03 0.  1.
<mgrwt>
<rscale>  2 0.18093018E+03</rscale>
<asrwt>0</asrwt>
<pdfrwt beam="1">  1       21 0.34090304E-01 0.18093018E+03</pdfrwt>
<pdfrwt beam="2">  1       21 0.28370494E-01 0.18093018E+03</pdfrwt>
<totfact> 0.98911271E+04</totfact>
</mgrwt>
</event>
<event>
 4    1  0.3935877E+000  0.2462542E+03  0.7546771E-02  0.1115695E+00
         21   -1    0    0  503  502  0.00000000000E+00  0.00000000000E+00  0.24870646099E+03  0.24870646099E+03  0.00000000000E+00 0. -1.
         21   -1    0    0  501  503 -0.00000000000E+00 -0.00000000000E+00 -0.25908206791E+03  0.25908206791E+03  0.00000000000E+00 0. -1.
          6    1    1    2  501    0  0.14629422715E+03 -0.96488982067E+02 -0.66798228226E+02  0.25515314588E+03  0.17300000000E+03 0. -1.
         -6    1    1    2    0  502 -0.14629422715E+03  0.96488982067E+02  0.56422621305E+02  0.25263538302E+03  0.17300000000E+03 0. -1.
<mgrwt>
<rscale>  2 0.24625419E+03</rscale>
<asrwt>0</asrwt>
<pdfrwt beam="1">  1       21 0.38262533E-01 0.24625419E+03</pdfrwt>
<pdfrwt beam="2">  1       21 0.39858780E-01 0.24625419E+03</pdfrwt>
<totfact> 0.38957490E+04</totfact>
</mgrwt>
</event>
<event>
 4    1  0.3935877E+000  0.3068429E+03  0.7546771E-02  0.1081869E+00
         21   -1    0    0  501  502  0.00000000000E+00  0.00000000000E+00  0.15087452958E+03  0.15087452958E+03  0.00000000000E+00 0.  1.
         21   -1    0    0  502  503 -0.00000000000E+00 -0.00000000000E+00 -0.65501855247E+03  0.65501855247E+03  0.00000000000E+00 0.  1.
          6    1    1    2  501    0  0.23614587778E+03  0.91971131530E+02 -0.33969396737E+03  0.45776036973E+03  0.17300000000E+03 0.  1.
         -6    1    1    2    0  503 -0.23614587778E+03 -0.91971131530E+02 -0.16445005552E+03  0.34813271232E+03  0.17300000000E+03 0.  1.
<mgrwt>
<rscale>  2 0.30684290E+03</rscale>
<asrwt>0</asrwt>
<pdfrwt beam="1">  1       21 0.23211465E-01 0.30684290E+03</pdfrwt>
<pdfrwt beam="2">  1       21 0.10077209E+00 0.30684290E+03</pdfrwt>
<totfact> 0.13215882E+04</totfact>
</mgrwt>
</event>
<event>
 4    1  0.3935877E+000  0.2327684E+03  0.7546771E-02  0.1124706E+00
         21   -1    0    0  503  502  0.00000000000E+00  0.00000000000E+00  0.31584240391E+03  0.31584240391E+03  0.00000000000E+00 0.  1.
         21   -1    0    0  501  503 -0.00000000000E+00 -0.00000000000E+00 -0.19683929291E+03  0.19683929291E+03  0.00000000000E+00 0. -1.
          6    1    1    2  501    0 -0.87415519950E+02 -0.12888225303E+03 -0.32389931901E+02  0.23501109753E+03  0.17300000000E+03 0. -1.
         -6    1    1    2    0  502  0.87415519950E+02  0.12888225303E+03  0.15139304290E+03  0.27767059929E+03  0.17300000000E+03 0.  1.
<mgrwt>
<rscale>  2 0.23276836E+03</rscale>
<asrwt>0</asrwt>
<pdfrwt beam="1">  1       21 0.48591139E-01 0.23276836E+03</pdfrwt>
<pdfrwt beam="2">  1       21 0.30282968E-01 0.23276836E+03</pdfrwt>
<totfact> 0.41499308E+04</totfact>
</mgrwt>
</event>
<event>
 4    1  0.3935877E+000  0.1833976E+03  0.7546771E-02  0.1164555E+00
         21   -1    0    0  503  502  0.00000000000E+00  0.00000000000E+00  0.11620653468E+04  0.11620653468E+04  0.00000000000E+00 0. -1.
         21   -1    0    0  501  503 -0.00000000000E+00 -0.00000000000E+00 -0.29891398906E+02  0.29891398906E+02  0.00000000000E+00 0. -1.
          6    1    1    2  501    0  0.36989050532E+02 -0.48347697072E+02  0.45997866213E+03  0.49519194187E+03  0.17300000000E+03 0. -1.
         -6    1    1    2    0  502 -0.36989050532E+02  0.48347697072E+02  0.67219528580E+03  0.69676480388E+03  0.17300000000E+03 0. -1.
<mgrwt>
<rscale>  2 0.18339763E+03</rscale>
<asrwt>0</asrwt>
<pdfrwt beam="1">  1       21 0.17877925E+00 0.18339763E+03</pdfrwt>
<pdfrwt beam="2">  1       21 0.45986777E-02 0.18339763E+03</pdfrwt>
<totfact> 0.57796394E+04</totfact>
</mgrwt>
</event>
<event>
 4    1  0.3935877E+000  0.2216428E+03  0.7546771E-02  0.1132664E+00
         21   -1    0    0  501  502  0.00000000000E+00  0.00000000000E+00  0.66368380552E+02  0.66368380552E+02  0.00000000000E+00 0. -1.
         21   -1    0    0  502  503 -0.00000000000E+00 -0.00000000000E+00 -0.74036300567E+03  0.74036300567E+03  0.00000000000E+00 0. -1.
          6    1    1    2  501    0  0.40246127019E+01  0.13849303839E+03 -0.33091441694E+03  0.39828365587E+03  0.17300000000E+03 0. -1.
         -6    1    1    2    0  503 -0.40246127019E+01 -0.13849303839E+03 -0.34308020817E+03  0.40844773035E+03  0.17300000000E+03 0. -1.
<mgrwt>
<rscale>  2 0.22164277E+03</rscale>
<asrwt>0</asrwt>
<pdfrwt beam="1">  1       21 0.10210520E-01 0.22164277E+03</pdfrwt>
<pdfrwt beam="2">  1       21 0.11390201E+00 0.22164277E+03</pdfrwt>
<totfact> 0.46237294E+04</totfact>
</mgrwt>
</event>
<event>
 4    1  0.3935877E+000  0.1844145E+03  0.7546771E-02  0.1163598E+00
         21   -1    0    0  501  502  0.00000000000E+00  0.00000000000E+00  0.28313348310E+03  0.28313348310E+03  0.00000000000E+00 0.  1.
         21   -1    0    0  502  503 -0.00000000000E+00 -0.00000000000E+00 -0.27170979681E+03  0.27170979681E+03  0.00000000000E+00 0.  1.
          6    1    1    2  501    0 -0.53485518125E+02  0.34914263956E+02  0.21293065782E+03  0.28168807486E+03  0.17300000000E+03 0.  1.
         -6    1    1    2    0  503  0.53485518125E+02 -0.34914263956E+02 -0.20150697153E+03  0.27315520506E+03  0.17300000000E+03 0.  1.
<mgrwt>
<rscale>  2 0.18441450E+03</rscale>
<asrwt>0</asrwt>
<pdfrwt beam="1">  1       21 0.43558997E-01 0.18441450E+03</pdfrwt>
<pdfrwt beam="2">  1       21 0.41801507E-01 0.18441450E+03</pdfrwt>
<totfact> 0.28031333E+04</totfact>
</mgrwt>
</event>
<event>
 4    1  0.3935877E+000  0.1992432E+03  0.7546771E-02  0.1150379E+00
         21   -1    0    0  501  502  0.00000000000E+00  0.00000000000E+00  0.34198886971E+03  0.34198886971E+03  0.00000000000E+00 0. -1.
         21   -1    0    0  502  503 -0.00000000000E+00 -0.00000000000E+00 -0.15631567119E+03  0.15631567119E+03  0.00000000000E+00 0.  1.
          6    1    1    2  501    0  0.76041397580E+02  0.63139218373E+02  0.21924402148E+03  0.29625292572E+03  0.17300000000E+03 0. -1.
         -6    1    1    2    0  503 -0.76041397580E+02 -0.63139218373E+02 -0.33570822969E+02  0.20205161518E+03  0.17300000000E+03 0.  1.
<mgrwt>
<rscale>  2 0.19924321E+03</rscale>
<asrwt>0</asrwt>
<pdfrwt beam="1">  1       21 0.52613672E-01 0.19924321E+03</pdfrwt>
<pdfrwt beam="2">  1       21 0.24048565E-01 0.19924321E+03</pdfrwt>
<totfact> 0.55682573E+04</totfact>
</mgrwt>
</event>
<event>
 4    1  0.3935877E+000  0.1958010E+03  0.7546771E-02  0.1153331E+00
         21   -1    0    0  503  502  0.00000000000E+00  0.00000000000E+00  0.25838789288E+03  0.25838789288E+03  0.00000000000E+00 0.  1.
         21   -1    0    0  501  503 -0.00000000000E+00 -0.00000000000E+00 -0.25104039071E+03  0.25104039071E+03  0.00000000000E+00 0. -1.
          6    1    1    2  501    0 -0.91352415997E+02 -0.79862813593E+01 -0.15921661861E+03  0.25236476822E+03  0.17300000000E+03 0. -1.
         -6    1    1    2    0  502  0.91352415997E+02  0.79862813593E+01  0.16656412078E+03  0.25706351536E+03  0.17300000000E+03 0.  1.
<mgrwt>
<rscale>  2 0.19580103E+03</rscale>
<asrwt>0</asrwt>
<pdfrwt beam="1">  1       21 0.39751983E-01 0.19580103E+03</pdfrwt>
<pdfrwt beam="2">  1       21 0.38621599E-01 0.19580103E+03</pdfrwt>
<totfact> 0.39368852E+04</totfact>
</mgrwt>
</event>
<event>
 4    1  0.3935877E+000  0.1889273E+03  0.7546771E-02  0.1159432E+00
         21   -1    0    0  503  502  0.00000000000E+00  0.00000000000E+00  0.50074829673E+02  0.50074829673E+02  0.00000000000E+00 0. -1.
         21   -1    0    0  501  503 -0.00000000000E+00 -0.00000000000E+00 -0.12635307164E+04  0.12635307164E+04  0.00000000000E+00 0. -1.
          6    1    1    2  501    0 -0.29199254631E+02  0.70085088959E+02 -0.10403489638E+04  0.10573644040E+04  0.17300000000E+03 0. -1.
         -6    1    1    2    0  502  0.29199254631E+02 -0.70085088959E+02 -0.17310692287E+03  0.25624114211E+03  0.17300000000E+03 0. -1.
<mgrwt>
<rscale>  2 0.18892728E+03</rscale>
<asrwt>0</asrwt>
<pdfrwt beam="1">  1       21 0.77038203E-02 0.18892728E+03</pdfrwt>
<pdfrwt beam="2">  1       21 0.19438933E+00 0.18892728E+03</pdfrwt>
<totfact> 0.18757553E+04</totfact>
</mgrwt>
</event>
<event>
 4    1  0.3935877E+000  0.1739625E+03  0.7546771E-02  0.1173777E+00
         21   -1    0    0  503  502  0.00000000000E+00  0.00000000000E+00  0.24637648844E+03  0.24637648844E+03  0.00000000000E+00 0. -1.
         21   -1    0    0  501  503 -0.00000000000E+00 -0.00000000000E+00 -0.12617247690E+03  0.12617247690E+03  0.00000000000E+00 0. -1.
          6    1    1    2  501    0  0.57385442646E+01  0.17349696597E+02  0.29793228290E+02  0.17649526712E+03  0.17300000000E+03 0.  1.
         -6    1    1    2    0  502 -0.57385442646E+01 -0.17349696597E+02  0.90410783245E+02  0.19605369823E+03  0.17300000000E+03 0.  1.
<mgrwt>
<rscale>  2 0.17396248E+03</rscale>
<asrwt>0</asrwt>
<pdfrwt beam="1">  1       21 0.37904075E-01 0.17396248E+03</pdfrwt>
<pdfrwt beam="2">  1       21 0.19411150E-01 0.17396248E+03</pdfrwt>
<totfact> 0.16478900E+05</totfact>
</mgrwt>
</event>
<event>
 4    1  0.3935877E+000  0.1780067E+03  0.7546771E-02  0.1169746E+00
         21   -1    0    0  501  502  0.00000000000E+00  0.00000000000E+00  0.54483954551E+03  0.54483954551E+03  0.00000000000E+00 0. -1.
         21   -1    0    0  502  503 -0.00000000000E+00 -0.00000000000E+00 -0.39990842280E+03  0.39990842280E+03  0.00000000000E+00 0. -1.
          6    1    1    2  501    0 -0.33688250472E+01  0.41785567919E+02  0.50914293235E+03  0.53936342871E+03  0.17300000000E+03 0. -1.
         -6    1    1    2    0  503  0.33688250472E+01 -0.41785567919E+02 -0.36421180964E+03  0.40538453960E+03  0.17300000000E+03 0. -1.
<mgrwt>
<rscale>  2 0.17800669E+03</rscale>
<asrwt>0</asrwt>
<pdfrwt beam="1">  1       21 0.83821469E-01 0.17800669E+03</pdfrwt>
<pdfrwt beam="2">  1       21 0.61524373E-01 0.17800669E+03</pdfrwt>
<totfact> 0.30760198E+03</totfact>
</mgrwt>
</event>
<event>
 4    1  0.3935877E+000  0.2134551E+03  0.7546771E-02  0.1138859E+00
         21   -1    0    0  503  502  0.00000000000E+00  0.00000000000E+00  0.14643062431E+03  0.14643062431E+03  0.00000000000E+00 0.  1.
         21   -1    0    0  501  503 -0.00000000000E+00 -0.00000000000E+00 -0.34896666115E+03  0.34896666115E+03  0.00000000000E+00 0.  1.
          6    1    1    2  501    0 -0.66668819468E+02  0.10577974440E+03 -0.18279968175E+03  0.28103168765E+03  0.17300000000E+03 0.  1.
         -6    1    1    2    0  502  0.66668819468E+02 -0.10577974440E+03 -0.19736355099E+02  0.21436559781E+03  0.17300000000E+03 0.  1.
<mgrwt>
<rscale>  2 0.21345511E+03</rscale>
<asrwt>0</asrwt>
<pdfrwt beam="1">  1       21 0.22527788E-01 0.21345511E+03</pdfrwt>
<pdfrwt beam="2">  1       21 0.53687178E-01 0.21345511E+03</pdfrwt>
<totfact> 0.60011877E+04</totfact>
</mgrwt>
</event>
<event>
 4    1  0.3935877E+000  0.2047888E+03  0.7546771E-02  0.1145760E+00
         21   -1    0    0  501  502  0.00000000000E+00  0.00000000000E+00  0.82753797514E+02  0.82753797514E+02  0.00000000000E+00 0.  1.
         21   -1    0    0  502  503 -0.00000000000E+00 -0.00000000000E+00 -0.60062807909E+03  0.60062807909E+03  0.00000000000E+00 0.  1.
          6    1    1    2  501    0 -0.17204053698E+02 -0.10822878696E+03 -0.12387615656E+03  0.23934024308E+03  0.17300000000E+03 0.  1.
         -6    1    1    2    0  503  0.17204053698E+02  0.10822878696E+03 -0.39399812502E+03  0.44404163353E+03  0.17300000000E+03 0.  1.
<mgrwt>
<rscale>  2 0.20478879E+03</rscale>
<asrwt>0</asrwt>
<pdfrwt beam="1">  1       21 0.12731354E-01 0.20478879E+03</pdfrwt>
<pdfrwt beam="2">  1       21 0.92404318E-01 0.20478879E+03</pdfrwt>
<totfact> 0.51837970E+04</totfact>
</mgrwt>
</event>
<event>
 4    1  0.3935877E+000  0.2454879E+03  0.7546771E-02  0.1116190E+00
         21   -1    0    0  501  502  0.00000000000E+00  0.00000000000E+00  0.13865061562E+04  0.13865061562E+04  0.00000000000E+00 0. -1.
         21   -1    0    0  502  503 -0.00000000000E+00 -0.00000000000E+00 -0.56766267424E+02  0.56766267424E+02  0.00000000000E+00 0.  1.
          6    1    1    2  501    0  0.15799175503E+03  0.73306862287E+02  0.10141887838E+04  0.10434764875E+04  0.17300000000E+03 0. -1.
         -6    1    1    2    0  503 -0.15799175503E+03 -0.73306862287E+02  0.31555110499E+03  0.39979593617E+03  0.17300000000E+03 0.  1.
<mgrwt>
<rscale>  2 0.24548786E+03</rscale>
<asrwt>0</asrwt>
<pdfrwt beam="1">  1       21 0.21330861E+00 0.24548786E+03</pdfrwt>
<pdfrwt beam="2">  1       21 0.87332730E-02 0.24548786E+03</pdfrwt>
<totfact> 0.10934000E+04</totfact>
</mgrwt>
</event>
<event>
 4    1  0.3935877E+000  0.1789695E+03  0.7546771E-02  0.1168804E+00
         21   -1    0    0  501  502  0.00000000000E+00  0.00000000000E+00  0.84299991597E+02  0.84299991597E+02  0.00000000000E+00 0. -1.
         21   -1    0    0  502  503 -0.00000000000E+00 -0.00000000000E+00 -0.66396871727E+03  0.66396871727E+03  0.00000000000E+00 0. -1.
          6    1    1    2  501    0  0.40712634604E+02  0.21060702891E+02 -0.45139624938E+02  0.18457426029E+03  0.17300000000E+03 0. -1.
         -6    1    1    2    0  503 -0.40712634604E+02 -0.21060702891E+02 -0.53452910073E+03  0.56369444858E+03  0.17300000000E+03 0. -1.
<mgrwt>
<rscale>  2 0.17896947E+03</rscale>
<asrwt>0</asrwt>
<pdfrwt beam="1">  1       21 0.12969230E-01 0.17896947E+03</pdfrwt>
<pdfrwt beam="2">  1       21 0.10214903E+00 0.17896947E+03</pdfrwt>
<totfact> 0.40128706E+04</totfact>
</mgrwt>
</event>
<event>
 4    1  0.3935877E+000  0.1894000E+03  0.7546771E-02  0.1159004E+00
         21   -1    0    0  503  502  0.00000000000E+00  0.00000000000E+00  0.23205998314E+04  0.23205998314E+04  0.00000000000E+00 0.  1.
         21   -1    0    0  501  503 -0.00000000000E+00 -0.00000000000E+00 -0.21140295158E+02  0.21140295158E+02  0.00000000000E+00 0. -1.
          6    1    1    2  501    0  0.33699106560E+02 -0.69337831926E+02  0.54270515112E+03  0.57480539817E+03  0.17300000000E+03 0.  1.
         -6    1    1    2    0  502 -0.33699106560E+02  0.69337831926E+02  0.17567543851E+04  0.17669347284E+04  0.17300000000E+03 0.  1.
<mgrwt>
<rscale>  2 0.18940001E+03</rscale>
<asrwt>0</asrwt>
<pdfrwt beam="1">  1       21 0.35701516E+00 0.18940001E+03</pdfrwt>
<pdfrwt beam="2">  1       21 0.32523549E-02 0.18940001E+03</pdfrwt>
<totfact> 0.88307246E+03</totfact>
</mgrwt>
</event>
<event>
 4    1  0.3935877E+000  0.2518441E+03  0.7546771E-02  0.1112145E+00
         21   -1    0    0  503  502  0.00000000000E+00  0.00000000000E+00  0.40918476635E+02  0.40918476635E+02  0.00000000000E+00 0. -1.
         21   -1    0    0  501  503 -0.00000000000E+00 -0.00000000000E+00 -0.33711784580E+04  0.33711784580E+04  0.00000000000E+00 0.  1.
          6    1    1    2  501    0  0.11215306593E+03 -0.14463097051E+03 -0.29190549076E+04  0.29298988006E+04  0.17300000000E+03 0.  1.
         -6    1    1    2    0  502 -0.11215306593E+03  0.14463097051E+03 -0.41120507374E+03  0.48219813407E+03  0.17300000000E+03 0. -1.
<mgrwt>
<rscale>  2 0.25184405E+03</rscale>
<asrwt>0</asrwt>
<pdfrwt beam="1">  1       21 0.62951490E-02 0.25184405E+03</pdfrwt>
<pdfrwt beam="2">  1       21 0.51864295E+00 0.25184405E+03</pdfrwt>
<totfact> 0.23145273E+02</totfact>
</mgrwt>
</event>
<event>
 4    1  0.3935877E+000  0.1781241E+03  0.7546771E-02  0.1169631E+00
         21   -1    0    0  501  502  0.00000000000E+00  0.00000000000E+00  0.17466914035E+03  0.17466914035E+03  0.00000000000E+00 0.  1.
         21   -1    0    0  502  503 -0.00000000000E+00 -0.00000000000E+00 -0.22787273773E+03  0.22787273773E+03  0.00000000000E+00 0.  1.
          6    1    1    2  501    0  0.34758703912E+02  0.24311308821E+02  0.64049621150E+02  0.18928962255E+03  0.17300000000E+03 0.  1.
         -6    1    1    2    0  503 -0.34758703912E+02 -0.24311308821E+02 -0.11725321853E+03  0.21325225553E+03  0.17300000000E+03 0.  1.
<mgrwt>
<rscale>  2 0.17812413E+03</rscale>
<asrwt>0</asrwt>
<pdfrwt beam="1">  1       21 0.26872175E-01 0.17812413E+03</pdfrwt>
<pdfrwt beam="2">  1       21 0.35057344E-01 0.17812413E+03</pdfrwt>
<totfact> 0.10401358E+05</totfact>
</mgrwt>
</event>
<event>
 4    1  0.3935877E+000  0.2293744E+03  0.7546771E-02  0.1127081E+00
         21   -1    0    0  503  502  0.00000000000E+00  0.00000000000E+00  0.64463493332E+03  0.64463493332E+03  0.00000000000E+00 0. -1.
         21   -1    0    0  501  503 -0.00000000000E+00 -0.00000000000E+00 -0.97507302253E+02  0.97507302253E+02  0.00000000000E+00 0.  1.
          6    1    1    2  501    0  0.51268031990E+02  0.14161643062E+03  0.12376229889E+03  0.26063332702E+03  0.17300000000E+03 0.  1.
         -6    1    1    2    0  502 -0.51268031990E+02 -0.14161643062E+03  0.42336533218E+03  0.48150890856E+03  0.17300000000E+03 0. -1.
<mgrwt>
<rscale>  2 0.22937442E+03</rscale>
<asrwt>0</asrwt>
<pdfrwt beam="1">  1       21 0.99174602E-01 0.22937442E+03</pdfrwt>
<pdfrwt beam="2">  1       21 0.15001124E-01 0.22937442E+03</pdfrwt>
<totfact> 0.32197092E+04</totfact>
</mgrwt>
</event>
<event>
 4    1  0.3935877E+000  0.2653016E+03  0.7546771E-02  0.1103999E+00
         21   -1    0    0  503  502  0.00000000000E+00  0.00000000000E+00  0.11873774681E+04  0.11873774681E+04  0.00000000000E+00 0.  1.
         21   -1    0    0  501  503 -0.00000000000E+00 -0.00000000000E+00 -0.67309251637E+02  0.67309251637E+02  0.00000000000E+00 0. -1.
          6    1    1    2  501    0 -0.99748950001E+02  0.17465994081E+03  0.34332909452E+03  0.43388917374E+03  0.17300000000E+03 0. -1.
         -6    1    1    2    0  502  0.99748950001E+02 -0.17465994081E+03  0.77673912195E+03  0.82079754600E+03  0.17300000000E+03 0.  1.
<mgrwt>
<rscale>  2 0.26530162E+03</rscale>
<asrwt>0</asrwt>
<pdfrwt beam="1">  1       21 0.18267344E+00 0.26530162E+03</pdfrwt>
<pdfrwt beam="2">  1       21 0.10355270E-01 0.26530162E+03</pdfrwt>
<totfact> 0.12670848E+04</totfact>
</mgrwt>
</event>
<event>
 4    1  0.3935877E+000  0.2019527E+03  0.7546771E-02  0.1148102E+00
         21   -1    0    0  503  502  0.00000000000E+00  0.00000000000E+00  0.10593748544E+03  0.10593748544E+03  0.00000000000E+00 0.  1.
         21   -1    0    0  501  503 -0.00000000000E+00 -0.00000000000E+00 -0.40035324683E+03  0.40035324683E+03  0.00000000000E+00 0.  1.
          6    1    1    2  501    0  0.44284348734E+02  0.94312100240E+02 -0.97618421541E+02  0.22430834139E+03  0.17300000000E+03 0.  1.
         -6    1    1    2    0  502 -0.44284348734E+02 -0.94312100240E+02 -0.19679733985E+03  0.28198239088E+03  0.17300000000E+03 0.  1.
<mgrwt>
<rscale>  2 0.20195266E+03</rscale>
<asrwt>0</asrwt>
<pdfrwt beam="1">  1       21 0.16298075E-01 0.20195266E+03</pdfrwt>
<pdfrwt beam="2">  1       21 0.61592807E-01 0.20195266E+03</pdfrwt>
<totfact> 0.82226343E+04</totfact>
</mgrwt>
</event>
<event>
 4    1  0.3935877E+000  0.2514765E+03  0.7546771E-02  0.1112375E+00
         21   -1    0    0  503  502  0.00000000000E+00  0.00000000000E+00  0.81167690496E+02  0.81167690496E+02  0.00000000000E+00 0.  1.
         21   -1    0    0  501  503 -0.00000000000E+00 -0.00000000000E+00 -0.90563591376E+03  0.90563591376E+03  0.00000000000E+00 0.  1.
          6    1    1    2  501    0  0.17925352520E+03 -0.34345039691E+02 -0.59663990523E+03  0.64747168630E+03  0.17300000000E+03 0.  1.
         -6    1    1    2    0  502 -0.17925352520E+03  0.34345039691E+02 -0.22782831804E+03  0.33933191796E+03  0.17300000000E+03 0.  1.
<mgrwt>
<rscale>  2 0.25147646E+03</rscale>
<asrwt>0</asrwt>
<pdfrwt beam="1">  1       21 0.12487337E-01 0.25147646E+03</pdfrwt>
<pdfrwt beam="2">  1       21 0.13932861E+00 0.25147646E+03</pdfrwt>
<totfact> 0.19109046E+04</totfact>
</mgrwt>
</event>
<event>
 4    1  0.3935877E+000  0.1959331E+03  0.7546771E-02  0.1153216E+00
         21   -1    0    0  501  502  0.00000000000E+00  0.00000000000E+00  0.14476439450E+04  0.14476439450E+04  0.00000000000E+00 0. -1.
         21   -1    0    0  502  503 -0.00000000000E+00 -0.00000000000E+00 -0.32952789529E+02  0.32952789529E+02  0.00000000000E+00 0. -1.
          6    1    1    2  501    0 -0.81440328335E+02 -0.42758135466E+02  0.10344608028E+04  0.10528527616E+04  0.17300000000E+03 0. -1.
         -6    1    1    2    0  503  0.81440328335E+02  0.42758135466E+02  0.38023035270E+03  0.42774397289E+03  0.17300000000E+03 0. -1.
<mgrwt>
<rscale>  2 0.19593311E+03</rscale>
<asrwt>0</asrwt>
<pdfrwt beam="1">  1       21 0.22271440E+00 0.19593311E+03</pdfrwt>
<pdfrwt beam="2">  1       21 0.50696610E-02 0.19593311E+03</pdfrwt>
<totfact> 0.25374865E+04</totfact>
</mgrwt>
</event>
<event>
 4    1  0.3935877E+000  0.2213598E+03  0.7546771E-02  0.1132873E+00
         21   -1    0    0  503  502  0.00000000000E+00  0.00000000000E+00  0.64738929686E+03  0.64738929686E+03  0.00000000000E+00 0.  1.
         21   -1    0    0  501  503 -0.00000000000E+00 -0.00000000000E+00 -0.88096658043E+02  0.88096658043E+02  0.00000000000E+00 0. -1.
          6    1    1    2  501    0  0.13404135203E+03 -0.33227691032E+02  0.14163589977E+03  0.26279439037E+03  0.17300000000E+03 0. -1.
         -6    1    1    2    0  502 -0.13404135203E+03  0.33227691032E+02  0.41765673905E+03  0.47269156453E+03  0.17300000000E+03 0.  1.
<mgrwt>
<rscale>  2 0.22135981E+03</rscale>
<asrwt>0</asrwt>
<pdfrwt beam="1">  1       21 0.99598350E-01 0.22135981E+03</pdfrwt>
<pdfrwt beam="2">  1       21 0.13553332E-01 0.22135981E+03</pdfrwt>
<totfact> 0.38493280E+04</totfact>
</mgrwt>
</event>
<event>
 4    1  0.3935877E+000  0.2532366E+03  0.7546771E-02  0.1111276E+00
         21   -1    0    0  503  502  0.00000000000E+00  0.00000000000E+00  0.54264237248E+03  0.54264237248E+03  0.00000000000E+00 0. -1.
         21   -1    0    0  501  503 -0.00000000000E+00 -0.00000000000E+00 -0.14961464485E+03  0.14961464485E+03  0.00000000000E+00 0.  1.
          6    1    1    2  501    0 -0.16856911177E+03  0.76054105523E+02  0.37855289150E+02  0.25605037654E+03  0.17300000000E+03 0.  1.
         -6    1    1    2    0  502  0.16856911177E+03 -0.76054105523E+02  0.35517243849E+03  0.43620664079E+03  0.17300000000E+03 0. -1.
<mgrwt>
<rscale>  2 0.25323659E+03</rscale>
<asrwt>0</asrwt>
<pdfrwt beam="1">  1       21 0.83483441E-01 0.25323659E+03</pdfrwt>
<pdfrwt beam="2">  1       21 0.23017638E-01 0.25323659E+03</pdfrwt>
<totfact> 0.21411423E+04</totfact>
</mgrwt>
</event>
<event>
 4    1  0.3935877E+000  0.1907075E+03  0.7546771E-02  0.1157825E+00
         21   -1    0    0  501  502  0.00000000000E+00  0.00000000000E+00  0.48157978560E+03  0.48157978560E+03  0.00000000000E+00 0.  1.
         21   -1    0    0  502  503 -0.00000000000E+00 -0.00000000000E+00 -0.28134896562E+03  0.28134896562E+03  0.00000000000E+00 0.  1.
          6    1    1    2  501    0 -0.67464467868E+02  0.43461335691E+02  0.42639027129E+03  0.46709528533E+03  0.17300000000E+03 0.  1.
         -6    1    1    2    0  503  0.67464467868E+02 -0.43461335691E+02 -0.22615945131E+03  0.29583346589E+03  0.17300000000E+03 0.  1.
<mgrwt>
<rscale>  2 0.19070748E+03</rscale>
<asrwt>0</asrwt>
<pdfrwt beam="1">  1       21 0.74089198E-01 0.19070748E+03</pdfrwt>
<pdfrwt beam="2">  1       21 0.43284456E-01 0.19070748E+03</pdfrwt>
<totfact> 0.83956288E+03</totfact>
</mgrwt>
</event>
<event>
 4    1  0.3935877E+000  0.1853016E+03  0.7546771E-02  0.1162769E+00
         21   -1    0    0  501  502  0.00000000000E+00  0.00000000000E+00  0.46530294233E+03  0.46530294233E+03  0.00000000000E+00 0.  1.
         21   -1    0    0  502  503 -0.00000000000E+00 -0.00000000000E+00 -0.56226034163E+03  0.56226034163E+03  0.00000000000E+00 0.  1.
          6    1    1    2  501    0 -0.56574311854E+02  0.34742277297E+02  0.43040170869E+03  0.46859610480E+03  0.17300000000E+03 0.  1.
         -6    1    1    2    0  503  0.56574311854E+02 -0.34742277297E+02 -0.52735910799E+03  0.55896717916E+03  0.17300000000E+03 0.  1.
<mgrwt>
<rscale>  2 0.18530159E+03</rscale>
<asrwt>0</asrwt>
<pdfrwt beam="1">  1       21 0.71585069E-01 0.18530159E+03</pdfrwt>
<pdfrwt beam="2">  1       21 0.86501590E-01 0.18530159E+03</pdfrwt>
<totfact> 0.20437067E+03</totfact>
</mgrwt>
</event>
<event>
 4    1  0.3935877E+000  0.1905995E+03  0.7546771E-02  0.1157922E+00
         21   -1    0    0  501  502  0.00000000000E+00  0.00000000000E+00  0.21307329241E+03  0.21307329241E+03  0.00000000000E+00 0. -1.
         21   -1    0    0  502  503 -0.00000000000E+00 -0.00000000000E+00 -0.22595494794E+03  0.22595494794E+03  0.00000000000E+00 0.  1.
          6    1    1    2  501    0 -0.88534381473E+01  0.79503460634E+02  0.10231101379E+03  0.21632320070E+03  0.17300000000E+03 0. -1.
         -6    1    1    2    0  503  0.88534381473E+01 -0.79503460634E+02 -0.11519266932E+03  0.22270503965E+03  0.17300000000E+03 0.  1.
<mgrwt>
<rscale>  2 0.19059954E+03</rscale>
<asrwt>0</asrwt>
<pdfrwt beam="1">  1       21 0.32780507E-01 0.19059954E+03</pdfrwt>
<pdfrwt beam="2">  1       21 0.34762300E-01 0.19059954E+03</pdfrwt>
<totfact> 0.71514244E+04</totfact>
</mgrwt>
</event>
<event>
 4    1  0.3935877E+000  0.1829182E+03  0.7546771E-02  0.1165008E+00
         21   -1    0    0  503  502  0.00000000000E+00  0.00000000000E+00  0.48234688474E+02  0.48234688474E+02  0.00000000000E+00 0.  1.
         21   -1    0    0  501  503 -0.00000000000E+00 -0.00000000000E+00 -0.91509772132E+03  0.91509772132E+03  0.00000000000E+00 0. -1.
          6    1    1    2  501    0  0.38597609733E+02  0.45169710198E+02 -0.67036473673E+03  0.69487262031E+03  0.17300000000E+03 0. -1.
         -6    1    1    2    0  502 -0.38597609733E+02 -0.45169710198E+02 -0.19649829612E+03  0.26845978949E+03  0.17300000000E+03 0.  1.
<mgrwt>
<rscale>  2 0.18291823E+03</rscale>
<asrwt>0</asrwt>
<pdfrwt beam="1">  1       21 0.74207215E-02 0.18291823E+03</pdfrwt>
<pdfrwt beam="2">  1       21 0.14078426E+00 0.18291823E+03</pdfrwt>
<totfact> 0.48485198E+04</totfact>
</mgrwt>
</event>
<event>
 4    1  0.3935877E+000  0.1938286E+03  0.7546771E-02  0.1155053E+00
         21   -1    0    0  503  502  0.00000000000E+00  0.00000000000E+00  0.63462399669E+02  0.63462399669E+02  0.00000000000E+00 0.  1.
         21   -1    0    0  501  503 -0.00000000000E+00 -0.00000000000E+00 -0.78793415093E+03  0.78793415093E+03  0.00000000000E+00 0.  1.
          6    1    1    2  501    0  0.73794275131E+02 -0.46849894159E+02 -0.57451929123E+03  0.60633482798E+03  0.17300000000E+03 0.  1.
         -6    1    1    2    0  502 -0.73794275131E+02  0.46849894159E+02 -0.14995246004E+03  0.24506172262E+03  0.17300000000E+03 0.  1.
<mgrwt>
<rscale>  2 0.19382855E+03</rscale>
<asrwt>0</asrwt>
<pdfrwt beam="1">  1       21 0.97634458E-02 0.19382855E+03</pdfrwt>
<pdfrwt beam="2">  1       21 0.12122064E+00 0.19382855E+03</pdfrwt>
<totfact> 0.43566927E+04</totfact>
</mgrwt>
</event>
<event>
 4    1  0.3935877E+000  0.2050218E+03  0.7546771E-02  0.1145570E+00
         21   -1    0    0  501  502  0.00000000000E+00  0.00000000000E+00  0.52233975171E+03  0.52233975171E+03  0.00000000000E+00 0. -1.
         21   -1    0    0  502  503 -0.00000000000E+00 -0.00000000000E+00 -0.28010755505E+03  0.28010755505E+03  0.00000000000E+00 0. -1.
          6    1    1    2  501    0  0.87976046223E+02  0.66069322865E+02  0.45983748101E+03  0.50347239157E+03  0.17300000000E+03 0. -1.
         -6    1    1    2    0  503 -0.87976046223E+02 -0.66069322865E+02 -0.21760528435E+03  0.29897491519E+03  0.17300000000E+03 0. -1.
<mgrwt>
<rscale>  2 0.20502180E+03</rscale>
<asrwt>0</asrwt>
<pdfrwt beam="1">  1       21 0.80359962E-01 0.20502180E+03</pdfrwt>
<pdfrwt beam="2">  1       21 0.43093470E-01 0.20502180E+03</pdfrwt>
<totfact> 0.69855509E+03</totfact>
</mgrwt>
</event>
<event>
 4    1  0.3935877E+000  0.1929718E+03  0.7546771E-02  0.1155808E+00
         21   -1    0    0  503  502  0.00000000000E+00  0.00000000000E+00  0.14431453530E+03  0.14431453530E+03  0.00000000000E+00 0.  1.
         21   -1    0    0  501  503 -0.00000000000E+00 -0.00000000000E+00 -0.26402751271E+03  0.26402751271E+03  0.00000000000E+00 0. -1.
          6    1    1    2  501    0 -0.68345895328E+02 -0.51360984991E+02 -0.90617196557E+02  0.21318909095E+03  0.17300000000E+03 0.  1.
         -6    1    1    2    0  502  0.68345895328E+02  0.51360984991E+02 -0.29095780858E+02  0.19515295707E+03  0.17300000000E+03 0.  1.
<mgrwt>
<rscale>  2 0.19297179E+03</rscale>
<asrwt>0</asrwt>
<pdfrwt beam="1">  1       21 0.22202236E-01 0.19297179E+03</pdfrwt>
<pdfrwt beam="2">  1       21 0.40619617E-01 0.19297179E+03</pdfrwt>
<totfact> 0.11077988E+05</totfact>
</mgrwt>
</event>
<event>
 4    1  0.3935877E+000  0.2282650E+03  0.7546771E-02  0.1127867E+00
         21   -1    0    0  501  502  0.00000000000E+00  0.00000000000E+00  0.41943417829E+03  0.41943417829E+03  0.00000000000E+00 0.  1.
         21   -1    0    0  502  503 -0.00000000000E+00 -0.00000000000E+00 -0.13055718346E+03  0.13055718346E+03  0.00000000000E+00 0.  1.
          6    1    1    2  501    0  0.10787250699E+03 -0.10266176084E+03  0.20499275115E+03  0.30680114557E+03  0.17300000000E+03 0.  1.
         -6    1    1    2    0  503 -0.10787250699E+03  0.10266176084E+03  0.83884243680E+02  0.24319021617E+03  0.17300000000E+03 0.  1.
<mgrwt>
<rscale>  2 0.22826501E+03</rscale>
<asrwt>0</asrwt>
<pdfrwt beam="1">  1       21 0.64528334E-01 0.22826501E+03</pdfrwt>
<pdfrwt beam="2">  1       21 0.20085721E-01 0.22826501E+03</pdfrwt>
<totfact> 0.49863020E+04</totfact>
</mgrwt>
</event>
<event>
 4    1  0.3935877E+000  0.1970082E+03  0.7546771E-02  0.1152288E+00
         21   -1    0    0  501  502  0.00000000000E+00  0.00000000000E+00  0.42462082235E+03  0.42462082235E+03  0.00000000000E+00 0. -1.
         21   -1    0    0  502  503 -0.00000000000E+00 -0.00000000000E+00 -0.19122254289E+03  0.19122254289E+03  0.00000000000E+00 0.  1.
          6    1    1    2  501    0 -0.92765342929E+02  0.16667676531E+02  0.33917117319E+03  0.39223628722E+03  0.17300000000E+03 0. -1.
         -6    1    1    2    0  503  0.92765342929E+02 -0.16667676531E+02 -0.10577289374E+03  0.22360707802E+03  0.17300000000E+03 0. -1.
<mgrwt>
<rscale>  2 0.19700817E+03</rscale>
<asrwt>0</asrwt>
<pdfrwt beam="1">  1       21 0.65326280E-01 0.19700817E+03</pdfrwt>
<pdfrwt beam="2">  1       21 0.29418853E-01 0.19700817E+03</pdfrwt>
<totfact> 0.23804840E+04</totfact>
</mgrwt>
</event>
<event>
 4    1  0.3935877E+000  0.1923186E+03  0.7546771E-02  0.1156387E+00
         21   -1    0    0  503  502  0.00000000000E+00  0.00000000000E+00  0.13169601334E+03  0.13169601334E+03  0.00000000000E+00 0. -1.
         21   -1    0    0  501  503 -0.00000000000E+00 -0.00000000000E+00 -0.28088471320E+03  0.28088471320E+03  0.00000000000E+00 0. -1.
          6    1    1    2  501    0  0.19296145356E+02 -0.81762534295E+02 -0.76979163432E+02  0.20715270899E+03  0.17300000000E+03 0.  1.
         -6    1    1    2    0  502 -0.19296145356E+02  0.81762534295E+02 -0.72209536428E+02  0.20542801754E+03  0.17300000000E+03 0.  1.
<mgrwt>
<rscale>  2 0.19231862E+03</rscale>
<asrwt>0</asrwt>
<pdfrwt beam="1">  1       21 0.20260925E-01 0.19231862E+03</pdfrwt>
<pdfrwt beam="2">  1       21 0.43213033E-01 0.19231862E+03</pdfrwt>
<totfact> 0.11602223E+05</totfact>
</mgrwt>
</event>
<event>
 4    1  0.3935877E+000  0.2175040E+03  0.7546771E-02  0.1135758E+00
         21   -1    0    0  501  502  0.00000000000E+00  0.00000000000E+00  0.17206714589E+04  0.17206714589E+04  0.00000000000E+00 0. -1.
         21   -1    0    0  502  503 -0.00000000000E+00 -0.00000000000E+00 -0.29129930852E+02  0.29129930852E+02  0.00000000000E+00 0.  1.
          6    1    1    2  501    0  0.29260593789E+02  0.12854109147E+03  0.10531106287E+04  0.10753371522E+04  0.17300000000E+03 0. -1.
         -6    1    1    2    0  503 -0.29260593789E+02 -0.12854109147E+03  0.63843089937E+03  0.67446423761E+03  0.17300000000E+03 0.  1.
<mgrwt>
<rscale>  2 0.21750401E+03</rscale>
<asrwt>0</asrwt>
<pdfrwt beam="1">  1       21 0.26471861E+00 0.21750401E+03</pdfrwt>
<pdfrwt beam="2">  1       21 0.44815292E-02 0.21750401E+03</pdfrwt>
<totfact> 0.17271421E+04</totfact>
</mgrwt>
</event>
<event>
 4    1  0.3935877E+000  0.2073123E+03  0.7546771E-02  0.1143712E+00
         21   -1    0    0  501  502  0.00000000000E+00  0.00000000000E+00  0.25009491466E+03  0.25009491466E+03  0.00000000000E+00 0.  1.
         21   -1    0    0  502  503 -0.00000000000E+00 -0.00000000000E+00 -0.21636010922E+03  0.21636010922E+03  0.00000000000E+00 0.  1.
          6    1    1    2  501    0 -0.10973276727E+03 -0.31750508483E+02  0.12265360342E+03  0.24087814644E+03  0.17300000000E+03 0. -1.
         -6    1    1    2    0  503  0.10973276727E+03  0.31750508483E+02 -0.88918797980E+02  0.22557687744E+03  0.17300000000E+03 0. -1.
<mgrwt>
<rscale>  2 0.20731226E+03</rscale>
<asrwt>0</asrwt>
<pdfrwt beam="1">  1       21 0.38476141E-01 0.20731226E+03</pdfrwt>
<pdfrwt beam="2">  1       21 0.33286171E-01 0.20731226E+03</pdfrwt>
<totfact> 0.56224194E+04</totfact>
</mgrwt>
</event>
<event>
 4    1  0.3935877E+000  0.2829517E+03  0.7546771E-02  0.1094088E+00
         21   -1    0    0  503  502  0.00000000000E+00  0.00000000000E+00  0.43582979491E+03  0.43582979491E+03  0.00000000000E+00 0.  1.
         21   -1    0    0  501  503 -0.00000000000E+00 -0.00000000000E+00 -0.19203169818E+03  0.19203169818E+03  0.00000000000E+00 0.  1.
          6    1    1    2  501    0 -0.89478587883E+02 -0.20524676774E+03  0.56506103196E+02  0.28853872020E+03  0.17300000000E+03 0.  1.
         -6    1    1    2    0  502  0.89478587883E+02  0.20524676774E+03  0.18729199354E+03  0.33932277289E+03  0.17300000000E+03 0.  1.
<mgrwt>
<rscale>  2 0.28295168E+03</rscale>
<asrwt>0</asrwt>
<pdfrwt beam="1">  1       21 0.67050737E-01 0.28295168E+03</pdfrwt>
<pdfrwt beam="2">  1       21 0.29543338E-01 0.28295168E+03</pdfrwt>
<totfact> 0.21362653E+04</totfact>
</mgrwt>
</event>
<event>
 4    1  0.3935877E+000  0.2630574E+03  0.7546771E-02  0.1105320E+00
         21   -1    0    0  501  502  0.00000000000E+00  0.00000000000E+00  0.28222528434E+03  0.28222528434E+03  0.00000000000E+00 0.  1.
         21   -1    0    0  502  503 -0.00000000000E+00 -0.00000000000E+00 -0.55896098593E+03  0.55896098593E+03  0.00000000000E+00 0.  1.
          6    1    1    2  501    0  0.77029585913E+02  0.18258323723E+03  0.17675282244E+03  0.31692389601E+03  0.17300000000E+03 0.  1.
         -6    1    1    2    0  503 -0.77029585913E+02 -0.18258323723E+03 -0.45348852404E+03  0.52426237425E+03  0.17300000000E+03 0.  1.
<mgrwt>
<rscale>  2 0.26305740E+03</rscale>
<asrwt>0</asrwt>
<pdfrwt beam="1">  1       21 0.43419275E-01 0.26305740E+03</pdfrwt>
<pdfrwt beam="2">  1       21 0.85993998E-01 0.26305740E+03</pdfrwt>
<totfact> 0.56737906E+03</totfact>
</mgrwt>
</event>
<event>
 4    1  0.3935877E+000  0.1817952E+03  0.7546771E-02  0.1166077E+00
         21   -1    0    0  501  502  0.00000000000E+00  0.00000000000E+00  0.59861007599E+03  0.59861007599E+03  0.00000000000E+00 0. -1.
         21   -1    0    0  502  503 -0.00000000000E+00 -0.00000000000E+00 -0.77622125576E+02  0.77622125576E+02  0.00000000000E+00 0. -1.
          6    1    1    2  501    0 -0.54832016595E+02 -0.10674431519E+02  0.44217554231E+03  0.47808859404E+03  0.17300000000E+03 0. -1.
         -6    1    1    2    0  503  0.54832016595E+02  0.10674431519E+02  0.78812408099E+02  0.19814360752E+03  0.17300000000E+03 0. -1.
<mgrwt>
<rscale>  2 0.18179520E+03</rscale>
<asrwt>0</asrwt>
<pdfrwt beam="1">  1       21 0.92093854E-01 0.18179520E+03</pdfrwt>
<pdfrwt beam="2">  1       21 0.11941866E-01 0.18179520E+03</pdfrwt>
<totfact> 0.59258201E+04</totfact>
</mgrwt>
</event>
<event>
 4    1  0.3935877E+000  0.2090441E+03  0.7546771E-02  0.1142325E+00
         21   -1    0    0  503  502  0.00000000000E+00  0.00000000000E+00  0.95830985681E+03  0.95830985681E+03  0.00000000000E+00 0. -1.
         21   -1    0    0  501  503 -0.00000000000E+00 -0.00000000000E+00 -0.53941702728E+02  0.53941702728E+02  0.00000000000E+00 0. -1.
          6    1    1    2  501    0 -0.38155848953E+02 -0.11097110633E+03  0.25315835646E+03  0.32831175534E+03  0.17300000000E+03 0. -1.
         -6    1    1    2    0  502  0.38155848953E+02  0.11097110633E+03  0.65120979762E+03  0.68393980420E+03  0.17300000000E+03 0. -1.
<mgrwt>
<rscale>  2 0.20904415E+03</rscale>
<asrwt>0</asrwt>
<pdfrwt beam="1">  1       21 0.14743227E+00 0.20904415E+03</pdfrwt>
<pdfrwt beam="2">  1       21 0.82987242E-02 0.20904415E+03</pdfrwt>
<totfact> 0.34864956E+04</totfact>
</mgrwt>
</event>
<event>
 4    1  0.3935877E+000  0.2543464E+03  0.7546771E-02  0.1110588E+00
         21   -1    0    0  503  502  0.00000000000E+00  0.00000000000E+00  0.30054367526E+03  0.30054367526E+03  0.00000000000E+00 0.  1.
         21   -1    0    0  501  503 -0.00000000000E+00 -0.00000000000E+00 -0.25209685361E+03  0.25209685361E+03  0.00000000000E+00 0. -1.
          6    1    1    2  501    0  0.16302003911E+03 -0.90485207465E+02 -0.81416411582E+02  0.26705942784E+03  0.17300000000E+03 0. -1.
         -6    1    1    2    0  502 -0.16302003911E+03  0.90485207465E+02  0.12986323324E+03  0.28558110104E+03  0.17300000000E+03 0.  1.
<mgrwt>
<rscale>  2 0.25434643E+03</rscale>
<asrwt>0</asrwt>
<pdfrwt beam="1">  1       21 0.46237489E-01 0.25434643E+03</pdfrwt>
<pdfrwt beam="2">  1       21 0.38784131E-01 0.25434643E+03</pdfrwt>
<totfact> 0.27848278E+04</totfact>
</mgrwt>
</event>
<event>
 4    1  0.3935877E+000  0.1876536E+03  0.7546771E-02  0.1160595E+00
         21   -1    0    0  501  502  0.00000000000E+00  0.00000000000E+00  0.11968415453E+03  0.11968415453E+03  0.00000000000E+00 0. -1.
         21   -1    0    0  502  503 -0.00000000000E+00 -0.00000000000E+00 -0.37862083550E+03  0.37862083550E+03  0.00000000000E+00 0.  1.
          6    1    1    2  501    0 -0.57216904268E+02  0.44845323005E+02 -0.11835753435E+02  0.18802649332E+03  0.17300000000E+03 0. -1.
         -6    1    1    2    0  503  0.57216904268E+02 -0.44845323005E+02 -0.24710092754E+03  0.31027849671E+03  0.17300000000E+03 0.  1.
<mgrwt>
<rscale>  2 0.18765361E+03</rscale>
<asrwt>0</asrwt>
<pdfrwt beam="1">  1       21 0.18412947E-01 0.18765361E+03</pdfrwt>
<pdfrwt beam="2">  1       21 0.58249360E-01 0.18765361E+03</pdfrwt>
<totfact> 0.74483267E+04</totfact>
</mgrwt>
</event>
<event>
 4    1  0.3935877E+000  0.3285902E+03  0.7546771E-02  0.1071762E+00
         21   -1    0    0  501  502  0.00000000000E+00  0.00000000000E+00  0.80073555156E+03  0.80073555156E+03  0.00000000000E+00 0.  1.
         21   -1    0    0  502  503 -0.00000000000E+00 -0.00000000000E+00 -0.14199513441E+03  0.14199513441E+03  0.00000000000E+00 0.  1.
          6    1    1    2  501    0  0.25226135645E+03 -0.12002812767E+03  0.43517762470E+03  0.54529909997E+03  0.17300000000E+03 0.  1.
         -6    1    1    2    0  503 -0.25226135645E+03  0.12002812767E+03  0.22356279245E+03  0.39743158601E+03  0.17300000000E+03 0.  1.
<mgrwt>
<rscale>  2 0.32859024E+03</rscale>
<asrwt>0</asrwt>
<pdfrwt beam="1">  1       21 0.12319008E+00 0.32859024E+03</pdfrwt>
<pdfrwt beam="2">  1       21 0.21845406E-01 0.32859024E+03</pdfrwt>
<totfact> 0.89540425E+03</totfact>
</mgrwt>
</event>
<event>
 4    1  0.3935877E+000  0.2713439E+03  0.7546771E-02  0.1100513E+00
         21   -1    0    0  501  502  0.00000000000E+00  0.00000000000E+00  0.25622259505E+03  0.25622259505E+03  0.00000000000E+00 0. -1.
         21   -1    0    0  502  503 -0.00000000000E+00 -0.00000000000E+00 -0.28949638859E+03  0.28949638859E+03  0.00000000000E+00 0.  1.
          6    1    1    2  501    0  0.16441624402E+03 -0.12909614131E+03 -0.40089952239E+02  0.27428948079E+03  0.17300000000E+03 0. -1.
         -6    1    1    2    0  503 -0.16441624402E+03  0.12909614131E+03  0.68161587022E+01  0.27142950285E+03  0.17300000000E+03 0. -1.
<mgrwt>
<rscale>  2 0.27134391E+03</rscale>
<asrwt>0</asrwt>
<pdfrwt beam="1">  1       21 0.39418861E-01 0.27134391E+03</pdfrwt>
<pdfrwt beam="2">  1       21 0.44537906E-01 0.27134391E+03</pdfrwt>
<totfact> 0.28910648E+04</totfact>
</mgrwt>
</event>
<event>
 4    1  0.3935877E+000  0.1874917E+03  0.7546771E-02  0.1160743E+00
         21   -1    0    0  501  502  0.00000000000E+00  0.00000000000E+00  0.52526390863E+02  0.52526390863E+02  0.00000000000E+00 0.  1.
         21   -1    0    0  502  503 -0.00000000000E+00 -0.00000000000E+00 -0.74741538563E+03  0.74741538563E+03  0.00000000000E+00 0.  1.
          6    1    1    2  501    0 -0.20141264285E+02 -0.69415231708E+02 -0.21809578141E+03  0.28760896160E+03  0.17300000000E+03 0.  1.
         -6    1    1    2    0  503  0.20141264285E+02  0.69415231708E+02 -0.47679321335E+03  0.51233281489E+03  0.17300000000E+03 0.  1.
<mgrwt>
<rscale>  2 0.18749172E+03</rscale>
<asrwt>0</asrwt>
<pdfrwt beam="1">  1       21 0.80809835E-02 0.18749172E+03</pdfrwt>
<pdfrwt beam="2">  1       21 0.11498698E+00 0.18749172E+03</pdfrwt>
<totfact> 0.69316651E+04</totfact>
</mgrwt>
</event>
<event>
 4    1  0.3935877E+000  0.1895048E+03  0.7546771E-02  0.1158909E+00
         21   -1    0    0  501  502  0.00000000000E+00  0.00000000000E+00  0.27762570247E+03  0.27762570247E+03  0.00000000000E+00 0. -1.
         21   -1    0    0  502  503 -0.00000000000E+00 -0.00000000000E+00 -0.14247311860E+03  0.14247311860E+03  0.00000000000E+00 0. -1.
          6    1    1    2  501    0  0.72164853625E+02  0.27844086682E+02  0.13131503672E+03  0.23055519541E+03  0.17300000000E+03 0. -1.
         -6    1    1    2    0  503 -0.72164853625E+02 -0.27844086682E+02  0.38375471450E+01  0.18954362566E+03  0.17300000000E+03 0. -1.
<mgrwt>
<rscale>  2 0.18950477E+03</rscale>
<asrwt>0</asrwt>
<pdfrwt beam="1">  1       21 0.42711646E-01 0.18950477E+03</pdfrwt>
<pdfrwt beam="2">  1       21 0.21918941E-01 0.18950477E+03</pdfrwt>
<totfact> 0.10261258E+05</totfact>
</mgrwt>
</event>
<event>
 4    1  0.3935877E+000  0.2166671E+03  0.7546771E-02  0.1136393E+00
         21   -1    0    0  503  502  0.00000000000E+00  0.00000000000E+00  0.14512993292E+03  0.14512993292E+03  0.00000000000E+00 0.  1.
         21   -1    0    0  501  503 -0.00000000000E+00 -0.00000000000E+00 -0.94808174202E+03  0.94808174202E+03  0.00000000000E+00 0.  1.
          6    1    1    2  501    0  0.64982821008E+02  0.11310553544E+03 -0.84514355528E+03  0.87247478944E+03  0.17300000000E+03 0.  1.
         -6    1    1    2    0  502 -0.64982821008E+02 -0.11310553544E+03  0.42191746188E+02  0.22073688550E+03  0.17300000000E+03 0.  1.
<mgrwt>
<rscale>  2 0.21666709E+03</rscale>
<asrwt>0</asrwt>
<pdfrwt beam="1">  1       21 0.22327682E-01 0.21666709E+03</pdfrwt>
<pdfrwt beam="2">  1       21 0.14585873E+00 0.21666709E+03</pdfrwt>
<totfact> 0.59248307E+03</totfact>
</mgrwt>
</event>
<event>
 4    1  0.3935877E+000  0.1809909E+03  0.7546771E-02  0.1166847E+00
         21   -1    0    0  503  502  0.00000000000E+00  0.00000000000E+00  0.28792053502E+02  0.28792053502E+02  0.00000000000E+00 0.  1.
         21   -1    0    0  501  503 -0.00000000000E+00 -0.00000000000E+00 -0.11421960926E+04  0.11421960926E+04  0.00000000000E+00 0.  1.
          6    1    1    2  501    0 -0.53048949698E+02 -0.38105290501E+01 -0.52010889549E+03  0.55070043977E+03  0.17300000000E+03 0.  1.
         -6    1    1    2    0  502  0.53048949698E+02  0.38105290501E+01 -0.59329514355E+03  0.62028770628E+03  0.17300000000E+03 0.  1.
<mgrwt>
<rscale>  2 0.18099091E+03</rscale>
<asrwt>0</asrwt>
<pdfrwt beam="1">  1       21 0.44295468E-02 0.18099091E+03</pdfrwt>
<pdfrwt beam="2">  1       21 0.17572247E+00 0.18099091E+03</pdfrwt>
<totfact> 0.64697087E+04</totfact>
</mgrwt>
</event>
<event>
 4    1  0.3935877E+000  0.1806259E+03  0.7546771E-02  0.1167199E+00
         21   -1    0    0  503  502  0.00000000000E+00  0.00000000000E+00  0.13476424653E+03  0.13476424653E+03  0.00000000000E+00 0.  1.
         21   -1    0    0  501  503 -0.00000000000E+00 -0.00000000000E+00 -0.71672911489E+03  0.71672911489E+03  0.00000000000E+00 0.  1.
          6    1    1    2  501    0  0.15161028278E+02  0.49667658904E+02 -0.63744257757E+03  0.66253963868E+03  0.17300000000E+03 0.  1.
         -6    1    1    2    0  502 -0.15161028278E+02 -0.49667658904E+02  0.55477709203E+02  0.18895372274E+03  0.17300000000E+03 0.  1.
<mgrwt>
<rscale>  2 0.18062595E+03</rscale>
<asrwt>0</asrwt>
<pdfrwt beam="1">  1       21 0.20732961E-01 0.18062595E+03</pdfrwt>
<pdfrwt beam="2">  1       21 0.11026602E+00 0.18062595E+03</pdfrwt>
<totfact> 0.14125660E+04</totfact>
</mgrwt>
</event>
<event>
 4    1  0.3935877E+000  0.1766688E+03  0.7546771E-02  0.1171067E+00
         21   -1    0    0  503  502  0.00000000000E+00  0.00000000000E+00  0.40309277025E+03  0.40309277025E+03  0.00000000000E+00 0. -1.
         21   -1    0    0  501  503 -0.00000000000E+00 -0.00000000000E+00 -0.25900359211E+03  0.25900359211E+03  0.00000000000E+00 0. -1.
          6    1    1    2  501    0  0.10673416258E+02  0.34189580782E+02 -0.20513646343E+03  0.27072646320E+03  0.17300000000E+03 0. -1.
         -6    1    1    2    0  502 -0.10673416258E+02 -0.34189580782E+02  0.34922564156E+03  0.39136989916E+03  0.17300000000E+03 0. -1.
<mgrwt>
<rscale>  2 0.17666876E+03</rscale>
<asrwt>0</asrwt>
<pdfrwt beam="1">  1       21 0.62014273E-01 0.17666876E+03</pdfrwt>
<pdfrwt beam="2">  1       21 0.39846706E-01 0.17666876E+03</pdfrwt>
<totfact> 0.14801828E+04</totfact>
</mgrwt>
</event>
<event>
 4    1  0.3935877E+000  0.2610481E+03  0.7546771E-02  0.1106515E+00
         21   -1    0    0  501  502  0.00000000000E+00  0.00000000000E+00  0.19084351800E+04  0.19084351800E+04  0.00000000000E+00 0. -1.
         21   -1    0    0  502  503 -0.00000000000E+00 -0.00000000000E+00 -0.81003648121E+02  0.81003648121E+02  0.00000000000E+00 0. -1.
          6    1    1    2  501    0 -0.18020886826E+03  0.75775276166E+02  0.16575518359E+04  0.16779821862E+04  0.17300000000E+03 0. -1.
         -6    1    1    2    0  503  0.18020886826E+03 -0.75775276166E+02  0.16987969605E+03  0.31145664194E+03  0.17300000000E+03 0. -1.
<mgrwt>
<rscale>  2 0.26104813E+03</rscale>
<asrwt>0</asrwt>
<pdfrwt beam="1">  1       21 0.29360538E+00 0.26104813E+03</pdfrwt>
<pdfrwt beam="2">  1       21 0.12462101E-01 0.26104813E+03</pdfrwt>
<totfact> 0.18922947E+03</totfact>
</mgrwt>
</event>
<event>
 4    1  0.3935877E+000  0.1867786E+03  0.7546771E-02  0.1161399E+00
         21   -1    0    0  501  502  0.00000000000E+00  0.00000000000E+00  0.30028555772E+03  0.30028555772E+03  0.00000000000E+00 0. -1.
         21   -1    0    0  502  503 -0.00000000000E+00 -0.00000000000E+00 -0.14080136152E+03  0.14080136152E+03  0.00000000000E+00 0. -1.
          6    1    1    2  501    0 -0.44113440069E+02  0.54874973638E+02  0.17197242370E+03  0.25389126184E+03  0.17300000000E+03 0. -1.
         -6    1    1    2    0  503  0.44113440069E+02 -0.54874973638E+02 -0.12488227497E+02  0.18719565741E+03  0.17300000000E+03 0. -1.
<mgrwt>
<rscale>  2 0.18677863E+03</rscale>
<asrwt>0</asrwt>
<pdfrwt beam="1">  1       21 0.46197778E-01 0.18677863E+03</pdfrwt>
<pdfrwt beam="2">  1       21 0.21661748E-01 0.18677863E+03</pdfrwt>
<totfact> 0.89429859E+04</totfact>
</mgrwt>
</event>
<event>
 4    1  0.3935877E+000  0.2735253E+03  0.7546771E-02  0.1099279E+00
         21   -1    0    0  503  502  0.00000000000E+00  0.00000000000E+00  0.11932502434E+04  0.11932502434E+04  0.00000000000E+00 0.  1.
         21   -1    0    0  501  503 -0.00000000000E+00 -0.00000000000E+00 -0.81328183739E+02  0.81328183739E+02  0.00000000000E+00 0.  1.
          6    1    1    2  501    0  0.40690477394E+02  0.20792155717E+03  0.25095520083E+03  0.37120695266E+03  0.17300000000E+03 0.  1.
         -6    1    1    2    0  502 -0.40690477394E+02 -0.20792155717E+03  0.86096685886E+03  0.90337147450E+03  0.17300000000E+03 0.  1.
<mgrwt>
<rscale>  2 0.27352530E+03</rscale>
<asrwt>0</asrwt>
<pdfrwt beam="1">  1       21 0.18357695E+00 0.27352530E+03</pdfrwt>
<pdfrwt beam="2">  1       21 0.12512029E-01 0.27352530E+03</pdfrwt>
<totfact> 0.88498587E+03</totfact>
</mgrwt>
</event>
<event>
 4    1  0.3935877E+000  0.1828944E+03  0.7546771E-02  0.1165031E+00
         21   -1    0    0  503  502  0.00000000000E+00  0.00000000000E+00  0.19492315221E+04  0.19492315221E+04  0.00000000000E+00 0.  1.
         21   -1    0    0  501  503 -0.00000000000E+00 -0.00000000000E+00 -0.17883723474E+02  0.17883723474E+02  0.00000000000E+00 0.  1.
          6    1    1    2  501    0 -0.30923001314E+02  0.50647030280E+02  0.76792236217E+03  0.78940174057E+03  0.17300000000E+03 0.  1.
         -6    1    1    2    0  502  0.30923001314E+02 -0.50647030280E+02  0.11634254364E+04  0.11777135050E+04  0.17300000000E+03 0.  1.
<mgrwt>
<rscale>  2 0.18289438E+03</rscale>
<asrwt>0</asrwt>
<pdfrwt beam="1">  1       21 0.29988160E+00 0.18289438E+03</pdfrwt>
<pdfrwt beam="2">  1       21 0.27513436E-02 0.18289438E+03</pdfrwt>
<totfact> 0.25200528E+04</totfact>
</mgrwt>
</event>
<event>
 4    1  0.3935877E+000  0.1839197E+03  0.7546771E-02  0.1164063E+00
         21   -1    0    0  501  502  0.00000000000E+00  0.00000000000E+00  0.94337142698E+03  0.94337142698E+03  0.00000000000E+00 0.  1.
         21   -1    0    0  502  503 -0.00000000000E+00 -0.00000000000E+00 -0.50399007237E+02  0.50399007237E+02  0.00000000000E+00 0.  1.
          6    1    1    2  501    0  0.19707778694E+02 -0.59237256559E+02  0.71339174633E+03  0.73671855741E+03  0.17300000000E+03 0.  1.
         -6    1    1    2    0  503 -0.19707778694E+02  0.59237256559E+02  0.17958067342E+03  0.25705187681E+03  0.17300000000E+03 0.  1.
<mgrwt>
<rscale>  2 0.18391968E+03</rscale>
<asrwt>0</asrwt>
<pdfrwt beam="1">  1       21 0.14513405E+00 0.18391968E+03</pdfrwt>
<pdfrwt beam="2">  1       21 0.77536941E-02 0.18391968E+03</pdfrwt>
<totfact> 0.41499680E+04</totfact>
</mgrwt>
</event>
<event>
 4    1  0.3935877E+000  0.2046642E+03  0.7546771E-02  0.1145862E+00
         21   -1    0    0  503  502  0.00000000000E+00  0.00000000000E+00  0.28868955908E+03  0.28868955908E+03  0.00000000000E+00 0. -1.
         21   -1    0    0  501  503 -0.00000000000E+00 -0.00000000000E+00 -0.17863560228E+03  0.17863560228E+03  0.00000000000E+00 0.  1.
          6    1    1    2  501    0 -0.37502203692E+02 -0.10272293724E+03 -0.46221956623E+02  0.20981869886E+03  0.17300000000E+03 0.  1.
         -6    1    1    2    0  502  0.37502203692E+02  0.10272293724E+03  0.15627591342E+03  0.25750646251E+03  0.17300000000E+03 0. -1.
<mgrwt>
<rscale>  2 0.20466416E+03</rscale>
<asrwt>0</asrwt>
<pdfrwt beam="1">  1       21 0.44413778E-01 0.20466416E+03</pdfrwt>
<pdfrwt beam="2">  1       21 0.27482400E-01 0.20466416E+03</pdfrwt>
<totfact> 0.61143868E+04</totfact>
</mgrwt>
</event>
<event>
 4    1  0.3935877E+000  0.1966302E+03  0.7546771E-02  0.1152614E+00
         21   -1    0    0  503  502  0.00000000000E+00  0.00000000000E+00  0.21011883141E+03  0.21011883141E+03  0.00000000000E+00 0. -1.
         21   -1    0    0  501  503 -0.00000000000E+00 -0.00000000000E+00 -0.26149297587E+03  0.26149297587E+03  0.00000000000E+00 0.  1.
          6    1    1    2  501    0  0.62216949382E+02 -0.69738620277E+02 -0.15404864749E+03  0.24978873022E+03  0.17300000000E+03 0.  1.
         -6    1    1    2    0  502 -0.62216949382E+02  0.69738620277E+02  0.10267450303E+03  0.22182307707E+03  0.17300000000E+03 0. -1.
<mgrwt>
<rscale>  2 0.19663017E+03</rscale>
<asrwt>0</asrwt>
<pdfrwt beam="1">  1       21 0.32325974E-01 0.19663017E+03</pdfrwt>
<pdfrwt beam="2">  1       21 0.40229689E-01 0.19663017E+03</pdfrwt>
<totfact> 0.54718536E+04</totfact>
</mgrwt>
</event>
<event>
 4    1  0.3935877E+000  0.1780148E+03  0.7546771E-02  0.1169738E+00
         21   -1    0    0  503  502  0.00000000000E+00  0.00000000000E+00  0.24180348999E+03  0.24180348999E+03  0.00000000000E+00 0.  1.
         21   -1    0    0  501  503 -0.00000000000E+00 -0.00000000000E+00 -0.23106400029E+03  0.23106400029E+03  0.00000000000E+00 0.  1.
          6    1    1    2  501    0 -0.25362782926E+02  0.33421345547E+02 -0.15017865509E+03  0.23290102091E+03  0.17300000000E+03 0.  1.
         -6    1    1    2    0  502  0.25362782926E+02 -0.33421345547E+02  0.16091814480E+03  0.23996646937E+03  0.17300000000E+03 0.  1.
<mgrwt>
<rscale>  2 0.17801477E+03</rscale>
<asrwt>0</asrwt>
<pdfrwt beam="1">  1       21 0.37200537E-01 0.17801477E+03</pdfrwt>
<pdfrwt beam="2">  1       21 0.35548308E-01 0.17801477E+03</pdfrwt>
<totfact> 0.53535974E+04</totfact>
</mgrwt>
</event>
<event>
 4    1  0.3935877E+000  0.1852826E+03  0.7546771E-02  0.1162786E+00
         21   -1    0    0  503  502  0.00000000000E+00  0.00000000000E+00  0.17352110928E+03  0.17352110928E+03  0.00000000000E+00 0. -1.
         21   -1    0    0  501  503 -0.00000000000E+00 -0.00000000000E+00 -0.42309114863E+03  0.42309114863E+03  0.00000000000E+00 0. -1.
          6    1    1    2  501    0 -0.45594781105E+01  0.66180371051E+02 -0.34244446810E+03  0.38935567812E+03  0.17300000000E+03 0. -1.
         -6    1    1    2    0  502  0.45594781105E+01 -0.66180371051E+02  0.92874428750E+02  0.20725657980E+03  0.17300000000E+03 0. -1.
<mgrwt>
<rscale>  2 0.18528257E+03</rscale>
<asrwt>0</asrwt>
<pdfrwt beam="1">  1       21 0.26695555E-01 0.18528257E+03</pdfrwt>
<pdfrwt beam="2">  1       21 0.65090946E-01 0.18528257E+03</pdfrwt>
<totfact> 0.29140747E+04</totfact>
</mgrwt>
</event>
<event>
 4    1  0.3935877E+000  0.1860726E+03  0.7546771E-02  0.1162052E+00
         21   -1    0    0  501  502  0.00000000000E+00  0.00000000000E+00  0.25578265640E+03  0.25578265640E+03  0.00000000000E+00 0.  1.
         21   -1    0    0  502  503 -0.00000000000E+00 -0.00000000000E+00 -0.39771152602E+03  0.39771152602E+03  0.00000000000E+00 0.  1.
          6    1    1    2  501    0 -0.59323555060E+02  0.34274150551E+02  0.19441581188E+03  0.26911058970E+03  0.17300000000E+03 0.  1.
         -6    1    1    2    0  503  0.59323555060E+02 -0.34274150551E+02 -0.33634468150E+03  0.38438359272E+03  0.17300000000E+03 0.  1.
<mgrwt>
<rscale>  2 0.18607257E+03</rscale>
<asrwt>0</asrwt>
<pdfrwt beam="1">  1       21 0.39351178E-01 0.18607257E+03</pdfrwt>
<pdfrwt beam="2">  1       21 0.61186389E-01 0.18607257E+03</pdfrwt>
<totfact> 0.15530640E+04</totfact>
</mgrwt>
</event>
<event>
 4    1  0.3935877E+000  0.2118526E+03  0.7546771E-02  0.1140107E+00
         21   -1    0    0  503  502  0.00000000000E+00  0.00000000000E+00  0.28660073074E+03  0.28660073074E+03  0.00000000000E+00 0.  1.
         21   -1    0    0  501  503 -0.00000000000E+00 -0.00000000000E+00 -0.17786229788E+03  0.17786229788E+03  0.00000000000E+00 0. -1.
          6    1    1    2  501    0  0.11501248624E+03  0.41528779456E+02 -0.25926080657E+02  0.21343306485E+03  0.17300000000E+03 0. -1.
         -6    1    1    2    0  502 -0.11501248624E+03 -0.41528779456E+02  0.13466451351E+03  0.25102996377E+03  0.17300000000E+03 0.  1.
<mgrwt>
<rscale>  2 0.21185257E+03</rscale>
<asrwt>0</asrwt>
<pdfrwt beam="1">  1       21 0.44092420E-01 0.21185257E+03</pdfrwt>
<pdfrwt beam="2">  1       21 0.27363430E-01 0.21185257E+03</pdfrwt>
<totfact> 0.62383517E+04</totfact>
</mgrwt>
</event>
<event>
 4    1  0.3935877E+000  0.2050112E+03  0.7546771E-02  0.1145579E+00
         21   -1    0    0  501  502  0.00000000000E+00  0.00000000000E+00  0.17734759319E+03  0.17734759319E+03  0.00000000000E+00 0. -1.
         21   -1    0    0  502  503 -0.00000000000E+00 -0.00000000000E+00 -0.36138245702E+03  0.36138245702E+03  0.00000000000E+00 0. -1.
          6    1    1    2  501    0 -0.66745815716E+02  0.87439107971E+02  0.66018099261E+02  0.21537871517E+03  0.17300000000E+03 0. -1.
         -6    1    1    2    0  503  0.66745815716E+02 -0.87439107971E+02 -0.25005296309E+03  0.32335133504E+03  0.17300000000E+03 0. -1.
<mgrwt>
<rscale>  2 0.20501122E+03</rscale>
<asrwt>0</asrwt>
<pdfrwt beam="1">  1       21 0.27284245E-01 0.20501122E+03</pdfrwt>
<pdfrwt beam="2">  1       21 0.55597301E-01 0.20501122E+03</pdfrwt>
<totfact> 0.38798023E+04</totfact>
</mgrwt>
</event>
<event>
 4    1  0.3935877E+000  0.1788246E+03  0.7546771E-02  0.1168945E+00
         21   -1    0    0  503  502  0.00000000000E+00  0.00000000000E+00  0.20965682521E+03  0.20965682521E+03  0.00000000000E+00 0. -1.
         21   -1    0    0  501  503 -0.00000000000E+00 -0.00000000000E+00 -0.15396011780E+03  0.15396011780E+03  0.00000000000E+00 0. -1.
          6    1    1    2  501    0 -0.38378944408E+02  0.24006298518E+02  0.10305131810E+02  0.17912130383E+03  0.17300000000E+03 0.  1.
         -6    1    1    2    0  502  0.38378944408E+02 -0.24006298518E+02  0.45391575597E+02  0.18449563918E+03  0.17300000000E+03 0.  1.
<mgrwt>
<rscale>  2 0.17882462E+03</rscale>
<asrwt>0</asrwt>
<pdfrwt beam="1">  1       21 0.32254896E-01 0.17882462E+03</pdfrwt>
<pdfrwt beam="2">  1       21 0.23686172E-01 0.17882462E+03</pdfrwt>
<totfact> 0.15590379E+05</totfact>
</mgrwt>
</event>
<event>
 4    1  0.3935877E+000  0.1776629E+03  0.7546771E-02  0.1170084E+00
         21   -1    0    0  501  502  0.00000000000E+00  0.00000000000E+00  0.78186188336E+02  0.78186188336E+02  0.00000000000E+00 0.  1.
         21   -1    0    0  502  503 -0.00000000000E+00 -0.00000000000E+00 -0.40436275213E+03  0.40436275213E+03  0.00000000000E+00 0.  1.
          6    1    1    2  501    0 -0.38036937910E+02 -0.13721542317E+02 -0.15335107141E+03  0.23469265108E+03  0.17300000000E+03 0.  1.
         -6    1    1    2    0  503  0.38036937910E+02  0.13721542317E+02 -0.17282549238E+03  0.24785628938E+03  0.17300000000E+03 0.  1.
<mgrwt>
<rscale>  2 0.17766285E+03</rscale>
<asrwt>0</asrwt>
<pdfrwt beam="1">  1       21 0.12028645E-01 0.17766285E+03</pdfrwt>
<pdfrwt beam="2">  1       21 0.62209653E-01 0.17766285E+03</pdfrwt>
<totfact> 0.14078114E+05</totfact>
</mgrwt>
</event>
<event>
 4    1  0.3935877E+000  0.1781370E+03  0.7546771E-02  0.1169618E+00
         21   -1    0    0  501  502  0.00000000000E+00  0.00000000000E+00  0.59069523666E+02  0.59069523666E+02  0.00000000000E+00 0. -1.
         21   -1    0    0  502  503 -0.00000000000E+00 -0.00000000000E+00 -0.97129636164E+03  0.97129636164E+03  0.00000000000E+00 0. -1.
          6    1    1    2  501    0 -0.28411844857E+02  0.31568284847E+02 -0.11170541533E+03  0.21026385650E+03  0.17300000000E+03 0. -1.
         -6    1    1    2    0  503  0.28411844857E+02 -0.31568284847E+02 -0.80052142265E+03  0.82010202881E+03  0.17300000000E+03 0. -1.
<mgrwt>
<rscale>  2 0.17813700E+03</rscale>
<asrwt>0</asrwt>
<pdfrwt beam="1">  1       21 0.90876186E-02 0.17813700E+03</pdfrwt>
<pdfrwt beam="2">  1       21 0.14943022E+00 0.17813700E+03</pdfrwt>
<totfact> 0.29260817E+04</totfact>
</mgrwt>
</event>
<event>
 4    1  0.3935877E+000  0.2191777E+03  0.7546771E-02  0.1134498E+00
         21   -1    0    0  503  502  0.00000000000E+00  0.00000000000E+00  0.11912924579E+03  0.11912924579E+03  0.00000000000E+00 0. -1.
         21   -1    0    0  501  503 -0.00000000000E+00 -0.00000000000E+00 -0.63829214148E+03  0.63829214148E+03  0.00000000000E+00 0. -1.
          6    1    1    2  501    0 -0.84073981879E+02  0.10507820280E+03 -0.48939240307E+03  0.53623109506E+03  0.17300000000E+03 0. -1.
         -6    1    1    2    0  502  0.84073981879E+02 -0.10507820280E+03 -0.29770492621E+02  0.22119029220E+03  0.17300000000E+03 0. -1.
<mgrwt>
<rscale>  2 0.21917770E+03</rscale>
<asrwt>0</asrwt>
<pdfrwt beam="1">  1       21 0.18327577E-01 0.21917770E+03</pdfrwt>
<pdfrwt beam="2">  1       21 0.98198789E-01 0.21917770E+03</pdfrwt>
<totfact> 0.22911990E+04</totfact>
</mgrwt>
</event>
<event>
 4    1  0.3935877E+000  0.2551682E+03  0.7546771E-02  0.1110082E+00
         21   -1    0    0  501  502  0.00000000000E+00  0.00000000000E+00  0.44867028231E+03  0.44867028231E+03  0.00000000000E+00 0. -1.
         21   -1    0    0  502  503 -0.00000000000E+00 -0.00000000000E+00 -0.68522775799E+03  0.68522775799E+03  0.00000000000E+00 0. -1.
          6    1    1    2  501    0  0.18028398652E+03  0.51763838561E+02  0.38506763183E+03  0.46193927291E+03  0.17300000000E+03 0. -1.
         -6    1    1    2    0  503 -0.18028398652E+03 -0.51763838561E+02 -0.62162510751E+03  0.67195876739E+03  0.17300000000E+03 0. -1.
<mgrwt>
<rscale>  2 0.25516820E+03</rscale>
<asrwt>0</asrwt>
<pdfrwt beam="1">  1       21 0.69026198E-01 0.25516820E+03</pdfrwt>
<pdfrwt beam="2">  1       21 0.10541965E+00 0.25516820E+03</pdfrwt>
<totfact> 0.13106670E+03</totfact>
</mgrwt>
</event>
<event>
 4    1  0.3935877E+000  0.1743404E+03  0.7546771E-02  0.1173396E+00
         21   -1    0    0  501  502  0.00000000000E+00  0.00000000000E+00  0.25453298129E+02  0.25453298129E+02  0.00000000000E+00 0. -1.
         21   -1    0    0  502  503 -0.00000000000E+00 -0.00000000000E+00 -0.14139087188E+04  0.14139087188E+04  0.00000000000E+00 0. -1.
          6    1    1    2  501    0 -0.19930838911E+02  0.82669887822E+01 -0.41048753445E+03  0.44597600539E+03  0.17300000000E+03 0.  1.
         -6    1    1    2    0  503  0.19930838911E+02 -0.82669887822E+01 -0.97796788618E+03  0.99338601150E+03  0.17300000000E+03 0.  1.
<mgrwt>
<rscale>  2 0.17434042E+03</rscale>
<asrwt>0</asrwt>
<pdfrwt beam="1">  1       21 0.39158922E-02 0.17434042E+03</pdfrwt>
<pdfrwt beam="2">  1       21 0.21752441E+00 0.17434042E+03</pdfrwt>
<totfact> 0.42874069E+04</totfact>
</mgrwt>
</event>
<event>
 4    1  0.3935877E+000  0.2002221E+03  0.7546771E-02  0.1149552E+00
         21   -1    0    0  503  502  0.00000000000E+00  0.00000000000E+00  0.16707874279E+03  0.16707874279E+03  0.00000000000E+00 0. -1.
         21   -1    0    0  501  503 -0.00000000000E+00 -0.00000000000E+00 -0.11225433496E+04  0.11225433496E+04  0.00000000000E+00 0. -1.
          6    1    1    2  501    0 -0.48671286359E+02 -0.88266674519E+02 -0.10494921531E+04  0.10684206472E+04  0.17300000000E+03 0. -1.
         -6    1    1    2    0  502  0.48671286359E+02  0.88266674519E+02  0.94027546202E+02  0.22120144527E+03  0.17300000000E+03 0. -1.
<mgrwt>
<rscale>  2 0.20022213E+03</rscale>
<asrwt>0</asrwt>
<pdfrwt beam="1">  1       21 0.25704422E-01 0.20022213E+03</pdfrwt>
<pdfrwt beam="2">  1       21 0.17269898E+00 0.20022213E+03</pdfrwt>
<totfact> 0.29136551E+03</totfact>
</mgrwt>
</event>
<event>
 4    1  0.3935877E+000  0.4657128E+03  0.7546771E-02  0.1023137E+00
         21   -1    0    0  503  502  0.00000000000E+00  0.00000000000E+00  0.21477725799E+03  0.21477725799E+03  0.00000000000E+00 0. -1.
         21   -1    0    0  501  503 -0.00000000000E+00 -0.00000000000E+00 -0.15481570276E+04  0.15481570276E+04  0.00000000000E+00 0.  1.
          6    1    1    2  501    0  0.22108635468E+03  0.37159143848E+03 -0.11864727862E+04  0.12746003475E+04  0.17300000000E+03 0.  1.
         -6    1    1    2    0  502 -0.22108635468E+03 -0.37159143848E+03 -0.14690698345E+03  0.48833393816E+03  0.17300000000E+03 0. -1.
<mgrwt>
<rscale>  2 0.46571276E+03</rscale>
<asrwt>0</asrwt>
<pdfrwt beam="1">  1       21 0.33042655E-01 0.46571276E+03</pdfrwt>
<pdfrwt beam="2">  1       21 0.23817800E+00 0.46571276E+03</pdfrwt>
<totfact> 0.55736303E+02</totfact>
</mgrwt>
</event>
<event>
 4    1  0.3935877E+000  0.1776451E+03  0.7546771E-02  0.1170102E+00
         21   -1    0    0  501  502  0.00000000000E+00  0.00000000000E+00  0.25840702563E+03  0.25840702563E+03  0.00000000000E+00 0. -1.
         21   -1    0    0  502  503 -0.00000000000E+00 -0.00000000000E+00 -0.12681066527E+03  0.12681066527E+03  0.00000000000E+00 0. -1.
          6    1    1    2  501    0 -0.30459547282E+02  0.26476360073E+02  0.10282492992E+03  0.20525775960E+03  0.17300000000E+03 0. -1.
         -6    1    1    2    0  503  0.30459547282E+02 -0.26476360073E+02  0.28771430431E+02  0.17995993130E+03  0.17300000000E+03 0. -1.
<mgrwt>
<rscale>  2 0.17764510E+03</rscale>
<asrwt>0</asrwt>
<pdfrwt beam="1">  1       21 0.39754927E-01 0.17764510E+03</pdfrwt>
<pdfrwt beam="2">  1       21 0.19509333E-01 0.17764510E+03</pdfrwt>
<totfact> 0.14817685E+05</totfact>
</mgrwt>
</event>
<event>
 4    1  0.3935877E+000  0.2025828E+03  0.7546771E-02  0.1147578E+00
         21   -1    0    0  501  502  0.00000000000E+00  0.00000000000E+00  0.42663272321E+02  0.42663272321E+02  0.00000000000E+00 0.  1.
         21   -1    0    0  502  503 -0.00000000000E+00 -0.00000000000E+00 -0.10985479504E+04  0.10985479504E+04  0.00000000000E+00 0. -1.
          6    1    1    2  501    0 -0.93317081967E+02  0.49017403852E+02 -0.32673016558E+03  0.38443775148E+03  0.17300000000E+03 0.  1.
         -6    1    1    2    0  503  0.93317081967E+02 -0.49017403852E+02 -0.72915451250E+03  0.75677347124E+03  0.17300000000E+03 0. -1.
<mgrwt>
<rscale>  2 0.20258278E+03</rscale>
<asrwt>0</asrwt>
<pdfrwt beam="1">  1       21 0.65635807E-02 0.20258278E+03</pdfrwt>
<pdfrwt beam="2">  1       21 0.16900737E+00 0.20258278E+03</pdfrwt>
<totfact> 0.36420924E+04</totfact>
</mgrwt>
</event>
<event>
 4    1  0.3935877E+000  0.1875162E+03  0.7546771E-02  0.1160721E+00
         21   -1    0    0  501  502  0.00000000000E+00  0.00000000000E+00  0.14459007362E+02  0.14459007362E+02  0.00000000000E+00 0. -1.
         21   -1    0    0  502  503 -0.00000000000E+00 -0.00000000000E+00 -0.29704730343E+04  0.29704730343E+04  0.00000000000E+00 0. -1.
          6    1    1    2  501    0 -0.70322478914E+02 -0.16972991814E+02 -0.84248788200E+03  0.86310379724E+03  0.17300000000E+03 0. -1.
         -6    1    1    2    0  503  0.70322478914E+02  0.16972991814E+02 -0.21135261449E+04  0.21218282444E+04  0.17300000000E+03 0. -1.
<mgrwt>
<rscale>  2 0.18751622E+03</rscale>
<asrwt>0</asrwt>
<pdfrwt beam="1">  1       21 0.22244606E-02 0.18751622E+03</pdfrwt>
<pdfrwt beam="2">  1       21 0.45699627E+00 0.18751622E+03</pdfrwt>
<totfact> 0.38972249E+03</totfact>
</mgrwt>
</event>
<event>
 4    1  0.3935877E+000  0.1874324E+03  0.7546771E-02  0.1160798E+00
         21   -1    0    0  501  502  0.00000000000E+00  0.00000000000E+00  0.20485382730E+03  0.20485382730E+03  0.00000000000E+00 0.  1.
         21   -1    0    0  502  503 -0.00000000000E+00 -0.00000000000E+00 -0.18988173876E+03  0.18988173876E+03  0.00000000000E+00 0.  1.
          6    1    1    2  501    0  0.71479405756E+02 -0.96227193937E+01  0.68906936908E+02  0.19969744147E+03  0.17300000000E+03 0. -1.
         -6    1    1    2    0  503 -0.71479405756E+02  0.96227193937E+01 -0.53934848370E+02  0.19503812459E+03  0.17300000000E+03 0. -1.
<mgrwt>
<rscale>  2 0.18743239E+03</rscale>
<asrwt>0</asrwt>
<pdfrwt beam="1">  1       21 0.31515974E-01 0.18743239E+03</pdfrwt>
<pdfrwt beam="2">  1       21 0.29212575E-01 0.18743239E+03</pdfrwt>
<totfact> 0.10880877E+05</totfact>
</mgrwt>
</event>
<event>
 4    1  0.3935877E+000  0.1758548E+03  0.7546771E-02  0.1171876E+00
         21   -1    0    0  501  502  0.00000000000E+00  0.00000000000E+00  0.32074513128E+03  0.32074513128E+03  0.00000000000E+00 0.  1.
         21   -1    0    0  502  503 -0.00000000000E+00 -0.00000000000E+00 -0.33662575205E+03  0.33662575205E+03  0.00000000000E+00 0.  1.
          6    1    1    2  501    0  0.28769948650E+02 -0.12969369655E+02  0.26971261469E+03  0.32197796356E+03  0.17300000000E+03 0.  1.
         -6    1    1    2    0  503 -0.28769948650E+02  0.12969369655E+02 -0.28559323546E+03  0.33539291978E+03  0.17300000000E+03 0.  1.
<mgrwt>
<rscale>  2 0.17585481E+03</rscale>
<asrwt>0</asrwt>
<pdfrwt beam="1">  1       21 0.49345405E-01 0.17585481E+03</pdfrwt>
<pdfrwt beam="2">  1       21 0.51788577E-01 0.17585481E+03</pdfrwt>
<totfact> 0.14018872E+04</totfact>
</mgrwt>
</event>
<event>
 4    1  0.3935877E+000  0.2178861E+03  0.7546771E-02  0.1135469E+00
         21   -1    0    0  501  502  0.00000000000E+00  0.00000000000E+00  0.33659318223E+02  0.33659318223E+02  0.00000000000E+00 0.  1.
         21   -1    0    0  502  503 -0.00000000000E+00 -0.00000000000E+00 -0.15741448508E+04  0.15741448508E+04  0.00000000000E+00 0.  1.
          6    1    1    2  501    0 -0.22453739743E+02  0.13054180942E+03 -0.51099436370E+03  0.55550839253E+03  0.17300000000E+03 0.  1.
         -6    1    1    2    0  503  0.22453739743E+02 -0.13054180942E+03 -0.10294911688E+04  0.10522957765E+04  0.17300000000E+03 0.  1.
<mgrwt>
<rscale>  2 0.21788606E+03</rscale>
<asrwt>0</asrwt>
<pdfrwt beam="1">  1       21 0.51783568E-02 0.21788606E+03</pdfrwt>
<pdfrwt beam="2">  1       21 0.24217612E+00 0.21788606E+03</pdfrwt>
<totfact> 0.18355086E+04</totfact>
</mgrwt>
</event>
<event>
 4    1  0.3935877E+000  0.1852225E+03  0.7546771E-02  0.1162842E+00
         21   -1    0    0  501  502  0.00000000000E+00  0.00000000000E+00  0.28947694715E+03  0.28947694715E+03  0.00000000000E+00 0. -1.
         21   -1    0    0  502  503 -0.00000000000E+00 -0.00000000000E+00 -0.13257605787E+03  0.13257605787E+03  0.00000000000E+00 0. -1.
          6    1    1    2  501    0 -0.65694436061E+02 -0.79124953381E+01  0.14717518723E+03  0.23657536272E+03  0.17300000000E+03 0. -1.
         -6    1    1    2    0  503  0.65694436061E+02  0.79124953381E+01  0.97257020460E+01  0.18547764230E+03  0.17300000000E+03 0. -1.
<mgrwt>
<rscale>  2 0.18522248E+03</rscale>
<asrwt>0</asrwt>
<pdfrwt beam="1">  1       21 0.44534915E-01 0.18522248E+03</pdfrwt>
<pdfrwt beam="2">  1       21 0.20396317E-01 0.18522248E+03</pdfrwt>
<totfact> 0.10800759E+05</totfact>
</mgrwt>
</event>
<event>
 4    1  0.3935877E+000  0.1757620E+03  0.7546771E-02  0.1171969E+00
         21   -1    0    0  501  502  0.00000000000E+00  0.00000000000E+00  0.16464852298E+03  0.16464852298E+03  0.00000000000E+00 0. -1.
         21   -1    0    0  502  503 -0.00000000000E+00 -0.00000000000E+00 -0.18888264085E+03  0.18888264085E+03  0.00000000000E+00 0. -1.
          6    1    1    2  501    0  0.30784441457E+02  0.39499490803E+01  0.23031005836E+01  0.17577709807E+03  0.17300000000E+03 0.  1.
         -6    1    1    2    0  503 -0.30784441457E+02 -0.39499490803E+01 -0.26537218455E+02  0.17775406577E+03  0.17300000000E+03 0.  1.
<mgrwt>
<rscale>  2 0.17576201E+03</rscale>
<asrwt>0</asrwt>
<pdfrwt beam="1">  1       21 0.25330542E-01 0.17576201E+03</pdfrwt>
<pdfrwt beam="2">  1       21 0.29058868E-01 0.17576201E+03</pdfrwt>
<totfact> 0.16834812E+05</totfact>
</mgrwt>
</event>
<event>
 4    1  0.3935877E+000  0.1986216E+03  0.7546771E-02  0.1150907E+00
         21   -1    0    0  501  502  0.00000000000E+00  0.00000000000E+00  0.28702674719E+03  0.28702674719E+03  0.00000000000E+00 0.  1.
         21   -1    0    0  502  503 -0.00000000000E+00 -0.00000000000E+00 -0.14544799579E+03  0.14544799579E+03  0.00000000000E+00 0.  1.
          6    1    1    2  501    0  0.81794268872E+02  0.53209240994E+02  0.12151068597E+03  0.23284194758E+03  0.17300000000E+03 0.  1.
         -6    1    1    2    0  503 -0.81794268872E+02 -0.53209240994E+02  0.20068065435E+02  0.19963279540E+03  0.17300000000E+03 0.  1.
<mgrwt>
<rscale>  2 0.19862156E+03</rscale>
<asrwt>0</asrwt>
<pdfrwt beam="1">  1       21 0.44157961E-01 0.19862156E+03</pdfrwt>
<pdfrwt beam="2">  1       21 0.22376615E-01 0.19862156E+03</pdfrwt>
<totfact> 0.91861041E+04</totfact>
</mgrwt>
</event>
<event>
 4    1  0.3935877E+000  0.2493295E+03  0.7546771E-02  0.1113729E+00
         21   -1    0    0  503  502  0.00000000000E+00  0.00000000000E+00  0.74960365214E+02  0.74960365214E+02  0.00000000000E+00 0. -1.
         21   -1    0    0  501  503 -0.00000000000E+00 -0.00000000000E+00 -0.83348832514E+03  0.83348832514E+03  0.00000000000E+00 0.  1.
          6    1    1    2  501    0 -0.17035449612E+03 -0.56705961644E+02 -0.41143261919E+03  0.48108421360E+03  0.17300000000E+03 0.  1.
         -6    1    1    2    0  502  0.17035449612E+03  0.56705961644E+02 -0.34709534073E+03  0.42736447676E+03  0.17300000000E+03 0.  1.
<mgrwt>
<rscale>  2 0.24932954E+03</rscale>
<asrwt>0</asrwt>
<pdfrwt beam="1">  1       21 0.11532364E-01 0.24932954E+03</pdfrwt>
<pdfrwt beam="2">  1       21 0.12822897E+00 0.24932954E+03</pdfrwt>
<totfact> 0.27316406E+04</totfact>
</mgrwt>
</event>
<event>
 4    1  0.3935877E+000  0.1946525E+03  0.7546771E-02  0.1154331E+00
         21   -1    0    0  501  502  0.00000000000E+00  0.00000000000E+00  0.30757883362E+02  0.30757883362E+02  0.00000000000E+00 0. -1.
         21   -1    0    0  502  503 -0.00000000000E+00 -0.00000000000E+00 -0.12379161753E+04  0.12379161753E+04  0.00000000000E+00 0.  1.
          6    1    1    2  501    0  0.66496498000E+02 -0.59488022791E+02 -0.64792336437E+03  0.67653107482E+03  0.17300000000E+03 0. -1.
         -6    1    1    2    0  503 -0.66496498000E+02  0.59488022791E+02 -0.55923492758E+03  0.59214298385E+03  0.17300000000E+03 0. -1.
<mgrwt>
<rscale>  2 0.19465253E+03</rscale>
<asrwt>0</asrwt>
<pdfrwt beam="1">  1       21 0.47319827E-02 0.19465253E+03</pdfrwt>
<pdfrwt beam="2">  1       21 0.19044862E+00 0.19465253E+03</pdfrwt>
<totfact> 0.45685444E+04</totfact>
</mgrwt>
</event>
<event>
 4    1  0.3935877E+000  0.1806646E+03  0.7546771E-02  0.1167161E+00
         21   -1    0    0  503  502  0.00000000000E+00  0.00000000000E+00  0.26659147293E+03  0.26659147293E+03  0.00000000000E+00 0.  1.
         21   -1    0    0  501  503 -0.00000000000E+00 -0.00000000000E+00 -0.34078817046E+03  0.34078817046E+03  0.00000000000E+00 0.  1.
          6    1    1    2  501    0 -0.52040666462E+02  0.15739670986E+01 -0.28018958034E+03  0.33338552648E+03  0.17300000000E+03 0.  1.
         -6    1    1    2    0  502  0.52040666462E+02 -0.15739670986E+01  0.20599288280E+03  0.27399411691E+03  0.17300000000E+03 0.  1.
<mgrwt>
<rscale>  2 0.18066463E+03</rscale>
<asrwt>0</asrwt>
<pdfrwt beam="1">  1       21 0.41014073E-01 0.18066463E+03</pdfrwt>
<pdfrwt beam="2">  1       21 0.52428949E-01 0.18066463E+03</pdfrwt>
<totfact> 0.19898123E+04</totfact>
</mgrwt>
</event>
<event>
 4    1  0.3935877E+000  0.1754160E+03  0.7546771E-02  0.1172315E+00
         21   -1    0    0  503  502  0.00000000000E+00  0.00000000000E+00  0.23249801911E+02  0.23249801911E+02  0.00000000000E+00 0.  1.
         21   -1    0    0  501  503 -0.00000000000E+00 -0.00000000000E+00 -0.15424463387E+04  0.15424463387E+04  0.00000000000E+00 0.  1.
          6    1    1    2  501    0  0.28257655612E+02  0.65774077907E+01 -0.10545537410E+04  0.10690436614E+04  0.17300000000E+03 0.  1.
         -6    1    1    2    0  502 -0.28257655612E+02 -0.65774077907E+01 -0.46464279580E+03  0.49665247919E+03  0.17300000000E+03 0.  1.
<mgrwt>
<rscale>  2 0.17541596E+03</rscale>
<asrwt>0</asrwt>
<pdfrwt beam="1">  1       21 0.35768913E-02 0.17541596E+03</pdfrwt>
<pdfrwt beam="2">  1       21 0.23729952E+00 0.17541596E+03</pdfrwt>
<totfact> 0.37862898E+04</totfact>
</mgrwt>
</event>
<event>
 4    1  0.3935877E+000  0.1759042E+03  0.7546771E-02  0.1171827E+00
         21   -1    0    0  503  502  0.00000000000E+00  0.00000000000E+00  0.10075465572E+04  0.10075465572E+04  0.00000000000E+00 0. -1.
         21   -1    0    0  501  503 -0.00000000000E+00 -0.00000000000E+00 -0.51036113363E+02  0.51036113363E+02  0.00000000000E+00 0. -1.
          6    1    1    2  501    0 -0.18228554681E+02 -0.26095800566E+02  0.14423121182E+03  0.22747508320E+03  0.17300000000E+03 0. -1.
         -6    1    1    2    0  502  0.18228554681E+02  0.26095800566E+02  0.81227923206E+03  0.83110758741E+03  0.17300000000E+03 0. -1.
<mgrwt>
<rscale>  2 0.17590415E+03</rscale>
<asrwt>0</asrwt>
<pdfrwt beam="1">  1       21 0.15500715E+00 0.17590415E+03</pdfrwt>
<pdfrwt beam="2">  1       21 0.78517105E-02 0.17590415E+03</pdfrwt>
<totfact> 0.34329973E+04</totfact>
</mgrwt>
</event>
<event>
 4    1  0.3935877E+000  0.2006762E+03  0.7546771E-02  0.1149170E+00
         21   -1    0    0  503  502  0.00000000000E+00  0.00000000000E+00  0.37303510492E+03  0.37303510492E+03  0.00000000000E+00 0.  1.
         21   -1    0    0  501  503 -0.00000000000E+00 -0.00000000000E+00 -0.29332520103E+03  0.29332520103E+03  0.00000000000E+00 0. -1.
          6    1    1    2  501    0  0.32269612628E+02  0.96439659905E+02 -0.22501007137E+03  0.30149704496E+03  0.17300000000E+03 0. -1.
         -6    1    1    2    0  502 -0.32269612628E+02 -0.96439659905E+02  0.30471997526E+03  0.36486326100E+03  0.17300000000E+03 0.  1.
<mgrwt>
<rscale>  2 0.20067620E+03</rscale>
<asrwt>0</asrwt>
<pdfrwt beam="1">  1       21 0.57390016E-01 0.20067620E+03</pdfrwt>
<pdfrwt beam="2">  1       21 0.45126954E-01 0.20067620E+03</pdfrwt>
<totfact> 0.13356372E+04</totfact>
</mgrwt>
</event>
<event>
 4    1  0.3935877E+000  0.2272049E+03  0.7546771E-02  0.1128623E+00
         21   -1    0    0  503  502  0.00000000000E+00  0.00000000000E+00  0.37487637159E+03  0.37487637159E+03  0.00000000000E+00 0.  1.
         21   -1    0    0  501  503 -0.00000000000E+00 -0.00000000000E+00 -0.20297414726E+03  0.20297414726E+03  0.00000000000E+00 0.  1.
          6    1    1    2  501    0  0.14342742012E+03  0.33490663641E+02 -0.77889587135E+02  0.24018500615E+03  0.17300000000E+03 0.  1.
         -6    1    1    2    0  502 -0.14342742012E+03 -0.33490663641E+02  0.24979181147E+03  0.33766551270E+03  0.17300000000E+03 0.  1.
<mgrwt>
<rscale>  2 0.22720486E+03</rscale>
<asrwt>0</asrwt>
<pdfrwt beam="1">  1       21 0.57673288E-01 0.22720486E+03</pdfrwt>
<pdfrwt beam="2">  1       21 0.31226792E-01 0.22720486E+03</pdfrwt>
<totfact> 0.27276111E+04</totfact>
</mgrwt>
</event>
<event>
 4    1  0.3935877E+000  0.1866229E+03  0.7546771E-02  0.1161543E+00
         21   -1    0    0  501  502  0.00000000000E+00  0.00000000000E+00  0.10539540958E+03  0.10539540958E+03  0.00000000000E+00 0.  1.
         21   -1    0    0  502  503 -0.00000000000E+00 -0.00000000000E+00 -0.33094236569E+03  0.33094236569E+03  0.00000000000E+00 0. -1.
          6    1    1    2  501    0  0.81264491975E+00 -0.69988876402E+02 -0.12117317300E+03  0.22251076618E+03  0.17300000000E+03 0. -1.
         -6    1    1    2    0  503 -0.81264491975E+00  0.69988876402E+02 -0.10437378311E+03  0.21382700908E+03  0.17300000000E+03 0. -1.
<mgrwt>
<rscale>  2 0.18662289E+03</rscale>
<asrwt>0</asrwt>
<pdfrwt beam="1">  1       21 0.16214679E-01 0.18662289E+03</pdfrwt>
<pdfrwt beam="2">  1       21 0.50914208E-01 0.18662289E+03</pdfrwt>
<totfact> 0.12510802E+05</totfact>
</mgrwt>
</event>
<event>
 4    1  0.3935877E+000  0.1961445E+03  0.7546771E-02  0.1153033E+00
         21   -1    0    0  503  502  0.00000000000E+00  0.00000000000E+00  0.51764132828E+03  0.51764132828E+03  0.00000000000E+00 0.  1.
         21   -1    0    0  501  503 -0.00000000000E+00 -0.00000000000E+00 -0.90396291334E+02  0.90396291334E+02  0.00000000000E+00 0.  1.
          6    1    1    2  501    0 -0.84132759166E+02 -0.38279612046E+02  0.85425558120E+02  0.21393965468E+03  0.17300000000E+03 0.  1.
         -6    1    1    2    0  502  0.84132759166E+02  0.38279612046E+02  0.34181947883E+03  0.39409796494E+03  0.17300000000E+03 0.  1.
<mgrwt>
<rscale>  2 0.19614446E+03</rscale>
<asrwt>0</asrwt>
<pdfrwt beam="1">  1       21 0.79637125E-01 0.19614446E+03</pdfrwt>
<pdfrwt beam="2">  1       21 0.13907122E-01 0.19614446E+03</pdfrwt>
<totfact> 0.62432792E+04</totfact>
</mgrwt>
</event>
<event>
 4    1  0.3935877E+000  0.1821119E+03  0.7546771E-02  0.1165775E+00
         21   -1    0    0  503  502  0.00000000000E+00  0.00000000000E+00  0.12415048525E+04  0.12415048525E+04  0.00000000000E+00 0. -1.
         21   -1    0    0  501  503 -0.00000000000E+00 -0.00000000000E+00 -0.27372546735E+02  0.27372546735E+02  0.00000000000E+00 0.  1.
          6    1    1    2  501    0  0.51668514614E+02  0.23792687743E+02  0.50860916286E+03  0.54022958817E+03  0.17300000000E+03 0. -1.
         -6    1    1    2    0  502 -0.51668514614E+02 -0.23792687743E+02  0.70552314293E+03  0.72864781109E+03  0.17300000000E+03 0.  1.
<mgrwt>
<rscale>  2 0.18211185E+03</rscale>
<asrwt>0</asrwt>
<pdfrwt beam="1">  1       21 0.19100070E+00 0.18211185E+03</pdfrwt>
<pdfrwt beam="2">  1       21 0.42111620E-02 0.18211185E+03</pdfrwt>
<totfact> 0.55582895E+04</totfact>
</mgrwt>
</event>
<event>
 4    1  0.3935877E+000  0.1879595E+03  0.7546771E-02  0.1160315E+00
         21   -1    0    0  501  502  0.00000000000E+00  0.00000000000E+00  0.66597951143E+03  0.66597951143E+03  0.00000000000E+00 0.  1.
         21   -1    0    0  502  503 -0.00000000000E+00 -0.00000000000E+00 -0.95985885659E+02  0.95985885659E+02  0.00000000000E+00 0.  1.
          6    1    1    2  501    0 -0.46671531946E+02 -0.56758770427E+02  0.53981040231E+03  0.57159781347E+03  0.17300000000E+03 0.  1.
         -6    1    1    2    0  503  0.46671531946E+02  0.56758770427E+02  0.30183223455E+02  0.19036758362E+03  0.17300000000E+03 0.  1.
<mgrwt>
<rscale>  2 0.18795954E+03</rscale>
<asrwt>0</asrwt>
<pdfrwt beam="1">  1       21 0.10245838E+00 0.18795954E+03</pdfrwt>
<pdfrwt beam="2">  1       21 0.14767060E-01 0.18795954E+03</pdfrwt>
<totfact> 0.31353679E+04</totfact>
</mgrwt>
</event>
<event>
 4    1  0.3935877E+000  0.1880838E+03  0.7546771E-02  0.1160201E+00
         21   -1    0    0  501  502  0.00000000000E+00  0.00000000000E+00  0.43367404650E+03  0.43367404650E+03  0.00000000000E+00 0.  1.
         21   -1    0    0  502  503 -0.00000000000E+00 -0.00000000000E+00 -0.30856556615E+03  0.30856556615E+03  0.00000000000E+00 0.  1.
          6    1    1    2  501    0  0.73714455338E+02  0.35646490441E+01  0.38086217667E+03  0.42477232168E+03  0.17300000000E+03 0.  1.
         -6    1    1    2    0  503 -0.73714455338E+02 -0.35646490441E+01 -0.25575369633E+03  0.31746729097E+03  0.17300000000E+03 0.  1.
<mgrwt>
<rscale>  2 0.18808383E+03</rscale>
<asrwt>0</asrwt>
<pdfrwt beam="1">  1       21 0.66719084E-01 0.18808383E+03</pdfrwt>
<pdfrwt beam="2">  1       21 0.47471625E-01 0.18808383E+03</pdfrwt>
<totfact> 0.87662609E+03</totfact>
</mgrwt>
</event>
<event>
 4    1  0.3935877E+000  0.2558327E+03  0.7546771E-02  0.1109673E+00
         21   -1    0    0  501  502  0.00000000000E+00  0.00000000000E+00  0.50860441116E+02  0.50860441116E+02  0.00000000000E+00 0.  1.
         21   -1    0    0  502  503 -0.00000000000E+00 -0.00000000000E+00 -0.12915288695E+04  0.12915288695E+04  0.00000000000E+00 0.  1.
          6    1    1    2  501    0 -0.18294049050E+03 -0.45322787600E+02 -0.66068025024E+03  0.70848343043E+03  0.17300000000E+03 0.  1.
         -6    1    1    2    0  503  0.18294049050E+03  0.45322787600E+02 -0.57998817810E+03  0.63390588014E+03  0.17300000000E+03 0.  1.
<mgrwt>
<rscale>  2 0.25583272E+03</rscale>
<asrwt>0</asrwt>
<pdfrwt beam="1">  1       21 0.78246837E-02 0.25583272E+03</pdfrwt>
<pdfrwt beam="2">  1       21 0.19869674E+00 0.25583272E+03</pdfrwt>
<totfact> 0.16338365E+04</totfact>
</mgrwt>
</event>
<event>
 4    1  0.3935877E+000  0.1789371E+03  0.7546771E-02  0.1168836E+00
         21   -1    0    0  501  502  0.00000000000E+00  0.00000000000E+00  0.14185881427E+04  0.14185881427E+04  0.00000000000E+00 0. -1.
         21   -1    0    0  502  503 -0.00000000000E+00 -0.00000000000E+00 -0.24865842502E+02  0.24865842502E+02  0.00000000000E+00 0. -1.
          6    1    1    2  501    0  0.15803759417E+02  0.42892070228E+02  0.91613092995E+03  0.93344221530E+03  0.17300000000E+03 0. -1.
         -6    1    1    2    0  503 -0.15803759417E+02 -0.42892070228E+02  0.47759137027E+03  0.51001176992E+03  0.17300000000E+03 0. -1.
<mgrwt>
<rscale>  2 0.17893711E+03</rscale>
<asrwt>0</asrwt>
<pdfrwt beam="1">  1       21 0.21824427E+00 0.17893711E+03</pdfrwt>
<pdfrwt beam="2">  1       21 0.38255153E-02 0.17893711E+03</pdfrwt>
<totfact> 0.43977603E+04</totfact>
</mgrwt>
</event>
<event>
 4    1  0.3935877E+000  0.2942047E+03  0.7546771E-02  0.1088174E+00
         21   -1    0    0  503  502  0.00000000000E+00  0.00000000000E+00  0.15742075898E+03  0.15742075898E+03  0.00000000000E+00 0. -1.
         21   -1    0    0  501  503 -0.00000000000E+00 -0.00000000000E+00 -0.71298810628E+03  0.71298810628E+03  0.00000000000E+00 0. -1.
          6    1    1    2  501    0  0.14975178586E+02 -0.23749350980E+03 -0.48596489578E+03  0.56808300723E+03  0.17300000000E+03 0. -1.
         -6    1    1    2    0  502 -0.14975178586E+02  0.23749350980E+03 -0.69602451514E+02  0.30232585802E+03  0.17300000000E+03 0. -1.
<mgrwt>
<rscale>  2 0.29420473E+03</rscale>
<asrwt>0</asrwt>
<pdfrwt beam="1">  1       21 0.24218578E-01 0.29420473E+03</pdfrwt>
<pdfrwt beam="2">  1       21 0.10969048E+00 0.29420473E+03</pdfrwt>
<totfact> 0.99671214E+03</totfact>
</mgrwt>
</event>
<event>
 4    1  0.3935877E+000  0.1973097E+03  0.7546771E-02  0.1152029E+00
         21   -1    0    0  501  502  0.00000000000E+00  0.00000000000E+00  0.11310171617E+03  0.11310171617E+03  0.00000000000E+00 0.  1.
         21   -1    0    0  502  503 -0.00000000000E+00 -0.00000000000E+00 -0.11389962728E+04  0.11389962728E+04  0.00000000000E+00 0.  1.
          6    1    1    2  501    0  0.72935764003E+02  0.60683655474E+02  0.10016256665E+02  0.19756380516E+03  0.17300000000E+03 0.  1.
         -6    1    1    2    0  503 -0.72935764003E+02 -0.60683655474E+02 -0.10359108133E+04  0.10545341838E+04  0.17300000000E+03 0.  1.
<mgrwt>
<rscale>  2 0.19730974E+03</rscale>
<asrwt>0</asrwt>
<pdfrwt beam="1">  1       21 0.17400265E-01 0.19730974E+03</pdfrwt>
<pdfrwt beam="2">  1       21 0.17523019E+00 0.19730974E+03</pdfrwt>
<totfact> 0.58406874E+03</totfact>
</mgrwt>
</event>
<event>
 4    1  0.3935877E+000  0.1993049E+03  0.7546771E-02  0.1150327E+00
         21   -1    0    0  501  502  0.00000000000E+00  0.00000000000E+00  0.25429774450E+03  0.25429774450E+03  0.00000000000E+00 0. -1.
         21   -1    0    0  502  503 -0.00000000000E+00 -0.00000000000E+00 -0.16840834742E+03  0.16840834742E+03  0.00000000000E+00 0. -1.
          6    1    1    2  501    0  0.82784572949E+01  0.98615055382E+02  0.99839736405E+02  0.22291351455E+03  0.17300000000E+03 0. -1.
         -6    1    1    2    0  503 -0.82784572949E+01 -0.98615055382E+02 -0.13950339327E+02  0.19979257737E+03  0.17300000000E+03 0. -1.
<mgrwt>
<rscale>  2 0.19930495E+03</rscale>
<asrwt>0</asrwt>
<pdfrwt beam="1">  1       21 0.39122730E-01 0.19930495E+03</pdfrwt>
<pdfrwt beam="2">  1       21 0.25908976E-01 0.19930495E+03</pdfrwt>
<totfact> 0.88864352E+04</totfact>
</mgrwt>
</event>
<event>
 4    1  0.3935877E+000  0.2156140E+03  0.7546771E-02  0.1137196E+00
         21   -1    0    0  501  502  0.00000000000E+00  0.00000000000E+00  0.14977411751E+03  0.14977411751E+03  0.00000000000E+00 0.  1.
         21   -1    0    0  502  503 -0.00000000000E+00 -0.00000000000E+00 -0.34645515640E+03  0.34645515640E+03  0.00000000000E+00 0.  1.
          6    1    1    2  501    0 -0.69622590688E+02 -0.10822699453E+03 -0.18295813995E+02  0.21638882662E+03  0.17300000000E+03 0. -1.
         -6    1    1    2    0  503  0.69622590688E+02  0.10822699453E+03 -0.17838522489E+03  0.27984044729E+03  0.17300000000E+03 0. -1.
<mgrwt>
<rscale>  2 0.21561398E+03</rscale>
<asrwt>0</asrwt>
<pdfrwt beam="1">  1       21 0.23042172E-01 0.21561398E+03</pdfrwt>
<pdfrwt beam="2">  1       21 0.53300792E-01 0.21561398E+03</pdfrwt>
<totfact> 0.58325242E+04</totfact>
</mgrwt>
</event>
<event>
 4    1  0.3935877E+000  0.2236708E+03  0.7546771E-02  0.1131176E+00
         21   -1    0    0  503  502  0.00000000000E+00  0.00000000000E+00  0.11025571344E+03  0.11025571344E+03  0.00000000000E+00 0.  1.
         21   -1    0    0  501  503 -0.00000000000E+00 -0.00000000000E+00 -0.50397373154E+03  0.50397373154E+03  0.00000000000E+00 0. -1.
          6    1    1    2  501    0  0.10253644609E+03 -0.97907590278E+02 -0.29380897988E+03  0.36925917141E+03  0.17300000000E+03 0. -1.
         -6    1    1    2    0  502 -0.10253644609E+03  0.97907590278E+02 -0.99909038224E+02  0.24497027357E+03  0.17300000000E+03 0.  1.
<mgrwt>
<rscale>  2 0.22367078E+03</rscale>
<asrwt>0</asrwt>
<pdfrwt beam="1">  1       21 0.16962417E-01 0.22367078E+03</pdfrwt>
<pdfrwt beam="2">  1       21 0.77534422E-01 0.22367078E+03</pdfrwt>
<totfact> 0.45532049E+04</totfact>
</mgrwt>
</event>
<event>
 4    1  0.3935877E+000  0.1976321E+03  0.7546771E-02  0.1151752E+00
         21   -1    0    0  501  502  0.00000000000E+00  0.00000000000E+00  0.15117005507E+03  0.15117005507E+03  0.00000000000E+00 0.  1.
         21   -1    0    0  502  503 -0.00000000000E+00 -0.00000000000E+00 -0.30108068445E+03  0.30108068445E+03  0.00000000000E+00 0. -1.
          6    1    1    2  501    0 -0.82893817797E+02 -0.47519051924E+02  0.10208409234E+02  0.19789557080E+03  0.17300000000E+03 0.  1.
         -6    1    1    2    0  503  0.82893817797E+02  0.47519051924E+02 -0.16011903861E+03  0.25435516871E+03  0.17300000000E+03 0. -1.
<mgrwt>
<rscale>  2 0.19763210E+03</rscale>
<asrwt>0</asrwt>
<pdfrwt beam="1">  1       21 0.23256932E-01 0.19763210E+03</pdfrwt>
<pdfrwt beam="2">  1       21 0.46320105E-01 0.19763210E+03</pdfrwt>
<totfact> 0.77428824E+04</totfact>
</mgrwt>
</event>
<event>
 4    1  0.3935877E+000  0.1751985E+03  0.7546771E-02  0.1172533E+00
         21   -1    0    0  503  502  0.00000000000E+00  0.00000000000E+00  0.50930556928E+02  0.50930556928E+02  0.00000000000E+00 0.  1.
         21   -1    0    0  501  503 -0.00000000000E+00 -0.00000000000E+00 -0.67613115185E+03  0.67613115185E+03  0.00000000000E+00 0.  1.
          6    1    1    2  501    0 -0.42991369136E+01 -0.27331629682E+02 -0.43242438166E+03  0.46656762255E+03  0.17300000000E+03 0.  1.
         -6    1    1    2    0  502  0.42991369136E+01  0.27331629682E+02 -0.19277621326E+03  0.26049408623E+03  0.17300000000E+03 0.  1.
<mgrwt>
<rscale>  2 0.17519846E+03</rscale>
<asrwt>0</asrwt>
<pdfrwt beam="1">  1       21 0.78354710E-02 0.17519846E+03</pdfrwt>
<pdfrwt beam="2">  1       21 0.10402017E+00 0.17519846E+03</pdfrwt>
<totfact> 0.93666678E+04</totfact>
</mgrwt>
</event>
<event>
 4    1  0.3935877E+000  0.1912956E+03  0.7546771E-02  0.1157298E+00
         21   -1    0    0  503  502  0.00000000000E+00  0.00000000000E+00  0.14721178063E+03  0.14721178063E+03  0.00000000000E+00 0. -1.
         21   -1    0    0  501  503 -0.00000000000E+00 -0.00000000000E+00 -0.38074261841E+03  0.38074261841E+03  0.00000000000E+00 0.  1.
          6    1    1    2  501    0 -0.18158456285E+02  0.79594467572E+02 -0.27229171285E+03  0.33277137150E+03  0.17300000000E+03 0.  1.
         -6    1    1    2    0  502  0.18158456285E+02 -0.79594467572E+02  0.38760875072E+02  0.19518302754E+03  0.17300000000E+03 0. -1.
<mgrwt>
<rscale>  2 0.19129561E+03</rscale>
<asrwt>0</asrwt>
<pdfrwt beam="1">  1       21 0.22647967E-01 0.19129561E+03</pdfrwt>
<pdfrwt beam="2">  1       21 0.58575786E-01 0.19129561E+03</pdfrwt>
<totfact> 0.49887017E+04</totfact>
</mgrwt>
</event>
<event>
 4    1  0.3935877E+000  0.2323602E+03  0.7546771E-02  0.1124989E+00
         21   -1    0    0  501  502  0.00000000000E+00  0.00000000000E+00  0.12284659762E+03  0.12284659762E+03  0.00000000000E+00 0. -1.
         21   -1    0    0  502  503 -0.00000000000E+00 -0.00000000000E+00 -0.48020561287E+03  0.48020561287E+03  0.00000000000E+00 0.  1.
          6    1    1    2  501    0 -0.74813261859E+02  0.13588689365E+03 -0.90892529904E+02  0.24950495788E+03  0.17300000000E+03 0.  1.
         -6    1    1    2    0  503  0.74813261859E+02 -0.13588689365E+03 -0.26646648534E+03  0.35354725261E+03  0.17300000000E+03 0.  1.
<mgrwt>
<rscale>  2 0.23236022E+03</rscale>
<asrwt>0</asrwt>
<pdfrwt beam="1">  1       21 0.18899477E-01 0.23236022E+03</pdfrwt>
<pdfrwt beam="2">  1       21 0.73877786E-01 0.23236022E+03</pdfrwt>
<totfact> 0.41360854E+04</totfact>
</mgrwt>
</event>
<event>
 4    1  0.3935877E+000  0.2051326E+03  0.7546771E-02  0.1145479E+00
         21   -1    0    0  501  502  0.00000000000E+00  0.00000000000E+00  0.26196650961E+03  0.26196650961E+03  0.00000000000E+00 0.  1.
         21   -1    0    0  502  503 -0.00000000000E+00 -0.00000000000E+00 -0.16733679547E+03  0.16733679547E+03  0.00000000000E+00 0.  1.
          6    1    1    2  501    0  0.63150355862E+02 -0.90346085514E+02  0.90291535779E+02  0.22412484032E+03  0.17300000000E+03 0.  1.
         -6    1    1    2    0  503 -0.63150355862E+02  0.90346085514E+02  0.43381783591E+01  0.20517846477E+03  0.17300000000E+03 0.  1.
<mgrwt>
<rscale>  2 0.20513260E+03</rscale>
<asrwt>0</asrwt>
<pdfrwt beam="1">  1       21 0.40302540E-01 0.20513260E+03</pdfrwt>
<pdfrwt beam="2">  1       21 0.25744122E-01 0.20513260E+03</pdfrwt>
<totfact> 0.84509848E+04</totfact>
</mgrwt>
</event>
<event>
 4    1  0.3935877E+000  0.1743105E+03  0.7546771E-02  0.1173426E+00
         21   -1    0    0  503  502  0.00000000000E+00  0.00000000000E+00  0.10283124128E+03  0.10283124128E+03  0.00000000000E+00 0. -1.
         21   -1    0    0  501  503 -0.00000000000E+00 -0.00000000000E+00 -0.71466769602E+03  0.71466769602E+03  0.00000000000E+00 0. -1.
          6    1    1    2  501    0 -0.20285142288E+02  0.66069410947E+01 -0.61896669878E+03  0.64304269910E+03  0.17300000000E+03 0. -1.
         -6    1    1    2    0  502  0.20285142288E+02 -0.66069410947E+01  0.71302440281E+01  0.17445623820E+03  0.17300000000E+03 0. -1.
<mgrwt>
<rscale>  2 0.17431047E+03</rscale>
<asrwt>0</asrwt>
<pdfrwt beam="1">  1       21 0.15820192E-01 0.17431047E+03</pdfrwt>
<pdfrwt beam="2">  1       21 0.10994887E+00 0.17431047E+03</pdfrwt>
<totfact> 0.23538329E+04</totfact>
</mgrwt>
</event>
<event>
 4    1  0.3935877E+000  0.1877534E+03  0.7546771E-02  0.1160503E+00
         21   -1    0    0  501  502  0.00000000000E+00  0.00000000000E+00  0.42163378002E+03  0.42163378002E+03  0.00000000000E+00 0.  1.
         21   -1    0    0  502  503 -0.00000000000E+00 -0.00000000000E+00 -0.83783010689E+02  0.83783010689E+02  0.00000000000E+00 0.  1.
          6    1    1    2  501    0  0.21888778070E+02 -0.69593147006E+02  0.18052455543E+03  0.26046197386E+03  0.17300000000E+03 0.  1.
         -6    1    1    2    0  503 -0.21888778070E+02  0.69593147006E+02  0.15732621390E+03  0.24495481685E+03  0.17300000000E+03 0.  1.
<mgrwt>
<rscale>  2 0.18775336E+03</rscale>
<asrwt>0</asrwt>
<pdfrwt beam="1">  1       21 0.64866734E-01 0.18775336E+03</pdfrwt>
<pdfrwt beam="2">  1       21 0.12889694E-01 0.18775336E+03</pdfrwt>
<totfact> 0.11320612E+05</totfact>
</mgrwt>
</event>
<event>
 4    1  0.3935877E+000  0.2082726E+03  0.7546771E-02  0.1142941E+00
         21   -1    0    0  501  502  0.00000000000E+00  0.00000000000E+00  0.14600051227E+03  0.14600051227E+03  0.00000000000E+00 0. -1.
         21   -1    0    0  502  503 -0.00000000000E+00 -0.00000000000E+00 -0.31222517505E+03  0.31222517505E+03  0.00000000000E+00 0. -1.
          6    1    1    2  501    0  0.11554897962E+03  0.98442342870E+01 -0.32693296141E+02  0.21082297610E+03  0.17300000000E+03 0. -1.
         -6    1    1    2    0  503 -0.11554897962E+03 -0.98442342870E+01 -0.13353136665E+03  0.24740271122E+03  0.17300000000E+03 0. -1.
<mgrwt>
<rscale>  2 0.20827260E+03</rscale>
<asrwt>0</asrwt>
<pdfrwt beam="1">  1       21 0.22461617E-01 0.20827260E+03</pdfrwt>
<pdfrwt beam="2">  1       21 0.48034642E-01 0.20827260E+03</pdfrwt>
<totfact> 0.76356022E+04</totfact>
</mgrwt>
</event>
<event>
 4    1  0.3935877E+000  0.1957145E+03  0.7546771E-02  0.1153406E+00
         21   -1    0    0  503  502  0.00000000000E+00  0.00000000000E+00  0.12654449969E+03  0.12654449969E+03  0.00000000000E+00 0.  1.
         21   -1    0    0  501  503 -0.00000000000E+00 -0.00000000000E+00 -0.31202349573E+03  0.31202349573E+03  0.00000000000E+00 0.  1.
          6    1    1    2  501    0  0.26260599348E+02  0.87667270619E+02 -0.13065869937E+03  0.23532077073E+03  0.17300000000E+03 0.  1.
         -6    1    1    2    0  502 -0.26260599348E+02 -0.87667270619E+02 -0.54820296676E+02  0.20324722469E+03  0.17300000000E+03 0.  1.
<mgrwt>
<rscale>  2 0.19571451E+03</rscale>
<asrwt>0</asrwt>
<pdfrwt beam="1">  1       21 0.19468385E-01 0.19571451E+03</pdfrwt>
<pdfrwt beam="2">  1       21 0.48003614E-01 0.19571451E+03</pdfrwt>
<totfact> 0.10054535E+05</totfact>
</mgrwt>
</event>
<event>
 4    1  0.3935877E+000  0.2264000E+03  0.7546771E-02  0.1129200E+00
         21   -1    0    0  503  502  0.00000000000E+00  0.00000000000E+00  0.58887835124E+02  0.58887835124E+02  0.00000000000E+00 0. -1.
         21   -1    0    0  501  503 -0.00000000000E+00 -0.00000000000E+00 -0.94948760462E+03  0.94948760462E+03  0.00000000000E+00 0. -1.
          6    1    1    2  501    0  0.11261479516E+03 -0.92983153959E+02 -0.59079747020E+03  0.63269155977E+03  0.17300000000E+03 0. -1.
         -6    1    1    2    0  502 -0.11261479516E+03  0.92983153959E+02 -0.29980229929E+03  0.37568387997E+03  0.17300000000E+03 0. -1.
<mgrwt>
<rscale>  2 0.22640000E+03</rscale>
<asrwt>0</asrwt>
<pdfrwt beam="1">  1       21 0.90596675E-02 0.22640000E+03</pdfrwt>
<pdfrwt beam="2">  1       21 0.14607501E+00 0.22640000E+03</pdfrwt>
<totfact> 0.30325169E+04</totfact>
</mgrwt>
</event>
<event>
 4    1  0.3935877E+000  0.2031704E+03  0.7546771E-02  0.1147091E+00
         21   -1    0    0  503  502  0.00000000000E+00  0.00000000000E+00  0.21310909110E+03  0.21310909110E+03  0.00000000000E+00 0.  1.
         21   -1    0    0  501  503 -0.00000000000E+00 -0.00000000000E+00 -0.47443660188E+03  0.47443660188E+03  0.00000000000E+00 0. -1.
          6    1    1    2  501    0  0.54709895149E+02  0.91411407080E+02 -0.39510894590E+03  0.44428515291E+03  0.17300000000E+03 0. -1.
         -6    1    1    2    0  502 -0.54709895149E+02 -0.91411407080E+02  0.13378143511E+03  0.24326054006E+03  0.17300000000E+03 0.  1.
<mgrwt>
<rscale>  2 0.20317042E+03</rscale>
<asrwt>0</asrwt>
<pdfrwt beam="1">  1       21 0.32786014E-01 0.20317042E+03</pdfrwt>
<pdfrwt beam="2">  1       21 0.72990246E-01 0.20317042E+03</pdfrwt>
<totfact> 0.15023345E+04</totfact>
</mgrwt>
</event>
<event>
 4    1  0.3935877E+000  0.2242756E+03  0.7546771E-02  0.1130735E+00
         21   -1    0    0  503  502  0.00000000000E+00  0.00000000000E+00  0.11560561174E+03  0.11560561174E+03  0.00000000000E+00 0.  1.
         21   -1    0    0  501  503 -0.00000000000E+00 -0.00000000000E+00 -0.44472120301E+03  0.44472120301E+03  0.00000000000E+00 0.  1.
          6    1    1    2  501    0  0.21497333362E+02  0.14109709682E+03 -0.20577466600E+03  0.30437269792E+03  0.17300000000E+03 0.  1.
         -6    1    1    2    0  502 -0.21497333362E+02 -0.14109709682E+03 -0.12334092528E+03  0.25595411683E+03  0.17300000000E+03 0.  1.
<mgrwt>
<rscale>  2 0.22427556E+03</rscale>
<asrwt>0</asrwt>
<pdfrwt beam="1">  1       21 0.17785478E-01 0.22427556E+03</pdfrwt>
<pdfrwt beam="2">  1       21 0.68418648E-01 0.22427556E+03</pdfrwt>
<totfact> 0.55113729E+04</totfact>
</mgrwt>
</event>
<event>
 4    1  0.3935877E+000  0.2599934E+03  0.7546771E-02  0.1107147E+00
         21   -1    0    0  503  502  0.00000000000E+00  0.00000000000E+00  0.18417120347E+03  0.18417120347E+03  0.00000000000E+00 0. -1.
         21   -1    0    0  501  503 -0.00000000000E+00 -0.00000000000E+00 -0.36776710109E+03  0.36776710109E+03  0.00000000000E+00 0.  1.
          6    1    1    2  501    0  0.19381357536E+03  0.10190756000E+02 -0.10414384931E+03  0.28007587338E+03  0.17300000000E+03 0. -1.
         -6    1    1    2    0  502 -0.19381357536E+03 -0.10190756000E+02 -0.79452048314E+02  0.27186243117E+03  0.17300000000E+03 0.  1.
<mgrwt>
<rscale>  2 0.25999337E+03</rscale>
<asrwt>0</asrwt>
<pdfrwt beam="1">  1       21 0.28334031E-01 0.25999337E+03</pdfrwt>
<pdfrwt beam="2">  1       21 0.56579554E-01 0.25999337E+03</pdfrwt>
<totfact> 0.33867996E+04</totfact>
</mgrwt>
</event>
<event>
 4    1  0.3935877E+000  0.2102459E+03  0.7546771E-02  0.1141371E+00
         21   -1    0    0  501  502  0.00000000000E+00  0.00000000000E+00  0.63051376690E+03  0.63051376690E+03  0.00000000000E+00 0. -1.
         21   -1    0    0  502  503 -0.00000000000E+00 -0.00000000000E+00 -0.88486252583E+02  0.88486252583E+02  0.00000000000E+00 0. -1.
          6    1    1    2  501    0  0.41819057730E+02  0.11191747265E+03  0.43485616505E+03  0.48301473948E+03  0.17300000000E+03 0. -1.
         -6    1    1    2    0  503 -0.41819057730E+02 -0.11191747265E+03  0.10717134926E+03  0.23598528000E+03  0.17300000000E+03 0. -1.
<mgrwt>
<rscale>  2 0.21024594E+03</rscale>
<asrwt>0</asrwt>
<pdfrwt beam="1">  1       21 0.97002115E-01 0.21024594E+03</pdfrwt>
<pdfrwt beam="2">  1       21 0.13613270E-01 0.21024594E+03</pdfrwt>
<totfact> 0.40878741E+04</totfact>
</mgrwt>
</event>
<event>
 4    1  0.3935877E+000  0.2326258E+03  0.7546771E-02  0.1124805E+00
         21   -1    0    0  503  502  0.00000000000E+00  0.00000000000E+00  0.26603478079E+03  0.26603478079E+03  0.00000000000E+00 0.  1.
         21   -1    0    0  501  503 -0.00000000000E+00 -0.00000000000E+00 -0.51614200751E+03  0.51614200751E+03  0.00000000000E+00 0. -1.
          6    1    1    2  501    0  0.11162551876E+03  0.10828429175E+03 -0.42947481807E+03  0.48842948686E+03  0.17300000000E+03 0. -1.
         -6    1    1    2    0  502 -0.11162551876E+03 -0.10828429175E+03  0.17936759135E+03  0.29374730144E+03  0.17300000000E+03 0.  1.
<mgrwt>
<rscale>  2 0.23262576E+03</rscale>
<asrwt>0</asrwt>
<pdfrwt beam="1">  1       21 0.40928428E-01 0.23262576E+03</pdfrwt>
<pdfrwt beam="2">  1       21 0.79406462E-01 0.23262576E+03</pdfrwt>
<totfact> 0.78264291E+03</totfact>
</mgrwt>
</event>
<event>
 4    1  0.3935877E+000  0.2417552E+03  0.7546771E-02  0.1118629E+00
         21   -1    0    0  501  502  0.00000000000E+00  0.00000000000E+00  0.78911324355E+03  0.78911324355E+03  0.00000000000E+00 0. -1.
         21   -1    0    0  502  503 -0.00000000000E+00 -0.00000000000E+00 -0.78608742059E+02  0.78608742059E+02  0.00000000000E+00 0. -1.
          6    1    1    2  501    0 -0.11998851474E+03 -0.11882488340E+03  0.45956240978E+03  0.51927180269E+03  0.17300000000E+03 0. -1.
         -6    1    1    2    0  503  0.11998851474E+03  0.11882488340E+03  0.25094209171E+03  0.34845018292E+03  0.17300000000E+03 0. -1.
<mgrwt>
<rscale>  2 0.24175524E+03</rscale>
<asrwt>0</asrwt>
<pdfrwt beam="1">  1       21 0.12140203E+00 0.24175524E+03</pdfrwt>
<pdfrwt beam="2">  1       21 0.12093653E-01 0.24175524E+03</pdfrwt>
<totfact> 0.28898591E+04</totfact>
</mgrwt>
</event>
<event>
 4    1  0.3935877E+000  0.2345094E+03  0.7546771E-02  0.1123506E+00
         21   -1    0    0  501  502  0.00000000000E+00  0.00000000000E+00  0.47455746810E+02  0.47455746810E+02  0.00000000000E+00 0.  1.
         21   -1    0    0  502  503 -0.00000000000E+00 -0.00000000000E+00 -0.15168217843E+04  0.15168217843E+04  0.00000000000E+00 0. -1.
          6    1    1    2  501    0 -0.19712177581E+02 -0.15708940104E+03 -0.35472658516E+03  0.42523593461E+03  0.17300000000E+03 0.  1.
         -6    1    1    2    0  503  0.19712177581E+02  0.15708940104E+03 -0.11146394523E+04  0.11390415965E+04  0.17300000000E+03 0. -1.
<mgrwt>
<rscale>  2 0.23450938E+03</rscale>
<asrwt>0</asrwt>
<pdfrwt beam="1">  1       21 0.73008840E-02 0.23450938E+03</pdfrwt>
<pdfrwt beam="2">  1       21 0.23335720E+00 0.23450938E+03</pdfrwt>
<totfact> 0.11336543E+04</totfact>
</mgrwt>
</event>
<event>
 4    1  0.3935877E+000  0.4059513E+03  0.7546771E-02  0.1041738E+00
         21   -1    0    0  501  502  0.00000000000E+00  0.00000000000E+00  0.64125525876E+03  0.64125525876E+03  0.00000000000E+00 0. -1.
         21   -1    0    0  502  503 -0.00000000000E+00 -0.00000000000E+00 -0.45507369270E+03  0.45507369270E+03  0.00000000000E+00 0.  1.
          6    1    1    2  501    0  0.36643359931E+03  0.24369093575E+02  0.45474535742E+03  0.60958163975E+03  0.17300000000E+03 0. -1.
         -6    1    1    2    0  503 -0.36643359931E+03 -0.24369093575E+02 -0.26856379136E+03  0.48674731171E+03  0.17300000000E+03 0.  1.
<mgrwt>
<rscale>  2 0.40595127E+03</rscale>
<asrwt>0</asrwt>
<pdfrwt beam="1">  1       21 0.98654655E-01 0.40595127E+03</pdfrwt>
<pdfrwt beam="2">  1       21 0.70011338E-01 0.40595127E+03</pdfrwt>
<totfact> 0.13682783E+03</totfact>
</mgrwt>
</event>
<event>
 4    1  0.3935877E+000  0.2678274E+03  0.7546771E-02  0.1102530E+00
         21   -1    0    0  501  502  0.00000000000E+00  0.00000000000E+00  0.90514795666E+03  0.90514795666E+03  0.00000000000E+00 0. -1.
         21   -1    0    0  502  503 -0.00000000000E+00 -0.00000000000E+00 -0.14612506027E+03  0.14612506027E+03  0.00000000000E+00 0. -1.
          6    1    1    2  501    0  0.19620529661E+03 -0.57497883883E+02  0.73511039559E+03  0.78238022647E+03  0.17300000000E+03 0. -1.
         -6    1    1    2    0  503 -0.19620529661E+03  0.57497883883E+02  0.23912500796E+02  0.26889279046E+03  0.17300000000E+03 0. -1.
<mgrwt>
<rscale>  2 0.26782742E+03</rscale>
<asrwt>0</asrwt>
<pdfrwt beam="1">  1       21 0.13925353E+00 0.26782742E+03</pdfrwt>
<pdfrwt beam="2">  1       21 0.22480779E-01 0.26782742E+03</pdfrwt>
<totfact> 0.63825534E+03</totfact>
</mgrwt>
</event>
<event>
 4    1  0.3935877E+000  0.2433398E+03  0.7546771E-02  0.1117588E+00
         21   -1    0    0  503  502  0.00000000000E+00  0.00000000000E+00  0.73958967494E+03  0.73958967494E+03  0.00000000000E+00 0. -1.
         21   -1    0    0  501  503 -0.00000000000E+00 -0.00000000000E+00 -0.10426208024E+03  0.10426208024E+03  0.00000000000E+00 0. -1.
          6    1    1    2  501    0  0.12546743794E+03 -0.11637517123E+03  0.11439699730E+03  0.26888832524E+03  0.17300000000E+03 0. -1.
         -6    1    1    2    0  502 -0.12546743794E+03  0.11637517123E+03  0.52093059740E+03  0.57496342994E+03  0.17300000000E+03 0. -1.
<mgrwt>
<rscale>  2 0.24333980E+03</rscale>
<asrwt>0</asrwt>
<pdfrwt beam="1">  1       21 0.11378302E+00 0.24333980E+03</pdfrwt>
<pdfrwt beam="2">  1       21 0.16040321E-01 0.24333980E+03</pdfrwt>
<totfact> 0.20275879E+04</totfact>
</mgrwt>
</event>
<event>
 4    1  0.3935877E+000  0.1748011E+03  0.7546771E-02  0.1172932E+00
         21   -1    0    0  501  502  0.00000000000E+00  0.00000000000E+00  0.12139862971E+03  0.12139862971E+03  0.00000000000E+00 0.  1.
         21   -1    0    0  502  503 -0.00000000000E+00 -0.00000000000E+00 -0.36879666570E+03  0.36879666570E+03  0.00000000000E+00 0.  1.
          6    1    1    2  501    0 -0.27549697121E+01  0.24876433888E+02  0.14411643755E+02  0.17539419117E+03  0.17300000000E+03 0.  1.
         -6    1    1    2    0  503  0.27549697121E+01 -0.24876433888E+02 -0.26180967974E+03  0.31480110423E+03  0.17300000000E+03 0.  1.
<mgrwt>
<rscale>  2 0.17480111E+03</rscale>
<asrwt>0</asrwt>
<pdfrwt beam="1">  1       21 0.18676713E-01 0.17480111E+03</pdfrwt>
<pdfrwt beam="2">  1       21 0.56737948E-01 0.17480111E+03</pdfrwt>
<totfact> 0.77141915E+04</totfact>
</mgrwt>
</event>
<event>
 4    1  0.3935877E+000  0.1864701E+03  0.7546771E-02  0.1161684E+00
         21   -1    0    0  503  502  0.00000000000E+00  0.00000000000E+00  0.56209534956E+02  0.56209534956E+02  0.00000000000E+00 0. -1.
         21   -1    0    0  501  503 -0.00000000000E+00 -0.00000000000E+00 -0.68754676084E+03  0.68754676084E+03  0.00000000000E+00 0.  1.
          6    1    1    2  501    0  0.68014285346E+02 -0.14702367191E+02 -0.43343272350E+03  0.47184216473E+03  0.17300000000E+03 0.  1.
         -6    1    1    2    0  502 -0.68014285346E+02  0.14702367191E+02 -0.19790450238E+03  0.27191413107E+03  0.17300000000E+03 0. -1.
<mgrwt>
<rscale>  2 0.18647011E+03</rscale>
<asrwt>0</asrwt>
<pdfrwt beam="1">  1       21 0.86476210E-02 0.18647011E+03</pdfrwt>
<pdfrwt beam="2">  1       21 0.10577642E+00 0.18647011E+03</pdfrwt>
<totfact> 0.75406311E+04</totfact>
</mgrwt>
</event>
<event>
 4    1  0.3935877E+000  0.2143957E+03  0.7546771E-02  0.1138132E+00
         21   -1    0    0  503  502  0.00000000000E+00  0.00000000000E+00  0.18708644604E+03  0.18708644604E+03  0.00000000000E+00 0. -1.
         21   -1    0    0  501  503 -0.00000000000E+00 -0.00000000000E+00 -0.27980167413E+03  0.27980167413E+03  0.00000000000E+00 0. -1.
          6    1    1    2  501    0 -0.12652488078E+03 -0.52893705546E+01 -0.12786567263E+03  0.24963003252E+03  0.17300000000E+03 0. -1.
         -6    1    1    2    0  502  0.12652488078E+03  0.52893705546E+01  0.35150444542E+02  0.21725808765E+03  0.17300000000E+03 0. -1.
<mgrwt>
<rscale>  2 0.21439572E+03</rscale>
<asrwt>0</asrwt>
<pdfrwt beam="1">  1       21 0.28782530E-01 0.21439572E+03</pdfrwt>
<pdfrwt beam="2">  1       21 0.43046411E-01 0.21439572E+03</pdfrwt>
<totfact> 0.59343640E+04</totfact>
</mgrwt>
</event>
<event>
 4    1  0.3935877E+000  0.3150784E+03  0.7546771E-02  0.1077937E+00
         21   -1    0    0  501  502  0.00000000000E+00  0.00000000000E+00  0.50452394436E+03  0.50452394436E+03  0.00000000000E+00 0. -1.
         21   -1    0    0  502  503 -0.00000000000E+00 -0.00000000000E+00 -0.19690077670E+03  0.19690077670E+03  0.00000000000E+00 0.  1.
          6    1    1    2  501    0  0.18398649069E+03 -0.18839953872E+03  0.14472114893E+03  0.34672557721E+03  0.17300000000E+03 0.  1.
         -6    1    1    2    0  503 -0.18398649069E+03  0.18839953872E+03  0.16290201873E+03  0.35469914385E+03  0.17300000000E+03 0. -1.
<mgrwt>
<rscale>  2 0.31507843E+03</rscale>
<asrwt>0</asrwt>
<pdfrwt beam="1">  1       21 0.77619068E-01 0.31507843E+03</pdfrwt>
<pdfrwt beam="2">  1       21 0.30292427E-01 0.31507843E+03</pdfrwt>
<totfact> 0.14453328E+04</totfact>
</mgrwt>
</event>
<event>
 4    1  0.3935877E+000  0.2642513E+03  0.7546771E-02  0.1104616E+00
         21   -1    0    0  503  502  0.00000000000E+00  0.00000000000E+00  0.33357949644E+03  0.33357949644E+03  0.00000000000E+00 0. -1.
         21   -1    0    0  501  503 -0.00000000000E+00 -0.00000000000E+00 -0.23248282350E+03  0.23248282350E+03  0.00000000000E+00 0. -1.
          6    1    1    2  501    0  0.11639393554E+03 -0.16233369136E+03 -0.38766683501E+02  0.26707982202E+03  0.17300000000E+03 0. -1.
         -6    1    1    2    0  502 -0.11639393554E+03  0.16233369136E+03  0.13986335645E+03  0.29898249791E+03  0.17300000000E+03 0. -1.
<mgrwt>
<rscale>  2 0.26425135E+03</rscale>
<asrwt>0</asrwt>
<pdfrwt beam="1">  1       21 0.51319923E-01 0.26425135E+03</pdfrwt>
<pdfrwt beam="2">  1       21 0.35766588E-01 0.26425135E+03</pdfrwt>
<totfact> 0.26243667E+04</totfact>
</mgrwt>
</event>
<event>
 4    1  0.3935877E+000  0.1795099E+03  0.7546771E-02  0.1168278E+00
         21   -1    0    0  503  502  0.00000000000E+00  0.00000000000E+00  0.29185276582E+03  0.29185276582E+03  0.00000000000E+00 0.  1.
         21   -1    0    0  501  503 -0.00000000000E+00 -0.00000000000E+00 -0.11486664154E+03  0.11486664154E+03  0.00000000000E+00 0.  1.
          6    1    1    2  501    0 -0.10522226694E+02 -0.46734130907E+02  0.48441791904E+02  0.18593117934E+03  0.17300000000E+03 0.  1.
         -6    1    1    2    0  502  0.10522226694E+02  0.46734130907E+02  0.12854433237E+03  0.22078822802E+03  0.17300000000E+03 0.  1.
<mgrwt>
<rscale>  2 0.17950988E+03</rscale>
<asrwt>0</asrwt>
<pdfrwt beam="1">  1       21 0.44900425E-01 0.17950988E+03</pdfrwt>
<pdfrwt beam="2">  1       21 0.17671791E-01 0.17950988E+03</pdfrwt>
<totfact> 0.13887759E+05</totfact>
</mgrwt>
</event>
<event>
 4    1  0.3935877E+000  0.1804675E+03  0.7546771E-02  0.1167351E+00
         21   -1    0    0  501  502  0.00000000000E+00  0.00000000000E+00  0.20302826720E+04  0.20302826720E+04  0.00000000000E+00 0.  1.
         21   -1    0    0  502  503 -0.00000000000E+00 -0.00000000000E+00 -0.17515344462E+02  0.17515344462E+02  0.00000000000E+00 0.  1.
          6    1    1    2  501    0  0.47965913931E+02 -0.18406343154E+02  0.13034081583E+04  0.13158424486E+04  0.17300000000E+03 0.  1.
         -6    1    1    2    0  503 -0.47965913931E+02  0.18406343154E+02  0.70935916922E+03  0.73195556787E+03  0.17300000000E+03 0.  1.
<mgrwt>
<rscale>  2 0.18046751E+03</rscale>
<asrwt>0</asrwt>
<pdfrwt beam="1">  1       21 0.31235099E+00 0.18046751E+03</pdfrwt>
<pdfrwt beam="2">  1       21 0.26946700E-02 0.18046751E+03</pdfrwt>
<totfact> 0.22170995E+04</totfact>
</mgrwt>
</event>
<event>
 4    1  0.3935877E+000  0.3072807E+03  0.7546771E-02  0.1081657E+00
         21   -1    0    0  501  502  0.00000000000E+00  0.00000000000E+00  0.12672274654E+04  0.12672274654E+04  0.00000000000E+00 0. -1.
         21   -1    0    0  502  503 -0.00000000000E+00 -0.00000000000E+00 -0.13519747829E+03  0.13519747829E+03  0.00000000000E+00 0. -1.
          6    1    1    2  501    0  0.10923403964E+03  0.22926042960E+03  0.10358160952E+04  0.10804334329E+04  0.17300000000E+03 0. -1.
         -6    1    1    2    0  503 -0.10923403964E+03 -0.22926042960E+03  0.96213891956E+02  0.32199151076E+03  0.17300000000E+03 0. -1.
<mgrwt>
<rscale>  2 0.30728069E+03</rscale>
<asrwt>0</asrwt>
<pdfrwt beam="1">  1       21 0.19495806E+00 0.30728069E+03</pdfrwt>
<pdfrwt beam="2">  1       21 0.20799613E-01 0.30728069E+03</pdfrwt>
<totfact> 0.28384780E+03</totfact>
</mgrwt>
</event>
<event>
 4    1  0.3935877E+000  0.1878839E+03  0.7546771E-02  0.1160384E+00
         21   -1    0    0  501  502  0.00000000000E+00  0.00000000000E+00  0.16212499951E+03  0.16212499951E+03  0.00000000000E+00 0.  1.
         21   -1    0    0  502  503 -0.00000000000E+00 -0.00000000000E+00 -0.22398863379E+03  0.22398863379E+03  0.00000000000E+00 0.  1.
          6    1    1    2  501    0 -0.61759464928E+02  0.39460276580E+02  0.13253269855E+01  0.18788853458E+03  0.17300000000E+03 0.  1.
         -6    1    1    2    0  503  0.61759464928E+02 -0.39460276580E+02 -0.63188961272E+02  0.19822509872E+03  0.17300000000E+03 0.  1.
<mgrwt>
<rscale>  2 0.18788386E+03</rscale>
<asrwt>0</asrwt>
<pdfrwt beam="1">  1       21 0.24942308E-01 0.18788386E+03</pdfrwt>
<pdfrwt beam="2">  1       21 0.34459790E-01 0.18788386E+03</pdfrwt>
<totfact> 0.12367804E+05</totfact>
</mgrwt>
</event>
<event>
 4    1  0.3935877E+000  0.2291082E+03  0.7546771E-02  0.1127269E+00
         21   -1    0    0  501  502  0.00000000000E+00  0.00000000000E+00  0.10312784239E+03  0.10312784239E+03  0.00000000000E+00 0.  1.
         21   -1    0    0  502  503 -0.00000000000E+00 -0.00000000000E+00 -0.52334871524E+03  0.52334871524E+03  0.00000000000E+00 0.  1.
          6    1    1    2  501    0 -0.82949280124E+02  0.12522376538E+03 -0.15821784425E+03  0.27843035166E+03  0.17300000000E+03 0.  1.
         -6    1    1    2    0  503  0.82949280124E+02 -0.12522376538E+03 -0.26200302860E+03  0.34804620597E+03  0.17300000000E+03 0.  1.
<mgrwt>
<rscale>  2 0.22910822E+03</rscale>
<asrwt>0</asrwt>
<pdfrwt beam="1">  1       21 0.15865822E-01 0.22910822E+03</pdfrwt>
<pdfrwt beam="2">  1       21 0.80515188E-01 0.22910822E+03</pdfrwt>
<totfact> 0.47160885E+04</totfact>
</mgrwt>
</event>
<event>
 4    1  0.3935877E+000  0.2768904E+03  0.7546771E-02  0.1097400E+00
         21   -1    0    0  503  502  0.00000000000E+00  0.00000000000E+00  0.17129713929E+03  0.17129713929E+03  0.00000000000E+00 0.  1.
         21   -1    0    0  501  503 -0.00000000000E+00 -0.00000000000E+00 -0.61746199542E+03  0.61746199542E+03  0.00000000000E+00 0.  1.
          6    1    1    2  501    0 -0.16003167483E+03  0.14535875705E+03 -0.42994858524E+03  0.51139426195E+03  0.17300000000E+03 0.  1.
         -6    1    1    2    0  502  0.16003167483E+03 -0.14535875705E+03 -0.16216270892E+02  0.27736487276E+03  0.17300000000E+03 0.  1.
<mgrwt>
<rscale>  2 0.27689042E+03</rscale>
<asrwt>0</asrwt>
<pdfrwt beam="1">  1       21 0.26353406E-01 0.27689042E+03</pdfrwt>
<pdfrwt beam="2">  1       21 0.94994152E-01 0.27689042E+03</pdfrwt>
<totfact> 0.12079726E+04</totfact>
</mgrwt>
</event>
<event>
 4    1  0.3935877E+000  0.1807871E+03  0.7546771E-02  0.1167043E+00
         21   -1    0    0  503  502  0.00000000000E+00  0.00000000000E+00  0.28893485645E+03  0.28893485645E+03  0.00000000000E+00 0.  1.
         21   -1    0    0  501  503 -0.00000000000E+00 -0.00000000000E+00 -0.11439772151E+03  0.11439772151E+03  0.00000000000E+00 0. -1.
          6    1    1    2  501    0 -0.49860469707E+02 -0.16398459539E+02  0.65945989812E+02  0.19243920985E+03  0.17300000000E+03 0. -1.
         -6    1    1    2    0  502  0.49860469707E+02  0.16398459539E+02  0.10859114512E+03  0.21089336811E+03  0.17300000000E+03 0.  1.
<mgrwt>
<rscale>  2 0.18078710E+03</rscale>
<asrwt>0</asrwt>
<pdfrwt beam="1">  1       21 0.44451516E-01 0.18078710E+03</pdfrwt>
<pdfrwt beam="2">  1       21 0.17599650E-01 0.18078710E+03</pdfrwt>
<totfact> 0.14277608E+05</totfact>
</mgrwt>
</event>
<event>
 4    1  0.3935877E+000  0.2237425E+03  0.7546771E-02  0.1131123E+00
         21   -1    0    0  501  502  0.00000000000E+00  0.00000000000E+00  0.51930937042E+03  0.51930937042E+03  0.00000000000E+00 0. -1.
         21   -1    0    0  502  503 -0.00000000000E+00 -0.00000000000E+00 -0.27457697384E+03  0.27457697384E+03  0.00000000000E+00 0. -1.
          6    1    1    2  501    0 -0.25314856981E+02  0.13960975802E+03  0.44212588032E+03  0.49551591353E+03  0.17300000000E+03 0. -1.
         -6    1    1    2    0  503  0.25314856981E+02 -0.13960975802E+03 -0.19739348373E+03  0.29837043073E+03  0.17300000000E+03 0. -1.
<mgrwt>
<rscale>  2 0.22374255E+03</rscale>
<asrwt>0</asrwt>
<pdfrwt beam="1">  1       21 0.79893749E-01 0.22374255E+03</pdfrwt>
<pdfrwt beam="2">  1       21 0.42242611E-01 0.22374255E+03</pdfrwt>
<totfact> 0.72781614E+03</totfact>
</mgrwt>
</event>
<event>
 4    1  0.3935877E+000  0.2025318E+03  0.7546771E-02  0.1147620E+00
         21   -1    0    0  501  502  0.00000000000E+00  0.00000000000E+00  0.17015285017E+03  0.17015285017E+03  0.00000000000E+00 0. -1.
         21   -1    0    0  502  503 -0.00000000000E+00 -0.00000000000E+00 -0.32010148369E+03  0.32010148369E+03  0.00000000000E+00 0. -1.
          6    1    1    2  501    0 -0.10529717238E+03 -0.16251831143E+01  0.46824032454E+02  0.20787406223E+03  0.17300000000E+03 0. -1.
         -6    1    1    2    0  503  0.10529717238E+03  0.16251831143E+01 -0.19677266598E+03  0.28238027164E+03  0.17300000000E+03 0. -1.
<mgrwt>
<rscale>  2 0.20253181E+03</rscale>
<asrwt>0</asrwt>
<pdfrwt beam="1">  1       21 0.26177362E-01 0.20253181E+03</pdfrwt>
<pdfrwt beam="2">  1       21 0.49246382E-01 0.20253181E+03</pdfrwt>
<totfact> 0.54291087E+04</totfact>
</mgrwt>
</event>
<event>
 4    1  0.3935877E+000  0.1816610E+03  0.7546771E-02  0.1166205E+00
         21   -1    0    0  501  502  0.00000000000E+00  0.00000000000E+00  0.68973989988E+02  0.68973989988E+02  0.00000000000E+00 0. -1.
         21   -1    0    0  502  503 -0.00000000000E+00 -0.00000000000E+00 -0.63441887946E+03  0.63441887946E+03  0.00000000000E+00 0. -1.
          6    1    1    2  501    0 -0.45008128241E+02  0.32341522990E+02 -0.10834236585E+03  0.21151542250E+03  0.17300000000E+03 0. -1.
         -6    1    1    2    0  503  0.45008128241E+02 -0.32341522990E+02 -0.45710252362E+03  0.49187744695E+03  0.17300000000E+03 0. -1.
<mgrwt>
<rscale>  2 0.18166096E+03</rscale>
<asrwt>0</asrwt>
<pdfrwt beam="1">  1       21 0.10611383E-01 0.18166096E+03</pdfrwt>
<pdfrwt beam="2">  1       21 0.97602903E-01 0.18166096E+03</pdfrwt>
<totfact> 0.63836721E+04</totfact>
</mgrwt>
</event>
<event>
 4    1  0.3935877E+000  0.1762125E+03  0.7546771E-02  0.1171520E+00
         21   -1    0    0  501  502  0.00000000000E+00  0.00000000000E+00  0.37706342107E+03  0.37706342107E+03  0.00000000000E+00 0.  1.
         21   -1    0    0  502  503 -0.00000000000E+00 -0.00000000000E+00 -0.14991061247E+03  0.14991061247E+03  0.00000000000E+00 0.  1.
          6    1    1    2  501    0 -0.32928116180E+02  0.61307277347E+01  0.29046205336E+03  0.33973379446E+03  0.17300000000E+03 0.  1.
         -6    1    1    2    0  503  0.32928116180E+02 -0.61307277347E+01 -0.63309244764E+02  0.18724023908E+03  0.17300000000E+03 0.  1.
<mgrwt>
<rscale>  2 0.17621250E+03</rscale>
<asrwt>0</asrwt>
<pdfrwt beam="1">  1       21 0.58009757E-01 0.17621250E+03</pdfrwt>
<pdfrwt beam="2">  1       21 0.23063171E-01 0.17621250E+03</pdfrwt>
<totfact> 0.49567063E+04</totfact>
</mgrwt>
</event>
<event>
 4    1  0.3935877E+000  0.2564555E+03  0.7546771E-02  0.1109292E+00
         21   -1    0    0  501  502  0.00000000000E+00  0.00000000000E+00  0.29323731984E+03  0.29323731984E+03  0.00000000000E+00 0.  1.
         21   -1    0    0  502  503 -0.00000000000E+00 -0.00000000000E+00 -0.66491347978E+03  0.66491347978E+03  0.00000000000E+00 0.  1.
          6    1    1    2  501    0 -0.79680302008E+02  0.17173078827E+03  0.20415458428E+03  0.32779339293E+03  0.17300000000E+03 0.  1.
         -6    1    1    2    0  503  0.79680302008E+02 -0.17173078827E+03 -0.57583074422E+03  0.63035740668E+03  0.17300000000E+03 0.  1.
<mgrwt>
<rscale>  2 0.25645548E+03</rscale>
<asrwt>0</asrwt>
<pdfrwt beam="1">  1       21 0.45113434E-01 0.25645548E+03</pdfrwt>
<pdfrwt beam="2">  1       21 0.10229438E+00 0.25645548E+03</pdfrwt>
<totfact> 0.34966382E+03</totfact>
</mgrwt>
</event>
<event>
 4    1  0.3935877E+000  0.2072783E+03  0.7546771E-02  0.1143740E+00
         21   -1    0    0  503  502  0.00000000000E+00  0.00000000000E+00  0.79498936024E+02  0.79498936024E+02  0.00000000000E+00 0.  1.
         21   -1    0    0  501  503 -0.00000000000E+00 -0.00000000000E+00 -0.54181337651E+03  0.54181337651E+03  0.00000000000E+00 0. -1.
          6    1    1    2  501    0  0.10960471742E+03  0.31970450348E+02 -0.24680494170E+03  0.32229952377E+03  0.17300000000E+03 0. -1.
         -6    1    1    2    0  502 -0.10960471742E+03 -0.31970450348E+02 -0.21550949879E+03  0.29901278877E+03  0.17300000000E+03 0.  1.
<mgrwt>
<rscale>  2 0.20727832E+03</rscale>
<asrwt>0</asrwt>
<pdfrwt beam="1">  1       21 0.12230606E-01 0.20727832E+03</pdfrwt>
<pdfrwt beam="2">  1       21 0.83355902E-01 0.20727832E+03</pdfrwt>
<totfact> 0.70584126E+04</totfact>
</mgrwt>
</event>
<event>
 4    1  0.3935877E+000  0.1834544E+03  0.7546771E-02  0.1164501E+00
         21   -1    0    0  501  502  0.00000000000E+00  0.00000000000E+00  0.13625175169E+04  0.13625175169E+04  0.00000000000E+00 0. -1.
         21   -1    0    0  502  503 -0.00000000000E+00 -0.00000000000E+00 -0.25092419025E+02  0.25092419025E+02  0.00000000000E+00 0. -1.
          6    1    1    2  501    0 -0.46543672002E+02 -0.39499588441E+02  0.75536740911E+03  0.77732583492E+03  0.17300000000E+03 0.  1.
         -6    1    1    2    0  503  0.46543672002E+02  0.39499588441E+02  0.58205768880E+03  0.61028410104E+03  0.17300000000E+03 0.  1.
<mgrwt>
<rscale>  2 0.18345444E+03</rscale>
<asrwt>0</asrwt>
<pdfrwt beam="1">  1       21 0.20961802E+00 0.18345444E+03</pdfrwt>
<pdfrwt beam="2">  1       21 0.38603732E-02 0.18345444E+03</pdfrwt>
<totfact> 0.48830671E+04</totfact>
</mgrwt>
</event>
<event>
 4    1  0.3935877E+000  0.1879907E+03  0.7546771E-02  0.1160286E+00
         21   -1    0    0  501  502  0.00000000000E+00  0.00000000000E+00  0.19020135861E+03  0.19020135861E+03  0.00000000000E+00 0.  1.
         21   -1    0    0  502  503 -0.00000000000E+00 -0.00000000000E+00 -0.26218904880E+03  0.26218904880E+03  0.00000000000E+00 0.  1.
          6    1    1    2  501    0  0.63034346599E+02  0.37923068752E+02  0.86094889800E+02  0.20676754592E+03  0.17300000000E+03 0.  1.
         -6    1    1    2    0  503 -0.63034346599E+02 -0.37923068752E+02 -0.15808257999E+03  0.24562286150E+03  0.17300000000E+03 0.  1.
<mgrwt>
<rscale>  2 0.18799066E+03</rscale>
<asrwt>0</asrwt>
<pdfrwt beam="1">  1       21 0.29261747E-01 0.18799066E+03</pdfrwt>
<pdfrwt beam="2">  1       21 0.40336777E-01 0.18799066E+03</pdfrwt>
<totfact> 0.66377939E+04</totfact>
</mgrwt>
</event>
<event>
 4    1  0.3935877E+000  0.2084514E+03  0.7546771E-02  0.1142798E+00
         21   -1    0    0  503  502  0.00000000000E+00  0.00000000000E+00  0.46711192912E+03  0.46711192912E+03  0.00000000000E+00 0.  1.
         21   -1    0    0  501  503 -0.00000000000E+00 -0.00000000000E+00 -0.18615955980E+03  0.18615955980E+03  0.00000000000E+00 0.  1.
          6    1    1    2  501    0  0.58070090903E+02 -0.10075138792E+03 -0.90561066380E+02  0.22727358925E+03  0.17300000000E+03 0.  1.
         -6    1    1    2    0  502 -0.58070090903E+02  0.10075138792E+03  0.37151343570E+03  0.42599789968E+03  0.17300000000E+03 0.  1.
<mgrwt>
<rscale>  2 0.20845138E+03</rscale>
<asrwt>0</asrwt>
<pdfrwt beam="1">  1       21 0.71863373E-01 0.20845138E+03</pdfrwt>
<pdfrwt beam="2">  1       21 0.28639932E-01 0.20845138E+03</pdfrwt>
<totfact> 0.20197300E+04</totfact>
</mgrwt>
</event>
<event>
 4    1  0.3935877E+000  0.1876583E+03  0.7546771E-02  0.1160590E+00
         21   -1    0    0  503  502  0.00000000000E+00  0.00000000000E+00  0.11271742271E+03  0.11271742271E+03  0.00000000000E+00 0.  1.
         21   -1    0    0  501  503 -0.00000000000E+00 -0.00000000000E+00 -0.40628008500E+03  0.40628008500E+03  0.00000000000E+00 0. -1.
          6    1    1    2  501    0  0.69274473762E+02 -0.22083639954E+02 -0.27150632309E+03  0.33004745620E+03  0.17300000000E+03 0. -1.
         -6    1    1    2    0  502 -0.69274473762E+02  0.22083639954E+02 -0.22056339202E+02  0.18895005152E+03  0.17300000000E+03 0.  1.
<mgrwt>
<rscale>  2 0.18765831E+03</rscale>
<asrwt>0</asrwt>
<pdfrwt beam="1">  1       21 0.17341142E-01 0.18765831E+03</pdfrwt>
<pdfrwt beam="2">  1       21 0.62504630E-01 0.18765831E+03</pdfrwt>
<totfact> 0.71512891E+04</totfact>
</mgrwt>
</event>
<event>
 4    1  0.3935877E+000  0.2997345E+03  0.7546771E-02  0.1085373E+00
         21   -1    0    0  501  502  0.00000000000E+00  0.00000000000E+00  0.18307414157E+03  0.18307414157E+03  0.00000000000E+00 0. -1.
         21   -1    0    0  502  503 -0.00000000000E+00 -0.00000000000E+00 -0.15281549464E+04  0.15281549464E+04  0.00000000000E+00 0. -1.
          6    1    1    2  501    0 -0.24128504594E+03 -0.41149663696E+02  0.32431645110E+02  0.30148396280E+03  0.17300000000E+03 0. -1.
         -6    1    1    2    0  503  0.24128504594E+03  0.41149663696E+02 -0.13775124500E+04  0.14097451252E+04  0.17300000000E+03 0. -1.
<mgrwt>
<rscale>  2 0.29973450E+03</rscale>
<asrwt>0</asrwt>
<pdfrwt beam="1">  1       21 0.28165252E-01 0.29973450E+03</pdfrwt>
<pdfrwt beam="2">  1       21 0.23510076E+00 0.29973450E+03</pdfrwt>
<totfact> 0.88500781E+02</totfact>
</mgrwt>
</event>
<event>
 4    1  0.3935877E+000  0.1901528E+03  0.7546771E-02  0.1158324E+00
         21   -1    0    0  501  502  0.00000000000E+00  0.00000000000E+00  0.63084834767E+03  0.63084834767E+03  0.00000000000E+00 0. -1.
         21   -1    0    0  502  503 -0.00000000000E+00 -0.00000000000E+00 -0.73133585253E+02  0.73133585253E+02  0.00000000000E+00 0. -1.
          6    1    1    2  501    0 -0.33640895129E+02  0.71395900834E+02  0.44255218557E+03  0.48167470500E+03  0.17300000000E+03 0. -1.
         -6    1    1    2    0  503  0.33640895129E+02 -0.71395900834E+02  0.11516257684E+03  0.22230722792E+03  0.17300000000E+03 0. -1.
<mgrwt>
<rscale>  2 0.19015279E+03</rscale>
<asrwt>0</asrwt>
<pdfrwt beam="1">  1       21 0.97053588E-01 0.19015279E+03</pdfrwt>
<pdfrwt beam="2">  1       21 0.11251321E-01 0.19015279E+03</pdfrwt>
<totfact> 0.58069448E+04</totfact>
</mgrwt>
</event>
<event>
 4    1  0.3935877E+000  0.2054758E+03  0.7546771E-02  0.1145200E+00
         21   -1    0    0  503  502  0.00000000000E+00  0.00000000000E+00  0.18191184744E+03  0.18191184744E+03  0.00000000000E+00 0. -1.
         21   -1    0    0  501  503 -0.00000000000E+00 -0.00000000000E+00 -0.55579168278E+03  0.55579168278E+03  0.00000000000E+00 0. -1.
          6    1    1    2  501    0 -0.82889293657E+02  0.73625192763E+02 -0.46843247028E+03  0.51151665000E+03  0.17300000000E+03 0. -1.
         -6    1    1    2    0  502  0.82889293657E+02 -0.73625192763E+02  0.94552634937E+02  0.22618688022E+03  0.17300000000E+03 0. -1.
<mgrwt>
<rscale>  2 0.20547580E+03</rscale>
<asrwt>0</asrwt>
<pdfrwt beam="1">  1       21 0.27986438E-01 0.20547580E+03</pdfrwt>
<pdfrwt beam="2">  1       21 0.85506412E-01 0.20547580E+03</pdfrwt>
<totfact> 0.14295569E+04</totfact>
</mgrwt>
</event>
<event>
 4    1  0.3935877E+000  0.2470555E+03  0.7546771E-02  0.1115180E+00
         21   -1    0    0  503  502  0.00000000000E+00  0.00000000000E+00  0.89482647262E+03  0.89482647262E+03  0.00000000000E+00 0.  1.
         21   -1    0    0  501  503 -0.00000000000E+00 -0.00000000000E+00 -0.16321807785E+03  0.16321807785E+03  0.00000000000E+00 0. -1.
          6    1    1    2  501    0 -0.11051476141E+03  0.13745513453E+03 -0.37812659819E+02  0.24993243836E+03  0.17300000000E+03 0. -1.
         -6    1    1    2    0  502  0.11051476141E+03 -0.13745513453E+03  0.76942105459E+03  0.80811211211E+03  0.17300000000E+03 0.  1.
<mgrwt>
<rscale>  2 0.24705551E+03</rscale>
<asrwt>0</asrwt>
<pdfrwt beam="1">  1       21 0.13766561E+00 0.24705551E+03</pdfrwt>
<pdfrwt beam="2">  1       21 0.25110474E-01 0.24705551E+03</pdfrwt>
<totfact> 0.53911986E+03</totfact>
</mgrwt>
</event>
<event>
 4    1  0.3935877E+000  0.1731965E+03  0.7546771E-02  0.1174555E+00
         21   -1    0    0  501  502  0.00000000000E+00  0.00000000000E+00  0.24352843821E+02  0.24352843821E+02  0.00000000000E+00 0. -1.
         21   -1    0    0  502  503 -0.00000000000E+00 -0.00000000000E+00 -0.19819708792E+04  0.19819708792E+04  0.00000000000E+00 0. -1.
          6    1    1    2  501    0  0.50979568838E+01 -0.64838207287E+01 -0.36162874762E+03  0.40096431288E+03  0.17300000000E+03 0.  1.
         -6    1    1    2    0  503 -0.50979568838E+01  0.64838207287E+01 -0.15959892878E+04  0.16053594101E+04  0.17300000000E+03 0.  1.
<mgrwt>
<rscale>  2 0.17319650E+03</rscale>
<asrwt>0</asrwt>
<pdfrwt beam="1">  1       21 0.37465914E-02 0.17319650E+03</pdfrwt>
<pdfrwt beam="2">  1       21 0.30491860E+00 0.17319650E+03</pdfrwt>
<totfact> 0.14284711E+04</totfact>
</mgrwt>
</event>
<event>
 4    1  0.3935877E+000  0.1781540E+03  0.7546771E-02  0.1169602E+00
         21   -1    0    0  501  502  0.00000000000E+00  0.00000000000E+00  0.11935172770E+03  0.11935172770E+03  0.00000000000E+00 0. -1.
         21   -1    0    0  502  503 -0.00000000000E+00 -0.00000000000E+00 -0.27049029595E+03  0.27049029595E+03  0.00000000000E+00 0. -1.
          6    1    1    2  501    0  0.64422787415E+01  0.42051857361E+02 -0.10088651726E+03  0.20473629631E+03  0.17300000000E+03 0.  1.
         -6    1    1    2    0  503 -0.64422787415E+01 -0.42051857361E+02 -0.50252050996E+02  0.18510572734E+03  0.17300000000E+03 0.  1.
<mgrwt>
<rscale>  2 0.17815404E+03</rscale>
<asrwt>0</asrwt>
<pdfrwt beam="1">  1       21 0.18361805E-01 0.17815404E+03</pdfrwt>
<pdfrwt beam="2">  1       21 0.41613891E-01 0.17815404E+03</pdfrwt>
<totfact> 0.15115219E+05</totfact>
</mgrwt>
</event>
<event>
 4    1  0.3935877E+000  0.2125024E+03  0.7546771E-02  0.1139600E+00
         21   -1    0    0  503  502  0.00000000000E+00  0.00000000000E+00  0.19920551210E+03  0.19920551210E+03  0.00000000000E+00 0.  1.
         21   -1    0    0  501  503 -0.00000000000E+00 -0.00000000000E+00 -0.25483544745E+03  0.25483544745E+03  0.00000000000E+00 0.  1.
          6    1    1    2  501    0  0.24320044810E+02 -0.12098262186E+03 -0.10326577854E+03  0.23626485221E+03  0.17300000000E+03 0.  1.
         -6    1    1    2    0  502 -0.24320044810E+02  0.12098262186E+03  0.47635843188E+02  0.21777610734E+03  0.17300000000E+03 0.  1.
<mgrwt>
<rscale>  2 0.21250237E+03</rscale>
<asrwt>0</asrwt>
<pdfrwt beam="1">  1       21 0.30647002E-01 0.21250237E+03</pdfrwt>
<pdfrwt beam="2">  1       21 0.39205453E-01 0.21250237E+03</pdfrwt>
<totfact> 0.63541375E+04</totfact>
</mgrwt>
</event>
<event>
 4    1  0.3935877E+000  0.2200856E+03  0.7546771E-02  0.1133819E+00
         21   -1    0    0  501  502  0.00000000000E+00  0.00000000000E+00  0.46285556995E+02  0.46285556995E+02  0.00000000000E+00 0. -1.
         21   -1    0    0  502  503 -0.00000000000E+00 -0.00000000000E+00 -0.15295119113E+04  0.15295119113E+04  0.00000000000E+00 0. -1.
          6    1    1    2  501    0 -0.10671030969E+03 -0.84389343381E+02 -0.29884675525E+03  0.37114287625E+03  0.17300000000E+03 0. -1.
         -6    1    1    2    0  503  0.10671030969E+03  0.84389343381E+02 -0.11843795991E+04  0.12046545921E+04  0.17300000000E+03 0. -1.
<mgrwt>
<rscale>  2 0.22008555E+03</rscale>
<asrwt>0</asrwt>
<pdfrwt beam="1">  1       21 0.71208543E-02 0.22008555E+03</pdfrwt>
<pdfrwt beam="2">  1       21 0.23530955E+00 0.22008555E+03</pdfrwt>
<totfact> 0.11654230E+04</totfact>
</mgrwt>
</event>
<event>
 4    1  0.3935877E+000  0.1994346E+03  0.7546771E-02  0.1150217E+00
         21   -1    0    0  501  502  0.00000000000E+00  0.00000000000E+00  0.20301646215E+03  0.20301646215E+03  0.00000000000E+00 0. -1.
         21   -1    0    0  502  503 -0.00000000000E+00 -0.00000000000E+00 -0.19801259481E+03  0.19801259481E+03  0.00000000000E+00 0.  1.
          6    1    1    2  501    0 -0.92296141371E+02  0.36422493712E+02  0.23134601372E+02  0.20077197399E+03  0.17300000000E+03 0. -1.
         -6    1    1    2    0  503  0.92296141371E+02 -0.36422493712E+02 -0.18130734032E+02  0.20025708296E+03  0.17300000000E+03 0.  1.
<mgrwt>
<rscale>  2 0.19943464E+03</rscale>
<asrwt>0</asrwt>
<pdfrwt beam="1">  1       21 0.31233302E-01 0.19943464E+03</pdfrwt>
<pdfrwt beam="2">  1       21 0.30463476E-01 0.19943464E+03</pdfrwt>
<totfact> 0.10159209E+05</totfact>
</mgrwt>
</event>
<event>
 4    1  0.3935877E+000  0.2045814E+03  0.7546771E-02  0.1145930E+00
         21   -1    0    0  501  502  0.00000000000E+00  0.00000000000E+00  0.25562038007E+03  0.25562038007E+03  0.00000000000E+00 0. -1.
         21   -1    0    0  502  503 -0.00000000000E+00 -0.00000000000E+00 -0.50781958446E+03  0.50781958446E+03  0.00000000000E+00 0. -1.
          6    1    1    2  501    0 -0.83186404067E+02  0.70742934904E+02  0.18811323293E+03  0.27792108424E+03  0.17300000000E+03 0. -1.
         -6    1    1    2    0  503  0.83186404067E+02 -0.70742934904E+02 -0.44031243732E+03  0.48551888029E+03  0.17300000000E+03 0. -1.
<mgrwt>
<rscale>  2 0.20458138E+03</rscale>
<asrwt>0</asrwt>
<pdfrwt beam="1">  1       21 0.39326213E-01 0.20458138E+03</pdfrwt>
<pdfrwt beam="2">  1       21 0.78126089E-01 0.20458138E+03</pdfrwt>
<totfact> 0.89684236E+03</totfact>
</mgrwt>
</event>
<event>
 4    1  0.3935877E+000  0.1796230E+03  0.7546771E-02  0.1168168E+00
         21   -1    0    0  503  502  0.00000000000E+00  0.00000000000E+00  0.82530610749E+02  0.82530610749E+02  0.00000000000E+00 0.  1.
         21   -1    0    0  501  503 -0.00000000000E+00 -0.00000000000E+00 -0.40712644347E+03  0.40712644347E+03  0.00000000000E+00 0. -1.
          6    1    1    2  501    0  0.37449081698E+02  0.30544636383E+02 -0.21111712183E+03  0.27719099491E+03  0.17300000000E+03 0.  1.
         -6    1    1    2    0  502 -0.37449081698E+02 -0.30544636383E+02 -0.11347871090E+03  0.21246605931E+03  0.17300000000E+03 0.  1.
<mgrwt>
<rscale>  2 0.17962296E+03</rscale>
<asrwt>0</asrwt>
<pdfrwt beam="1">  1       21 0.12697017E-01 0.17962296E+03</pdfrwt>
<pdfrwt beam="2">  1       21 0.62634836E-01 0.17962296E+03</pdfrwt>
<totfact> 0.12584356E+05</totfact>
</mgrwt>
</event>
<event>
 4    1  0.3935877E+000  0.2912694E+03  0.7546771E-02  0.1089688E+00
         21   -1    0    0  503  502  0.00000000000E+00  0.00000000000E+00  0.14446786764E+04  0.14446786764E+04  0.00000000000E+00 0.  1.
         21   -1    0    0  501  503 -0.00000000000E+00 -0.00000000000E+00 -0.85413653094E+02  0.85413653094E+02  0.00000000000E+00 0.  1.
          6    1    1    2  501    0 -0.79089078744E+02 -0.22057608516E+03  0.25197885910E+03  0.38513794562E+03  0.17300000000E+03 0.  1.
         -6    1    1    2    0  502  0.79089078744E+02  0.22057608516E+03  0.11072861642E+04  0.11449543839E+04  0.17300000000E+03 0.  1.
<mgrwt>
<rscale>  2 0.29126945E+03</rscale>
<asrwt>0</asrwt>
<pdfrwt beam="1">  1       21 0.22225824E+00 0.29126945E+03</pdfrwt>
<pdfrwt beam="2">  1       21 0.13140563E-01 0.29126945E+03</pdfrwt>
<totfact> 0.44867588E+03</totfact>
</mgrwt>
</event>
<event>
 4    1  0.3935877E+000  0.2054888E+03  0.7546771E-02  0.1145189E+00
         21   -1    0    0  503  502  0.00000000000E+00  0.00000000000E+00  0.74706025147E+03  0.74706025147E+03  0.00000000000E+00 0.  1.
         21   -1    0    0  501  503 -0.00000000000E+00 -0.00000000000E+00 -0.63841318700E+02  0.63841318700E+02  0.00000000000E+00 0. -1.
          6    1    1    2  501    0 -0.40122087550E+02 -0.10337723613E+03  0.20432834390E+03  0.28978562245E+03  0.17300000000E+03 0.  1.
         -6    1    1    2    0  502  0.40122087550E+02  0.10337723613E+03  0.47889058887E+03  0.52111594772E+03  0.17300000000E+03 0.  1.
<mgrwt>
<rscale>  2 0.20548877E+03</rscale>
<asrwt>0</asrwt>
<pdfrwt beam="1">  1       21 0.11493234E+00 0.20548877E+03</pdfrwt>
<pdfrwt beam="2">  1       21 0.98217419E-02 0.20548877E+03</pdfrwt>
<totfact> 0.48845646E+04</totfact>
</mgrwt>
</event>
<event>
 4    1  0.3935877E+000  0.2113612E+03  0.7546771E-02  0.1140493E+00
         21   -1    0    0  501  502  0.00000000000E+00  0.00000000000E+00  0.84313072186E+03  0.84313072186E+03  0.00000000000E+00 0.  1.
         21   -1    0    0  502  503 -0.00000000000E+00 -0.00000000000E+00 -0.68963636313E+02  0.68963636313E+02  0.00000000000E+00 0.  1.
          6    1    1    2  501    0  0.11860734235E+03  0.26016141814E+02  0.60659912934E+03  0.64236753110E+03  0.17300000000E+03 0.  1.
         -6    1    1    2    0  503 -0.11860734235E+03 -0.26016141814E+02  0.16756795621E+03  0.26972682707E+03  0.17300000000E+03 0.  1.
<mgrwt>
<rscale>  2 0.21136116E+03</rscale>
<asrwt>0</asrwt>
<pdfrwt beam="1">  1       21 0.12971241E+00 0.21136116E+03</pdfrwt>
<pdfrwt beam="2">  1       21 0.10609791E-01 0.21136116E+03</pdfrwt>
<totfact> 0.31415670E+04</totfact>
</mgrwt>
</event>
<event>
 4    1  0.3935877E+000  0.2272901E+03  0.7546771E-02  0.1128562E+00
         21   -1    0    0  501  502  0.00000000000E+00  0.00000000000E+00  0.13732101297E+03  0.13732101297E+03  0.00000000000E+00 0. -1.
         21   -1    0    0  502  503 -0.00000000000E+00 -0.00000000000E+00 -0.41838564503E+03  0.41838564503E+03  0.00000000000E+00 0. -1.
          6    1    1    2  501    0 -0.14736810481E+03 -0.37969461853E+01 -0.52308325936E+02  0.23323150747E+03  0.17300000000E+03 0. -1.
         -6    1    1    2    0  503  0.14736810481E+03  0.37969461853E+01 -0.22875630613E+03  0.32247515053E+03  0.17300000000E+03 0. -1.
<mgrwt>
<rscale>  2 0.22729007E+03</rscale>
<asrwt>0</asrwt>
<pdfrwt beam="1">  1       21 0.21126310E-01 0.22729007E+03</pdfrwt>
<pdfrwt beam="2">  1       21 0.64367022E-01 0.22729007E+03</pdfrwt>
<totfact> 0.45612788E+04</totfact>
</mgrwt>
</event>
<event>
 4    1  0.3935877E+000  0.1851720E+03  0.7546771E-02  0.1162889E+00
         21   -1    0    0  501  502  0.00000000000E+00  0.00000000000E+00  0.12872965906E+03  0.12872965906E+03  0.00000000000E+00 0. -1.
         21   -1    0    0  502  503 -0.00000000000E+00 -0.00000000000E+00 -0.78315207265E+03  0.78315207265E+03  0.00000000000E+00 0. -1.
          6    1    1    2  501    0  0.47453537648E+02 -0.45911094031E+02  0.43164611474E+02  0.19013639966E+03  0.17300000000E+03 0. -1.
         -6    1    1    2    0  503 -0.47453537648E+02  0.45911094031E+02 -0.69758702507E+03  0.72174533205E+03  0.17300000000E+03 0. -1.
<mgrwt>
<rscale>  2 0.18517199E+03</rscale>
<asrwt>0</asrwt>
<pdfrwt beam="1">  1       21 0.19804563E-01 0.18517199E+03</pdfrwt>
<pdfrwt beam="2">  1       21 0.12048494E+00 0.18517199E+03</pdfrwt>
<totfact> 0.12356238E+04</totfact>
</mgrwt>
</event>
<event>
 4    1  0.3935877E+000  0.1884498E+03  0.7546771E-02  0.1159867E+00
         21   -1    0    0  503  502  0.00000000000E+00  0.00000000000E+00  0.31480311071E+02  0.31480311071E+02  0.00000000000E+00 0. -1.
         21   -1    0    0  501  503 -0.00000000000E+00 -0.00000000000E+00 -0.12716569658E+04  0.12716569658E+04  0.00000000000E+00 0. -1.
          6    1    1    2  501    0  0.40073731466E+02  0.63074804879E+02 -0.83899968264E+03  0.85990336808E+03  0.17300000000E+03 0. -1.
         -6    1    1    2    0  502 -0.40073731466E+02 -0.63074804879E+02 -0.40117697205E+03  0.44323390875E+03  0.17300000000E+03 0. -1.
<mgrwt>
<rscale>  2 0.18844982E+03</rscale>
<asrwt>0</asrwt>
<pdfrwt beam="1">  1       21 0.48431235E-02 0.18844982E+03</pdfrwt>
<pdfrwt beam="2">  1       21 0.19563959E+00 0.18844982E+03</pdfrwt>
<totfact> 0.40788768E+04</totfact>
</mgrwt>
</event>
<event>
 4    1  0.3935877E+000  0.2155716E+03  0.7546771E-02  0.1137228E+00
         21   -1    0    0  503  502  0.00000000000E+00  0.00000000000E+00  0.53018858311E+03  0.53018858311E+03  0.00000000000E+00 0.  1.
         21   -1    0    0  501  503 -0.00000000000E+00 -0.00000000000E+00 -0.10114686470E+03  0.10114686470E+03  0.00000000000E+00 0.  1.
          6    1    1    2  501    0 -0.17140443719E+02  0.12746892487E+03  0.99210689244E+02  0.23730546239E+03  0.17300000000E+03 0.  1.
         -6    1    1    2    0  502  0.17140443719E+02 -0.12746892487E+03  0.32983102916E+03  0.39402998543E+03  0.17300000000E+03 0.  1.
<mgrwt>
<rscale>  2 0.21557162E+03</rscale>
<asrwt>0</asrwt>
<pdfrwt beam="1">  1       21 0.81567472E-01 0.21557162E+03</pdfrwt>
<pdfrwt beam="2">  1       21 0.15561056E-01 0.21557162E+03</pdfrwt>
<totfact> 0.47743625E+04</totfact>
</mgrwt>
</event>
<event>
 4    1  0.3935877E+000  0.1789181E+03  0.7546771E-02  0.1168854E+00
         21   -1    0    0  503  502  0.00000000000E+00  0.00000000000E+00  0.30282788446E+03  0.30282788446E+03  0.00000000000E+00 0.  1.
         21   -1    0    0  501  503 -0.00000000000E+00 -0.00000000000E+00 -0.10982133974E+03  0.10982133974E+03  0.00000000000E+00 0.  1.
          6    1    1    2  501    0  0.26597237387E+02  0.37084547110E+02  0.56578309711E+02  0.18765069091E+03  0.17300000000E+03 0. -1.
         -6    1    1    2    0  502 -0.26597237387E+02 -0.37084547110E+02  0.13642823502E+03  0.22499853329E+03  0.17300000000E+03 0. -1.
<mgrwt>
<rscale>  2 0.17891807E+03</rscale>
<asrwt>0</asrwt>
<pdfrwt beam="1">  1       21 0.46588905E-01 0.17891807E+03</pdfrwt>
<pdfrwt beam="2">  1       21 0.16895591E-01 0.17891807E+03</pdfrwt>
<totfact> 0.13984840E+05</totfact>
</mgrwt>
</event>
<event>
 4    1  0.3935877E+000  0.1734339E+03  0.7546771E-02  0.1174313E+00
         21   -1    0    0  503  502  0.00000000000E+00  0.00000000000E+00  0.23503626520E+03  0.23503626520E+03  0.00000000000E+00 0.  1.
         21   -1    0    0  501  503 -0.00000000000E+00 -0.00000000000E+00 -0.12802694324E+03  0.12802694324E+03  0.00000000000E+00 0.  1.
          6    1    1    2  501    0 -0.12133029534E+02  0.17594801176E+01  0.57079363544E+02  0.18258521276E+03  0.17300000000E+03 0.  1.
         -6    1    1    2    0  502  0.12133029534E+02 -0.17594801176E+01  0.49929958424E+02  0.18047799568E+03  0.17300000000E+03 0.  1.
<mgrwt>
<rscale>  2 0.17343387E+03</rscale>
<asrwt>0</asrwt>
<pdfrwt beam="1">  1       21 0.36159425E-01 0.17343387E+03</pdfrwt>
<pdfrwt beam="2">  1       21 0.19696453E-01 0.17343387E+03</pdfrwt>
<totfact> 0.17620499E+05</totfact>
</mgrwt>
</event>
<event>
 4    1  0.3935877E+000  0.1909944E+03  0.7546771E-02  0.1157567E+00
         21   -1    0    0  503  502  0.00000000000E+00  0.00000000000E+00  0.13994339973E+03  0.13994339973E+03  0.00000000000E+00 0. -1.
         21   -1    0    0  501  503 -0.00000000000E+00 -0.00000000000E+00 -0.31187609242E+03  0.31187609242E+03  0.00000000000E+00 0. -1.
          6    1    1    2  501    0  0.79753727836E+02  0.13755753150E+02 -0.17750612096E+03  0.26074374552E+03  0.17300000000E+03 0. -1.
         -6    1    1    2    0  502 -0.79753727836E+02 -0.13755753150E+02  0.55734282612E+01  0.19107574663E+03  0.17300000000E+03 0. -1.
<mgrwt>
<rscale>  2 0.19099444E+03</rscale>
<asrwt>0</asrwt>
<pdfrwt beam="1">  1       21 0.21529754E-01 0.19099444E+03</pdfrwt>
<pdfrwt beam="2">  1       21 0.47980937E-01 0.19099444E+03</pdfrwt>
<totfact> 0.83519600E+04</totfact>
</mgrwt>
</event>
<event>
 4    1  0.3935877E+000  0.1789124E+03  0.7546771E-02  0.1168860E+00
         21   -1    0    0  501  502  0.00000000000E+00  0.00000000000E+00  0.32060478551E+04  0.32060478551E+04  0.00000000000E+00 0.  1.
         21   -1    0    0  502  503 -0.00000000000E+00 -0.00000000000E+00 -0.10211135320E+02  0.10211135320E+02  0.00000000000E+00 0. -1.
          6    1    1    2  501    0  0.10847554872E+02  0.44305472068E+02  0.18376847888E+04  0.18463734799E+04  0.17300000000E+03 0.  1.
         -6    1    1    2    0  503 -0.10847554872E+02 -0.44305472068E+02  0.13581519310E+04  0.13698855106E+04  0.17300000000E+03 0. -1.
<mgrwt>
<rscale>  2 0.17891239E+03</rscale>
<asrwt>0</asrwt>
<pdfrwt beam="1">  1       21 0.49323733E+00 0.17891239E+03</pdfrwt>
<pdfrwt beam="2">  1       21 0.15709465E-02 0.17891239E+03</pdfrwt>
<totfact> 0.39263734E+03</totfact>
</mgrwt>
</event>
<event>
 4    1  0.3935877E+000  0.1735885E+03  0.7546771E-02  0.1174156E+00
         21   -1    0    0  503  502  0.00000000000E+00  0.00000000000E+00  0.17481424573E+03  0.17481424573E+03  0.00000000000E+00 0.  1.
         21   -1    0    0  501  503 -0.00000000000E+00 -0.00000000000E+00 -0.18497425338E+03  0.18497425338E+03  0.00000000000E+00 0.  1.
          6    1    1    2  501    0 -0.53288422749E+01 -0.13250605142E+02 -0.52036555650E+02  0.18122024782E+03  0.17300000000E+03 0.  1.
         -6    1    1    2    0  502  0.53288422749E+01  0.13250605142E+02  0.41876548002E+02  0.17856825129E+03  0.17300000000E+03 0.  1.
<mgrwt>
<rscale>  2 0.17358852E+03</rscale>
<asrwt>0</asrwt>
<pdfrwt beam="1">  1       21 0.26894499E-01 0.17358852E+03</pdfrwt>
<pdfrwt beam="2">  1       21 0.28457577E-01 0.17358852E+03</pdfrwt>
<totfact> 0.15642571E+05</totfact>
</mgrwt>
</event>
<event>
 4    1  0.3935877E+000  0.4152314E+03  0.7546771E-02  0.1038630E+00
         21   -1    0    0  501  502  0.00000000000E+00  0.00000000000E+00  0.48482940674E+03  0.48482940674E+03  0.00000000000E+00 0. -1.
         21   -1    0    0  502  503 -0.00000000000E+00 -0.00000000000E+00 -0.85997168383E+03  0.85997168383E+03  0.00000000000E+00 0. -1.
          6    1    1    2  501    0 -0.32087011247E+03  0.19882283121E+03  0.32736199995E+03  0.52875611230E+03  0.17300000000E+03 0. -1.
         -6    1    1    2    0  503  0.32087011247E+03 -0.19882283121E+03 -0.70250427704E+03  0.81604497826E+03  0.17300000000E+03 0. -1.
<mgrwt>
<rscale>  2 0.41523144E+03</rscale>
<asrwt>0</asrwt>
<pdfrwt beam="1">  1       21 0.74589141E-01 0.41523144E+03</pdfrwt>
<pdfrwt beam="2">  1       21 0.13230333E+00 0.41523144E+03</pdfrwt>
<totfact> 0.56624998E+02</totfact>
</mgrwt>
</event>
<event>
 4    1  0.3935877E+000  0.1809683E+03  0.7546771E-02  0.1166869E+00
         21   -1    0    0  501  502  0.00000000000E+00  0.00000000000E+00  0.20590602411E+03  0.20590602411E+03  0.00000000000E+00 0.  1.
         21   -1    0    0  502  503 -0.00000000000E+00 -0.00000000000E+00 -0.47397446445E+03  0.47397446445E+03  0.00000000000E+00 0.  1.
          6    1    1    2  501    0 -0.51667657084E+02  0.12287783124E+02  0.14306014603E+03  0.23068537402E+03  0.17300000000E+03 0.  1.
         -6    1    1    2    0  503  0.51667657084E+02 -0.12287783124E+02 -0.41112858637E+03  0.44919511454E+03  0.17300000000E+03 0.  1.
<mgrwt>
<rscale>  2 0.18096833E+03</rscale>
<asrwt>0</asrwt>
<pdfrwt beam="1">  1       21 0.31677850E-01 0.18096833E+03</pdfrwt>
<pdfrwt beam="2">  1       21 0.72919149E-01 0.18096833E+03</pdfrwt>
<totfact> 0.16336978E+04</totfact>
</mgrwt>
</event>
<event>
 4    1  0.3935877E+000  0.2130255E+03  0.7546771E-02  0.1139192E+00
         21   -1    0    0  503  502  0.00000000000E+00  0.00000000000E+00  0.11686837674E+04  0.11686837674E+04  0.00000000000E+00 0.  1.
         21   -1    0    0  501  503 -0.00000000000E+00 -0.00000000000E+00 -0.47143155056E+02  0.47143155056E+02  0.00000000000E+00 0. -1.
          6    1    1    2  501    0 -0.10337732410E+03  0.69021563222E+02  0.30548925310E+03  0.37242922964E+03  0.17300000000E+03 0. -1.
         -6    1    1    2    0  502  0.10337732410E+03 -0.69021563222E+02  0.81605135919E+03  0.84339769277E+03  0.17300000000E+03 0.  1.
<mgrwt>
<rscale>  2 0.21302546E+03</rscale>
<asrwt>0</asrwt>
<pdfrwt beam="1">  1       21 0.17979748E+00 0.21302546E+03</pdfrwt>
<pdfrwt beam="2">  1       21 0.72527940E-02 0.21302546E+03</pdfrwt>
<totfact> 0.25612114E+04</totfact>
</mgrwt>
</event>
<event>
 4    1  0.3935877E+000  0.1745974E+03  0.7546771E-02  0.1173137E+00
         21   -1    0    0  501  502  0.00000000000E+00  0.00000000000E+00  0.83844048850E+03  0.83844048850E+03  0.00000000000E+00 0.  1.
         21   -1    0    0  502  503 -0.00000000000E+00 -0.00000000000E+00 -0.36636994540E+02  0.36636994540E+02  0.00000000000E+00 0.  1.
          6    1    1    2  501    0 -0.17986736286E+02  0.15222995560E+02  0.43906353870E+03  0.47250508282E+03  0.17300000000E+03 0. -1.
         -6    1    1    2    0  503  0.17986736286E+02 -0.15222995560E+02  0.36273995526E+03  0.40257240022E+03  0.17300000000E+03 0. -1.
<mgrwt>
<rscale>  2 0.17459743E+03</rscale>
<asrwt>0</asrwt>
<pdfrwt beam="1">  1       21 0.12899083E+00 0.17459743E+03</pdfrwt>
<pdfrwt beam="2">  1       21 0.56364613E-02 0.17459743E+03</pdfrwt>
<totfact> 0.97512748E+04</totfact>
</mgrwt>
</event>
<event>
 4    1  0.3935877E+000  0.3665377E+03  0.7546771E-02  0.1056025E+00
         21   -1    0    0  503  502  0.00000000000E+00  0.00000000000E+00  0.14219634780E+04  0.14219634780E+04  0.00000000000E+00 0. -1.
         21   -1    0    0  501  503 -0.00000000000E+00 -0.00000000000E+00 -0.11892488019E+03  0.11892488019E+03  0.00000000000E+00 0.  1.
          6    1    1    2  501    0 -0.10810866486E+03  0.30452160923E+03  0.30223313880E+03  0.47507343022E+03  0.17300000000E+03 0.  1.
         -6    1    1    2    0  502  0.10810866486E+03 -0.30452160923E+03  0.10008054590E+04  0.10658149280E+04  0.17300000000E+03 0.  1.
<mgrwt>
<rscale>  2 0.36653771E+03</rscale>
<asrwt>0</asrwt>
<pdfrwt beam="1">  1       21 0.21876360E+00 0.36653771E+03</pdfrwt>
<pdfrwt beam="2">  1       21 0.18296136E-01 0.36653771E+03</pdfrwt>
<totfact> 0.24485573E+03</totfact>
</mgrwt>
</event>
<event>
 4    1  0.3935877E+000  0.2209055E+03  0.7546771E-02  0.1133210E+00
         21   -1    0    0  501  502  0.00000000000E+00  0.00000000000E+00  0.33546620955E+03  0.33546620955E+03  0.00000000000E+00 0. -1.
         21   -1    0    0  502  503 -0.00000000000E+00 -0.00000000000E+00 -0.14912759187E+03  0.14912759187E+03  0.00000000000E+00 0. -1.
          6    1    1    2  501    0 -0.32801672133E+02 -0.13339524708E+03  0.13113124088E+03  0.25689422721E+03  0.17300000000E+03 0. -1.
         -6    1    1    2    0  503  0.32801672133E+02  0.13339524708E+03  0.55207376798E+02  0.22769957420E+03  0.17300000000E+03 0. -1.
<mgrwt>
<rscale>  2 0.22090550E+03</rscale>
<asrwt>0</asrwt>
<pdfrwt beam="1">  1       21 0.51610186E-01 0.22090550E+03</pdfrwt>
<pdfrwt beam="2">  1       21 0.22942707E-01 0.22090550E+03</pdfrwt>
<totfact> 0.62794467E+04</totfact>
</mgrwt>
</event>
<event>
 4    1  0.3935877E+000  0.2064580E+03  0.7546771E-02  0.1144402E+00
         21   -1    0    0  503  502  0.00000000000E+00  0.00000000000E+00  0.13880541525E+03  0.13880541525E+03  0.00000000000E+00 0. -1.
         21   -1    0    0  501  503 -0.00000000000E+00 -0.00000000000E+00 -0.10034354360E+04  0.10034354360E+04  0.00000000000E+00 0. -1.
          6    1    1    2  501    0  0.35087294747E+01 -0.11262153457E+03 -0.90808518739E+03  0.93125916307E+03  0.17300000000E+03 0. -1.
         -6    1    1    2    0  502 -0.35087294747E+01  0.11262153457E+03  0.43455166657E+02  0.21098168816E+03  0.17300000000E+03 0. -1.
<mgrwt>
<rscale>  2 0.20645804E+03</rscale>
<asrwt>0</asrwt>
<pdfrwt beam="1">  1       21 0.21354680E-01 0.20645804E+03</pdfrwt>
<pdfrwt beam="2">  1       21 0.15437468E+00 0.20645804E+03</pdfrwt>
<totfact> 0.55917631E+03</totfact>
</mgrwt>
</event>
<event>
 4    1  0.3935877E+000  0.2224227E+03  0.7546771E-02  0.1132090E+00
         21   -1    0    0  503  502  0.00000000000E+00  0.00000000000E+00  0.32278978485E+03  0.32278978485E+03  0.00000000000E+00 0. -1.
         21   -1    0    0  501  503 -0.00000000000E+00 -0.00000000000E+00 -0.20625314851E+03  0.20625314851E+03  0.00000000000E+00 0. -1.
          6    1    1    2  501    0  0.13649029733E+03  0.30220407485E+02 -0.75809327448E+02  0.23498708139E+03  0.17300000000E+03 0. -1.
         -6    1    1    2    0  502 -0.13649029733E+03 -0.30220407485E+02  0.19234596379E+03  0.29405585197E+03  0.17300000000E+03 0. -1.
<mgrwt>
<rscale>  2 0.22242274E+03</rscale>
<asrwt>0</asrwt>
<pdfrwt beam="1">  1       21 0.49659967E-01 0.22242274E+03</pdfrwt>
<pdfrwt beam="2">  1       21 0.31731253E-01 0.22242274E+03</pdfrwt>
<totfact> 0.36351919E+04</totfact>
</mgrwt>
</event>
<event>
 4    1  0.3935877E+000  0.3173194E+03  0.7546771E-02  0.1076890E+00
         21   -1    0    0  503  502  0.00000000000E+00  0.00000000000E+00  0.19464791589E+03  0.19464791589E+03  0.00000000000E+00 0.  1.
         21   -1    0    0  501  503 -0.00000000000E+00 -0.00000000000E+00 -0.78482883759E+03  0.78482883759E+03  0.00000000000E+00 0. -1.
          6    1    1    2  501    0 -0.20142140089E+03 -0.17375848846E+03 -0.58102131358E+03  0.66202519581E+03  0.17300000000E+03 0.  1.
         -6    1    1    2    0  502  0.20142140089E+03  0.17375848846E+03 -0.91596081281E+01  0.31745155767E+03  0.17300000000E+03 0. -1.
<mgrwt>
<rscale>  2 0.31731939E+03</rscale>
<asrwt>0</asrwt>
<pdfrwt beam="1">  1       21 0.29945833E-01 0.31731939E+03</pdfrwt>
<pdfrwt beam="2">  1       21 0.12074290E+00 0.31731939E+03</pdfrwt>
<totfact> 0.51398089E+03</totfact>
</mgrwt>
</event>
<event>
 4    1  0.3935877E+000  0.1762686E+03  0.7546771E-02  0.1171464E+00
         21   -1    0    0  503  502  0.00000000000E+00  0.00000000000E+00  0.20164775954E+03  0.20164775954E+03  0.00000000000E+00 0. -1.
         21   -1    0    0  501  503 -0.00000000000E+00 -0.00000000000E+00 -0.28262684242E+03  0.28262684242E+03  0.00000000000E+00 0. -1.
          6    1    1    2  501    0 -0.10673637801E+02 -0.32057650469E+02 -0.20378705138E+03  0.26944346681E+03  0.17300000000E+03 0. -1.
         -6    1    1    2    0  502  0.10673637801E+02  0.32057650469E+02  0.12280796850E+03  0.21483113514E+03  0.17300000000E+03 0. -1.
<mgrwt>
<rscale>  2 0.17626860E+03</rscale>
<asrwt>0</asrwt>
<pdfrwt beam="1">  1       21 0.31022732E-01 0.17626860E+03</pdfrwt>
<pdfrwt beam="2">  1       21 0.43481053E-01 0.17626860E+03</pdfrwt>
<totfact> 0.51136135E+04</totfact>
</mgrwt>
</event>
<event>
 4    1  0.3935877E+000  0.2887704E+03  0.7546771E-02  0.1090993E+00
         21   -1    0    0  501  502  0.00000000000E+00  0.00000000000E+00  0.13701403138E+03  0.13701403138E+03  0.00000000000E+00 0. -1.
         21   -1    0    0  502  503 -0.00000000000E+00 -0.00000000000E+00 -0.13134342329E+04  0.13134342329E+04  0.00000000000E+00 0. -1.
          6    1    1    2  501    0  0.16466769245E+03  0.16230801447E+03 -0.56949051291E+02  0.29433235456E+03  0.17300000000E+03 0. -1.
         -6    1    1    2    0  503 -0.16466769245E+03 -0.16230801447E+03 -0.11194711503E+04  0.11561159098E+04  0.17300000000E+03 0. -1.
<mgrwt>
<rscale>  2 0.28877039E+03</rscale>
<asrwt>0</asrwt>
<pdfrwt beam="1">  1       21 0.21079082E-01 0.28877039E+03</pdfrwt>
<pdfrwt beam="2">  1       21 0.20206680E+00 0.28877039E+03</pdfrwt>
<totfact> 0.25147390E+03</totfact>
</mgrwt>
</event>
<event>
 4    1  0.3935877E+000  0.3088285E+03  0.7546771E-02  0.1080909E+00
         21   -1    0    0  503  502  0.00000000000E+00  0.00000000000E+00  0.64839641649E+02  0.64839641649E+02  0.00000000000E+00 0.  1.
         21   -1    0    0  501  503 -0.00000000000E+00 -0.00000000000E+00 -0.17287528193E+04  0.17287528193E+04  0.00000000000E+00 0. -1.
          6    1    1    2  501    0  0.76233317414E+02 -0.24420179770E+03 -0.11782801121E+04  0.12180800709E+04  0.17300000000E+03 0.  1.
         -6    1    1    2    0  502 -0.76233317414E+02  0.24420179770E+03 -0.48563306556E+03  0.57551239000E+03  0.17300000000E+03 0. -1.
<mgrwt>
<rscale>  2 0.30882849E+03</rscale>
<asrwt>0</asrwt>
<pdfrwt beam="1">  1       21 0.99753292E-02 0.30882849E+03</pdfrwt>
<pdfrwt beam="2">  1       21 0.26596198E+00 0.30882849E+03</pdfrwt>
<totfact> 0.39546021E+03</totfact>
</mgrwt>
</event>
<event>
 4    1  0.3935877E+000  0.1769801E+03  0.7546771E-02  0.1170758E+00
         21   -1    0    0  501  502  0.00000000000E+00  0.00000000000E+00  0.54152980138E+03  0.54152980138E+03  0.00000000000E+00 0. -1.
         21   -1    0    0  502  503 -0.00000000000E+00 -0.00000000000E+00 -0.68449692880E+02  0.68449692880E+02  0.00000000000E+00 0. -1.
          6    1    1    2  501    0 -0.12629215665E+02 -0.35120837807E+02  0.35661576863E+03  0.39811653667E+03  0.17300000000E+03 0. -1.
         -6    1    1    2    0  503  0.12629215665E+02  0.35120837807E+02  0.11646433987E+03  0.21186295759E+03  0.17300000000E+03 0. -1.
<mgrwt>
<rscale>  2 0.17698014E+03</rscale>
<asrwt>0</asrwt>
<pdfrwt beam="1">  1       21 0.83312274E-01 0.17698014E+03</pdfrwt>
<pdfrwt beam="2">  1       21 0.10530722E-01 0.17698014E+03</pdfrwt>
<totfact> 0.93481681E+04</totfact>
</mgrwt>
</event>
<event>
 4    1  0.3935877E+000  0.1810632E+03  0.7546771E-02  0.1166778E+00
         21   -1    0    0  503  502  0.00000000000E+00  0.00000000000E+00  0.11060691962E+04  0.11060691962E+04  0.00000000000E+00 0.  1.
         21   -1    0    0  501  503 -0.00000000000E+00 -0.00000000000E+00 -0.29809372156E+02  0.29809372156E+02  0.00000000000E+00 0.  1.
          6    1    1    2  501    0 -0.11193795430E+02  0.52245235913E+02  0.49531690211E+03  0.52737339642E+03  0.17300000000E+03 0.  1.
         -6    1    1    2    0  502  0.11193795430E+02 -0.52245235913E+02  0.58094292191E+03  0.60850517192E+03  0.17300000000E+03 0.  1.
<mgrwt>
<rscale>  2 0.18106315E+03</rscale>
<asrwt>0</asrwt>
<pdfrwt beam="1">  1       21 0.17016446E+00 0.18106315E+03</pdfrwt>
<pdfrwt beam="2">  1       21 0.45860581E-02 0.18106315E+03</pdfrwt>
<totfact> 0.66688950E+04</totfact>
</mgrwt>
</event>
<event>
 4    1  0.3935877E+000  0.2313408E+03  0.7546771E-02  0.1125700E+00
         21   -1    0    0  503  502  0.00000000000E+00  0.00000000000E+00  0.47392456197E+03  0.47392456197E+03  0.00000000000E+00 0.  1.
         21   -1    0    0  501  503 -0.00000000000E+00 -0.00000000000E+00 -0.11318658348E+03  0.11318658348E+03  0.00000000000E+00 0. -1.
          6    1    1    2  501    0 -0.14099792452E+03 -0.60902684237E+02  0.19444593380E+03  0.30220485244E+03  0.17300000000E+03 0.  1.
         -6    1    1    2    0  502  0.14099792452E+03  0.60902684237E+02  0.16629204469E+03  0.28490629300E+03  0.17300000000E+03 0.  1.
<mgrwt>
<rscale>  2 0.23134077E+03</rscale>
<asrwt>0</asrwt>
<pdfrwt beam="1">  1       21 0.72911470E-01 0.23134077E+03</pdfrwt>
<pdfrwt beam="2">  1       21 0.17413321E-01 0.23134077E+03</pdfrwt>
<totfact> 0.49620932E+04</totfact>
</mgrwt>
</event>
<event>
 4    1  0.3935877E+000  0.3195698E+03  0.7546771E-02  0.1075847E+00
         21   -1    0    0  503  502  0.00000000000E+00  0.00000000000E+00  0.18549773859E+04  0.18549773859E+04  0.00000000000E+00 0. -1.
         21   -1    0    0  501  503 -0.00000000000E+00 -0.00000000000E+00 -0.72167329516E+02  0.72167329516E+02  0.00000000000E+00 0.  1.
          6    1    1    2  501    0 -0.25605441186E+03  0.81437019075E+02  0.42218672478E+03  0.52949644049E+03  0.17300000000E+03 0.  1.
         -6    1    1    2    0  502  0.25605441186E+03 -0.81437019075E+02  0.13606233316E+04  0.13976482749E+04  0.17300000000E+03 0. -1.
<mgrwt>
<rscale>  2 0.31956979E+03</rscale>
<asrwt>0</asrwt>
<pdfrwt beam="1">  1       21 0.28538110E+00 0.31956979E+03</pdfrwt>
<pdfrwt beam="2">  1       21 0.11102667E-01 0.31956979E+03</pdfrwt>
<totfact> 0.24847103E+03</totfact>
</mgrwt>
</event>
<event>
 4    1  0.3935877E+000  0.1795032E+03  0.7546771E-02  0.1168285E+00
         21   -1    0    0  503  502  0.00000000000E+00  0.00000000000E+00  0.14635206846E+03  0.14635206846E+03  0.00000000000E+00 0. -1.
         21   -1    0    0  501  503 -0.00000000000E+00 -0.00000000000E+00 -0.22722819152E+03  0.22722819152E+03  0.00000000000E+00 0. -1.
          6    1    1    2  501    0 -0.33696028252E+02  0.34014268757E+02 -0.73373806656E+02  0.19392036588E+03  0.17300000000E+03 0. -1.
         -6    1    1    2    0  502  0.33696028252E+02 -0.34014268757E+02 -0.75023163985E+01  0.17965989411E+03  0.17300000000E+03 0. -1.
<mgrwt>
<rscale>  2 0.17950318E+03</rscale>
<asrwt>0</asrwt>
<pdfrwt beam="1">  1       21 0.22515703E-01 0.17950318E+03</pdfrwt>
<pdfrwt beam="2">  1       21 0.34958183E-01 0.17950318E+03</pdfrwt>
<totfact> 0.14637422E+05</totfact>
</mgrwt>
</event>
<event>
 4    1  0.3935877E+000  0.1819091E+03  0.7546771E-02  0.1165968E+00
         21   -1    0    0  503  502  0.00000000000E+00  0.00000000000E+00  0.36887184197E+02  0.36887184197E+02  0.00000000000E+00 0. -1.
         21   -1    0    0  501  503 -0.00000000000E+00 -0.00000000000E+00 -0.98423670830E+03  0.98423670830E+03  0.00000000000E+00 0. -1.
          6    1    1    2  501    0  0.34680919772E+02  0.44262304740E+02 -0.62560285588E+03  0.65151350800E+03  0.17300000000E+03 0. -1.
         -6    1    1    2    0  502 -0.34680919772E+02 -0.44262304740E+02 -0.32174666822E+03  0.36961038449E+03  0.17300000000E+03 0. -1.
<mgrwt>
<rscale>  2 0.18190909E+03</rscale>
<asrwt>0</asrwt>
<pdfrwt beam="1">  1       21 0.56749508E-02 0.18190909E+03</pdfrwt>
<pdfrwt beam="2">  1       21 0.15142105E+00 0.18190909E+03</pdfrwt>
<totfact> 0.63594952E+04</totfact>
</mgrwt>
</event>
<event>
 4    1  0.3935877E+000  0.2166992E+03  0.7546771E-02  0.1136368E+00
         21   -1    0    0  501  502  0.00000000000E+00  0.00000000000E+00  0.25519080551E+03  0.25519080551E+03  0.00000000000E+00 0. -1.
         21   -1    0    0  502  503 -0.00000000000E+00 -0.00000000000E+00 -0.18607343690E+03  0.18607343690E+03  0.00000000000E+00 0. -1.
          6    1    1    2  501    0 -0.49570855762E+02 -0.12071566051E+03  0.57773156840E+02  0.22426831716E+03  0.17300000000E+03 0. -1.
         -6    1    1    2    0  503  0.49570855762E+02  0.12071566051E+03  0.11344211772E+02  0.21699592525E+03  0.17300000000E+03 0. -1.
<mgrwt>
<rscale>  2 0.21669919E+03</rscale>
<asrwt>0</asrwt>
<pdfrwt beam="1">  1       21 0.39260124E-01 0.21669919E+03</pdfrwt>
<pdfrwt beam="2">  1       21 0.28626682E-01 0.21669919E+03</pdfrwt>
<totfact> 0.72252314E+04</totfact>
</mgrwt>
</event>
<event>
 4    1  0.3935877E+000  0.1873876E+03  0.7546771E-02  0.1160839E+00
         21   -1    0    0  503  502  0.00000000000E+00  0.00000000000E+00  0.92700504149E+02  0.92700504149E+02  0.00000000000E+00 0. -1.
         21   -1    0    0  501  503 -0.00000000000E+00 -0.00000000000E+00 -0.42360412241E+03  0.42360412241E+03  0.00000000000E+00 0.  1.
          6    1    1    2  501    0 -0.20283032327E+02 -0.69092085484E+02 -0.24941684576E+03  0.31196615302E+03  0.17300000000E+03 0.  1.
         -6    1    1    2    0  502  0.20283032327E+02  0.69092085484E+02 -0.81486772495E+02  0.20433847354E+03  0.17300000000E+03 0. -1.
<mgrwt>
<rscale>  2 0.18738761E+03</rscale>
<asrwt>0</asrwt>
<pdfrwt beam="1">  1       21 0.14261616E-01 0.18738761E+03</pdfrwt>
<pdfrwt beam="2">  1       21 0.65169866E-01 0.18738761E+03</pdfrwt>
<totfact> 0.93373941E+04</totfact>
</mgrwt>
</event>
<event>
 4    1  0.3935877E+000  0.1842246E+03  0.7546771E-02  0.1163776E+00
         21   -1    0    0  503  502  0.00000000000E+00  0.00000000000E+00  0.20156829890E+03  0.20156829890E+03  0.00000000000E+00 0.  1.
         21   -1    0    0  501  503 -0.00000000000E+00 -0.00000000000E+00 -0.17318456735E+03  0.17318456735E+03  0.00000000000E+00 0.  1.
          6    1    1    2  501    0 -0.53683609404E+02  0.33582562033E+02 -0.17039458719E+02  0.18501097682E+03  0.17300000000E+03 0.  1.
         -6    1    1    2    0  502  0.53683609404E+02 -0.33582562033E+02  0.45423190265E+02  0.18974188943E+03  0.17300000000E+03 0.  1.
<mgrwt>
<rscale>  2 0.18422464E+03</rscale>
<asrwt>0</asrwt>
<pdfrwt beam="1">  1       21 0.31010507E-01 0.18422464E+03</pdfrwt>
<pdfrwt beam="2">  1       21 0.26643780E-01 0.18422464E+03</pdfrwt>
<totfact> 0.13429992E+05</totfact>
</mgrwt>
</event>
<event>
 4    1  0.3935877E+000  0.2374490E+03  0.7546771E-02  0.1121504E+00
         21   -1    0    0  501  502  0.00000000000E+00  0.00000000000E+00  0.30351042119E+03  0.30351042119E+03  0.00000000000E+00 0.  1.
         21   -1    0    0  502  503 -0.00000000000E+00 -0.00000000000E+00 -0.21402426976E+03  0.21402426976E+03  0.00000000000E+00 0. -1.
          6    1    1    2  501    0 -0.10036855773E+03  0.12798111856E+03  0.13876914510E+03  0.27502525288E+03  0.17300000000E+03 0.  1.
         -6    1    1    2    0  503  0.10036855773E+03 -0.12798111856E+03 -0.49282993671E+02  0.24250943807E+03  0.17300000000E+03 0.  1.
<mgrwt>
<rscale>  2 0.23744897E+03</rscale>
<asrwt>0</asrwt>
<pdfrwt beam="1">  1       21 0.46693911E-01 0.23744897E+03</pdfrwt>
<pdfrwt beam="2">  1       21 0.32926811E-01 0.23744897E+03</pdfrwt>
<totfact> 0.38152254E+04</totfact>
</mgrwt>
</event>
<event>
 4    1  0.3935877E+000  0.3235770E+03  0.7546771E-02  0.1074015E+00
         21   -1    0    0  503  502  0.00000000000E+00  0.00000000000E+00  0.64322686792E+03  0.64322686792E+03  0.00000000000E+00 0.  1.
         21   -1    0    0  501  503 -0.00000000000E+00 -0.00000000000E+00 -0.16438227816E+03  0.16438227816E+03  0.00000000000E+00 0. -1.
          6    1    1    2  501    0  0.10039222936E+03 -0.25435110455E+03  0.19950926349E+03  0.38013948798E+03  0.17300000000E+03 0.  1.
         -6    1    1    2    0  502 -0.10039222936E+03  0.25435110455E+03  0.27933532626E+03  0.42746965810E+03  0.17300000000E+03 0. -1.
<mgrwt>
<rscale>  2 0.32357701E+03</rscale>
<asrwt>0</asrwt>
<pdfrwt beam="1">  1       21 0.98957979E-01 0.32357701E+03</pdfrwt>
<pdfrwt beam="2">  1       21 0.25289582E-01 0.32357701E+03</pdfrwt>
<totfact> 0.11622672E+04</totfact>
</mgrwt>
</event>
<event>
 4    1  0.3935877E+000  0.1833553E+03  0.7546771E-02  0.1164595E+00
         21   -1    0    0  501  502  0.00000000000E+00  0.00000000000E+00  0.28861908973E+02  0.28861908973E+02  0.00000000000E+00 0. -1.
         21   -1    0    0  502  503 -0.00000000000E+00 -0.00000000000E+00 -0.15719432731E+04  0.15719432731E+04  0.00000000000E+00 0. -1.
          6    1    1    2  501    0 -0.22450841280E+02 -0.56445913903E+02 -0.36420885374E+03  0.40775883879E+03  0.17300000000E+03 0. -1.
         -6    1    1    2    0  503  0.22450841280E+02  0.56445913903E+02 -0.11788725104E+04  0.11930463433E+04  0.17300000000E+03 0. -1.
<mgrwt>
<rscale>  2 0.18335534E+03</rscale>
<asrwt>0</asrwt>
<pdfrwt beam="1">  1       21 0.44402908E-02 0.18335534E+03</pdfrwt>
<pdfrwt beam="2">  1       21 0.24183758E+00 0.18335534E+03</pdfrwt>
<totfact> 0.24618853E+04</totfact>
</mgrwt>
</event>
<event>
 4    1  0.3935877E+000  0.1735933E+03  0.7546771E-02  0.1174152E+00
         21   -1    0    0  503  502  0.00000000000E+00  0.00000000000E+00  0.14211023922E+03  0.14211023922E+03  0.00000000000E+00 0.  1.
         21   -1    0    0  501  503 -0.00000000000E+00 -0.00000000000E+00 -0.33271680529E+03  0.33271680529E+03  0.00000000000E+00 0.  1.
          6    1    1    2  501    0 -0.14324661229E+02  0.66596040293E+00 -0.23827822316E+03  0.29480697254E+03  0.17300000000E+03 0.  1.
         -6    1    1    2    0  502  0.14324661229E+02 -0.66596040293E+00  0.47671657094E+02  0.18002007197E+03  0.17300000000E+03 0.  1.
<mgrwt>
<rscale>  2 0.17359332E+03</rscale>
<asrwt>0</asrwt>
<pdfrwt beam="1">  1       21 0.21863114E-01 0.17359332E+03</pdfrwt>
<pdfrwt beam="2">  1       21 0.51187200E-01 0.17359332E+03</pdfrwt>
<totfact> 0.71446046E+04</totfact>
</mgrwt>
</event>
<event>
 4    1  0.3935877E+000  0.2126914E+03  0.7546771E-02  0.1139452E+00
         21   -1    0    0  503  502  0.00000000000E+00  0.00000000000E+00  0.16745652103E+03  0.16745652103E+03  0.00000000000E+00 0.  1.
         21   -1    0    0  501  503 -0.00000000000E+00 -0.00000000000E+00 -0.34249247733E+03  0.34249247733E+03  0.00000000000E+00 0. -1.
          6    1    1    2  501    0  0.11908934305E+03 -0.33560980961E+02 -0.20470558486E+03  0.29519821738E+03  0.17300000000E+03 0. -1.
         -6    1    1    2    0  502 -0.11908934305E+03  0.33560980961E+02  0.29669628559E+02  0.21475078098E+03  0.17300000000E+03 0.  1.
<mgrwt>
<rscale>  2 0.21269135E+03</rscale>
<asrwt>0</asrwt>
<pdfrwt beam="1">  1       21 0.25762542E-01 0.21269135E+03</pdfrwt>
<pdfrwt beam="2">  1       21 0.52691150E-01 0.21269135E+03</pdfrwt>
<totfact> 0.48356224E+04</totfact>
</mgrwt>
</event>
<event>
 4    1  0.3935877E+000  0.2566290E+03  0.7546771E-02  0.1109186E+00
         21   -1    0    0  501  502  0.00000000000E+00  0.00000000000E+00  0.47024141655E+03  0.47024141655E+03  0.00000000000E+00 0. -1.
         21   -1    0    0  502  503 -0.00000000000E+00 -0.00000000000E+00 -0.14058447404E+03  0.14058447404E+03  0.00000000000E+00 0. -1.
          6    1    1    2  501    0  0.18593177532E+03 -0.36862271294E+02  0.14603991619E+03  0.29527294024E+03  0.17300000000E+03 0. -1.
         -6    1    1    2    0  503 -0.18593177532E+03  0.36862271294E+02  0.18361702633E+03  0.31555295035E+03  0.17300000000E+03 0. -1.
<mgrwt>
<rscale>  2 0.25662902E+03</rscale>
<asrwt>0</asrwt>
<pdfrwt beam="1">  1       21 0.72344833E-01 0.25662902E+03</pdfrwt>
<pdfrwt beam="2">  1       21 0.21628381E-01 0.25662902E+03</pdfrwt>
<totfact> 0.33282007E+04</totfact>
</mgrwt>
</event>
<event>
 4    1  0.3935877E+000  0.3270539E+03  0.7546771E-02  0.1072448E+00
         21   -1    0    0  501  502  0.00000000000E+00  0.00000000000E+00  0.83133211114E+03  0.83133211114E+03  0.00000000000E+00 0. -1.
         21   -1    0    0  502  503 -0.00000000000E+00 -0.00000000000E+00 -0.13212532127E+03  0.13212532127E+03  0.00000000000E+00 0.  1.
          6    1    1    2  501    0  0.14860822265E+03  0.23441598686E+03  0.42755028913E+03  0.53829685905E+03  0.17300000000E+03 0. -1.
         -6    1    1    2    0  503 -0.14860822265E+03 -0.23441598686E+03  0.27165650075E+03  0.42516057335E+03  0.17300000000E+03 0. -1.
<mgrwt>
<rscale>  2 0.32705391E+03</rscale>
<asrwt>0</asrwt>
<pdfrwt beam="1">  1       21 0.12789725E+00 0.32705391E+03</pdfrwt>
<pdfrwt beam="2">  1       21 0.20326973E-01 0.32705391E+03</pdfrwt>
<totfact> 0.93379982E+03</totfact>
</mgrwt>
</event>
<event>
 4    1  0.3935877E+000  0.1771756E+03  0.7546771E-02  0.1170565E+00
         21   -1    0    0  501  502  0.00000000000E+00  0.00000000000E+00  0.13410089996E+04  0.13410089996E+04  0.00000000000E+00 0.  1.
         21   -1    0    0  502  503 -0.00000000000E+00 -0.00000000000E+00 -0.23413547883E+02  0.23413547883E+02  0.00000000000E+00 0.  1.
          6    1    1    2  501    0 -0.36140073742E+02 -0.12492913270E+02  0.66868921194E+03  0.69176328319E+03  0.17300000000E+03 0.  1.
         -6    1    1    2    0  503  0.36140073742E+02  0.12492913270E+02  0.64890623978E+03  0.67265926429E+03  0.17300000000E+03 0.  1.
<mgrwt>
<rscale>  2 0.17717556E+03</rscale>
<asrwt>0</asrwt>
<pdfrwt beam="1">  1       21 0.20630902E+00 0.17717556E+03</pdfrwt>
<pdfrwt beam="2">  1       21 0.36020853E-02 0.17717556E+03</pdfrwt>
<totfact> 0.57740688E+04</totfact>
</mgrwt>
</event>
<event>
 4    1  0.3935877E+000  0.1930322E+03  0.7546771E-02  0.1155755E+00
         21   -1    0    0  501  502  0.00000000000E+00  0.00000000000E+00  0.17852280028E+03  0.17852280028E+03  0.00000000000E+00 0.  1.
         21   -1    0    0  502  503 -0.00000000000E+00 -0.00000000000E+00 -0.27351794290E+03  0.27351794290E+03  0.00000000000E+00 0.  1.
          6    1    1    2  501    0 -0.16296938774E+02  0.84064450888E+02  0.62512537534E+02  0.20290204401E+03  0.17300000000E+03 0.  1.
         -6    1    1    2    0  503  0.16296938774E+02 -0.84064450888E+02 -0.15750768015E+03  0.24913869917E+03  0.17300000000E+03 0.  1.
<mgrwt>
<rscale>  2 0.19303218E+03</rscale>
<asrwt>0</asrwt>
<pdfrwt beam="1">  1       21 0.27465046E-01 0.19303218E+03</pdfrwt>
<pdfrwt beam="2">  1       21 0.42079683E-01 0.19303218E+03</pdfrwt>
<totfact> 0.68728426E+04</totfact>
</mgrwt>
</event>
<event>
 4    1  0.3935877E+000  0.2455155E+03  0.7546771E-02  0.1116172E+00
         21   -1    0    0  503  502  0.00000000000E+00  0.00000000000E+00  0.57813403717E+03  0.57813403717E+03  0.00000000000E+00 0. -1.
         21   -1    0    0  501  503 -0.00000000000E+00 -0.00000000000E+00 -0.23809572579E+03  0.23809572579E+03  0.00000000000E+00 0.  1.
          6    1    1    2  501    0  0.15347241540E+03 -0.82432212973E+02 -0.13595741864E+03  0.28064616817E+03  0.17300000000E+03 0.  1.
         -6    1    1    2    0  502 -0.15347241540E+03  0.82432212973E+02  0.47599573001E+03  0.53558359480E+03  0.17300000000E+03 0. -1.
<mgrwt>
<rscale>  2 0.24551548E+03</rscale>
<asrwt>0</asrwt>
<pdfrwt beam="1">  1       21 0.88943697E-01 0.24551548E+03</pdfrwt>
<pdfrwt beam="2">  1       21 0.36630112E-01 0.24551548E+03</pdfrwt>
<totfact> 0.74901692E+03</totfact>
</mgrwt>
</event>
<event>
 4    1  0.3935877E+000  0.1782957E+03  0.7546771E-02  0.1169463E+00
         21   -1    0    0  503  502  0.00000000000E+00  0.00000000000E+00  0.33232290159E+03  0.33232290159E+03  0.00000000000E+00 0.  1.
         21   -1    0    0  501  503 -0.00000000000E+00 -0.00000000000E+00 -0.13962911926E+03  0.13962911926E+03  0.00000000000E+00 0.  1.
          6    1    1    2  501    0 -0.41095510661E+02  0.13096726583E+02 -0.36076071922E+02  0.18190890085E+03  0.17300000000E+03 0.  1.
         -6    1    1    2    0  502  0.41095510661E+02 -0.13096726583E+02  0.22876985426E+03  0.29004312000E+03  0.17300000000E+03 0.  1.
<mgrwt>
<rscale>  2 0.17829572E+03</rscale>
<asrwt>0</asrwt>
<pdfrwt beam="1">  1       21 0.51126600E-01 0.17829572E+03</pdfrwt>
<pdfrwt beam="2">  1       21 0.21481403E-01 0.17829572E+03</pdfrwt>
<totfact> 0.73878543E+04</totfact>
</mgrwt>
</event>
<event>
 4    1  0.3935877E+000  0.2080028E+03  0.7546771E-02  0.1143157E+00
         21   -1    0    0  501  502  0.00000000000E+00  0.00000000000E+00  0.47119277333E+03  0.47119277333E+03  0.00000000000E+00 0.  1.
         21   -1    0    0  502  503 -0.00000000000E+00 -0.00000000000E+00 -0.29778052729E+03  0.29778052729E+03  0.00000000000E+00 0.  1.
          6    1    1    2  501    0 -0.40490508346E+02  0.10815117364E+03  0.40646645405E+03  0.45659625042E+03  0.17300000000E+03 0.  1.
         -6    1    1    2    0  503  0.40490508346E+02 -0.10815117364E+03 -0.23305420800E+03  0.31237705020E+03  0.17300000000E+03 0.  1.
<mgrwt>
<rscale>  2 0.20800278E+03</rscale>
<asrwt>0</asrwt>
<pdfrwt beam="1">  1       21 0.72491196E-01 0.20800278E+03</pdfrwt>
<pdfrwt beam="2">  1       21 0.45812388E-01 0.20800278E+03</pdfrwt>
<totfact> 0.77474879E+03</totfact>
</mgrwt>
</event>
<event>
 4    1  0.3935877E+000  0.2438947E+03  0.7546771E-02  0.1117225E+00
         21   -1    0    0  503  502  0.00000000000E+00  0.00000000000E+00  0.53593793126E+03  0.53593793126E+03  0.00000000000E+00 0.  1.
         21   -1    0    0  501  503 -0.00000000000E+00 -0.00000000000E+00 -0.12419529326E+03  0.12419529326E+03  0.00000000000E+00 0. -1.
          6    1    1    2  501    0 -0.11839610358E+03  0.12465155951E+03  0.98250694333E+02  0.26294076817E+03  0.17300000000E+03 0. -1.
         -6    1    1    2    0  502  0.11839610358E+03 -0.12465155951E+03  0.31349194367E+03  0.39719245634E+03  0.17300000000E+03 0.  1.
<mgrwt>
<rscale>  2 0.24389475E+03</rscale>
<asrwt>0</asrwt>
<pdfrwt beam="1">  1       21 0.82451988E-01 0.24389475E+03</pdfrwt>
<pdfrwt beam="2">  1       21 0.19106968E-01 0.24389475E+03</pdfrwt>
<totfact> 0.31446230E+04</totfact>
</mgrwt>
</event>
<event>
 4    1  0.3935877E+000  0.1802383E+03  0.7546771E-02  0.1167573E+00
         21   -1    0    0  501  502  0.00000000000E+00  0.00000000000E+00  0.44126529487E+03  0.44126529487E+03  0.00000000000E+00 0.  1.
         21   -1    0    0  502  503 -0.00000000000E+00 -0.00000000000E+00 -0.23544350284E+03  0.23544350284E+03  0.00000000000E+00 0. -1.
          6    1    1    2  501    0 -0.53376422284E+01 -0.50282920393E+02  0.38342166567E+03  0.42367208571E+03  0.17300000000E+03 0.  1.
         -6    1    1    2    0  503  0.53376422284E+01  0.50282920393E+02 -0.17759987363E+03  0.25303671201E+03  0.17300000000E+03 0. -1.
<mgrwt>
<rscale>  2 0.18023835E+03</rscale>
<asrwt>0</asrwt>
<pdfrwt beam="1">  1       21 0.67886968E-01 0.18023835E+03</pdfrwt>
<pdfrwt beam="2">  1       21 0.36222077E-01 0.18023835E+03</pdfrwt>
<totfact> 0.14685173E+04</totfact>
</mgrwt>
</event>
<event>
 4    1  0.3935877E+000  0.1767967E+03  0.7546771E-02  0.1170940E+00
         21   -1    0    0  501  502  0.00000000000E+00  0.00000000000E+00  0.23093241656E+03  0.23093241656E+03  0.00000000000E+00 0.  1.
         21   -1    0    0  502  503 -0.00000000000E+00 -0.00000000000E+00 -0.17547973328E+03  0.17547973328E+03  0.00000000000E+00 0.  1.
          6    1    1    2  501    0 -0.32901913481E+02  0.15669167218E+02  0.12489987534E+03  0.21646486452E+03  0.17300000000E+03 0.  1.
         -6    1    1    2    0  503  0.32901913481E+02 -0.15669167218E+02 -0.69447192074E+02  0.18994728532E+03  0.17300000000E+03 0.  1.
<mgrwt>
<rscale>  2 0.17679666E+03</rscale>
<asrwt>0</asrwt>
<pdfrwt beam="1">  1       21 0.35528064E-01 0.17679666E+03</pdfrwt>
<pdfrwt beam="2">  1       21 0.26996882E-01 0.17679666E+03</pdfrwt>
<totfact> 0.10045360E+05</totfact>
</mgrwt>
</event>
<event>
 4    1  0.3935877E+000  0.1735832E+03  0.7546771E-02  0.1174162E+00
         21   -1    0    0  501  502  0.00000000000E+00  0.00000000000E+00  0.85423056614E+02  0.85423056614E+02  0.00000000000E+00 0. -1.
         21   -1    0    0  502  503 -0.00000000000E+00 -0.00000000000E+00 -0.39395502410E+03  0.39395502410E+03  0.00000000000E+00 0. -1.
          6    1    1    2  501    0  0.72784552727E+01 -0.12212362776E+02 -0.76727911841E+02  0.18978485232E+03  0.17300000000E+03 0.  1.
         -6    1    1    2    0  503 -0.72784552727E+01  0.12212362776E+02 -0.23180405564E+03  0.28959322839E+03  0.17300000000E+03 0.  1.
<mgrwt>
<rscale>  2 0.17358317E+03</rscale>
<asrwt>0</asrwt>
<pdfrwt beam="1">  1       21 0.13142009E-01 0.17358317E+03</pdfrwt>
<pdfrwt beam="2">  1       21 0.60608466E-01 0.17358317E+03</pdfrwt>
<totfact> 0.12725122E+05</totfact>
</mgrwt>
</event>
<event>
 4    1  0.3935877E+000  0.1899792E+03  0.7546771E-02  0.1158480E+00
         21   -1    0    0  501  502  0.00000000000E+00  0.00000000000E+00  0.44103785264E+03  0.44103785264E+03  0.00000000000E+00 0. -1.
         21   -1    0    0  502  503 -0.00000000000E+00 -0.00000000000E+00 -0.13601288114E+03  0.13601288114E+03  0.00000000000E+00 0. -1.
          6    1    1    2  501    0  0.43349980965E+02  0.65451306647E+02  0.33461131568E+03  0.38478153148E+03  0.17300000000E+03 0. -1.
         -6    1    1    2    0  503 -0.43349980965E+02 -0.65451306647E+02 -0.29586344177E+02  0.19226920230E+03  0.17300000000E+03 0. -1.
<mgrwt>
<rscale>  2 0.18997919E+03</rscale>
<asrwt>0</asrwt>
<pdfrwt beam="1">  1       21 0.67851977E-01 0.18997919E+03</pdfrwt>
<pdfrwt beam="2">  1       21 0.20925059E-01 0.18997919E+03</pdfrwt>
<totfact> 0.42144401E+04</totfact>
</mgrwt>
</event>
<event>
 4    1  0.3935877E+000  0.1872265E+03  0.7546771E-02  0.1160987E+00
         21   -1    0    0  501  502  0.00000000000E+00  0.00000000000E+00  0.53389360181E+02  0.53389360181E+02  0.00000000000E+00 0. -1.
         21   -1    0    0  502  503 -0.00000000000E+00 -0.00000000000E+00 -0.67871124317E+03  0.67871124317E+03  0.00000000000E+00 0.  1.
          6    1    1    2  501    0 -0.45877360276E+02  0.54954870372E+02 -0.24654375621E+03  0.30957647471E+03  0.17300000000E+03 0. -1.
         -6    1    1    2    0  503  0.45877360276E+02 -0.54954870372E+02 -0.37877812678E+03  0.42252412865E+03  0.17300000000E+03 0.  1.
<mgrwt>
<rscale>  2 0.18722652E+03</rscale>
<asrwt>0</asrwt>
<pdfrwt beam="1">  1       21 0.82137477E-02 0.18722652E+03</pdfrwt>
<pdfrwt beam="2">  1       21 0.10441711E+00 0.18722652E+03</pdfrwt>
<totfact> 0.85065067E+04</totfact>
</mgrwt>
</event>
<event>
 4    1  0.3935877E+000  0.1756784E+03  0.7546771E-02  0.1172052E+00
         21   -1    0    0  503  502  0.00000000000E+00  0.00000000000E+00  0.50498231386E+03  0.50498231386E+03  0.00000000000E+00 0.  1.
         21   -1    0    0  501  503 -0.00000000000E+00 -0.00000000000E+00 -0.11279439673E+03  0.11279439673E+03  0.00000000000E+00 0.  1.
          6    1    1    2  501    0  0.36465290750E+01  0.30341240106E+02 -0.12984386055E+02  0.17615754967E+03  0.17300000000E+03 0.  1.
         -6    1    1    2    0  502 -0.36465290750E+01 -0.30341240106E+02  0.40517230318E+03  0.44161916092E+03  0.17300000000E+03 0.  1.
<mgrwt>
<rscale>  2 0.17567837E+03</rscale>
<asrwt>0</asrwt>
<pdfrwt beam="1">  1       21 0.77689585E-01 0.17567837E+03</pdfrwt>
<pdfrwt beam="2">  1       21 0.17352984E-01 0.17567837E+03</pdfrwt>
<totfact> 0.44512447E+04</totfact>
</mgrwt>
</event>
<event>
 4    1  0.3935877E+000  0.2078496E+03  0.7546771E-02  0.1143280E+00
         21   -1    0    0  501  502  0.00000000000E+00  0.00000000000E+00  0.10358046021E+03  0.10358046021E+03  0.00000000000E+00 0. -1.
         21   -1    0    0  502  503 -0.00000000000E+00 -0.00000000000E+00 -0.63239652350E+03  0.63239652350E+03  0.00000000000E+00 0. -1.
          6    1    1    2  501    0  0.19930827576E+02 -0.11346902848E+03 -0.49685800230E+02  0.21370572537E+03  0.17300000000E+03 0. -1.
         -6    1    1    2    0  503 -0.19930827576E+02  0.11346902848E+03 -0.47913026305E+03  0.52227125834E+03  0.17300000000E+03 0. -1.
<mgrwt>
<rscale>  2 0.20784961E+03</rscale>
<asrwt>0</asrwt>
<pdfrwt beam="1">  1       21 0.15935455E-01 0.20784961E+03</pdfrwt>
<pdfrwt beam="2">  1       21 0.97291774E-01 0.20784961E+03</pdfrwt>
<totfact> 0.30505957E+04</totfact>
</mgrwt>
</event>
<event>
 4    1  0.3935877E+000  0.1970588E+03  0.7546771E-02  0.1152244E+00
         21   -1    0    0  503  502  0.00000000000E+00  0.00000000000E+00  0.13087121211E+03  0.13087121211E+03  0.00000000000E+00 0.  1.
         21   -1    0    0  501  503 -0.00000000000E+00 -0.00000000000E+00 -0.36150317837E+03  0.36150317837E+03  0.00000000000E+00 0.  1.
          6    1    1    2  501    0 -0.28177709030E+02 -0.90051036431E+02 -0.21953304514E+03  0.29500327177E+03  0.17300000000E+03 0.  1.
         -6    1    1    2    0  502  0.28177709030E+02  0.90051036431E+02 -0.11098921122E+02  0.19737111870E+03  0.17300000000E+03 0.  1.
<mgrwt>
<rscale>  2 0.19705880E+03</rscale>
<asrwt>0</asrwt>
<pdfrwt beam="1">  1       21 0.20134033E-01 0.19705880E+03</pdfrwt>
<pdfrwt beam="2">  1       21 0.55615873E-01 0.19705880E+03</pdfrwt>
<totfact> 0.69313889E+04</totfact>
</mgrwt>
</event>
<event>
 4    1  0.3935877E+000  0.2498871E+03  0.7546771E-02  0.1113376E+00
         21   -1    0    0  501  502  0.00000000000E+00  0.00000000000E+00  0.58810822841E+03  0.58810822841E+03  0.00000000000E+00 0. -1.
         21   -1    0    0  502  503 -0.00000000000E+00 -0.00000000000E+00 -0.11430153744E+03  0.11430153744E+03  0.00000000000E+00 0. -1.
          6    1    1    2  501    0 -0.17305421822E+03  0.50663720404E+02  0.33053732561E+03  0.41436517545E+03  0.17300000000E+03 0. -1.
         -6    1    1    2    0  503  0.17305421822E+03 -0.50663720404E+02  0.14326936537E+03  0.28804459040E+03  0.17300000000E+03 0. -1.
<mgrwt>
<rscale>  2 0.24988712E+03</rscale>
<asrwt>0</asrwt>
<pdfrwt beam="1">  1       21 0.90478188E-01 0.24988712E+03</pdfrwt>
<pdfrwt beam="2">  1       21 0.17584852E-01 0.24988712E+03</pdfrwt>
<totfact> 0.29532989E+04</totfact>
</mgrwt>
</event>
<event>
 4    1  0.3935877E+000  0.1774723E+03  0.7546771E-02  0.1170272E+00
         21   -1    0    0  503  502  0.00000000000E+00  0.00000000000E+00  0.15564259363E+03  0.15564259363E+03  0.00000000000E+00 0. -1.
         21   -1    0    0  501  503 -0.00000000000E+00 -0.00000000000E+00 -0.21513597652E+03  0.21513597652E+03  0.00000000000E+00 0. -1.
          6    1    1    2  501    0  0.20125477231E+02 -0.34093923780E+02 -0.74917737847E+02  0.19263721841E+03  0.17300000000E+03 0. -1.
         -6    1    1    2    0  502 -0.20125477231E+02  0.34093923780E+02  0.15424354961E+02  0.17814135174E+03  0.17300000000E+03 0. -1.
<mgrwt>
<rscale>  2 0.17747234E+03</rscale>
<asrwt>0</asrwt>
<pdfrwt beam="1">  1       21 0.23945015E-01 0.17747234E+03</pdfrwt>
<pdfrwt beam="2">  1       21 0.33097842E-01 0.17747234E+03</pdfrwt>
<totfact> 0.14524106E+05</totfact>
</mgrwt>
</event>
<event>
 4    1  0.3935877E+000  0.1851667E+03  0.7546771E-02  0.1162894E+00
         21   -1    0    0  503  502  0.00000000000E+00  0.00000000000E+00  0.22054445221E+03  0.22054445221E+03  0.00000000000E+00 0. -1.
         21   -1    0    0  501  503 -0.00000000000E+00 -0.00000000000E+00 -0.15830012123E+03  0.15830012123E+03  0.00000000000E+00 0. -1.
          6    1    1    2  501    0 -0.16834299711E+01  0.65991533657E+02  0.56476663871E+02  0.19358804202E+03  0.17300000000E+03 0. -1.
         -6    1    1    2    0  502  0.16834299711E+01 -0.65991533657E+02  0.57676671009E+01  0.18525653142E+03  0.17300000000E+03 0. -1.
<mgrwt>
<rscale>  2 0.18516673E+03</rscale>
<asrwt>0</asrwt>
<pdfrwt beam="1">  1       21 0.33929916E-01 0.18516673E+03</pdfrwt>
<pdfrwt beam="2">  1       21 0.24353865E-01 0.18516673E+03</pdfrwt>
<totfact> 0.13358207E+05</totfact>
</mgrwt>
</event>
<event>
 4    1  0.3935877E+000  0.1734669E+03  0.7546771E-02  0.1174280E+00
         21   -1    0    0  501  502  0.00000000000E+00  0.00000000000E+00  0.22246439927E+04  0.22246439927E+04  0.00000000000E+00 0.  1.
         21   -1    0    0  502  503 -0.00000000000E+00 -0.00000000000E+00 -0.29555139651E+02  0.29555139651E+02  0.00000000000E+00 0.  1.
          6    1    1    2  501    0  0.66248078528E+01 -0.10857121264E+02  0.19275852973E+04  0.19353748586E+04  0.17300000000E+03 0.  1.
         -6    1    1    2    0  503 -0.66248078528E+01  0.10857121264E+02  0.26750355579E+03  0.31882427374E+03  0.17300000000E+03 0.  1.
<mgrwt>
<rscale>  2 0.17346690E+03</rscale>
<asrwt>0</asrwt>
<pdfrwt beam="1">  1       21 0.34225279E+00 0.17346690E+03</pdfrwt>
<pdfrwt beam="2">  1       21 0.45469463E-02 0.17346690E+03</pdfrwt>
<totfact> 0.62890710E+03</totfact>
</mgrwt>
</event>
<event>
 4    1  0.3935877E+000  0.3265665E+03  0.7546771E-02  0.1072666E+00
         21   -1    0    0  503  502  0.00000000000E+00  0.00000000000E+00  0.47479151238E+03  0.47479151238E+03  0.00000000000E+00 0. -1.
         21   -1    0    0  501  503 -0.00000000000E+00 -0.00000000000E+00 -0.26482047666E+03  0.26482047666E+03  0.00000000000E+00 0. -1.
          6    1    1    2  501    0 -0.25999885603E+03 -0.95484274223E+02 -0.39105437503E+02  0.32889950898E+03  0.17300000000E+03 0. -1.
         -6    1    1    2    0  502  0.25999885603E+03  0.95484274223E+02  0.24907647323E+03  0.41071248006E+03  0.17300000000E+03 0. -1.
<mgrwt>
<rscale>  2 0.32656646E+03</rscale>
<asrwt>0</asrwt>
<pdfrwt beam="1">  1       21 0.73044848E-01 0.32656646E+03</pdfrwt>
<pdfrwt beam="2">  1       21 0.40741612E-01 0.32656646E+03</pdfrwt>
<totfact> 0.90960728E+03</totfact>
</mgrwt>
</event>
<event>
 4    1  0.3935877E+000  0.2862494E+03  0.7546771E-02  0.1092324E+00
         21   -1    0    0  501  502  0.00000000000E+00  0.00000000000E+00  0.19794629588E+03  0.19794629588E+03  0.00000000000E+00 0. -1.
         21   -1    0    0  502  503 -0.00000000000E+00 -0.00000000000E+00 -0.45221614727E+03  0.45221614727E+03  0.00000000000E+00 0.  1.
          6    1    1    2  501    0 -0.21426664656E+03  0.78099479016E+02 -0.32563696507E+02  0.28809567644E+03  0.17300000000E+03 0. -1.
         -6    1    1    2    0  503  0.21426664656E+03 -0.78099479016E+02 -0.22170615488E+03  0.36206676672E+03  0.17300000000E+03 0.  1.
<mgrwt>
<rscale>  2 0.28624941E+03</rscale>
<asrwt>0</asrwt>
<pdfrwt beam="1">  1       21 0.30453276E-01 0.28624941E+03</pdfrwt>
<pdfrwt beam="2">  1       21 0.69571715E-01 0.28624941E+03</pdfrwt>
<totfact> 0.18518014E+04</totfact>
</mgrwt>
</event>
<event>
 4    1  0.3935877E+000  0.2290462E+03  0.7546771E-02  0.1127313E+00
         21   -1    0    0  503  502  0.00000000000E+00  0.00000000000E+00  0.17231197307E+03  0.17231197307E+03  0.00000000000E+00 0. -1.
         21   -1    0    0  501  503 -0.00000000000E+00 -0.00000000000E+00 -0.37251943074E+03  0.37251943074E+03  0.00000000000E+00 0. -1.
          6    1    1    2  501    0 -0.25857573082E+02  0.14786673113E+03 -0.21654322794E+03  0.31520335314E+03  0.17300000000E+03 0. -1.
         -6    1    1    2    0  502  0.25857573082E+02 -0.14786673113E+03  0.16335770272E+02  0.22962805066E+03  0.17300000000E+03 0. -1.
<mgrwt>
<rscale>  2 0.22904625E+03</rscale>
<asrwt>0</asrwt>
<pdfrwt beam="1">  1       21 0.26509535E-01 0.22904625E+03</pdfrwt>
<pdfrwt beam="2">  1       21 0.57310681E-01 0.22904625E+03</pdfrwt>
<totfact> 0.38000324E+04</totfact>
</mgrwt>
</event>
<event>
 4    1  0.3935877E+000  0.1912672E+03  0.7546771E-02  0.1157323E+00
         21   -1    0    0  501  502  0.00000000000E+00  0.00000000000E+00  0.13035257547E+04  0.13035257547E+04  0.00000000000E+00 0.  1.
         21   -1    0    0  502  503 -0.00000000000E+00 -0.00000000000E+00 -0.28144659654E+02  0.28144659654E+02  0.00000000000E+00 0.  1.
          6    1    1    2  501    0 -0.81086007959E+02 -0.88991034193E+01  0.67316754857E+03  0.69981260576E+03  0.17300000000E+03 0.  1.
         -6    1    1    2    0  503  0.81086007959E+02  0.88991034193E+01  0.60221354652E+03  0.63185780864E+03  0.17300000000E+03 0.  1.
<mgrwt>
<rscale>  2 0.19126718E+03</rscale>
<asrwt>0</asrwt>
<pdfrwt beam="1">  1       21 0.20054238E+00 0.19126718E+03</pdfrwt>
<pdfrwt beam="2">  1       21 0.43299487E-02 0.19126718E+03</pdfrwt>
<totfact> 0.45729992E+04</totfact>
</mgrwt>
</event>
<event>
 4    1  0.3935877E+000  0.1913214E+03  0.7546771E-02  0.1157275E+00
         21   -1    0    0  503  502  0.00000000000E+00  0.00000000000E+00  0.71153923205E+03  0.71153923205E+03  0.00000000000E+00 0. -1.
         21   -1    0    0  501  503 -0.00000000000E+00 -0.00000000000E+00 -0.53171650434E+02  0.53171650434E+02  0.00000000000E+00 0.  1.
          6    1    1    2  501    0 -0.33098703053E+02  0.74694952931E+02  0.39812116962E+03  0.44170615327E+03  0.17300000000E+03 0. -1.
         -6    1    1    2    0  502  0.33098703053E+02 -0.74694952931E+02  0.26024641199E+03  0.32300472921E+03  0.17300000000E+03 0.  1.
<mgrwt>
<rscale>  2 0.19132135E+03</rscale>
<asrwt>0</asrwt>
<pdfrwt beam="1">  1       21 0.10946757E+00 0.19132135E+03</pdfrwt>
<pdfrwt beam="2">  1       21 0.81802544E-02 0.19132135E+03</pdfrwt>
<totfact> 0.76329022E+04</totfact>
</mgrwt>
</event>
<event>
 4    1  0.3935877E+000  0.2072178E+03  0.7546771E-02  0.1143788E+00
         21   -1    0    0  501  502  0.00000000000E+00  0.00000000000E+00  0.89115885143E+03  0.89115885143E+03  0.00000000000E+00 0.  1.
         21   -1    0    0  502  503 -0.00000000000E+00 -0.00000000000E+00 -0.69547039828E+02  0.69547039828E+02  0.00000000000E+00 0. -1.
          6    1    1    2  501    0  0.11098216029E+03 -0.26328422590E+02  0.67703585276E+03  0.70803726714E+03  0.17300000000E+03 0.  1.
         -6    1    1    2    0  503 -0.11098216029E+03  0.26328422590E+02  0.14457595884E+03  0.25266862412E+03  0.17300000000E+03 0. -1.
<mgrwt>
<rscale>  2 0.20721782E+03</rscale>
<asrwt>0</asrwt>
<pdfrwt beam="1">  1       21 0.13710135E+00 0.20721782E+03</pdfrwt>
<pdfrwt beam="2">  1       21 0.10699545E-01 0.20721782E+03</pdfrwt>
<totfact> 0.26943297E+04</totfact>
</mgrwt>
</event>
<event>
 4    1  0.3935877E+000  0.1752530E+03  0.7546771E-02  0.1172478E+00
         21   -1    0    0  503  502  0.00000000000E+00  0.00000000000E+00  0.31664082670E+02  0.31664082670E+02  0.00000000000E+00 0. -1.
         21   -1    0    0  501  503 -0.00000000000E+00 -0.00000000000E+00 -0.13735842114E+04  0.13735842114E+04  0.00000000000E+00 0.  1.
          6    1    1    2  501    0 -0.45472576650E+01 -0.27639657795E+02 -0.10518254891E+04  0.10663256950E+04  0.17300000000E+03 0.  1.
         -6    1    1    2    0  502  0.45472576650E+01  0.27639657795E+02 -0.29009463960E+03  0.33892259907E+03  0.17300000000E+03 0. -1.
<mgrwt>
<rscale>  2 0.17525304E+03</rscale>
<asrwt>0</asrwt>
<pdfrwt beam="1">  1       21 0.48713973E-02 0.17525304E+03</pdfrwt>
<pdfrwt beam="2">  1       21 0.21132065E+00 0.17525304E+03</pdfrwt>
<totfact> 0.32425656E+04</totfact>
</mgrwt>
</event>
<event>
 4    1  0.3935877E+000  0.2114455E+03  0.7546771E-02  0.1140426E+00
         21   -1    0    0  501  502  0.00000000000E+00  0.00000000000E+00  0.28151642581E+03  0.28151642581E+03  0.00000000000E+00 0. -1.
         21   -1    0    0  502  503 -0.00000000000E+00 -0.00000000000E+00 -0.17747618276E+03  0.17747618276E+03  0.00000000000E+00 0. -1.
          6    1    1    2  501    0 -0.12146098883E+03  0.52378836192E+01  0.12643640251E+03  0.24636430568E+03  0.17300000000E+03 0. -1.
         -6    1    1    2    0  503  0.12146098883E+03 -0.52378836192E+01 -0.22396159454E+02  0.21262830289E+03  0.17300000000E+03 0. -1.
<mgrwt>
<rscale>  2 0.21144552E+03</rscale>
<asrwt>0</asrwt>
<pdfrwt beam="1">  1       21 0.43310219E-01 0.21144552E+03</pdfrwt>
<pdfrwt beam="2">  1       21 0.27304028E-01 0.21144552E+03</pdfrwt>
<totfact> 0.64999096E+04</totfact>
</mgrwt>
</event>
<event>
 4    1  0.3935877E+000  0.2722280E+03  0.7546771E-02  0.1100011E+00
         21   -1    0    0  503  502  0.00000000000E+00  0.00000000000E+00  0.53757176483E+03  0.53757176483E+03  0.00000000000E+00 0.  1.
         21   -1    0    0  501  503 -0.00000000000E+00 -0.00000000000E+00 -0.30073284576E+03  0.30073284576E+03  0.00000000000E+00 0.  1.
          6    1    1    2  501    0  0.16927699783E+03  0.12459693702E+03 -0.19004817320E+03  0.33200362475E+03  0.17300000000E+03 0.  1.
         -6    1    1    2    0  502 -0.16927699783E+03 -0.12459693702E+03  0.42688709227E+03  0.50630098584E+03  0.17300000000E+03 0.  1.
<mgrwt>
<rscale>  2 0.27222803E+03</rscale>
<asrwt>0</asrwt>
<pdfrwt beam="1">  1       21 0.82703348E-01 0.27222803E+03</pdfrwt>
<pdfrwt beam="2">  1       21 0.46266592E-01 0.27222803E+03</pdfrwt>
<totfact> 0.54148066E+03</totfact>
</mgrwt>
</event>
<event>
 4    1  0.3935877E+000  0.1828444E+03  0.7546771E-02  0.1165078E+00
         21   -1    0    0  501  502  0.00000000000E+00  0.00000000000E+00  0.14274448394E+03  0.14274448394E+03  0.00000000000E+00 0.  1.
         21   -1    0    0  502  503 -0.00000000000E+00 -0.00000000000E+00 -0.29004136566E+03  0.29004136566E+03  0.00000000000E+00 0.  1.
          6    1    1    2  501    0 -0.22145760741E+02  0.54887411934E+02  0.21292943440E+02  0.18408001561E+03  0.17300000000E+03 0.  1.
         -6    1    1    2    0  503  0.22145760741E+02 -0.54887411934E+02 -0.16858982516E+03  0.24870583398E+03  0.17300000000E+03 0.  1.
<mgrwt>
<rscale>  2 0.18284437E+03</rscale>
<asrwt>0</asrwt>
<pdfrwt beam="1">  1       21 0.21960690E-01 0.18284437E+03</pdfrwt>
<pdfrwt beam="2">  1       21 0.44621748E-01 0.18284437E+03</pdfrwt>
<totfact> 0.93736281E+04</totfact>
</mgrwt>
</event>
<event>
 4    1  0.3935877E+000  0.1766475E+03  0.7546771E-02  0.1171088E+00
         21   -1    0    0  501  502  0.00000000000E+00  0.00000000000E+00  0.30716071324E+02  0.30716071324E+02  0.00000000000E+00 0.  1.
         21   -1    0    0  502  503 -0.00000000000E+00 -0.00000000000E+00 -0.13034161859E+04  0.13034161859E+04  0.00000000000E+00 0. -1.
          6    1    1    2  501    0 -0.29704129476E+02  0.19824506898E+02 -0.32304947649E+03  0.36819194809E+03  0.17300000000E+03 0.  1.
         -6    1    1    2    0  503  0.29704129476E+02 -0.19824506898E+02 -0.94965063807E+03  0.96594030911E+03  0.17300000000E+03 0. -1.
<mgrwt>
<rscale>  2 0.17664752E+03</rscale>
<asrwt>0</asrwt>
<pdfrwt beam="1">  1       21 0.47255499E-02 0.17664752E+03</pdfrwt>
<pdfrwt beam="2">  1       21 0.20052555E+00 0.17664752E+03</pdfrwt>
<totfact> 0.39871859E+04</totfact>
</mgrwt>
</event>
<event>
 4    1  0.3935877E+000  0.2796783E+03  0.7546771E-02  0.1095865E+00
         21   -1    0    0  501  502  0.00000000000E+00  0.00000000000E+00  0.14841242563E+04  0.14841242563E+04  0.00000000000E+00 0.  1.
         21   -1    0    0  502  503 -0.00000000000E+00 -0.00000000000E+00 -0.10693825022E+03  0.10693825022E+03  0.00000000000E+00 0. -1.
          6    1    1    2  501    0 -0.18955299476E+03  0.11117817746E+03  0.12551267730E+04  0.12859094608E+04  0.17300000000E+03 0.  1.
         -6    1    1    2    0  503  0.18955299476E+03 -0.11117817746E+03  0.12205923310E+03  0.30515304578E+03  0.17300000000E+03 0. -1.
<mgrwt>
<rscale>  2 0.27967825E+03</rscale>
<asrwt>0</asrwt>
<pdfrwt beam="1">  1       21 0.22832679E+00 0.27967825E+03</pdfrwt>
<pdfrwt beam="2">  1       21 0.16452040E-01 0.27967825E+03</pdfrwt>
<totfact> 0.27458727E+03</totfact>
</mgrwt>
</event>
<event>
 4    1  0.3935877E+000  0.1901041E+03  0.7546771E-02  0.1158368E+00
         21   -1    0    0  501  502  0.00000000000E+00  0.00000000000E+00  0.34658909077E+03  0.34658909077E+03  0.00000000000E+00 0.  1.
         21   -1    0    0  502  503 -0.00000000000E+00 -0.00000000000E+00 -0.11691623519E+03  0.11691623519E+03  0.00000000000E+00 0.  1.
          6    1    1    2  501    0 -0.52326179426E+01 -0.78633151200E+02  0.19105009464E+03  0.26951751598E+03  0.17300000000E+03 0.  1.
         -6    1    1    2    0  503  0.52326179426E+01  0.78633151200E+02  0.38622760934E+02  0.19398780998E+03  0.17300000000E+03 0.  1.
<mgrwt>
<rscale>  2 0.19010406E+03</rscale>
<asrwt>0</asrwt>
<pdfrwt beam="1">  1       21 0.53321398E-01 0.19010406E+03</pdfrwt>
<pdfrwt beam="2">  1       21 0.17987113E-01 0.19010406E+03</pdfrwt>
<totfact> 0.93712352E+04</totfact>
</mgrwt>
</event>
<event>
 4    1  0.3935877E+000  0.1739906E+03  0.7546771E-02  0.1173749E+00
         21   -1    0    0  501  502  0.00000000000E+00  0.00000000000E+00  0.16663485962E+03  0.16663485962E+03  0.00000000000E+00 0. -1.
         21   -1    0    0  502  503 -0.00000000000E+00 -0.00000000000E+00 -0.29987965429E+03  0.29987965429E+03  0.00000000000E+00 0. -1.
          6    1    1    2  501    0 -0.12004885342E+02 -0.14128824023E+02  0.79826493438E+02  0.19142886406E+03  0.17300000000E+03 0. -1.
         -6    1    1    2    0  503  0.12004885342E+02  0.14128824023E+02 -0.21307128810E+03  0.27508564985E+03  0.17300000000E+03 0. -1.
<mgrwt>
<rscale>  2 0.17399063E+03</rscale>
<asrwt>0</asrwt>
<pdfrwt beam="1">  1       21 0.25636132E-01 0.17399063E+03</pdfrwt>
<pdfrwt beam="2">  1       21 0.46135332E-01 0.17399063E+03</pdfrwt>
<totfact> 0.65526363E+04</totfact>
</mgrwt>
</event>
<event>
 4    1  0.3935877E+000  0.1870580E+03  0.7546771E-02  0.1161142E+00
         21   -1    0    0  503  502  0.00000000000E+00  0.00000000000E+00  0.28618767327E+03  0.28618767327E+03  0.00000000000E+00 0. -1.
         21   -1    0    0  501  503 -0.00000000000E+00 -0.00000000000E+00 -0.18741256940E+03  0.18741256940E+03  0.00000000000E+00 0. -1.
          6    1    1    2  501    0 -0.43181692752E+02 -0.56542364959E+02 -0.90227459822E+02  0.20768170870E+03  0.17300000000E+03 0. -1.
         -6    1    1    2    0  502  0.43181692752E+02  0.56542364959E+02  0.18900256370E+03  0.26591853397E+03  0.17300000000E+03 0. -1.
<mgrwt>
<rscale>  2 0.18705801E+03</rscale>
<asrwt>0</asrwt>
<pdfrwt beam="1">  1       21 0.44028873E-01 0.18705801E+03</pdfrwt>
<pdfrwt beam="2">  1       21 0.28832703E-01 0.18705801E+03</pdfrwt>
<totfact> 0.57186767E+04</totfact>
</mgrwt>
</event>
<event>
 4    1  0.3935877E+000  0.1883663E+03  0.7546771E-02  0.1159943E+00
         21   -1    0    0  503  502  0.00000000000E+00  0.00000000000E+00  0.10632364784E+04  0.10632364784E+04  0.00000000000E+00 0.  1.
         21   -1    0    0  501  503 -0.00000000000E+00 -0.00000000000E+00 -0.33618523633E+02  0.33618523633E+02  0.00000000000E+00 0.  1.
          6    1    1    2  501    0  0.11260869946E+02  0.73661842715E+02  0.46780500570E+03  0.50430486575E+03  0.17300000000E+03 0.  1.
         -6    1    1    2    0  502 -0.11260869946E+02 -0.73661842715E+02  0.56181294903E+03  0.59255013625E+03  0.17300000000E+03 0.  1.
<mgrwt>
<rscale>  2 0.18836633E+03</rscale>
<asrwt>0</asrwt>
<pdfrwt beam="1">  1       21 0.16357482E+00 0.18836633E+03</pdfrwt>
<pdfrwt beam="2">  1       21 0.51720814E-02 0.18836633E+03</pdfrwt>
<totfact> 0.60358265E+04</totfact>
</mgrwt>
</event>
<event>
 4    1  0.3935877E+000  0.2044582E+03  0.7546771E-02  0.1146031E+00
         21   -1    0    0  503  502  0.00000000000E+00  0.00000000000E+00  0.19650498625E+02  0.19650498625E+02  0.00000000000E+00 0. -1.
         21   -1    0    0  501  503 -0.00000000000E+00 -0.00000000000E+00 -0.21458881026E+04  0.21458881026E+04  0.00000000000E+00 0. -1.
          6    1    1    2  501    0  0.25448086415E+02  0.10595542575E+03 -0.11638032051E+04  0.11816264458E+04  0.17300000000E+03 0. -1.
         -6    1    1    2    0  502 -0.25448086415E+02 -0.10595542575E+03 -0.96243439893E+03  0.98391215543E+03  0.17300000000E+03 0. -1.
<mgrwt>
<rscale>  2 0.20445820E+03</rscale>
<asrwt>0</asrwt>
<pdfrwt beam="1">  1       21 0.30231542E-02 0.20445820E+03</pdfrwt>
<pdfrwt beam="2">  1       21 0.33013657E+00 0.20445820E+03</pdfrwt>
<totfact> 0.14099524E+04</totfact>
</mgrwt>
</event>
<event>
 4    1  0.3935877E+000  0.2850530E+03  0.7546771E-02  0.1092961E+00
         21   -1    0    0  503  502  0.00000000000E+00  0.00000000000E+00  0.75982815293E+02  0.75982815293E+02  0.00000000000E+00 0.  1.
         21   -1    0    0  501  503 -0.00000000000E+00 -0.00000000000E+00 -0.14680599904E+04  0.14680599904E+04  0.00000000000E+00 0. -1.
          6    1    1    2  501    0  0.16318623923E+03 -0.15715108915E+03 -0.10983520503E+04  0.11347389302E+04  0.17300000000E+03 0. -1.
         -6    1    1    2    0  502 -0.16318623923E+03  0.15715108915E+03 -0.29372512484E+03  0.40930387545E+03  0.17300000000E+03 0.  1.
<mgrwt>
<rscale>  2 0.28505300E+03</rscale>
<asrwt>0</asrwt>
<pdfrwt beam="1">  1       21 0.11689664E-01 0.28505300E+03</pdfrwt>
<pdfrwt beam="2">  1       21 0.22585537E+00 0.28505300E+03</pdfrwt>
<totfact> 0.52878586E+03</totfact>
</mgrwt>
</event>
<event>
 4    1  0.3935877E+000  0.2189311E+03  0.7546771E-02  0.1134682E+00
         21   -1    0    0  503  502  0.00000000000E+00  0.00000000000E+00  0.33169539264E+03  0.33169539264E+03  0.00000000000E+00 0. -1.
         21   -1    0    0  501  503 -0.00000000000E+00 -0.00000000000E+00 -0.16911268880E+03  0.16911268880E+03  0.00000000000E+00 0.  1.
          6    1    1    2  501    0 -0.11584868087E+03 -0.67682569089E+02 -0.14232057709E+02  0.21939325077E+03  0.17300000000E+03 0.  1.
         -6    1    1    2    0  502  0.11584868087E+03  0.67682569089E+02  0.17681476155E+03  0.28141483067E+03  0.17300000000E+03 0. -1.
<mgrwt>
<rscale>  2 0.21893115E+03</rscale>
<asrwt>0</asrwt>
<pdfrwt beam="1">  1       21 0.51030060E-01 0.21893115E+03</pdfrwt>
<pdfrwt beam="2">  1       21 0.26017337E-01 0.21893115E+03</pdfrwt>
<totfact> 0.50611077E+04</totfact>
</mgrwt>
</event>
<event>
 4    1  0.3935877E+000  0.1807959E+03  0.7546771E-02  0.1167035E+00
         21   -1    0    0  503  502  0.00000000000E+00  0.00000000000E+00  0.26910407867E+03  0.26910407867E+03  0.00000000000E+00 0.  1.
         21   -1    0    0  501  503 -0.00000000000E+00 -0.00000000000E+00 -0.12303090602E+03  0.12303090602E+03  0.00000000000E+00 0.  1.
          6    1    1    2  501    0 -0.37810037329E+02  0.36449531185E+02  0.50928339506E+02  0.18783200742E+03  0.17300000000E+03 0.  1.
         -6    1    1    2    0  502  0.37810037329E+02 -0.36449531185E+02  0.95144833149E+02  0.20430297727E+03  0.17300000000E+03 0.  1.
<mgrwt>
<rscale>  2 0.18079593E+03</rscale>
<asrwt>0</asrwt>
<pdfrwt beam="1">  1       21 0.41400627E-01 0.18079593E+03</pdfrwt>
<pdfrwt beam="2">  1       21 0.18927832E-01 0.18079593E+03</pdfrwt>
<totfact> 0.14425812E+05</totfact>
</mgrwt>
</event>
<event>
 4    1  0.3935877E+000  0.1752919E+03  0.7546771E-02  0.1172439E+00
         21   -1    0    0  503  502  0.00000000000E+00  0.00000000000E+00  0.14249013637E+03  0.14249013637E+03  0.00000000000E+00 0. -1.
         21   -1    0    0  501  503 -0.00000000000E+00 -0.00000000000E+00 -0.34375418409E+03  0.34375418409E+03  0.00000000000E+00 0. -1.
          6    1    1    2  501    0 -0.20016202762E+02  0.19940228079E+02 -0.24905152659E+03  0.30455528885E+03  0.17300000000E+03 0. -1.
         -6    1    1    2    0  502  0.20016202762E+02 -0.19940228079E+02  0.47787478871E+02  0.18168903161E+03  0.17300000000E+03 0. -1.
<mgrwt>
<rscale>  2 0.17529193E+03</rscale>
<asrwt>0</asrwt>
<pdfrwt beam="1">  1       21 0.21921560E-01 0.17529193E+03</pdfrwt>
<pdfrwt beam="2">  1       21 0.52885258E-01 0.17529193E+03</pdfrwt>
<totfact> 0.66345749E+04</totfact>
</mgrwt>
</event>
<event>
 4    1  0.3935877E+000  0.1734120E+03  0.7546771E-02  0.1174336E+00
         21   -1    0    0  501  502  0.00000000000E+00  0.00000000000E+00  0.42391032472E+03  0.42391032472E+03  0.00000000000E+00 0. -1.
         21   -1    0    0  502  503 -0.00000000000E+00 -0.00000000000E+00 -0.71101209777E+02  0.71101209777E+02  0.00000000000E+00 0. -1.
          6    1    1    2  501    0  0.54371173062E+01  0.10638017416E+02  0.18823026076E+03  0.25593428986E+03  0.17300000000E+03 0.  1.
         -6    1    1    2    0  503 -0.54371173062E+01 -0.10638017416E+02  0.16457885418E+03  0.23907724463E+03  0.17300000000E+03 0.  1.
<mgrwt>
<rscale>  2 0.17341202E+03</rscale>
<asrwt>0</asrwt>
<pdfrwt beam="1">  1       21 0.65216971E-01 0.17341202E+03</pdfrwt>
<pdfrwt beam="2">  1       21 0.10938648E-01 0.17341202E+03</pdfrwt>
<totfact> 0.15074283E+05</totfact>
</mgrwt>
</event>
<event>
 4    1  0.3935877E+000  0.1977979E+03  0.7546771E-02  0.1151610E+00
         21   -1    0    0  503  502  0.00000000000E+00  0.00000000000E+00  0.15238600859E+04  0.15238600859E+04  0.00000000000E+00 0.  1.
         21   -1    0    0  501  503 -0.00000000000E+00 -0.00000000000E+00 -0.86158918007E+02  0.86158918007E+02  0.00000000000E+00 0. -1.
          6    1    1    2  501    0 -0.70055175105E+02  0.65477400092E+02  0.44363845830E+02  0.20271203294E+03  0.17300000000E+03 0. -1.
         -6    1    1    2    0  502  0.70055175105E+02 -0.65477400092E+02  0.13933373221E+04  0.14073069710E+04  0.17300000000E+03 0.  1.
<mgrwt>
<rscale>  2 0.19779792E+03</rscale>
<asrwt>0</asrwt>
<pdfrwt beam="1">  1       21 0.23443999E+00 0.19779792E+03</pdfrwt>
<pdfrwt beam="2">  1       21 0.13255219E-01 0.19779792E+03</pdfrwt>
<totfact> 0.40151808E+03</totfact>
</mgrwt>
</event>
<event>
 4    1  0.3935877E+000  0.2625886E+03  0.7546771E-02  0.1105598E+00
         21   -1    0    0  503  502  0.00000000000E+00  0.00000000000E+00  0.11220266944E+04  0.11220266944E+04  0.00000000000E+00 0.  1.
         21   -1    0    0  501  503 -0.00000000000E+00 -0.00000000000E+00 -0.83707198787E+02  0.83707198787E+02  0.00000000000E+00 0. -1.
          6    1    1    2  501    0  0.18666870824E+03 -0.64641638398E+02  0.20831843706E+03  0.33518549979E+03  0.17300000000E+03 0. -1.
         -6    1    1    2    0  502 -0.18666870824E+03  0.64641638398E+02  0.83000105856E+03  0.87054839340E+03  0.17300000000E+03 0.  1.
<mgrwt>
<rscale>  2 0.26258855E+03</rscale>
<asrwt>0</asrwt>
<pdfrwt beam="1">  1       21 0.17261948E+00 0.26258855E+03</pdfrwt>
<pdfrwt beam="2">  1       21 0.12878031E-01 0.26258855E+03</pdfrwt>
<totfact> 0.10075343E+04</totfact>
</mgrwt>
</event>
<event>
 4    1  0.3935877E+000  0.2351820E+03  0.7546771E-02  0.1123045E+00
         21   -1    0    0  503  502  0.00000000000E+00  0.00000000000E+00  0.79054197058E+03  0.79054197058E+03  0.00000000000E+00 0.  1.
         21   -1    0    0  501  503 -0.00000000000E+00 -0.00000000000E+00 -0.17157349009E+03  0.17157349009E+03  0.00000000000E+00 0. -1.
          6    1    1    2  501    0  0.15522632322E+03  0.35865931347E+02 -0.60715639005E+02  0.24289290906E+03  0.17300000000E+03 0. -1.
         -6    1    1    2    0  502 -0.15522632322E+03 -0.35865931347E+02  0.67968411949E+03  0.71922255161E+03  0.17300000000E+03 0.  1.
<mgrwt>
<rscale>  2 0.23518201E+03</rscale>
<asrwt>0</asrwt>
<pdfrwt beam="1">  1       21 0.12162184E+00 0.23518201E+03</pdfrwt>
<pdfrwt beam="2">  1       21 0.26395922E-01 0.23518201E+03</pdfrwt>
<totfact> 0.67617742E+03</totfact>
</mgrwt>
</event>
<event>
 4    1  0.3935877E+000  0.1927902E+03  0.7546771E-02  0.1155969E+00
         21   -1    0    0  503  502  0.00000000000E+00  0.00000000000E+00  0.72885402536E+03  0.72885402536E+03  0.00000000000E+00 0.  1.
         21   -1    0    0  501  503 -0.00000000000E+00 -0.00000000000E+00 -0.56032117659E+02  0.56032117659E+02  0.00000000000E+00 0.  1.
          6    1    1    2  501    0  0.25547956261E+02  0.81156406658E+02  0.21874783398E+03  0.29157962083E+03  0.17300000000E+03 0.  1.
         -6    1    1    2    0  502 -0.25547956261E+02 -0.81156406658E+02  0.45407407371E+03  0.49330652218E+03  0.17300000000E+03 0.  1.
<mgrwt>
<rscale>  2 0.19279020E+03</rscale>
<asrwt>0</asrwt>
<pdfrwt beam="1">  1       21 0.11213138E+00 0.19279020E+03</pdfrwt>
<pdfrwt beam="2">  1       21 0.86203263E-02 0.19279020E+03</pdfrwt>
<totfact> 0.65671477E+04</totfact>
</mgrwt>
</event>
<event>
 4    1  0.3935877E+000  0.2221477E+03  0.7546771E-02  0.1132292E+00
         21   -1    0    0  501  502  0.00000000000E+00  0.00000000000E+00  0.63232027658E+03  0.63232027658E+03  0.00000000000E+00 0.  1.
         21   -1    0    0  502  503 -0.00000000000E+00 -0.00000000000E+00 -0.19650996783E+03  0.19650996783E+03  0.00000000000E+00 0.  1.
          6    1    1    2  501    0  0.65452029803E+02  0.12303110263E+03  0.53966936621E+03  0.58360315733E+03  0.17300000000E+03 0.  1.
         -6    1    1    2    0  503 -0.65452029803E+02 -0.12303110263E+03 -0.10385905746E+03  0.24522708708E+03  0.17300000000E+03 0.  1.
<mgrwt>
<rscale>  2 0.22214774E+03</rscale>
<asrwt>0</asrwt>
<pdfrwt beam="1">  1       21 0.97280042E-01 0.22214774E+03</pdfrwt>
<pdfrwt beam="2">  1       21 0.30232303E-01 0.22214774E+03</pdfrwt>
<totfact> 0.90122517E+03</totfact>
</mgrwt>
</event>
<event>
 4    1  0.3935877E+000  0.2026886E+03  0.7546771E-02  0.1147490E+00
         21   -1    0    0  503  502  0.00000000000E+00  0.00000000000E+00  0.80030197116E+02  0.80030197116E+02  0.00000000000E+00 0. -1.
         21   -1    0    0  501  503 -0.00000000000E+00 -0.00000000000E+00 -0.59184607218E+03  0.59184607218E+03  0.00000000000E+00 0. -1.
          6    1    1    2  501    0  0.44589469164E+02 -0.95736381300E+02 -0.37825891466E+03  0.42914156404E+03  0.17300000000E+03 0. -1.
         -6    1    1    2    0  502 -0.44589469164E+02  0.95736381300E+02 -0.13355696040E+03  0.24273470526E+03  0.17300000000E+03 0. -1.
<mgrwt>
<rscale>  2 0.20268862E+03</rscale>
<asrwt>0</asrwt>
<pdfrwt beam="1">  1       21 0.12312338E-01 0.20268862E+03</pdfrwt>
<pdfrwt beam="2">  1       21 0.91053243E-01 0.20268862E+03</pdfrwt>
<totfact> 0.57029744E+04</totfact>
</mgrwt>
</event>
<event>
 4    1  0.3935877E+000  0.1745823E+03  0.7546771E-02  0.1173152E+00
         21   -1    0    0  501  502  0.00000000000E+00  0.00000000000E+00  0.13677487623E+03  0.13677487623E+03  0.00000000000E+00 0. -1.
         21   -1    0    0  502  503 -0.00000000000E+00 -0.00000000000E+00 -0.22868372897E+03  0.22868372897E+03  0.00000000000E+00 0.  1.
          6    1    1    2  501    0 -0.19821762114E+01  0.23367631834E+02 -0.16745284341E+02  0.17538352200E+03  0.17300000000E+03 0. -1.
         -6    1    1    2    0  503  0.19821762114E+01 -0.23367631834E+02 -0.75163568402E+02  0.19007508320E+03  0.17300000000E+03 0.  1.
<mgrwt>
<rscale>  2 0.17458229E+03</rscale>
<asrwt>0</asrwt>
<pdfrwt beam="1">  1       21 0.21042289E-01 0.17458229E+03</pdfrwt>
<pdfrwt beam="2">  1       21 0.35182112E-01 0.17458229E+03</pdfrwt>
<totfact> 0.16439919E+05</totfact>
</mgrwt>
</event>
<event>
 4    1  0.3935877E+000  0.2471484E+03  0.7546771E-02  0.1115120E+00
         21   -1    0    0  503  502  0.00000000000E+00  0.00000000000E+00  0.21819193184E+03  0.21819193184E+03  0.00000000000E+00 0. -1.
         21   -1    0    0  501  503 -0.00000000000E+00 -0.00000000000E+00 -0.29922645279E+03  0.29922645279E+03  0.00000000000E+00 0. -1.
          6    1    1    2  501    0  0.80352981657E+02  0.15715190408E+03  0.25150421967E+02  0.24842476998E+03  0.17300000000E+03 0. -1.
         -6    1    1    2    0  502 -0.80352981657E+02 -0.15715190408E+03 -0.10618494291E+03  0.26899361464E+03  0.17300000000E+03 0. -1.
<mgrwt>
<rscale>  2 0.24714838E+03</rscale>
<asrwt>0</asrwt>
<pdfrwt beam="1">  1       21 0.33567990E-01 0.24714838E+03</pdfrwt>
<pdfrwt beam="2">  1       21 0.46034839E-01 0.24714838E+03</pdfrwt>
<totfact> 0.37660976E+04</totfact>
</mgrwt>
</event>
<event>
 4    1  0.3935877E+000  0.2021821E+03  0.7546771E-02  0.1147911E+00
         21   -1    0    0  503  502  0.00000000000E+00  0.00000000000E+00  0.12348859915E+03  0.12348859915E+03  0.00000000000E+00 0.  1.
         21   -1    0    0  501  503 -0.00000000000E+00 -0.00000000000E+00 -0.99579170132E+03  0.99579170132E+03  0.00000000000E+00 0.  1.
          6    1    1    2  501    0  0.80957091211E+02 -0.66291418736E+02 -0.89340795777E+03  0.91599966257E+03  0.17300000000E+03 0.  1.
         -6    1    1    2    0  502 -0.80957091211E+02  0.66291418736E+02  0.21104855609E+02  0.20328063790E+03  0.17300000000E+03 0.  1.
<mgrwt>
<rscale>  2 0.20218210E+03</rscale>
<asrwt>0</asrwt>
<pdfrwt beam="1">  1       21 0.18998247E-01 0.20218210E+03</pdfrwt>
<pdfrwt beam="2">  1       21 0.15319872E+00 0.20218210E+03</pdfrwt>
<totfact> 0.71269338E+03</totfact>
</mgrwt>
</event>
<event>
 4    1  0.3935877E+000  0.1819370E+03  0.7546771E-02  0.1165941E+00
         21   -1    0    0  501  502  0.00000000000E+00  0.00000000000E+00  0.17624310578E+03  0.17624310578E+03  0.00000000000E+00 0. -1.
         21   -1    0    0  502  503 -0.00000000000E+00 -0.00000000000E+00 -0.19022342342E+03  0.19022342342E+03  0.00000000000E+00 0. -1.
          6    1    1    2  501    0  0.49729474222E+02  0.26439881989E+02  0.13627737070E+02  0.18244671327E+03  0.17300000000E+03 0. -1.
         -6    1    1    2    0  503 -0.49729474222E+02 -0.26439881989E+02 -0.27608054710E+02  0.18401981592E+03  0.17300000000E+03 0. -1.
<mgrwt>
<rscale>  2 0.18193704E+03</rscale>
<asrwt>0</asrwt>
<pdfrwt beam="1">  1       21 0.27114324E-01 0.18193704E+03</pdfrwt>
<pdfrwt beam="2">  1       21 0.29265142E-01 0.18193704E+03</pdfrwt>
<totfact> 0.14547547E+05</totfact>
</mgrwt>
</event>
<event>
 4    1  0.3935877E+000  0.2664280E+03  0.7546771E-02  0.1103342E+00
         21   -1    0    0  503  502  0.00000000000E+00  0.00000000000E+00  0.75493195960E+03  0.75493195960E+03  0.00000000000E+00 0. -1.
         21   -1    0    0  501  503 -0.00000000000E+00 -0.00000000000E+00 -0.14289062315E+03  0.14289062315E+03  0.00000000000E+00 0.  1.
          6    1    1    2  501    0  0.13197489881E+03  0.15374494914E+03  0.43506885685E+02  0.26995690842E+03  0.17300000000E+03 0.  1.
         -6    1    1    2    0  502 -0.13197489881E+03 -0.15374494914E+03  0.56853445076E+03  0.62786567433E+03  0.17300000000E+03 0. -1.
<mgrwt>
<rscale>  2 0.26642801E+03</rscale>
<asrwt>0</asrwt>
<pdfrwt beam="1">  1       21 0.11614338E+00 0.26642801E+03</pdfrwt>
<pdfrwt beam="2">  1       21 0.21983173E-01 0.26642801E+03</pdfrwt>
<totfact> 0.10566937E+04</totfact>
</mgrwt>
</event>
<event>
 4    1  0.3935877E+000  0.1922912E+03  0.7546771E-02  0.1156411E+00
         21   -1    0    0  503  502  0.00000000000E+00  0.00000000000E+00  0.65403059934E+03  0.65403059934E+03  0.00000000000E+00 0. -1.
         21   -1    0    0  501  503 -0.00000000000E+00 -0.00000000000E+00 -0.72898305613E+02  0.72898305613E+02  0.00000000000E+00 0.  1.
          6    1    1    2  501    0 -0.83945154578E+02 -0.35517099734E+00  0.11836630166E+03  0.22580189656E+03  0.17300000000E+03 0.  1.
         -6    1    1    2    0  502  0.83945154578E+02  0.35517099734E+00  0.46276599207E+03  0.50112700839E+03  0.17300000000E+03 0. -1.
<mgrwt>
<rscale>  2 0.19229122E+03</rscale>
<asrwt>0</asrwt>
<pdfrwt beam="1">  1       21 0.10062009E+00 0.19229122E+03</pdfrwt>
<pdfrwt beam="2">  1       21 0.11215124E-01 0.19229122E+03</pdfrwt>
<totfact> 0.53576358E+04</totfact>
</mgrwt>
</event>
<event>
 4    1  0.3935877E+000  0.2164128E+03  0.7546771E-02  0.1136586E+00
         21   -1    0    0  503  502  0.00000000000E+00  0.00000000000E+00  0.70233907186E+02  0.70233907186E+02  0.00000000000E+00 0. -1.
         21   -1    0    0  501  503 -0.00000000000E+00 -0.00000000000E+00 -0.82358936261E+03  0.82358936261E+03  0.00000000000E+00 0. -1.
          6    1    1    2  501    0  0.10704121206E+03  0.73808280802E+02 -0.57165096948E+03  0.61124407097E+03  0.17300000000E+03 0. -1.
         -6    1    1    2    0  502 -0.10704121206E+03 -0.73808280802E+02 -0.18170448594E+03  0.28257919882E+03  0.17300000000E+03 0. -1.
<mgrwt>
<rscale>  2 0.21641276E+03</rscale>
<asrwt>0</asrwt>
<pdfrwt beam="1">  1       21 0.10805215E-01 0.21641276E+03</pdfrwt>
<pdfrwt beam="2">  1       21 0.12670607E+00 0.21641276E+03</pdfrwt>
<totfact> 0.32175904E+04</totfact>
</mgrwt>
</event>
<event>
 4    1  0.3935877E+000  0.2690576E+03  0.7546771E-02  0.1101820E+00
         21   -1    0    0  501  502  0.00000000000E+00  0.00000000000E+00  0.77461087728E+03  0.77461087728E+03  0.00000000000E+00 0.  1.
         21   -1    0    0  502  503 -0.00000000000E+00 -0.00000000000E+00 -0.16721657188E+03  0.16721657188E+03  0.00000000000E+00 0.  1.
          6    1    1    2  501    0  0.35089369741E+02  0.20305601924E+03  0.61645910571E+03  0.67261715696E+03  0.17300000000E+03 0.  1.
         -6    1    1    2    0  503 -0.35089369741E+02 -0.20305601924E+03 -0.90648003120E+01  0.26921029220E+03  0.17300000000E+03 0.  1.
<mgrwt>
<rscale>  2 0.26905763E+03</rscale>
<asrwt>0</asrwt>
<pdfrwt beam="1">  1       21 0.11917090E+00 0.26905763E+03</pdfrwt>
<pdfrwt beam="2">  1       21 0.25725627E-01 0.26905763E+03</pdfrwt>
<totfact> 0.73267428E+03</totfact>
</mgrwt>
</event>
<event>
 4    1  0.3935877E+000  0.2802450E+03  0.7546771E-02  0.1095555E+00
         21   -1    0    0  503  502  0.00000000000E+00  0.00000000000E+00  0.44292577787E+03  0.44292577787E+03  0.00000000000E+00 0.  1.
         21   -1    0    0  501  503 -0.00000000000E+00 -0.00000000000E+00 -0.18851057435E+03  0.18851057435E+03  0.00000000000E+00 0.  1.
          6    1    1    2  501    0 -0.21456296051E+03 -0.50704717868E+02  0.50265939225E+02  0.28471722302E+03  0.17300000000E+03 0.  1.
         -6    1    1    2    0  502  0.21456296051E+03  0.50704717868E+02  0.20414926430E+03  0.34671912920E+03  0.17300000000E+03 0.  1.
<mgrwt>
<rscale>  2 0.28024495E+03</rscale>
<asrwt>0</asrwt>
<pdfrwt beam="1">  1       21 0.68142427E-01 0.28024495E+03</pdfrwt>
<pdfrwt beam="2">  1       21 0.29001627E-01 0.28024495E+03</pdfrwt>
<totfact> 0.21398888E+04</totfact>
</mgrwt>
</event>
<event>
 4    1  0.3935877E+000  0.2428392E+03  0.7546771E-02  0.1117916E+00
         21   -1    0    0  503  502  0.00000000000E+00  0.00000000000E+00  0.18715233051E+03  0.18715233051E+03  0.00000000000E+00 0.  1.
         21   -1    0    0  501  503 -0.00000000000E+00 -0.00000000000E+00 -0.35181518168E+03  0.35181518168E+03  0.00000000000E+00 0. -1.
          6    1    1    2  501    0  0.14025705399E+03 -0.96797826730E+02 -0.16939262651E+03  0.29608228986E+03  0.17300000000E+03 0. -1.
         -6    1    1    2    0  502 -0.14025705399E+03  0.96797826730E+02  0.47297753423E+01  0.24288522233E+03  0.17300000000E+03 0.  1.
<mgrwt>
<rscale>  2 0.24283917E+03</rscale>
<asrwt>0</asrwt>
<pdfrwt beam="1">  1       21 0.28792666E-01 0.24283917E+03</pdfrwt>
<pdfrwt beam="2">  1       21 0.54125412E-01 0.24283917E+03</pdfrwt>
<totfact> 0.36342144E+04</totfact>
</mgrwt>
</event>
<event>
 4    1  0.3935877E+000  0.2606206E+03  0.7546771E-02  0.1106771E+00
         21   -1    0    0  503  502  0.00000000000E+00  0.00000000000E+00  0.14429069594E+04  0.14429069594E+04  0.00000000000E+00 0. -1.
         21   -1    0    0  501  503 -0.00000000000E+00 -0.00000000000E+00 -0.52225047472E+02  0.52225047472E+02  0.00000000000E+00 0. -1.
          6    1    1    2  501    0  0.19075678015E+03 -0.40074328408E+02  0.46055792859E+03  0.52918494551E+03  0.17300000000E+03 0. -1.
         -6    1    1    2    0  502 -0.19075678015E+03  0.40074328408E+02  0.93012398335E+03  0.96594706137E+03  0.17300000000E+03 0. -1.
<mgrwt>
<rscale>  2 0.26062061E+03</rscale>
<asrwt>0</asrwt>
<pdfrwt beam="1">  1       21 0.22198566E+00 0.26062061E+03</pdfrwt>
<pdfrwt beam="2">  1       21 0.80346238E-02 0.26062061E+03</pdfrwt>
<totfact> 0.11058193E+04</totfact>
</mgrwt>
</event>
<event>
 4    1  0.3935877E+000  0.2183655E+03  0.7546771E-02  0.1135108E+00
         21   -1    0    0  501  502  0.00000000000E+00  0.00000000000E+00  0.17884651259E+03  0.17884651259E+03  0.00000000000E+00 0. -1.
         21   -1    0    0  502  503 -0.00000000000E+00 -0.00000000000E+00 -0.26970422537E+03  0.26970422537E+03  0.00000000000E+00 0. -1.
          6    1    1    2  501    0  0.12690128289E+03  0.40626809446E+02 -0.21432764665E+02  0.21941475941E+03  0.17300000000E+03 0. -1.
         -6    1    1    2    0  503 -0.12690128289E+03 -0.40626809446E+02 -0.69424948118E+02  0.22913597855E+03  0.17300000000E+03 0. -1.
<mgrwt>
<rscale>  2 0.21836546E+03</rscale>
<asrwt>0</asrwt>
<pdfrwt beam="1">  1       21 0.27514848E-01 0.21836546E+03</pdfrwt>
<pdfrwt beam="2">  1       21 0.41492958E-01 0.21836546E+03</pdfrwt>
<totfact> 0.69692502E+04</totfact>
</mgrwt>
</event>
<event>
 4    1  0.3935877E+000  0.1880830E+03  0.7546771E-02  0.1160202E+00
         21   -1    0    0  503  502  0.00000000000E+00  0.00000000000E+00  0.20363421118E+04  0.20363421118E+04  0.00000000000E+00 0.  1.
         21   -1    0    0  501  503 -0.00000000000E+00 -0.00000000000E+00 -0.14370092591E+03  0.14370092591E+03  0.00000000000E+00 0.  1.
          6    1    1    2  501    0 -0.43262047565E+02 -0.59788178732E+02 -0.75693249839E+02  0.20274293859E+03  0.17300000000E+03 0.  1.
         -6    1    1    2    0  502  0.43262047565E+02  0.59788178732E+02  0.19683344357E+04  0.19773000991E+04  0.17300000000E+03 0.  1.
<mgrwt>
<rscale>  2 0.18808304E+03</rscale>
<asrwt>0</asrwt>
<pdfrwt beam="1">  1       21 0.31328338E+00 0.18808304E+03</pdfrwt>
<pdfrwt beam="2">  1       21 0.22107836E-01 0.18808304E+03</pdfrwt>
<totfact> 0.55110297E+02</totfact>
</mgrwt>
</event>
<event>
 4    1  0.3935877E+000  0.1828429E+03  0.7546771E-02  0.1165080E+00
         21   -1    0    0  503  502  0.00000000000E+00  0.00000000000E+00  0.17623850977E+04  0.17623850977E+04  0.00000000000E+00 0. -1.
         21   -1    0    0  501  503 -0.00000000000E+00 -0.00000000000E+00 -0.36498907819E+02  0.36498907819E+02  0.00000000000E+00 0. -1.
          6    1    1    2  501    0  0.52063209254E+02 -0.28141522321E+02  0.23961436946E+03  0.30140764603E+03  0.17300000000E+03 0. -1.
         -6    1    1    2    0  502 -0.52063209254E+02  0.28141522321E+02  0.14862718205E+04  0.14974763595E+04  0.17300000000E+03 0. -1.
<mgrwt>
<rscale>  2 0.18284289E+03</rscale>
<asrwt>0</asrwt>
<pdfrwt beam="1">  1       21 0.27113610E+00 0.18284289E+03</pdfrwt>
<pdfrwt beam="2">  1       21 0.56152180E-02 0.18284289E+03</pdfrwt>
<totfact> 0.11167251E+04</totfact>
</mgrwt>
</event>
<event>
 4    1  0.3935877E+000  0.2042441E+03  0.7546771E-02  0.1146207E+00
         21   -1    0    0  503  502  0.00000000000E+00  0.00000000000E+00  0.43151148233E+03  0.43151148233E+03  0.00000000000E+00 0. -1.
         21   -1    0    0  501  503 -0.00000000000E+00 -0.00000000000E+00 -0.13258999045E+03  0.13258999045E+03  0.00000000000E+00 0. -1.
          6    1    1    2  501    0  0.10855909217E+03  0.12481715007E+01  0.26627630837E+01  0.20426141274E+03  0.17300000000E+03 0. -1.
         -6    1    1    2    0  502 -0.10855909217E+03 -0.12481715007E+01  0.29625872880E+03  0.35984006005E+03  0.17300000000E+03 0. -1.
<mgrwt>
<rscale>  2 0.20424406E+03</rscale>
<asrwt>0</asrwt>
<pdfrwt beam="1">  1       21 0.66386381E-01 0.20424406E+03</pdfrwt>
<pdfrwt beam="2">  1       21 0.20398460E-01 0.20424406E+03</pdfrwt>
<totfact> 0.46037878E+04</totfact>
</mgrwt>
</event>
<event>
 4    1  0.3935877E+000  0.1767287E+03  0.7546771E-02  0.1171007E+00
         21   -1    0    0  503  502  0.00000000000E+00  0.00000000000E+00  0.16184352015E+04  0.16184352015E+04  0.00000000000E+00 0. -1.
         21   -1    0    0  501  503 -0.00000000000E+00 -0.00000000000E+00 -0.23420299508E+02  0.23420299508E+02  0.00000000000E+00 0. -1.
          6    1    1    2  501    0 -0.50278258692E+01 -0.35759895550E+02  0.45310784502E+03  0.48635354258E+03  0.17300000000E+03 0. -1.
         -6    1    1    2    0  502  0.50278258692E+01  0.35759895550E+02  0.11419070570E+04  0.11555019584E+04  0.17300000000E+03 0. -1.
<mgrwt>
<rscale>  2 0.17672874E+03</rscale>
<asrwt>0</asrwt>
<pdfrwt beam="1">  1       21 0.24898994E+00 0.17672874E+03</pdfrwt>
<pdfrwt beam="2">  1       21 0.36031243E-02 0.17672874E+03</pdfrwt>
<totfact> 0.31883433E+04</totfact>
</mgrwt>
</event>
<event>
 4    1  0.3935877E+000  0.1920486E+03  0.7546771E-02  0.1156627E+00
         21   -1    0    0  501  502  0.00000000000E+00  0.00000000000E+00  0.35092060579E+03  0.35092060579E+03  0.00000000000E+00 0.  1.
         21   -1    0    0  502  503 -0.00000000000E+00 -0.00000000000E+00 -0.12897504726E+03  0.12897504726E+03  0.00000000000E+00 0.  1.
          6    1    1    2  501    0 -0.43601303974E+02  0.71081497810E+02  0.21420442079E+03  0.28769113112E+03  0.17300000000E+03 0.  1.
         -6    1    1    2    0  503  0.43601303974E+02 -0.71081497810E+02  0.77411377422E+01  0.19220452194E+03  0.17300000000E+03 0.  1.
<mgrwt>
<rscale>  2 0.19204857E+03</rscale>
<asrwt>0</asrwt>
<pdfrwt beam="1">  1       21 0.53987785E-01 0.19204857E+03</pdfrwt>
<pdfrwt beam="2">  1       21 0.19842315E-01 0.19204857E+03</pdfrwt>
<totfact> 0.76019920E+04</totfact>
</mgrwt>
</event>
<event>
 4    1  0.3935877E+000  0.1993576E+03  0.7546771E-02  0.1150282E+00
         21   -1    0    0  501  502  0.00000000000E+00  0.00000000000E+00  0.44227527922E+03  0.44227527922E+03  0.00000000000E+00 0.  1.
         21   -1    0    0  502  503 -0.00000000000E+00 -0.00000000000E+00 -0.90488376649E+02  0.90488376649E+02  0.00000000000E+00 0.  1.
          6    1    1    2  501    0  0.85010403014E+02  0.50869135775E+02  0.19806845885E+03  0.28102411282E+03  0.17300000000E+03 0.  1.
         -6    1    1    2    0  503 -0.85010403014E+02 -0.50869135775E+02  0.15371844373E+03  0.25173954306E+03  0.17300000000E+03 0.  1.
<mgrwt>
<rscale>  2 0.19935756E+03</rscale>
<asrwt>0</asrwt>
<pdfrwt beam="1">  1       21 0.68042350E-01 0.19935756E+03</pdfrwt>
<pdfrwt beam="2">  1       21 0.13921289E-01 0.19935756E+03</pdfrwt>
<totfact> 0.88338325E+04</totfact>
</mgrwt>
</event>
<event>
 4    1  0.3935877E+000  0.1757674E+03  0.7546771E-02  0.1171963E+00
         21   -1    0    0  501  502  0.00000000000E+00  0.00000000000E+00  0.74042589635E+02  0.74042589635E+02  0.00000000000E+00 0. -1.
         21   -1    0    0  502  503 -0.00000000000E+00 -0.00000000000E+00 -0.10487079866E+04  0.10487079866E+04  0.00000000000E+00 0. -1.
          6    1    1    2  501    0 -0.18796938068E+02 -0.24735856572E+02 -0.51721917936E+02  0.18321938837E+03  0.17300000000E+03 0. -1.
         -6    1    1    2    0  503  0.18796938068E+02  0.24735856572E+02 -0.92294347902E+03  0.93953118785E+03  0.17300000000E+03 0. -1.
<mgrwt>
<rscale>  2 0.17576742E+03</rscale>
<asrwt>0</asrwt>
<pdfrwt beam="1">  1       21 0.11391169E-01 0.17576742E+03</pdfrwt>
<pdfrwt beam="2">  1       21 0.16133967E+00 0.17576742E+03</pdfrwt>
<totfact> 0.16045167E+04</totfact>
</mgrwt>
</event>
<event>
 4    1  0.3935877E+000  0.1892325E+03  0.7546771E-02  0.1159155E+00
         21   -1    0    0  501  502  0.00000000000E+00  0.00000000000E+00  0.28475006685E+03  0.28475006685E+03  0.00000000000E+00 0.  1.
         21   -1    0    0  502  503 -0.00000000000E+00 -0.00000000000E+00 -0.13164890936E+03  0.13164890936E+03  0.00000000000E+00 0.  1.
          6    1    1    2  501    0  0.61726751575E+02 -0.45494532088E+02  0.12060068059E+03  0.22439578532E+03  0.17300000000E+03 0.  1.
         -6    1    1    2    0  503 -0.61726751575E+02  0.45494532088E+02  0.32500476897E+02  0.19200319088E+03  0.17300000000E+03 0.  1.
<mgrwt>
<rscale>  2 0.18923251E+03</rscale>
<asrwt>0</asrwt>
<pdfrwt beam="1">  1       21 0.43807702E-01 0.18923251E+03</pdfrwt>
<pdfrwt beam="2">  1       21 0.20253678E-01 0.18923251E+03</pdfrwt>
<totfact> 0.11302258E+05</totfact>
</mgrwt>
</event>
<event>
 4    1  0.3935877E+000  0.1852095E+03  0.7546771E-02  0.1162854E+00
         21   -1    0    0  503  502  0.00000000000E+00  0.00000000000E+00  0.38461472822E+02  0.38461472822E+02  0.00000000000E+00 0.  1.
         21   -1    0    0  501  503 -0.00000000000E+00 -0.00000000000E+00 -0.89457030131E+03  0.89457030131E+03  0.00000000000E+00 0. -1.
          6    1    1    2  501    0 -0.55410201228E+02  0.36100864829E+02 -0.45369415041E+03  0.49004177879E+03  0.17300000000E+03 0. -1.
         -6    1    1    2    0  502  0.55410201228E+02 -0.36100864829E+02 -0.40241467807E+03  0.44298999534E+03  0.17300000000E+03 0.  1.
<mgrwt>
<rscale>  2 0.18520951E+03</rscale>
<asrwt>0</asrwt>
<pdfrwt beam="1">  1       21 0.59171501E-02 0.18520951E+03</pdfrwt>
<pdfrwt beam="2">  1       21 0.13762619E+00 0.18520951E+03</pdfrwt>
<totfact> 0.75787341E+04</totfact>
</mgrwt>
</event>
<event>
 4    1  0.3935877E+000  0.2518900E+03  0.7546771E-02  0.1112116E+00
         21   -1    0    0  503  502  0.00000000000E+00  0.00000000000E+00  0.19906409064E+03  0.19906409064E+03  0.00000000000E+00 0. -1.
         21   -1    0    0  501  503 -0.00000000000E+00 -0.00000000000E+00 -0.48065549636E+03  0.48065549636E+03  0.00000000000E+00 0. -1.
          6    1    1    2  501    0 -0.50894924852E+02 -0.17586725389E+03 -0.33805363558E+03  0.42157899010E+03  0.17300000000E+03 0. -1.
         -6    1    1    2    0  502  0.50894924852E+02  0.17586725389E+03  0.56462229860E+02  0.25814059690E+03  0.17300000000E+03 0. -1.
<mgrwt>
<rscale>  2 0.25189002E+03</rscale>
<asrwt>0</asrwt>
<pdfrwt beam="1">  1       21 0.30625245E-01 0.25189002E+03</pdfrwt>
<pdfrwt beam="2">  1       21 0.73946999E-01 0.25189002E+03</pdfrwt>
<totfact> 0.16237401E+04</totfact>
</mgrwt>
</event>
<event>
 4    1  0.3935877E+000  0.1859965E+03  0.7546771E-02  0.1162123E+00
         21   -1    0    0  501  502  0.00000000000E+00  0.00000000000E+00  0.50507839115E+03  0.50507839115E+03  0.00000000000E+00 0. -1.
         21   -1    0    0  502  503 -0.00000000000E+00 -0.00000000000E+00 -0.72255512790E+02  0.72255512790E+02  0.00000000000E+00 0. -1.
          6    1    1    2  501    0 -0.13169842203E+02 -0.67024238241E+02  0.28227717360E+03  0.33804599686E+03  0.17300000000E+03 0.  1.
         -6    1    1    2    0  503  0.13169842203E+02  0.67024238241E+02  0.15054570477E+03  0.23928790709E+03  0.17300000000E+03 0.  1.
<mgrwt>
<rscale>  2 0.18599649E+03</rscale>
<asrwt>0</asrwt>
<pdfrwt beam="1">  1       21 0.77704366E-01 0.18599649E+03</pdfrwt>
<pdfrwt beam="2">  1       21 0.11116233E-01 0.18599649E+03</pdfrwt>
<totfact> 0.99044189E+04</totfact>
</mgrwt>
</event>
<event>
 4    1  0.3935877E+000  0.1738484E+03  0.7546771E-02  0.1173893E+00
         21   -1    0    0  503  502  0.00000000000E+00  0.00000000000E+00  0.49637672780E+02  0.49637672780E+02  0.00000000000E+00 0.  1.
         21   -1    0    0  501  503 -0.00000000000E+00 -0.00000000000E+00 -0.67377817171E+03  0.67377817171E+03  0.00000000000E+00 0.  1.
          6    1    1    2  501    0  0.94296671157E+01 -0.14330100114E+02 -0.42432987517E+03  0.45856200601E+03  0.17300000000E+03 0.  1.
         -6    1    1    2    0  502 -0.94296671157E+01  0.14330100114E+02 -0.19981062375E+03  0.26485383847E+03  0.17300000000E+03 0.  1.
<mgrwt>
<rscale>  2 0.17384841E+03</rscale>
<asrwt>0</asrwt>
<pdfrwt beam="1">  1       21 0.76365655E-02 0.17384841E+03</pdfrwt>
<pdfrwt beam="2">  1       21 0.10365817E+00 0.17384841E+03</pdfrwt>
<totfact> 0.98813140E+04</totfact>
</mgrwt>
</event>
<event>
 4    1  0.3935877E+000  0.2569573E+03  0.7546771E-02  0.1108985E+00
         21   -1    0    0  501  502  0.00000000000E+00  0.00000000000E+00  0.77229850578E+02  0.77229850578E+02  0.00000000000E+00 0. -1.
         21   -1    0    0  502  503 -0.00000000000E+00 -0.00000000000E+00 -0.12552880204E+04  0.12552880204E+04  0.00000000000E+00 0. -1.
          6    1    1    2  501    0  0.57655134905E+02  0.18103574680E+03 -0.21276824636E+03  0.33361262395E+03  0.17300000000E+03 0. -1.
         -6    1    1    2    0  503 -0.57655134905E+02 -0.18103574680E+03 -0.96528992343E+03  0.99890524700E+03  0.17300000000E+03 0. -1.
<mgrwt>
<rscale>  2 0.25695730E+03</rscale>
<asrwt>0</asrwt>
<pdfrwt beam="1">  1       21 0.11881516E-01 0.25695730E+03</pdfrwt>
<pdfrwt beam="2">  1       21 0.19312123E+00 0.25695730E+03</pdfrwt>
<totfact> 0.84684454E+03</totfact>
</mgrwt>
</event>
<event>
 4    1  0.3935877E+000  0.1880166E+03  0.7546771E-02  0.1160263E+00
         21   -1    0    0  501  502  0.00000000000E+00  0.00000000000E+00  0.23868130875E+02  0.23868130875E+02  0.00000000000E+00 0.  1.
         21   -1    0    0  502  503 -0.00000000000E+00 -0.00000000000E+00 -0.15022306980E+04  0.15022306980E+04  0.00000000000E+00 0. -1.
          6    1    1    2  501    0  0.73628986630E+02 -0.66104872139E-01 -0.64860598742E+03  0.67530730705E+03  0.17300000000E+03 0. -1.
         -6    1    1    2    0  503 -0.73628986630E+02  0.66104872139E-01 -0.82975657972E+03  0.85079152183E+03  0.17300000000E+03 0.  1.
<mgrwt>
<rscale>  2 0.18801657E+03</rscale>
<asrwt>0</asrwt>
<pdfrwt beam="1">  1       21 0.36720194E-02 0.18801657E+03</pdfrwt>
<pdfrwt beam="2">  1       21 0.23111246E+00 0.18801657E+03</pdfrwt>
<totfact> 0.39073317E+04</totfact>
</mgrwt>
</event>
<event>
 4    1  0.3935877E+000  0.3080852E+03  0.7546771E-02  0.1081267E+00
         21   -1    0    0  503  502  0.00000000000E+00  0.00000000000E+00  0.24216892764E+03  0.24216892764E+03  0.00000000000E+00 0.  1.
         21   -1    0    0  501  503 -0.00000000000E+00 -0.00000000000E+00 -0.40007952617E+03  0.40007952617E+03  0.00000000000E+00 0. -1.
          6    1    1    2  501    0  0.11965419095E+03 -0.22510079674E+03 -0.12474953485E+03  0.33238372486E+03  0.17300000000E+03 0. -1.
         -6    1    1    2    0  502 -0.11965419095E+03  0.22510079674E+03 -0.33161063678E+02  0.30986472895E+03  0.17300000000E+03 0.  1.
<mgrwt>
<rscale>  2 0.30808521E+03</rscale>
<asrwt>0</asrwt>
<pdfrwt beam="1">  1       21 0.37256759E-01 0.30808521E+03</pdfrwt>
<pdfrwt beam="2">  1       21 0.61550695E-01 0.30808521E+03</pdfrwt>
<totfact> 0.16072054E+04</totfact>
</mgrwt>
</event>
<event>
 4    1  0.3935877E+000  0.1748424E+03  0.7546771E-02  0.1172890E+00
         21   -1    0    0  501  502  0.00000000000E+00  0.00000000000E+00  0.17000236549E+04  0.17000236549E+04  0.00000000000E+00 0.  1.
         21   -1    0    0  502  503 -0.00000000000E+00 -0.00000000000E+00 -0.31636979756E+02  0.31636979756E+02  0.00000000000E+00 0.  1.
          6    1    1    2  501    0  0.17968009379E+02 -0.17833395105E+02  0.14030204728E+04  0.14138728113E+04  0.17300000000E+03 0.  1.
         -6    1    1    2    0  503 -0.17968009379E+02  0.17833395105E+02  0.26536620228E+03  0.31778782332E+03  0.17300000000E+03 0.  1.
<mgrwt>
<rscale>  2 0.17484244E+03</rscale>
<asrwt>0</asrwt>
<pdfrwt beam="1">  1       21 0.26154203E+00 0.17484244E+03</pdfrwt>
<pdfrwt beam="2">  1       21 0.48672290E-02 0.17484244E+03</pdfrwt>
<totfact> 0.16301741E+04</totfact>
</mgrwt>
</event>
<event>
 4    1  0.3935877E+000  0.1800092E+03  0.7546771E-02  0.1167794E+00
         21   -1    0    0  503  502  0.00000000000E+00  0.00000000000E+00  0.32073304001E+03  0.32073304001E+03  0.00000000000E+00 0.  1.
         21   -1    0    0  501  503 -0.00000000000E+00 -0.00000000000E+00 -0.19022962338E+03  0.19022962338E+03  0.00000000000E+00 0.  1.
          6    1    1    2  501    0  0.38294961375E+02  0.31746147590E+02 -0.10969435165E+03  0.21079889169E+03  0.17300000000E+03 0.  1.
         -6    1    1    2    0  502 -0.38294961375E+02 -0.31746147590E+02  0.24019776829E+03  0.30016377170E+03  0.17300000000E+03 0.  1.
<mgrwt>
<rscale>  2 0.18000923E+03</rscale>
<asrwt>0</asrwt>
<pdfrwt beam="1">  1       21 0.49343545E-01 0.18000923E+03</pdfrwt>
<pdfrwt beam="2">  1       21 0.29266096E-01 0.18000923E+03</pdfrwt>
<totfact> 0.44070416E+04</totfact>
</mgrwt>
</event>
<event>
 4    1  0.3935877E+000  0.2397195E+03  0.7546771E-02  0.1119980E+00
         21   -1    0    0  503  502  0.00000000000E+00  0.00000000000E+00  0.30856119978E+03  0.30856119978E+03  0.00000000000E+00 0. -1.
         21   -1    0    0  501  503 -0.00000000000E+00 -0.00000000000E+00 -0.25586973371E+03  0.25586973371E+03  0.00000000000E+00 0.  1.
          6    1    1    2  501    0  0.14630178792E+03 -0.78308503746E+02 -0.12087834944E+03  0.26847161912E+03  0.17300000000E+03 0.  1.
         -6    1    1    2    0  502 -0.14630178792E+03  0.78308503746E+02  0.17356981550E+03  0.29595931437E+03  0.17300000000E+03 0. -1.
<mgrwt>
<rscale>  2 0.23971949E+03</rscale>
<asrwt>0</asrwt>
<pdfrwt beam="1">  1       21 0.47470954E-01 0.23971949E+03</pdfrwt>
<pdfrwt beam="2">  1       21 0.39364574E-01 0.23971949E+03</pdfrwt>
<totfact> 0.25755971E+04</totfact>
</mgrwt>
</event>
<event>
 4    1  0.3935877E+000  0.2391882E+03  0.7546771E-02  0.1120335E+00
         21   -1    0    0  501  502  0.00000000000E+00  0.00000000000E+00  0.61723788433E+03  0.61723788433E+03  0.00000000000E+00 0.  1.
         21   -1    0    0  502  503 -0.00000000000E+00 -0.00000000000E+00 -0.17071070444E+03  0.17071070444E+03  0.00000000000E+00 0. -1.
          6    1    1    2  501    0  0.58768103806E+02  0.15436422736E+03  0.48960944116E+03  0.54491137774E+03  0.17300000000E+03 0.  1.
         -6    1    1    2    0  503 -0.58768103806E+02 -0.15436422736E+03 -0.43082261270E+02  0.24303721104E+03  0.17300000000E+03 0. -1.
<mgrwt>
<rscale>  2 0.23918822E+03</rscale>
<asrwt>0</asrwt>
<pdfrwt beam="1">  1       21 0.94959673E-01 0.23918822E+03</pdfrwt>
<pdfrwt beam="2">  1       21 0.26263186E-01 0.23918822E+03</pdfrwt>
<totfact> 0.12413097E+04</totfact>
</mgrwt>
</event>
<event>
 4    1  0.3935877E+000  0.2751103E+03  0.7546771E-02  0.1098390E+00
         21   -1    0    0  501  502  0.00000000000E+00  0.00000000000E+00  0.53095145170E+03  0.53095145170E+03  0.00000000000E+00 0. -1.
         21   -1    0    0  502  503 -0.00000000000E+00 -0.00000000000E+00 -0.16745424583E+03  0.16745424583E+03  0.00000000000E+00 0. -1.
          6    1    1    2  501    0  0.20795278296E+03  0.50122829994E+02  0.31642471046E+03  0.41929733533E+03  0.17300000000E+03 0. -1.
         -6    1    1    2    0  503 -0.20795278296E+03 -0.50122829994E+02  0.47072495400E+02  0.27910836220E+03  0.17300000000E+03 0. -1.
<mgrwt>
<rscale>  2 0.27511027E+03</rscale>
<asrwt>0</asrwt>
<pdfrwt beam="1">  1       21 0.81684838E-01 0.27511027E+03</pdfrwt>
<pdfrwt beam="2">  1       21 0.25762192E-01 0.27511027E+03</pdfrwt>
<totfact> 0.17950931E+04</totfact>
</mgrwt>
</event>
<event>
 4    1  0.3935877E+000  0.1823970E+03  0.7546771E-02  0.1165503E+00
         21   -1    0    0  503  502  0.00000000000E+00  0.00000000000E+00  0.18220634560E+03  0.18220634560E+03  0.00000000000E+00 0. -1.
         21   -1    0    0  501  503 -0.00000000000E+00 -0.00000000000E+00 -0.19603679127E+03  0.19603679127E+03  0.00000000000E+00 0. -1.
          6    1    1    2  501    0 -0.55319633213E+02 -0.16715125615E+02 -0.56450773509E+02  0.19093283393E+03  0.17300000000E+03 0. -1.
         -6    1    1    2    0  502  0.55319633213E+02  0.16715125615E+02  0.42620327833E+02  0.18731030294E+03  0.17300000000E+03 0. -1.
<mgrwt>
<rscale>  2 0.18239698E+03</rscale>
<asrwt>0</asrwt>
<pdfrwt beam="1">  1       21 0.28031745E-01 0.18239698E+03</pdfrwt>
<pdfrwt beam="2">  1       21 0.30159506E-01 0.18239698E+03</pdfrwt>
<totfact> 0.12866141E+05</totfact>
</mgrwt>
</event>
<event>
 4    1  0.3935877E+000  0.2173866E+03  0.7546771E-02  0.1135847E+00
         21   -1    0    0  501  502  0.00000000000E+00  0.00000000000E+00  0.99297103308E+03  0.99297103308E+03  0.00000000000E+00 0. -1.
         21   -1    0    0  502  503 -0.00000000000E+00 -0.00000000000E+00 -0.61929065711E+02  0.61929065711E+02  0.00000000000E+00 0. -1.
          6    1    1    2  501    0 -0.10169195103E+03 -0.83586257596E+02  0.71930997749E+03  0.75144112150E+03  0.17300000000E+03 0. -1.
         -6    1    1    2    0  503  0.10169195103E+03  0.83586257596E+02  0.21173198988E+03  0.30345897730E+03  0.17300000000E+03 0. -1.
<mgrwt>
<rscale>  2 0.21738656E+03</rscale>
<asrwt>0</asrwt>
<pdfrwt beam="1">  1       21 0.15276476E+00 0.21738656E+03</pdfrwt>
<pdfrwt beam="2">  1       21 0.95275493E-02 0.21738656E+03</pdfrwt>
<totfact> 0.24779844E+04</totfact>
</mgrwt>
</event>
<event>
 4    1  0.3935877E+000  0.3440279E+03  0.7546771E-02  0.1065093E+00
         21   -1    0    0  501  502  0.00000000000E+00  0.00000000000E+00  0.33928540261E+03  0.33928540261E+03  0.00000000000E+00 0. -1.
         21   -1    0    0  502  503 -0.00000000000E+00 -0.00000000000E+00 -0.45948711803E+03  0.45948711803E+03  0.00000000000E+00 0.  1.
          6    1    1    2  501    0  0.12474023089E+03  0.26993711590E+03  0.13588879538E+03  0.36989314194E+03  0.17300000000E+03 0. -1.
         -6    1    1    2    0  503 -0.12474023089E+03 -0.26993711590E+03 -0.25609051081E+03  0.42887937869E+03  0.17300000000E+03 0.  1.
<mgrwt>
<rscale>  2 0.34402786E+03</rscale>
<asrwt>0</asrwt>
<pdfrwt beam="1">  1       21 0.52197755E-01 0.34402786E+03</pdfrwt>
<pdfrwt beam="2">  1       21 0.70690325E-01 0.34402786E+03</pdfrwt>
<totfact> 0.57916695E+03</totfact>
</mgrwt>
</event>
<event>
 4    1  0.3935877E+000  0.1948327E+03  0.7546771E-02  0.1154173E+00
         21   -1    0    0  503  502  0.00000000000E+00  0.00000000000E+00  0.11485660921E+04  0.11485660921E+04  0.00000000000E+00 0.  1.
         21   -1    0    0  501  503 -0.00000000000E+00 -0.00000000000E+00 -0.43404171884E+02  0.43404171884E+02  0.00000000000E+00 0.  1.
          6    1    1    2  501    0 -0.47558275871E+02 -0.75953936301E+02  0.26148699393E+03  0.32609084323E+03  0.17300000000E+03 0.  1.
         -6    1    1    2    0  502  0.47558275871E+02  0.75953936301E+02  0.84367492623E+03  0.86587942070E+03  0.17300000000E+03 0.  1.
<mgrwt>
<rscale>  2 0.19483272E+03</rscale>
<asrwt>0</asrwt>
<pdfrwt beam="1">  1       21 0.17670245E+00 0.19483272E+03</pdfrwt>
<pdfrwt beam="2">  1       21 0.66775658E-02 0.19483272E+03</pdfrwt>
<totfact> 0.31404311E+04</totfact>
</mgrwt>
</event>
<event>
 4    1  0.3935877E+000  0.1775335E+03  0.7546771E-02  0.1170212E+00
         21   -1    0    0  501  502  0.00000000000E+00  0.00000000000E+00  0.43922963940E+03  0.43922963940E+03  0.00000000000E+00 0. -1.
         21   -1    0    0  502  503 -0.00000000000E+00 -0.00000000000E+00 -0.83567501505E+02  0.83567501505E+02  0.00000000000E+00 0. -1.
          6    1    1    2  501    0 -0.99444424258E+01 -0.38603756209E+02  0.27609732441E+03  0.32824971359E+03  0.17300000000E+03 0. -1.
         -6    1    1    2    0  503  0.99444424258E+01  0.38603756209E+02  0.79564813488E+02  0.19454742731E+03  0.17300000000E+03 0. -1.
<mgrwt>
<rscale>  2 0.17753350E+03</rscale>
<asrwt>0</asrwt>
<pdfrwt beam="1">  1       21 0.67573789E-01 0.17753350E+03</pdfrwt>
<pdfrwt beam="2">  1       21 0.12856539E-01 0.17753350E+03</pdfrwt>
<totfact> 0.10443350E+05</totfact>
</mgrwt>
</event>
<event>
 4    1  0.3935877E+000  0.2382142E+03  0.7546771E-02  0.1120988E+00
         21   -1    0    0  503  502  0.00000000000E+00  0.00000000000E+00  0.15359815551E+03  0.15359815551E+03  0.00000000000E+00 0. -1.
         21   -1    0    0  501  503 -0.00000000000E+00 -0.00000000000E+00 -0.71567445615E+03  0.71567445615E+03  0.00000000000E+00 0.  1.
          6    1    1    2  501    0 -0.47809645561E+02  0.15662450309E+03 -0.58334678292E+03  0.63011067783E+03  0.17300000000E+03 0.  1.
         -6    1    1    2    0  502  0.47809645561E+02 -0.15662450309E+03  0.21270482275E+02  0.23916193383E+03  0.17300000000E+03 0. -1.
<mgrwt>
<rscale>  2 0.23821418E+03</rscale>
<asrwt>0</asrwt>
<pdfrwt beam="1">  1       21 0.23630486E-01 0.23821418E+03</pdfrwt>
<pdfrwt beam="2">  1       21 0.11010376E+00 0.23821418E+03</pdfrwt>
<totfact> 0.10663821E+04</totfact>
</mgrwt>
</event>
<event>
 4    1  0.3935877E+000  0.1950831E+03  0.7546771E-02  0.1153955E+00
         21   -1    0    0  503  502  0.00000000000E+00  0.00000000000E+00  0.17778617030E+03  0.17778617030E+03  0.00000000000E+00 0.  1.
         21   -1    0    0  501  503 -0.00000000000E+00 -0.00000000000E+00 -0.23001166496E+03  0.23001166496E+03  0.00000000000E+00 0. -1.
          6    1    1    2  501    0  0.78491882825E+02  0.44355685245E+02 -0.79804193854E+02  0.21077502660E+03  0.17300000000E+03 0.  1.
         -6    1    1    2    0  502 -0.78491882825E+02 -0.44355685245E+02  0.27578699193E+02  0.19702280866E+03  0.17300000000E+03 0. -1.
<mgrwt>
<rscale>  2 0.19508307E+03</rscale>
<asrwt>0</asrwt>
<pdfrwt beam="1">  1       21 0.27351719E-01 0.19508307E+03</pdfrwt>
<pdfrwt beam="2">  1       21 0.35386410E-01 0.19508307E+03</pdfrwt>
<totfact> 0.98058546E+04</totfact>
</mgrwt>
</event>
<event>
 4    1  0.3935877E+000  0.3000211E+03  0.7546771E-02  0.1085230E+00
         21   -1    0    0  503  502  0.00000000000E+00  0.00000000000E+00  0.14384649843E+03  0.14384649843E+03  0.00000000000E+00 0.  1.
         21   -1    0    0  501  503 -0.00000000000E+00 -0.00000000000E+00 -0.84903021400E+03  0.84903021400E+03  0.00000000000E+00 0.  1.
          6    1    1    2  501    0 -0.24436059463E+03 -0.19275716511E+02 -0.60717174842E+03  0.67725193653E+03  0.17300000000E+03 0.  1.
         -6    1    1    2    0  502  0.24436059463E+03  0.19275716511E+02 -0.98011967154E+02  0.31562477590E+03  0.17300000000E+03 0.  1.
<mgrwt>
<rscale>  2 0.30002109E+03</rscale>
<asrwt>0</asrwt>
<pdfrwt beam="1">  1       21 0.22130231E-01 0.30002109E+03</pdfrwt>
<pdfrwt beam="2">  1       21 0.13062003E+00 0.30002109E+03</pdfrwt>
<totfact> 0.76248459E+03</totfact>
</mgrwt>
</event>
<event>
 4    1  0.3935877E+000  0.3445174E+03  0.7546771E-02  0.1064888E+00
         21   -1    0    0  501  502  0.00000000000E+00  0.00000000000E+00  0.11569919826E+04  0.11569919826E+04  0.00000000000E+00 0. -1.
         21   -1    0    0  502  503 -0.00000000000E+00 -0.00000000000E+00 -0.11685118897E+03  0.11685118897E+03  0.00000000000E+00 0. -1.
          6    1    1    2  501    0  0.23564041679E+03  0.18230981018E+03  0.74260306677E+03  0.81862786887E+03  0.17300000000E+03 0. -1.
         -6    1    1    2    0  503 -0.23564041679E+03 -0.18230981018E+03  0.29753772685E+03  0.45521530270E+03  0.17300000000E+03 0. -1.
<mgrwt>
<rscale>  2 0.34451745E+03</rscale>
<asrwt>0</asrwt>
<pdfrwt beam="1">  1       21 0.17799876E+00 0.34451745E+03</pdfrwt>
<pdfrwt beam="2">  1       21 0.17977107E-01 0.34451745E+03</pdfrwt>
<totfact> 0.47769410E+03</totfact>
</mgrwt>
</event>
<event>
 4    1  0.3935877E+000  0.2877263E+03  0.7546771E-02  0.1091542E+00
         21   -1    0    0  501  502  0.00000000000E+00  0.00000000000E+00  0.24877041769E+03  0.24877041769E+03  0.00000000000E+00 0. -1.
         21   -1    0    0  502  503 -0.00000000000E+00 -0.00000000000E+00 -0.37808146127E+03  0.37808146127E+03  0.00000000000E+00 0.  1.
          6    1    1    2  501    0 -0.56103864160E+02  0.22295691049E+03  0.43833710694E+02  0.29104608175E+03  0.17300000000E+03 0. -1.
         -6    1    1    2    0  503  0.56103864160E+02 -0.22295691049E+03 -0.17314475428E+03  0.33580579721E+03  0.17300000000E+03 0. -1.
<mgrwt>
<rscale>  2 0.28772631E+03</rscale>
<asrwt>0</asrwt>
<pdfrwt beam="1">  1       21 0.38272372E-01 0.28772631E+03</pdfrwt>
<pdfrwt beam="2">  1       21 0.58166378E-01 0.28772631E+03</pdfrwt>
<totfact> 0.17352999E+04</totfact>
</mgrwt>
</event>
<event>
 4    1  0.3935877E+000  0.2092709E+03  0.7546771E-02  0.1142145E+00
         21   -1    0    0  503  502  0.00000000000E+00  0.00000000000E+00  0.48161434408E+03  0.48161434408E+03  0.00000000000E+00 0.  1.
         21   -1    0    0  501  503 -0.00000000000E+00 -0.00000000000E+00 -0.23250431957E+03  0.23250431957E+03  0.00000000000E+00 0.  1.
          6    1    1    2  501    0 -0.86204422461E+02 -0.80212939334E+02 -0.15406578540E+03  0.25986647402E+03  0.17300000000E+03 0.  1.
         -6    1    1    2    0  502  0.86204422461E+02  0.80212939334E+02  0.40317580991E+03  0.45425218964E+03  0.17300000000E+03 0.  1.
<mgrwt>
<rscale>  2 0.20927092E+03</rscale>
<asrwt>0</asrwt>
<pdfrwt beam="1">  1       21 0.74094514E-01 0.20927092E+03</pdfrwt>
<pdfrwt beam="2">  1       21 0.35769895E-01 0.20927092E+03</pdfrwt>
<totfact> 0.12176807E+04</totfact>
</mgrwt>
</event>
<event>
 4    1  0.3935877E+000  0.1803342E+03  0.7546771E-02  0.1167480E+00
         21   -1    0    0  503  502  0.00000000000E+00  0.00000000000E+00  0.23574421557E+02  0.23574421557E+02  0.00000000000E+00 0. -1.
         21   -1    0    0  501  503 -0.00000000000E+00 -0.00000000000E+00 -0.17203621755E+04  0.17203621755E+04  0.00000000000E+00 0. -1.
          6    1    1    2  501    0 -0.35225601324E+02  0.36750267220E+02 -0.12365383298E+04  0.12496189284E+04  0.17300000000E+03 0. -1.
         -6    1    1    2    0  502  0.35225601324E+02 -0.36750267220E+02 -0.46024942412E+03  0.49431766864E+03  0.17300000000E+03 0. -1.
<mgrwt>
<rscale>  2 0.18033420E+03</rscale>
<asrwt>0</asrwt>
<pdfrwt beam="1">  1       21 0.36268337E-02 0.18033420E+03</pdfrwt>
<pdfrwt beam="2">  1       21 0.26467113E+00 0.18033420E+03</pdfrwt>
<totfact> 0.25478761E+04</totfact>
</mgrwt>
</event>
<event>
 4    1  0.3935877E+000  0.1827094E+03  0.7546771E-02  0.1165206E+00
         21   -1    0    0  503  502  0.00000000000E+00  0.00000000000E+00  0.34653482645E+02  0.34653482645E+02  0.00000000000E+00 0. -1.
         21   -1    0    0  501  503 -0.00000000000E+00 -0.00000000000E+00 -0.97072171487E+03  0.97072171487E+03  0.00000000000E+00 0.  1.
          6    1    1    2  501    0  0.47918475088E+02 -0.34022751470E+02 -0.51190063840E+03  0.54353012011E+03  0.17300000000E+03 0.  1.
         -6    1    1    2    0  502 -0.47918475088E+02  0.34022751470E+02 -0.42416759383E+03  0.46184507741E+03  0.17300000000E+03 0.  1.
<mgrwt>
<rscale>  2 0.18270941E+03</rscale>
<asrwt>0</asrwt>
<pdfrwt beam="1">  1       21 0.53313053E-02 0.18270941E+03</pdfrwt>
<pdfrwt beam="2">  1       21 0.14934180E+00 0.18270941E+03</pdfrwt>
<totfact> 0.73312894E+04</totfact>
</mgrwt>
</event>
<event>
 4    1  0.3935877E+000  0.2017593E+03  0.7546771E-02  0.1148263E+00
         21   -1    0    0  501  502  0.00000000000E+00  0.00000000000E+00  0.64947282886E+02  0.64947282886E+02  0.00000000000E+00 0. -1.
         21   -1    0    0  502  503 -0.00000000000E+00 -0.00000000000E+00 -0.86459028081E+03  0.86459028081E+03  0.00000000000E+00 0. -1.
          6    1    1    2  501    0  0.48802672897E+02  0.91630320256E+02 -0.15606347650E+03  0.25507376417E+03  0.17300000000E+03 0. -1.
         -6    1    1    2    0  503 -0.48802672897E+02 -0.91630320256E+02 -0.64357952142E+03  0.67446379952E+03  0.17300000000E+03 0. -1.
<mgrwt>
<rscale>  2 0.20175930E+03</rscale>
<asrwt>0</asrwt>
<pdfrwt beam="1">  1       21 0.99918903E-02 0.20175930E+03</pdfrwt>
<pdfrwt beam="2">  1       21 0.13301388E+00 0.20175930E+03</pdfrwt>
<totfact> 0.32968037E+04</totfact>
</mgrwt>
</event>
<event>
 4    1  0.3935877E+000  0.1951778E+03  0.7546771E-02  0.1153872E+00
         21   -1    0    0  501  502  0.00000000000E+00  0.00000000000E+00  0.27605439404E+03  0.27605439404E+03  0.00000000000E+00 0. -1.
         21   -1    0    0  502  503 -0.00000000000E+00 -0.00000000000E+00 -0.26962101811E+03  0.26962101811E+03  0.00000000000E+00 0. -1.
          6    1    1    2  501    0  0.75898293114E+02  0.49039019944E+02  0.19384916605E+03  0.27508521507E+03  0.17300000000E+03 0. -1.
         -6    1    1    2    0  503 -0.75898293114E+02 -0.49039019944E+02 -0.18741579011E+03  0.27059019709E+03  0.17300000000E+03 0. -1.
<mgrwt>
<rscale>  2 0.19517781E+03</rscale>
<asrwt>0</asrwt>
<pdfrwt beam="1">  1       21 0.42469907E-01 0.19517781E+03</pdfrwt>
<pdfrwt beam="2">  1       21 0.41480156E-01 0.19517781E+03</pdfrwt>
<totfact> 0.29809526E+04</totfact>
</mgrwt>
</event>
<event>
 4    1  0.3935877E+000  0.1781215E+03  0.7546771E-02  0.1169634E+00
         21   -1    0    0  501  502  0.00000000000E+00  0.00000000000E+00  0.25009778557E+03  0.25009778557E+03  0.00000000000E+00 0. -1.
         21   -1    0    0  502  503 -0.00000000000E+00 -0.00000000000E+00 -0.16413891190E+03  0.16413891190E+03  0.00000000000E+00 0. -1.
          6    1    1    2  501    0 -0.36419599920E+02 -0.21722510077E+02  0.14168642853E+03  0.22760118350E+03  0.17300000000E+03 0. -1.
         -6    1    1    2    0  503  0.36419599920E+02  0.21722510077E+02 -0.55727554867E+02  0.18663551397E+03  0.17300000000E+03 0. -1.
<mgrwt>
<rscale>  2 0.17812146E+03</rscale>
<asrwt>0</asrwt>
<pdfrwt beam="1">  1       21 0.38476582E-01 0.17812146E+03</pdfrwt>
<pdfrwt beam="2">  1       21 0.25252140E-01 0.17812146E+03</pdfrwt>
<totfact> 0.97323827E+04</totfact>
</mgrwt>
</event>
<event>
 4    1  0.3935877E+000  0.1999421E+03  0.7546771E-02  0.1149788E+00
         21   -1    0    0  503  502  0.00000000000E+00  0.00000000000E+00  0.11252978979E+03  0.11252978979E+03  0.00000000000E+00 0.  1.
         21   -1    0    0  501  503 -0.00000000000E+00 -0.00000000000E+00 -0.35575052420E+03  0.35575052420E+03  0.00000000000E+00 0.  1.
          6    1    1    2  501    0  0.75953809506E+02  0.65412982226E+02 -0.13034343627E+03  0.23867603734E+03  0.17300000000E+03 0.  1.
         -6    1    1    2    0  502 -0.75953809506E+02 -0.65412982226E+02 -0.11287729815E+03  0.22960427666E+03  0.17300000000E+03 0.  1.
<mgrwt>
<rscale>  2 0.19994209E+03</rscale>
<asrwt>0</asrwt>
<pdfrwt beam="1">  1       21 0.17312276E-01 0.19994209E+03</pdfrwt>
<pdfrwt beam="2">  1       21 0.54730849E-01 0.19994209E+03</pdfrwt>
<totfact> 0.94797428E+04</totfact>
</mgrwt>
</event>
<event>
 4    1  0.3935877E+000  0.2529989E+03  0.7546771E-02  0.1111424E+00
         21   -1    0    0  501  502  0.00000000000E+00  0.00000000000E+00  0.54874123097E+02  0.54874123097E+02  0.00000000000E+00 0.  1.
         21   -1    0    0  502  503 -0.00000000000E+00 -0.00000000000E+00 -0.21492598111E+04  0.21492598111E+04  0.00000000000E+00 0. -1.
          6    1    1    2  501    0 -0.18366092631E+03  0.18656982799E+02 -0.30195266266E+03  0.39393378802E+03  0.17300000000E+03 0.  1.
         -6    1    1    2    0  503  0.18366092631E+03 -0.18656982799E+02 -0.17924330254E+04  0.18102001462E+04  0.17300000000E+03 0. -1.
<mgrwt>
<rscale>  2 0.25299885E+03</rscale>
<asrwt>0</asrwt>
<pdfrwt beam="1">  1       21 0.84421753E-02 0.25299885E+03</pdfrwt>
<pdfrwt beam="2">  1       21 0.33065526E+00 0.25299885E+03</pdfrwt>
<totfact> 0.23137341E+03</totfact>
</mgrwt>
</event>
<event>
 4    1  0.3935877E+000  0.2667101E+03  0.7546771E-02  0.1103177E+00
         21   -1    0    0  501  502  0.00000000000E+00  0.00000000000E+00  0.27409857727E+03  0.27409857727E+03  0.00000000000E+00 0. -1.
         21   -1    0    0  502  503 -0.00000000000E+00 -0.00000000000E+00 -0.26895126387E+03  0.26895126387E+03  0.00000000000E+00 0.  1.
          6    1    1    2  501    0  0.12444220918E+03 -0.16037278751E+03  0.53417502262E+02  0.27200684541E+03  0.17300000000E+03 0. -1.
         -6    1    1    2    0  503 -0.12444220918E+03  0.16037278751E+03 -0.48270188859E+02  0.27104299573E+03  0.17300000000E+03 0.  1.
<mgrwt>
<rscale>  2 0.26671013E+03</rscale>
<asrwt>0</asrwt>
<pdfrwt beam="1">  1       21 0.42169012E-01 0.26671013E+03</pdfrwt>
<pdfrwt beam="2">  1       21 0.41377117E-01 0.26671013E+03</pdfrwt>
<totfact> 0.29364810E+04</totfact>
</mgrwt>
</event>
<event>
 4    1  0.3935877E+000  0.2145182E+03  0.7546771E-02  0.1138037E+00
         21   -1    0    0  503  502  0.00000000000E+00  0.00000000000E+00  0.25273949997E+03  0.25273949997E+03  0.00000000000E+00 0.  1.
         21   -1    0    0  501  503 -0.00000000000E+00 -0.00000000000E+00 -0.29905554711E+03  0.29905554711E+03  0.00000000000E+00 0. -1.
          6    1    1    2  501    0  0.10325216096E+03  0.73675284213E+02 -0.19571198584E+03  0.29038119369E+03  0.17300000000E+03 0. -1.
         -6    1    1    2    0  502 -0.10325216096E+03 -0.73675284213E+02  0.14939593870E+03  0.26141385340E+03  0.17300000000E+03 0.  1.
<mgrwt>
<rscale>  2 0.21451820E+03</rscale>
<asrwt>0</asrwt>
<pdfrwt beam="1">  1       21 0.38883000E-01 0.21451820E+03</pdfrwt>
<pdfrwt beam="2">  1       21 0.46008546E-01 0.21451820E+03</pdfrwt>
<totfact> 0.28531216E+04</totfact>
</mgrwt>
</event>
<event>
 4    1  0.3935877E+000  0.2198674E+03  0.7546771E-02  0.1133982E+00
         21   -1    0    0  501  502  0.00000000000E+00  0.00000000000E+00  0.84700231524E+03  0.84700231524E+03  0.00000000000E+00 0. -1.
         21   -1    0    0  502  503 -0.00000000000E+00 -0.00000000000E+00 -0.69132027077E+02  0.69132027077E+02  0.00000000000E+00 0. -1.
          6    1    1    2  501    0 -0.13501969926E+03 -0.13503499689E+02  0.58024210084E+03  0.62050186082E+03  0.17300000000E+03 0. -1.
         -6    1    1    2    0  503  0.13501969926E+03  0.13503499689E+02  0.19762818732E+03  0.29563248150E+03  0.17300000000E+03 0. -1.
<mgrwt>
<rscale>  2 0.21986738E+03</rscale>
<asrwt>0</asrwt>
<pdfrwt beam="1">  1       21 0.13030804E+00 0.21986738E+03</pdfrwt>
<pdfrwt beam="2">  1       21 0.10635697E-01 0.21986738E+03</pdfrwt>
<totfact> 0.30771915E+04</totfact>
</mgrwt>
</event>
<event>
 4    1  0.3935877E+000  0.2052452E+03  0.7546771E-02  0.1145388E+00
         21   -1    0    0  501  502  0.00000000000E+00  0.00000000000E+00  0.16913864456E+04  0.16913864456E+04  0.00000000000E+00 0.  1.
         21   -1    0    0  502  503 -0.00000000000E+00 -0.00000000000E+00 -0.79333666814E+02  0.79333666814E+02  0.00000000000E+00 0.  1.
          6    1    1    2  501    0  0.23685899462E+02 -0.10786824597E+03  0.15393593963E+04  0.15529819482E+04  0.17300000000E+03 0.  1.
         -6    1    1    2    0  503 -0.23685899462E+02  0.10786824597E+03  0.72693382501E+02  0.21773816427E+03  0.17300000000E+03 0.  1.
<mgrwt>
<rscale>  2 0.20524517E+03</rscale>
<asrwt>0</asrwt>
<pdfrwt beam="1">  1       21 0.26021327E+00 0.20524517E+03</pdfrwt>
<pdfrwt beam="2">  1       21 0.12205181E-01 0.20524517E+03</pdfrwt>
<totfact> 0.32536428E+03</totfact>
</mgrwt>
</event>
<event>
 4    1  0.3935877E+000  0.2122290E+03  0.7546771E-02  0.1139813E+00
         21   -1    0    0  501  502  0.00000000000E+00  0.00000000000E+00  0.66470120409E+02  0.66470120409E+02  0.00000000000E+00 0.  1.
         21   -1    0    0  502  503 -0.00000000000E+00 -0.00000000000E+00 -0.11583281822E+04  0.11583281822E+04  0.00000000000E+00 0.  1.
          6    1    1    2  501    0  0.10005398030E+03  0.71423611695E+02 -0.15141548821E+03  0.26070631245E+03  0.17300000000E+03 0.  1.
         -6    1    1    2    0  503 -0.10005398030E+03 -0.71423611695E+02 -0.94044257357E+03  0.96409199014E+03  0.17300000000E+03 0.  1.
<mgrwt>
<rscale>  2 0.21222896E+03</rscale>
<asrwt>0</asrwt>
<pdfrwt beam="1">  1       21 0.10226172E-01 0.21222896E+03</pdfrwt>
<pdfrwt beam="2">  1       21 0.17820434E+00 0.21222896E+03</pdfrwt>
<totfact> 0.14388311E+04</totfact>
</mgrwt>
</event>
<event>
 4    1  0.3935877E+000  0.2648255E+03  0.7546771E-02  0.1104278E+00
         21   -1    0    0  501  502  0.00000000000E+00  0.00000000000E+00  0.99648301083E+02  0.99648301083E+02  0.00000000000E+00 0. -1.
         21   -1    0    0  502  503 -0.00000000000E+00 -0.00000000000E+00 -0.12653629102E+04  0.12653629102E+04  0.00000000000E+00 0.  1.
          6    1    1    2  501    0 -0.18284353399E+03 -0.82290750367E+02 -0.12818585750E+03  0.29421784375E+03  0.17300000000E+03 0. -1.
         -6    1    1    2    0  503  0.18284353399E+03  0.82290750367E+02 -0.10375287516E+04  0.10707933675E+04  0.17300000000E+03 0.  1.
<mgrwt>
<rscale>  2 0.26482546E+03</rscale>
<asrwt>0</asrwt>
<pdfrwt beam="1">  1       21 0.15330508E-01 0.26482546E+03</pdfrwt>
<pdfrwt beam="2">  1       21 0.19467122E+00 0.26482546E+03</pdfrwt>
<totfact> 0.51761782E+03</totfact>
</mgrwt>
</event>
<event>
 4    1  0.3935877E+000  0.2081089E+03  0.7546771E-02  0.1143072E+00
         21   -1    0    0  501  502  0.00000000000E+00  0.00000000000E+00  0.21885297421E+03  0.21885297421E+03  0.00000000000E+00 0.  1.
         21   -1    0    0  502  503 -0.00000000000E+00 -0.00000000000E+00 -0.19836857688E+03  0.19836857688E+03  0.00000000000E+00 0. -1.
          6    1    1    2  501    0  0.10250020800E+03 -0.53609980451E+02  0.20463854785E+02  0.20911262993E+03  0.17300000000E+03 0.  1.
         -6    1    1    2    0  503 -0.10250020800E+03  0.53609980451E+02  0.20542552021E-01  0.20810892116E+03  0.17300000000E+03 0. -1.
<mgrwt>
<rscale>  2 0.20810892E+03</rscale>
<asrwt>0</asrwt>
<pdfrwt beam="1">  1       21 0.33669688E-01 0.20810892E+03</pdfrwt>
<pdfrwt beam="2">  1       21 0.30518243E-01 0.20810892E+03</pdfrwt>
<totfact> 0.87007531E+04</totfact>
</mgrwt>
</event>
<event>
 4    1  0.3935877E+000  0.1977306E+03  0.7546771E-02  0.1151668E+00
         21   -1    0    0  501  502  0.00000000000E+00  0.00000000000E+00  0.49547392092E+03  0.49547392092E+03  0.00000000000E+00 0. -1.
         21   -1    0    0  502  503 -0.00000000000E+00 -0.00000000000E+00 -0.16801829472E+03  0.16801829472E+03  0.00000000000E+00 0.  1.
          6    1    1    2  501    0  0.90012022537E+02  0.32652974858E+02  0.40532335095E+03  0.45098159585E+03  0.17300000000E+03 0. -1.
         -6    1    1    2    0  503 -0.90012022537E+02 -0.32652974858E+02 -0.77867724744E+02  0.21251061979E+03  0.17300000000E+03 0.  1.
<mgrwt>
<rscale>  2 0.19773058E+03</rscale>
<asrwt>0</asrwt>
<pdfrwt beam="1">  1       21 0.76226756E-01 0.19773058E+03</pdfrwt>
<pdfrwt beam="2">  1       21 0.25848969E-01 0.19773058E+03</pdfrwt>
<totfact> 0.21721342E+04</totfact>
</mgrwt>
</event>
<event>
 4    1  0.3935877E+000  0.4061456E+03  0.7546771E-02  0.1041672E+00
         21   -1    0    0  503  502  0.00000000000E+00  0.00000000000E+00  0.49964763235E+03  0.49964763235E+03  0.00000000000E+00 0.  1.
         21   -1    0    0  501  503 -0.00000000000E+00 -0.00000000000E+00 -0.54258857517E+03  0.54258857517E+03  0.00000000000E+00 0. -1.
          6    1    1    2  501    0 -0.26979935224E+03  0.24946661783E+03 -0.34755222110E+03  0.53455292560E+03  0.17300000000E+03 0. -1.
         -6    1    1    2    0  502  0.26979935224E+03 -0.24946661783E+03  0.30461127828E+03  0.50768328192E+03  0.17300000000E+03 0.  1.
<mgrwt>
<rscale>  2 0.40614564E+03</rscale>
<asrwt>0</asrwt>
<pdfrwt beam="1">  1       21 0.76868867E-01 0.40614564E+03</pdfrwt>
<pdfrwt beam="2">  1       21 0.83475165E-01 0.40614564E+03</pdfrwt>
<totfact> 0.16440839E+03</totfact>
</mgrwt>
</event>
<event>
 4    1  0.3935877E+000  0.1958808E+03  0.7546771E-02  0.1153262E+00
         21   -1    0    0  503  502  0.00000000000E+00  0.00000000000E+00  0.40244990245E+02  0.40244990245E+02  0.00000000000E+00 0.  1.
         21   -1    0    0  501  503 -0.00000000000E+00 -0.00000000000E+00 -0.18454092581E+04  0.18454092581E+04  0.00000000000E+00 0.  1.
          6    1    1    2  501    0  0.89707643480E+02 -0.19819367694E+02 -0.15580814561E+04  0.15703461696E+04  0.17300000000E+03 0.  1.
         -6    1    1    2    0  502 -0.89707643480E+02  0.19819367694E+02 -0.24708281174E+03  0.31530807870E+03  0.17300000000E+03 0.  1.
<mgrwt>
<rscale>  2 0.19588075E+03</rscale>
<asrwt>0</asrwt>
<pdfrwt beam="1">  1       21 0.61915393E-02 0.19588075E+03</pdfrwt>
<pdfrwt beam="2">  1       21 0.28390901E+00 0.19588075E+03</pdfrwt>
<totfact> 0.78674751E+03</totfact>
</mgrwt>
</event>
<event>
 4    1  0.3935877E+000  0.2109561E+03  0.7546771E-02  0.1140811E+00
         21   -1    0    0  501  502  0.00000000000E+00  0.00000000000E+00  0.84287156444E+02  0.84287156444E+02  0.00000000000E+00 0. -1.
         21   -1    0    0  502  503 -0.00000000000E+00 -0.00000000000E+00 -0.52906998330E+03  0.52906998330E+03  0.00000000000E+00 0. -1.
          6    1    1    2  501    0 -0.11855496718E+03  0.22764048311E+02 -0.23626966066E+03  0.31674253691E+03  0.17300000000E+03 0.  1.
         -6    1    1    2    0  503  0.11855496718E+03 -0.22764048311E+02 -0.20851316619E+03  0.29661460283E+03  0.17300000000E+03 0.  1.
<mgrwt>
<rscale>  2 0.21095611E+03</rscale>
<asrwt>0</asrwt>
<pdfrwt beam="1">  1       21 0.12967255E-01 0.21095611E+03</pdfrwt>
<pdfrwt beam="2">  1       21 0.81395381E-01 0.21095611E+03</pdfrwt>
<totfact> 0.66965243E+04</totfact>
</mgrwt>
</event>
<event>
 4    1  0.3935877E+000  0.2718105E+03  0.7546771E-02  0.1100248E+00
         21   -1    0    0  503  502  0.00000000000E+00  0.00000000000E+00  0.83632599214E+02  0.83632599214E+02  0.00000000000E+00 0. -1.
         21   -1    0    0  501  503 -0.00000000000E+00 -0.00000000000E+00 -0.11249722610E+04  0.11249722610E+04  0.00000000000E+00 0. -1.
          6    1    1    2  501    0 -0.16713810820E+03  0.12655739241E+03 -0.80070219514E+03  0.84557963912E+03  0.17300000000E+03 0. -1.
         -6    1    1    2    0  502  0.16713810820E+03 -0.12655739241E+03 -0.24063746660E+03  0.36302522105E+03  0.17300000000E+03 0. -1.
<mgrwt>
<rscale>  2 0.27181045E+03</rscale>
<asrwt>0</asrwt>
<pdfrwt beam="1">  1       21 0.12866554E-01 0.27181045E+03</pdfrwt>
<pdfrwt beam="2">  1       21 0.17307266E+00 0.27181045E+03</pdfrwt>
<totfact> 0.99632964E+03</totfact>
</mgrwt>
</event>
<event>
 4    1  0.3935877E+000  0.2336372E+03  0.7546771E-02  0.1124106E+00
         21   -1    0    0  501  502  0.00000000000E+00  0.00000000000E+00  0.10755125111E+03  0.10755125111E+03  0.00000000000E+00 0.  1.
         21   -1    0    0  502  503 -0.00000000000E+00 -0.00000000000E+00 -0.56483460285E+03  0.56483460285E+03  0.00000000000E+00 0. -1.
          6    1    1    2  501    0 -0.15049341997E+03  0.44822858124E+02 -0.12156571812E+03  0.26337156621E+03  0.17300000000E+03 0.  1.
         -6    1    1    2    0  503  0.15049341997E+03 -0.44822858124E+02 -0.33571763362E+03  0.40901428776E+03  0.17300000000E+03 0. -1.
<mgrwt>
<rscale>  2 0.23363724E+03</rscale>
<asrwt>0</asrwt>
<pdfrwt beam="1">  1       21 0.16546346E-01 0.23363724E+03</pdfrwt>
<pdfrwt beam="2">  1       21 0.86897632E-01 0.23363724E+03</pdfrwt>
<totfact> 0.36574787E+04</totfact>
</mgrwt>
</event>
<event>
 4    1  0.3935877E+000  0.1808576E+03  0.7546771E-02  0.1166976E+00
         21   -1    0    0  501  502  0.00000000000E+00  0.00000000000E+00  0.36883313783E+02  0.36883313783E+02  0.00000000000E+00 0. -1.
         21   -1    0    0  502  503 -0.00000000000E+00 -0.00000000000E+00 -0.91791385616E+03  0.91791385616E+03  0.00000000000E+00 0.  1.
          6    1    1    2  501    0  0.22929581026E+02  0.47483925782E+02 -0.35267404086E+03  0.39634387593E+03  0.17300000000E+03 0. -1.
         -6    1    1    2    0  503 -0.22929581026E+02 -0.47483925782E+02 -0.52835650152E+03  0.55845329401E+03  0.17300000000E+03 0.  1.
<mgrwt>
<rscale>  2 0.18085765E+03</rscale>
<asrwt>0</asrwt>
<pdfrwt beam="1">  1       21 0.56743565E-02 0.18085765E+03</pdfrwt>
<pdfrwt beam="2">  1       21 0.14121750E+00 0.18085765E+03</pdfrwt>
<totfact> 0.76341316E+04</totfact>
</mgrwt>
</event>
<event>
 4    1  0.3935877E+000  0.2532740E+03  0.7546771E-02  0.1111253E+00
         21   -1    0    0  503  502  0.00000000000E+00  0.00000000000E+00  0.63213231325E+03  0.63213231325E+03  0.00000000000E+00 0. -1.
         21   -1    0    0  501  503 -0.00000000000E+00 -0.00000000000E+00 -0.10814101898E+03  0.10814101898E+03  0.00000000000E+00 0. -1.
          6    1    1    2  501    0 -0.16641566823E+03 -0.80774575415E+02  0.17012158264E+03  0.30510499758E+03  0.17300000000E+03 0. -1.
         -6    1    1    2    0  502  0.16641566823E+03  0.80774575415E+02  0.35386971163E+03  0.43516833464E+03  0.17300000000E+03 0. -1.
<mgrwt>
<rscale>  2 0.25327398E+03</rscale>
<asrwt>0</asrwt>
<pdfrwt beam="1">  1       21 0.97251123E-01 0.25327398E+03</pdfrwt>
<pdfrwt beam="2">  1       21 0.16637080E-01 0.25327398E+03</pdfrwt>
<totfact> 0.27569939E+04</totfact>
</mgrwt>
</event>
<event>
 4    1  0.3935877E+000  0.2086356E+03  0.7546771E-02  0.1142651E+00
         21   -1    0    0  503  502  0.00000000000E+00  0.00000000000E+00  0.24244294923E+02  0.24244294923E+02  0.00000000000E+00 0. -1.
         21   -1    0    0  501  503 -0.00000000000E+00 -0.00000000000E+00 -0.20879381323E+04  0.20879381323E+04  0.00000000000E+00 0.  1.
          6    1    1    2  501    0  0.84230846822E+02  0.80653431516E+02 -0.14271364846E+04  0.14423062633E+04  0.17300000000E+03 0.  1.
         -6    1    1    2    0  502 -0.84230846822E+02 -0.80653431516E+02 -0.63655735274E+03  0.66987616386E+03  0.17300000000E+03 0. -1.
<mgrwt>
<rscale>  2 0.20863560E+03</rscale>
<asrwt>0</asrwt>
<pdfrwt beam="1">  1       21 0.37298908E-02 0.20863560E+03</pdfrwt>
<pdfrwt beam="2">  1       21 0.32122131E+00 0.20863560E+03</pdfrwt>
<totfact> 0.11149305E+04</totfact>
</mgrwt>
</event>
<event>
 4    1  0.3935877E+000  0.2106959E+03  0.7546771E-02  0.1141016E+00
         21   -1    0    0  501  502  0.00000000000E+00  0.00000000000E+00  0.45094600361E+03  0.45094600361E+03  0.00000000000E+00 0.  1.
         21   -1    0    0  502  503 -0.00000000000E+00 -0.00000000000E+00 -0.99207957893E+02  0.99207957893E+02  0.00000000000E+00 0.  1.
          6    1    1    2  501    0  0.12315746764E+02 -0.11963311673E+03  0.15172433127E+03  0.25964019900E+03  0.17300000000E+03 0. -1.
         -6    1    1    2    0  503 -0.12315746764E+02  0.11963311673E+03  0.20001371445E+03  0.29051376250E+03  0.17300000000E+03 0. -1.
<mgrwt>
<rscale>  2 0.21069590E+03</rscale>
<asrwt>0</asrwt>
<pdfrwt beam="1">  1       21 0.69376307E-01 0.21069590E+03</pdfrwt>
<pdfrwt beam="2">  1       21 0.15262763E-01 0.21069590E+03</pdfrwt>
<totfact> 0.71246525E+04</totfact>
</mgrwt>
</event>
<event>
 4    1  0.3935877E+000  0.2457266E+03  0.7546771E-02  0.1116036E+00
         21   -1    0    0  503  502  0.00000000000E+00  0.00000000000E+00  0.44654489981E+02  0.44654489981E+02  0.00000000000E+00 0. -1.
         21   -1    0    0  501  503 -0.00000000000E+00 -0.00000000000E+00 -0.15108381635E+04  0.15108381635E+04  0.00000000000E+00 0. -1.
          6    1    1    2  501    0 -0.17440144229E+03 -0.60574674710E+01 -0.98511493916E+03  0.10152994629E+04  0.17300000000E+03 0. -1.
         -6    1    1    2    0  502  0.17440144229E+03  0.60574674710E+01 -0.48106873434E+03  0.54019319058E+03  0.17300000000E+03 0. -1.
<mgrwt>
<rscale>  2 0.24572659E+03</rscale>
<asrwt>0</asrwt>
<pdfrwt beam="1">  1       21 0.68699214E-02 0.24572659E+03</pdfrwt>
<pdfrwt beam="2">  1       21 0.23243665E+00 0.24572659E+03</pdfrwt>
<totfact> 0.12660793E+04</totfact>
</mgrwt>
</event>
<event>
 4    1  0.3935877E+000  0.1940671E+03  0.7546771E-02  0.1154843E+00
         21   -1    0    0  503  502  0.00000000000E+00  0.00000000000E+00  0.45768826767E+02  0.45768826767E+02  0.00000000000E+00 0. -1.
         21   -1    0    0  501  503 -0.00000000000E+00 -0.00000000000E+00 -0.10120637378E+04  0.10120637378E+04  0.00000000000E+00 0.  1.
          6    1    1    2  501    0 -0.72980123021E+02 -0.49060489041E+02 -0.71182866387E+03  0.73780897029E+03  0.17300000000E+03 0.  1.
         -6    1    1    2    0  502  0.72980123021E+02  0.49060489041E+02 -0.25446624713E+03  0.32002359424E+03  0.17300000000E+03 0. -1.
<mgrwt>
<rscale>  2 0.19406708E+03</rscale>
<asrwt>0</asrwt>
<pdfrwt beam="1">  1       21 0.70413580E-02 0.19406708E+03</pdfrwt>
<pdfrwt beam="2">  1       21 0.15570211E+00 0.19406708E+03</pdfrwt>
<totfact> 0.40513442E+04</totfact>
</mgrwt>
</event>
<event>
 4    1  0.3935877E+000  0.2513874E+03  0.7546771E-02  0.1112431E+00
         21   -1    0    0  501  502  0.00000000000E+00  0.00000000000E+00  0.12791739849E+03  0.12791739849E+03  0.00000000000E+00 0. -1.
         21   -1    0    0  502  503 -0.00000000000E+00 -0.00000000000E+00 -0.16790633216E+04  0.16790633216E+04  0.00000000000E+00 0. -1.
          6    1    1    2  501    0 -0.57066102719E+02  0.17323424345E+03 -0.16550912670E+02  0.25193168894E+03  0.17300000000E+03 0. -1.
         -6    1    1    2    0  503  0.57066102719E+02 -0.17323424345E+03 -0.15345950105E+04  0.15550490312E+04  0.17300000000E+03 0. -1.
<mgrwt>
<rscale>  2 0.25138744E+03</rscale>
<asrwt>0</asrwt>
<pdfrwt beam="1">  1       21 0.19679600E-01 0.25138744E+03</pdfrwt>
<pdfrwt beam="2">  1       21 0.25831743E+00 0.25138744E+03</pdfrwt>
<totfact> 0.13276073E+03</totfact>
</mgrwt>
</event>
<event>
 4    1  0.3935877E+000  0.2426309E+03  0.7546771E-02  0.1118053E+00
         21   -1    0    0  501  502  0.00000000000E+00  0.00000000000E+00  0.85146244423E+02  0.85146244423E+02  0.00000000000E+00 0. -1.
         21   -1    0    0  502  503 -0.00000000000E+00 -0.00000000000E+00 -0.69506337615E+03  0.69506337615E+03  0.00000000000E+00 0. -1.
          6    1    1    2  501    0  0.94929725399E+02 -0.14117046555E+03 -0.27662113127E+03  0.36795244716E+03  0.17300000000E+03 0. -1.
         -6    1    1    2    0  503 -0.94929725399E+02  0.14117046555E+03 -0.33329600046E+03  0.41225717341E+03  0.17300000000E+03 0. -1.
<mgrwt>
<rscale>  2 0.24263090E+03</rscale>
<asrwt>0</asrwt>
<pdfrwt beam="1">  1       21 0.13099422E-01 0.24263090E+03</pdfrwt>
<pdfrwt beam="2">  1       21 0.10693283E+00 0.24263090E+03</pdfrwt>
<totfact> 0.34158296E+04</totfact>
</mgrwt>
</event>
<event>
 4    1  0.3935877E+000  0.1928789E+03  0.7546771E-02  0.1155890E+00
         21   -1    0    0  501  502  0.00000000000E+00  0.00000000000E+00  0.38675600143E+03  0.38675600143E+03  0.00000000000E+00 0. -1.
         21   -1    0    0  502  503 -0.00000000000E+00 -0.00000000000E+00 -0.11182648807E+03  0.11182648807E+03  0.00000000000E+00 0. -1.
          6    1    1    2  501    0 -0.78186430816E+02  0.34060981848E+02  0.23068211668E+03  0.30069337772E+03  0.17300000000E+03 0. -1.
         -6    1    1    2    0  503  0.78186430816E+02 -0.34060981848E+02  0.44247396670E+02  0.19788911178E+03  0.17300000000E+03 0. -1.
<mgrwt>
<rscale>  2 0.19287890E+03</rscale>
<asrwt>0</asrwt>
<pdfrwt beam="1">  1       21 0.59500923E-01 0.19287890E+03</pdfrwt>
<pdfrwt beam="2">  1       21 0.17204075E-01 0.19287890E+03</pdfrwt>
<totfact> 0.80509500E+04</totfact>
</mgrwt>
</event>
<event>
 4    1  0.3935877E+000  0.2399787E+03  0.7546771E-02  0.1119807E+00
         21   -1    0    0  503  502  0.00000000000E+00  0.00000000000E+00  0.20601121711E+03  0.20601121711E+03  0.00000000000E+00 0. -1.
         21   -1    0    0  501  503 -0.00000000000E+00 -0.00000000000E+00 -0.80145591585E+03  0.80145591585E+03  0.00000000000E+00 0.  1.
          6    1    1    2  501    0  0.16261982344E+03  0.34864709260E+02 -0.70422048357E+03  0.74398672327E+03  0.17300000000E+03 0.  1.
         -6    1    1    2    0  502 -0.16261982344E+03 -0.34864709260E+02  0.10877578483E+03  0.26348040969E+03  0.17300000000E+03 0. -1.
<mgrwt>
<rscale>  2 0.23997866E+03</rscale>
<asrwt>0</asrwt>
<pdfrwt beam="1">  1       21 0.31694034E-01 0.23997866E+03</pdfrwt>
<pdfrwt beam="2">  1       21 0.12330091E+00 0.23997866E+03</pdfrwt>
<totfact> 0.45580994E+03</totfact>
</mgrwt>
</event>
<event>
 4    1  0.3935877E+000  0.2097793E+03  0.7546771E-02  0.1141741E+00
         21   -1    0    0  501  502  0.00000000000E+00  0.00000000000E+00  0.22625799029E+03  0.22625799029E+03  0.00000000000E+00 0.  1.
         21   -1    0    0  502  503 -0.00000000000E+00 -0.00000000000E+00 -0.26266722003E+03  0.26266722003E+03  0.00000000000E+00 0. -1.
          6    1    1    2  501    0  0.10154354281E+03 -0.61378166918E+02  0.10633129390E+03  0.23518867856E+03  0.17300000000E+03 0.  1.
         -6    1    1    2    0  503 -0.10154354281E+03  0.61378166918E+02 -0.14274052364E+03  0.25373653176E+03  0.17300000000E+03 0. -1.
<mgrwt>
<rscale>  2 0.20977934E+03</rscale>
<asrwt>0</asrwt>
<pdfrwt beam="1">  1       21 0.34808922E-01 0.20977934E+03</pdfrwt>
<pdfrwt beam="2">  1       21 0.40410341E-01 0.20977934E+03</pdfrwt>
<totfact> 0.46546966E+04</totfact>
</mgrwt>
</event>
<event>
 4    1  0.3935877E+000  0.3145975E+03  0.7546771E-02  0.1078163E+00
         21   -1    0    0  503  502  0.00000000000E+00  0.00000000000E+00  0.13656568863E+03  0.13656568863E+03  0.00000000000E+00 0. -1.
         21   -1    0    0  501  503 -0.00000000000E+00 -0.00000000000E+00 -0.10357595807E+04  0.10357595807E+04  0.00000000000E+00 0.  1.
          6    1    1    2  501    0  0.23702006895E+03 -0.11341987850E+03 -0.77081358504E+03  0.83254138925E+03  0.17300000000E+03 0.  1.
         -6    1    1    2    0  502 -0.23702006895E+03  0.11341987850E+03 -0.12838030701E+03  0.33978388007E+03  0.17300000000E+03 0. -1.
<mgrwt>
<rscale>  2 0.31459749E+03</rscale>
<asrwt>0</asrwt>
<pdfrwt beam="1">  1       21 0.21010106E-01 0.31459749E+03</pdfrwt>
<pdfrwt beam="2">  1       21 0.15934763E+00 0.31459749E+03</pdfrwt>
<totfact> 0.49331119E+03</totfact>
</mgrwt>
</event>
<event>
 4    1  0.3935877E+000  0.1743347E+03  0.7546771E-02  0.1173401E+00
         21   -1    0    0  503  502  0.00000000000E+00  0.00000000000E+00  0.92105977766E+02  0.92105977766E+02  0.00000000000E+00 0. -1.
         21   -1    0    0  501  503 -0.00000000000E+00 -0.00000000000E+00 -0.44781866565E+03  0.44781866565E+03  0.00000000000E+00 0. -1.
          6    1    1    2  501    0 -0.11174230741E+02  0.18404221584E+02 -0.31634270543E+03  0.36119978693E+03  0.17300000000E+03 0. -1.
         -6    1    1    2    0  502  0.11174230741E+02 -0.18404221584E+02 -0.39369982454E+02  0.17872485648E+03  0.17300000000E+03 0. -1.
<mgrwt>
<rscale>  2 0.17433467E+03</rscale>
<asrwt>0</asrwt>
<pdfrwt beam="1">  1       21 0.14170151E-01 0.17433467E+03</pdfrwt>
<pdfrwt beam="2">  1       21 0.68895179E-01 0.17433467E+03</pdfrwt>
<totfact> 0.84114079E+04</totfact>
</mgrwt>
</event>
<event>
 4    1  0.3935877E+000  0.1942762E+03  0.7546771E-02  0.1154660E+00
         21   -1    0    0  503  502  0.00000000000E+00  0.00000000000E+00  0.18289641560E+04  0.18289641560E+04  0.00000000000E+00 0. -1.
         21   -1    0    0  501  503 -0.00000000000E+00 -0.00000000000E+00 -0.21076216529E+02  0.21076216529E+02  0.00000000000E+00 0. -1.
          6    1    1    2  501    0  0.20269883463E+02  0.86042968455E+02  0.77032011571E+03  0.79444089854E+03  0.17300000000E+03 0. -1.
         -6    1    1    2    0  502 -0.20269883463E+02 -0.86042968455E+02  0.10375678238E+04  0.10555994740E+04  0.17300000000E+03 0. -1.
<mgrwt>
<rscale>  2 0.19427625E+03</rscale>
<asrwt>0</asrwt>
<pdfrwt beam="1">  1       21 0.28137898E+00 0.19427625E+03</pdfrwt>
<pdfrwt beam="2">  1       21 0.32424963E-02 0.19427625E+03</pdfrwt>
<totfact> 0.24267178E+04</totfact>
</mgrwt>
</event>
<event>
 4    1  0.3935877E+000  0.2497973E+03  0.7546771E-02  0.1113433E+00
         21   -1    0    0  503  502  0.00000000000E+00  0.00000000000E+00  0.10729924283E+03  0.10729924283E+03  0.00000000000E+00 0.  1.
         21   -1    0    0  501  503 -0.00000000000E+00 -0.00000000000E+00 -0.63533888788E+03  0.63533888788E+03  0.00000000000E+00 0.  1.
          6    1    1    2  501    0  0.15794218525E+03  0.86740736419E+02 -0.37207246893E+03  0.44814797933E+03  0.17300000000E+03 0.  1.
         -6    1    1    2    0  502 -0.15794218525E+03 -0.86740736419E+02 -0.15596717612E+03  0.29449015139E+03  0.17300000000E+03 0.  1.
<mgrwt>
<rscale>  2 0.24979730E+03</rscale>
<asrwt>0</asrwt>
<pdfrwt beam="1">  1       21 0.16507575E-01 0.24979730E+03</pdfrwt>
<pdfrwt beam="2">  1       21 0.97744448E-01 0.24979730E+03</pdfrwt>
<totfact> 0.27681490E+04</totfact>
</mgrwt>
</event>
<event>
 4    1  0.3935877E+000  0.1883695E+03  0.7546771E-02  0.1159940E+00
         21   -1    0    0  503  502  0.00000000000E+00  0.00000000000E+00  0.38313821230E+02  0.38313821230E+02  0.00000000000E+00 0. -1.
         21   -1    0    0  501  503 -0.00000000000E+00 -0.00000000000E+00 -0.97393959372E+03  0.97393959372E+03  0.00000000000E+00 0. -1.
          6    1    1    2  501    0 -0.68768688697E+02 -0.28721521699E+02 -0.57996630388E+03  0.60979010487E+03  0.17300000000E+03 0. -1.
         -6    1    1    2    0  502  0.68768688697E+02  0.28721521699E+02 -0.35565946861E+03  0.40246331009E+03  0.17300000000E+03 0. -1.
<mgrwt>
<rscale>  2 0.18836947E+03</rscale>
<asrwt>0</asrwt>
<pdfrwt beam="1">  1       21 0.58944337E-02 0.18836947E+03</pdfrwt>
<pdfrwt beam="2">  1       21 0.14983687E+00 0.18836947E+03</pdfrwt>
<totfact> 0.61067929E+04</totfact>
</mgrwt>
</event>
<event>
 4    1  0.3935877E+000  0.1741186E+03  0.7546771E-02  0.1173620E+00
         21   -1    0    0  501  502  0.00000000000E+00  0.00000000000E+00  0.27865361629E+03  0.27865361629E+03  0.00000000000E+00 0.  1.
         21   -1    0    0  502  503 -0.00000000000E+00 -0.00000000000E+00 -0.11419572128E+03  0.11419572128E+03  0.00000000000E+00 0.  1.
          6    1    1    2  501    0 -0.99551519796E+01 -0.17005325782E+02  0.12492902786E+03  0.21430013569E+03  0.17300000000E+03 0.  1.
         -6    1    1    2    0  503  0.99551519796E+01  0.17005325782E+02  0.39528867153E+02  0.17854920189E+03  0.17300000000E+03 0.  1.
<mgrwt>
<rscale>  2 0.17411860E+03</rscale>
<asrwt>0</asrwt>
<pdfrwt beam="1">  1       21 0.42869787E-01 0.17411860E+03</pdfrwt>
<pdfrwt beam="2">  1       21 0.17568573E-01 0.17411860E+03</pdfrwt>
<totfact> 0.15457795E+05</totfact>
</mgrwt>
</event>
<event>
 4    1  0.3935877E+000  0.1801624E+03  0.7546771E-02  0.1167646E+00
         21   -1    0    0  503  502  0.00000000000E+00  0.00000000000E+00  0.10272262116E+03  0.10272262116E+03  0.00000000000E+00 0. -1.
         21   -1    0    0  501  503 -0.00000000000E+00 -0.00000000000E+00 -0.31811486336E+03  0.31811486336E+03  0.00000000000E+00 0. -1.
          6    1    1    2  501    0  0.12668909647E+02 -0.48672089361E+02 -0.12492668345E+03  0.21923765597E+03  0.17300000000E+03 0.  1.
         -6    1    1    2    0  502 -0.12668909647E+02  0.48672089361E+02 -0.90465558741E+02  0.20159982855E+03  0.17300000000E+03 0.  1.
<mgrwt>
<rscale>  2 0.18016235E+03</rscale>
<asrwt>0</asrwt>
<pdfrwt beam="1">  1       21 0.15803480E-01 0.18016235E+03</pdfrwt>
<pdfrwt beam="2">  1       21 0.48940748E-01 0.18016235E+03</pdfrwt>
<totfact> 0.14268583E+05</totfact>
</mgrwt>
</event>
<event>
 4    1  0.3935877E+000  0.1761981E+03  0.7546771E-02  0.1171534E+00
         21   -1    0    0  503  502  0.00000000000E+00  0.00000000000E+00  0.72598597434E+02  0.72598597434E+02  0.00000000000E+00 0. -1.
         21   -1    0    0  501  503 -0.00000000000E+00 -0.00000000000E+00 -0.62292480319E+03  0.62292480319E+03  0.00000000000E+00 0. -1.
          6    1    1    2  501    0 -0.20653749455E+02 -0.26271211626E+02 -0.46987967492E+03  0.50182931643E+03  0.17300000000E+03 0. -1.
         -6    1    1    2    0  502  0.20653749455E+02  0.26271211626E+02 -0.80446530831E+02  0.19369408419E+03  0.17300000000E+03 0. -1.
<mgrwt>
<rscale>  2 0.17619805E+03</rscale>
<asrwt>0</asrwt>
<pdfrwt beam="1">  1       21 0.11169015E-01 0.17619805E+03</pdfrwt>
<pdfrwt beam="2">  1       21 0.95834588E-01 0.17619805E+03</pdfrwt>
<totfact> 0.61006848E+04</totfact>
</mgrwt>
</event>
<event>
 4    1  0.3935877E+000  0.1895818E+03  0.7546771E-02  0.1158839E+00
         21   -1    0    0  503  502  0.00000000000E+00  0.00000000000E+00  0.65361562946E+02  0.65361562946E+02  0.00000000000E+00 0. -1.
         21   -1    0    0  501  503 -0.00000000000E+00 -0.00000000000E+00 -0.67168717783E+03  0.67168717783E+03  0.00000000000E+00 0. -1.
          6    1    1    2  501    0  0.70972288281E+02 -0.31228375707E+02 -0.46009498749E+03  0.49762302465E+03  0.17300000000E+03 0. -1.
         -6    1    1    2    0  502 -0.70972288281E+02  0.31228375707E+02 -0.14623062740E+03  0.23942571613E+03  0.17300000000E+03 0. -1.
<mgrwt>
<rscale>  2 0.18958185E+03</rscale>
<asrwt>0</asrwt>
<pdfrwt beam="1">  1       21 0.10055626E-01 0.18958185E+03</pdfrwt>
<pdfrwt beam="2">  1       21 0.10333648E+00 0.18958185E+03</pdfrwt>
<totfact> 0.61088591E+04</totfact>
</mgrwt>
</event>
<event>
 4    1  0.3935877E+000  0.2109729E+03  0.7546771E-02  0.1140798E+00
         21   -1    0    0  501  502  0.00000000000E+00  0.00000000000E+00  0.48084758003E+03  0.48084758003E+03  0.00000000000E+00 0. -1.
         21   -1    0    0  502  503 -0.00000000000E+00 -0.00000000000E+00 -0.22264113130E+03  0.22264113130E+03  0.00000000000E+00 0. -1.
          6    1    1    2  501    0  0.10193923985E+03  0.64722056162E+02  0.39796161882E+03  0.45042535811E+03  0.17300000000E+03 0. -1.
         -6    1    1    2    0  503 -0.10193923985E+03 -0.64722056162E+02 -0.13975517008E+03  0.25306335322E+03  0.17300000000E+03 0. -1.
<mgrwt>
<rscale>  2 0.21097287E+03</rscale>
<asrwt>0</asrwt>
<pdfrwt beam="1">  1       21 0.73976551E-01 0.21097287E+03</pdfrwt>
<pdfrwt beam="2">  1       21 0.34252482E-01 0.21097287E+03</pdfrwt>
<totfact> 0.13306263E+04</totfact>
</mgrwt>
</event>
<event>
 4    1  0.3935877E+000  0.2297747E+03  0.7546771E-02  0.1126798E+00
         21   -1    0    0  501  502  0.00000000000E+00  0.00000000000E+00  0.57251975229E+03  0.57251975229E+03  0.00000000000E+00 0.  1.
         21   -1    0    0  502  503 -0.00000000000E+00 -0.00000000000E+00 -0.93823664976E+02  0.93823664976E+02  0.00000000000E+00 0.  1.
          6    1    1    2  501    0 -0.40544198555E+02  0.14568319024E+03  0.28293807987E+03  0.36448646202E+03  0.17300000000E+03 0.  1.
         -6    1    1    2    0  503  0.40544198555E+02 -0.14568319024E+03  0.19575800745E+03  0.30185695525E+03  0.17300000000E+03 0.  1.
<mgrwt>
<rscale>  2 0.22977472E+03</rscale>
<asrwt>0</asrwt>
<pdfrwt beam="1">  1       21 0.88079960E-01 0.22977472E+03</pdfrwt>
<pdfrwt beam="2">  1       21 0.14434410E-01 0.22977472E+03</pdfrwt>
<totfact> 0.45613813E+04</totfact>
</mgrwt>
</event>
<event>
 4    1  0.3935877E+000  0.2231374E+03  0.7546771E-02  0.1131565E+00
         21   -1    0    0  503  502  0.00000000000E+00  0.00000000000E+00  0.15571775970E+04  0.15571775970E+04  0.00000000000E+00 0. -1.
         21   -1    0    0  501  503 -0.00000000000E+00 -0.00000000000E+00 -0.40161117366E+02  0.40161117366E+02  0.00000000000E+00 0.  1.
          6    1    1    2  501    0  0.40176628477E+02  0.13508191646E+03  0.39792039358E+03  0.45621368376E+03  0.17300000000E+03 0.  1.
         -6    1    1    2    0  502 -0.40176628477E+02 -0.13508191646E+03  0.11190960860E+04  0.11411250306E+04  0.17300000000E+03 0.  1.
<mgrwt>
<rscale>  2 0.22313737E+03</rscale>
<asrwt>0</asrwt>
<pdfrwt beam="1">  1       21 0.23956574E+00 0.22313737E+03</pdfrwt>
<pdfrwt beam="2">  1       21 0.61786346E-02 0.22313737E+03</pdfrwt>
<totfact> 0.14005114E+04</totfact>
</mgrwt>
</event>
<event>
 4    1  0.3935877E+000  0.2230814E+03  0.7546771E-02  0.1131606E+00
         21   -1    0    0  501  502  0.00000000000E+00  0.00000000000E+00  0.46097409897E+03  0.46097409897E+03  0.00000000000E+00 0. -1.
         21   -1    0    0  502  503 -0.00000000000E+00 -0.00000000000E+00 -0.12803265078E+03  0.12803265078E+03  0.00000000000E+00 0.  1.
          6    1    1    2  501    0 -0.94174354012E+02  0.10472583479E+03  0.28308894143E+03  0.36042288799E+03  0.17300000000E+03 0.  1.
         -6    1    1    2    0  503  0.94174354012E+02 -0.10472583479E+03  0.49852506759E+02  0.22858386176E+03  0.17300000000E+03 0.  1.
<mgrwt>
<rscale>  2 0.22308140E+03</rscale>
<asrwt>0</asrwt>
<pdfrwt beam="1">  1       21 0.70919091E-01 0.22308140E+03</pdfrwt>
<pdfrwt beam="2">  1       21 0.19697331E-01 0.22308140E+03</pdfrwt>
<totfact> 0.42114351E+04</totfact>
</mgrwt>
</event>
<event>
 4    1  0.3935877E+000  0.2047579E+03  0.7546771E-02  0.1145786E+00
         21   -1    0    0  503  502  0.00000000000E+00  0.00000000000E+00  0.89236696122E+03  0.89236696122E+03  0.00000000000E+00 0. -1.
         21   -1    0    0  501  503 -0.00000000000E+00 -0.00000000000E+00 -0.57637806180E+02  0.57637806180E+02  0.00000000000E+00 0. -1.
          6    1    1    2  501    0  0.33672799878E+02  0.10422549290E+03  0.21313392616E+03  0.29555351681E+03  0.17300000000E+03 0. -1.
         -6    1    1    2    0  502 -0.33672799878E+02 -0.10422549290E+03  0.62159522889E+03  0.65445125059E+03  0.17300000000E+03 0. -1.
<mgrwt>
<rscale>  2 0.20475793E+03</rscale>
<asrwt>0</asrwt>
<pdfrwt beam="1">  1       21 0.13728721E+00 0.20475793E+03</pdfrwt>
<pdfrwt beam="2">  1       21 0.88673555E-02 0.20475793E+03</pdfrwt>
<totfact> 0.37466311E+04</totfact>
</mgrwt>
</event>
<event>
 4    1  0.3935877E+000  0.2272412E+03  0.7546771E-02  0.1128597E+00
         21   -1    0    0  501  502  0.00000000000E+00  0.00000000000E+00  0.25337244494E+03  0.25337244494E+03  0.00000000000E+00 0. -1.
         21   -1    0    0  502  503 -0.00000000000E+00 -0.00000000000E+00 -0.39840142771E+03  0.39840142771E+03  0.00000000000E+00 0.  1.
          6    1    1    2  501    0  0.30475926645E+02  0.14415540399E+03  0.15524368548E+03  0.27520749351E+03  0.17300000000E+03 0. -1.
         -6    1    1    2    0  503 -0.30475926645E+02 -0.14415540399E+03 -0.30027266825E+03  0.37656637914E+03  0.17300000000E+03 0.  1.
<mgrwt>
<rscale>  2 0.22724120E+03</rscale>
<asrwt>0</asrwt>
<pdfrwt beam="1">  1       21 0.38980376E-01 0.22724120E+03</pdfrwt>
<pdfrwt beam="2">  1       21 0.61292527E-01 0.22724120E+03</pdfrwt>
<totfact> 0.15379961E+04</totfact>
</mgrwt>
</event>
<event>
 4    1  0.3935877E+000  0.2453167E+03  0.7546771E-02  0.1116301E+00
         21   -1    0    0  503  502  0.00000000000E+00  0.00000000000E+00  0.14610762995E+04  0.14610762995E+04  0.00000000000E+00 0.  1.
         21   -1    0    0  501  503 -0.00000000000E+00 -0.00000000000E+00 -0.43286298367E+02  0.43286298367E+02  0.00000000000E+00 0.  1.
          6    1    1    2  501    0 -0.17388359401E+03  0.39712240703E+01  0.87446330113E+03  0.90822152579E+03  0.17300000000E+03 0.  1.
         -6    1    1    2    0  502  0.17388359401E+03 -0.39712240703E+01  0.54332670004E+03  0.59614107211E+03  0.17300000000E+03 0.  1.
<mgrwt>
<rscale>  2 0.24531668E+03</rscale>
<asrwt>0</asrwt>
<pdfrwt beam="1">  1       21 0.22478093E+00 0.24531668E+03</pdfrwt>
<pdfrwt beam="2">  1       21 0.66594316E-02 0.24531668E+03</pdfrwt>
<totfact> 0.14889675E+04</totfact>
</mgrwt>
</event>
<event>
 4    1  0.3935877E+000  0.1987266E+03  0.7546771E-02  0.1150818E+00
         21   -1    0    0  501  502  0.00000000000E+00  0.00000000000E+00  0.28229627957E+03  0.28229627957E+03  0.00000000000E+00 0.  1.
         21   -1    0    0  502  503 -0.00000000000E+00 -0.00000000000E+00 -0.25045550701E+03  0.25045550701E+03  0.00000000000E+00 0. -1.
          6    1    1    2  501    0 -0.46123582924E+02 -0.86231498711E+02  0.19290141997E+03  0.27695345114E+03  0.17300000000E+03 0.  1.
         -6    1    1    2    0  503  0.46123582924E+02  0.86231498711E+02 -0.16106064740E+03  0.25579833544E+03  0.17300000000E+03 0. -1.
<mgrwt>
<rscale>  2 0.19872659E+03</rscale>
<asrwt>0</asrwt>
<pdfrwt beam="1">  1       21 0.43430196E-01 0.19872659E+03</pdfrwt>
<pdfrwt beam="2">  1       21 0.38531617E-01 0.19872659E+03</pdfrwt>
<totfact> 0.32991202E+04</totfact>
</mgrwt>
</event>
<event>
 4    1  0.3935877E+000  0.1795785E+03  0.7546771E-02  0.1168212E+00
         21   -1    0    0  503  502  0.00000000000E+00  0.00000000000E+00  0.31855151557E+03  0.31855151557E+03  0.00000000000E+00 0. -1.
         21   -1    0    0  501  503 -0.00000000000E+00 -0.00000000000E+00 -0.20666620762E+03  0.20666620762E+03  0.00000000000E+00 0.  1.
          6    1    1    2  501    0 -0.28521595355E+02 -0.38806812000E+02 -0.13162586990E+03  0.22265179022E+03  0.17300000000E+03 0.  1.
         -6    1    1    2    0  502  0.28521595355E+02  0.38806812000E+02  0.24351117785E+03  0.30256593297E+03  0.17300000000E+03 0. -1.
<mgrwt>
<rscale>  2 0.17957853E+03</rscale>
<asrwt>0</asrwt>
<pdfrwt beam="1">  1       21 0.49007926E-01 0.17957853E+03</pdfrwt>
<pdfrwt beam="2">  1       21 0.31794801E-01 0.17957853E+03</pdfrwt>
<totfact> 0.38039696E+04</totfact>
</mgrwt>
</event>
<event>
 4    1  0.3935877E+000  0.3176363E+03  0.7546771E-02  0.1076742E+00
         21   -1    0    0  501  502  0.00000000000E+00  0.00000000000E+00  0.96276929714E+03  0.96276929714E+03  0.00000000000E+00 0. -1.
         21   -1    0    0  502  503 -0.00000000000E+00 -0.00000000000E+00 -0.11496288011E+03  0.11496288011E+03  0.00000000000E+00 0.  1.
          6    1    1    2  501    0 -0.20946493316E+02 -0.26556559109E+03  0.58416495900E+03  0.66493724372E+03  0.17300000000E+03 0. -1.
         -6    1    1    2    0  503  0.20946493316E+02  0.26556559109E+03  0.26364145803E+03  0.41279493353E+03  0.17300000000E+03 0. -1.
<mgrwt>
<rscale>  2 0.31763633E+03</rscale>
<asrwt>0</asrwt>
<pdfrwt beam="1">  1       21 0.14811835E+00 0.31763633E+03</pdfrwt>
<pdfrwt beam="2">  1       21 0.17686598E-01 0.31763633E+03</pdfrwt>
<totfact> 0.83009819E+03</totfact>
</mgrwt>
</event>
<event>
 4    1  0.3935877E+000  0.1888026E+03  0.7546771E-02  0.1159546E+00
         21   -1    0    0  501  502  0.00000000000E+00  0.00000000000E+00  0.28240098418E+03  0.28240098418E+03  0.00000000000E+00 0.  1.
         21   -1    0    0  502  503 -0.00000000000E+00 -0.00000000000E+00 -0.12706024199E+03  0.12706024199E+03  0.00000000000E+00 0.  1.
          6    1    1    2  501    0 -0.14433842647E+02 -0.74223192563E+02  0.94256997374E+02  0.21102322072E+03  0.17300000000E+03 0.  1.
         -6    1    1    2    0  503  0.14433842647E+02  0.74223192563E+02  0.61083744818E+02  0.19843800545E+03  0.17300000000E+03 0.  1.
<mgrwt>
<rscale>  2 0.18880259E+03</rscale>
<asrwt>0</asrwt>
<pdfrwt beam="1">  1       21 0.43446305E-01 0.18880259E+03</pdfrwt>
<pdfrwt beam="2">  1       21 0.19547730E-01 0.18880259E+03</pdfrwt>
<totfact> 0.12283854E+05</totfact>
</mgrwt>
</event>
<event>
 4    1  0.3935877E+000  0.2231633E+03  0.7546771E-02  0.1131546E+00
         21   -1    0    0  501  502  0.00000000000E+00  0.00000000000E+00  0.28858028246E+04  0.28858028246E+04  0.00000000000E+00 0.  1.
         21   -1    0    0  502  503 -0.00000000000E+00 -0.00000000000E+00 -0.22325471884E+02  0.22325471884E+02  0.00000000000E+00 0.  1.
          6    1    1    2  501    0  0.10830055979E+03 -0.90243304034E+02  0.21245237406E+04  0.21362122998E+04  0.17300000000E+03 0.  1.
         -6    1    1    2    0  503 -0.10830055979E+03  0.90243304034E+02  0.73895361210E+03  0.77191599673E+03  0.17300000000E+03 0.  1.
<mgrwt>
<rscale>  2 0.22316332E+03</rscale>
<asrwt>0</asrwt>
<pdfrwt beam="1">  1       21 0.44396937E+00 0.22316332E+03</pdfrwt>
<pdfrwt beam="2">  1       21 0.34346903E-02 0.22316332E+03</pdfrwt>
<totfact> 0.22085918E+03</totfact>
</mgrwt>
</event>
<event>
 4    1  0.3935877E+000  0.1920530E+03  0.7546771E-02  0.1156623E+00
         21   -1    0    0  503  502  0.00000000000E+00  0.00000000000E+00  0.11973401468E+04  0.11973401468E+04  0.00000000000E+00 0. -1.
         21   -1    0    0  501  503 -0.00000000000E+00 -0.00000000000E+00 -0.31584172672E+02  0.31584172672E+02  0.00000000000E+00 0. -1.
          6    1    1    2  501    0  0.82788267188E+02 -0.10072401080E+02  0.48638174905E+03  0.52292595676E+03  0.17300000000E+03 0.  1.
         -6    1    1    2    0  502 -0.82788267188E+02  0.10072401080E+02  0.67937422508E+03  0.70599836272E+03  0.17300000000E+03 0.  1.
<mgrwt>
<rscale>  2 0.19205299E+03</rscale>
<asrwt>0</asrwt>
<pdfrwt beam="1">  1       21 0.18420614E+00 0.19205299E+03</pdfrwt>
<pdfrwt beam="2">  1       21 0.48591044E-02 0.19205299E+03</pdfrwt>
<totfact> 0.48138807E+04</totfact>
</mgrwt>
</event>
<event>
 4    1  0.3935877E+000  0.2262885E+03  0.7546771E-02  0.1129280E+00
         21   -1    0    0  501  502  0.00000000000E+00  0.00000000000E+00  0.14398648004E+03  0.14398648004E+03  0.00000000000E+00 0. -1.
         21   -1    0    0  502  503 -0.00000000000E+00 -0.00000000000E+00 -0.35645042023E+03  0.35645042023E+03  0.00000000000E+00 0. -1.
          6    1    1    2  501    0  0.99861632036E+02 -0.10632560919E+03 -0.94256576473E+02  0.24513421412E+03  0.17300000000E+03 0. -1.
         -6    1    1    2    0  503 -0.99861632036E+02  0.10632560919E+03 -0.11820736372E+03  0.25530268616E+03  0.17300000000E+03 0. -1.
<mgrwt>
<rscale>  2 0.22628849E+03</rscale>
<asrwt>0</asrwt>
<pdfrwt beam="1">  1       21 0.22151766E-01 0.22628849E+03</pdfrwt>
<pdfrwt beam="2">  1       21 0.54838525E-01 0.22628849E+03</pdfrwt>
<totfact> 0.58905487E+04</totfact>
</mgrwt>
</event>
<event>
 4    1  0.3935877E+000  0.1987219E+03  0.7546771E-02  0.1150822E+00
         21   -1    0    0  503  502  0.00000000000E+00  0.00000000000E+00  0.14988512493E+03  0.14988512493E+03  0.00000000000E+00 0.  1.
         21   -1    0    0  501  503 -0.00000000000E+00 -0.00000000000E+00 -0.32287112670E+03  0.32287112670E+03  0.00000000000E+00 0.  1.
          6    1    1    2  501    0 -0.87753741951E+02 -0.43135342930E+02 -0.18788099472E+03  0.27347695554E+03  0.17300000000E+03 0.  1.
         -6    1    1    2    0  502  0.87753741951E+02  0.43135342930E+02  0.14894992943E+02  0.19927929609E+03  0.17300000000E+03 0.  1.
<mgrwt>
<rscale>  2 0.19872186E+03</rscale>
<asrwt>0</asrwt>
<pdfrwt beam="1">  1       21 0.23059250E-01 0.19872186E+03</pdfrwt>
<pdfrwt beam="2">  1       21 0.49672481E-01 0.19872186E+03</pdfrwt>
<totfact> 0.68042377E+04</totfact>
</mgrwt>
</event>
<event>
 4    1  0.3935877E+000  0.3631934E+03  0.7546771E-02  0.1057327E+00
         21   -1    0    0  503  502  0.00000000000E+00  0.00000000000E+00  0.88800329292E+03  0.88800329292E+03  0.00000000000E+00 0. -1.
         21   -1    0    0  501  503 -0.00000000000E+00 -0.00000000000E+00 -0.57547673680E+03  0.57547673680E+03  0.00000000000E+00 0.  1.
          6    1    1    2  501    0 -0.31706777008E+03  0.38059163012E+02 -0.47399934655E+03  0.59714726093E+03  0.17300000000E+03 0.  1.
         -6    1    1    2    0  502  0.31706777008E+03 -0.38059163012E+02  0.78652590267E+03  0.86633276879E+03  0.17300000000E+03 0. -1.
<mgrwt>
<rscale>  2 0.36319343E+03</rscale>
<asrwt>0</asrwt>
<pdfrwt beam="1">  1       21 0.13661589E+00 0.36319343E+03</pdfrwt>
<pdfrwt beam="2">  1       21 0.88534882E-01 0.36319343E+03</pdfrwt>
<totfact> 0.36071441E+02</totfact>
</mgrwt>
</event>
<event>
 4    1  0.3935877E+000  0.2288350E+03  0.7546771E-02  0.1127462E+00
         21   -1    0    0  501  502  0.00000000000E+00  0.00000000000E+00  0.28172938692E+03  0.28172938692E+03  0.00000000000E+00 0.  1.
         21   -1    0    0  502  503 -0.00000000000E+00 -0.00000000000E+00 -0.20374654873E+03  0.20374654873E+03  0.00000000000E+00 0.  1.
          6    1    1    2  501    0 -0.73820853975E+02  0.13033389221E+03  0.11088947353E+03  0.25428707651E+03  0.17300000000E+03 0.  1.
         -6    1    1    2    0  503  0.73820853975E+02 -0.13033389221E+03 -0.32906635344E+02  0.23118885914E+03  0.17300000000E+03 0.  1.
<mgrwt>
<rscale>  2 0.22883497E+03</rscale>
<asrwt>0</asrwt>
<pdfrwt beam="1">  1       21 0.43342983E-01 0.22883497E+03</pdfrwt>
<pdfrwt beam="2">  1       21 0.31345623E-01 0.22883497E+03</pdfrwt>
<totfact> 0.49211503E+04</totfact>
</mgrwt>
</event>
<event>
 4    1  0.3935877E+000  0.2393485E+03  0.7546771E-02  0.1120228E+00
         21   -1    0    0  503  502  0.00000000000E+00  0.00000000000E+00  0.88172465099E+02  0.88172465099E+02  0.00000000000E+00 0. -1.
         21   -1    0    0  501  503 -0.00000000000E+00 -0.00000000000E+00 -0.67597955734E+03  0.67597955734E+03  0.00000000000E+00 0. -1.
          6    1    1    2  501    0 -0.11622262131E+03  0.11769031735E+03 -0.36920425612E+03  0.43999942186E+03  0.17300000000E+03 0. -1.
         -6    1    1    2    0  502  0.11622262131E+03 -0.11769031735E+03 -0.21860283612E+03  0.32415260058E+03  0.17300000000E+03 0. -1.
<mgrwt>
<rscale>  2 0.23934851E+03</rscale>
<asrwt>0</asrwt>
<pdfrwt beam="1">  1       21 0.13564995E-01 0.23934851E+03</pdfrwt>
<pdfrwt beam="2">  1       21 0.10399685E+00 0.23934851E+03</pdfrwt>
<totfact> 0.34348464E+04</totfact>
</mgrwt>
</event>
<event>
 4    1  0.3935877E+000  0.2674879E+03  0.7546771E-02  0.1102726E+00
         21   -1    0    0  503  502  0.00000000000E+00  0.00000000000E+00  0.53536510121E+02  0.53536510121E+02  0.00000000000E+00 0. -1.
         21   -1    0    0  501  503 -0.00000000000E+00 -0.00000000000E+00 -0.18026084029E+04  0.18026084029E+04  0.00000000000E+00 0.  1.
          6    1    1    2  501    0  0.13895993496E+03  0.14936839055E+03 -0.13464794615E+04  0.13727915791E+04  0.17300000000E+03 0. -1.
         -6    1    1    2    0  502 -0.13895993496E+03 -0.14936839055E+03 -0.40259243130E+03  0.48335333387E+03  0.17300000000E+03 0. -1.
<mgrwt>
<rscale>  2 0.26748791E+03</rscale>
<asrwt>0</asrwt>
<pdfrwt beam="1">  1       21 0.82363870E-02 0.26748791E+03</pdfrwt>
<pdfrwt beam="2">  1       21 0.27732434E+00 0.26748791E+03</pdfrwt>
<totfact> 0.49016512E+03</totfact>
</mgrwt>
</event>
<event>
 4    1  0.3935877E+000  0.2111173E+03  0.7546771E-02  0.1140684E+00
         21   -1    0    0  503  502  0.00000000000E+00  0.00000000000E+00  0.82475878837E+02  0.82475878837E+02  0.00000000000E+00 0. -1.
         21   -1    0    0  501  503 -0.00000000000E+00 -0.00000000000E+00 -0.72238643124E+03  0.72238643124E+03  0.00000000000E+00 0. -1.
          6    1    1    2  501    0 -0.11358077040E+03 -0.41724469294E+02 -0.52193986716E+03  0.56302020183E+03  0.17300000000E+03 0. -1.
         -6    1    1    2    0  502  0.11358077040E+03  0.41724469294E+02 -0.11797068524E+03  0.24184210824E+03  0.17300000000E+03 0. -1.
<mgrwt>
<rscale>  2 0.21111732E+03</rscale>
<asrwt>0</asrwt>
<pdfrwt beam="1">  1       21 0.12688597E-01 0.21111732E+03</pdfrwt>
<pdfrwt beam="2">  1       21 0.11113637E+00 0.21111732E+03</pdfrwt>
<totfact> 0.33475334E+04</totfact>
</mgrwt>
</event>
<event>
 4    1  0.3935877E+000  0.2112652E+03  0.7546771E-02  0.1140568E+00
         21   -1    0    0  501  502  0.00000000000E+00  0.00000000000E+00  0.77603386992E+03  0.77603386992E+03  0.00000000000E+00 0. -1.
         21   -1    0    0  502  503 -0.00000000000E+00 -0.00000000000E+00 -0.21455463615E+03  0.21455463615E+03  0.00000000000E+00 0. -1.
          6    1    1    2  501    0  0.98686626863E+02 -0.70462261118E+02  0.70448019987E+03  0.73547626241E+03  0.17300000000E+03 0. -1.
         -6    1    1    2    0  503 -0.98686626863E+02  0.70462261118E+02 -0.14300096609E+03  0.25511224366E+03  0.17300000000E+03 0. -1.
<mgrwt>
<rscale>  2 0.21126519E+03</rscale>
<asrwt>0</asrwt>
<pdfrwt beam="1">  1       21 0.11938982E+00 0.21126519E+03</pdfrwt>
<pdfrwt beam="2">  1       21 0.33008406E-01 0.21126519E+03</pdfrwt>
<totfact> 0.46558181E+03</totfact>
</mgrwt>
</event>
<event>
 4    1  0.3935877E+000  0.1880124E+03  0.7546771E-02  0.1160266E+00
         21   -1    0    0  501  502  0.00000000000E+00  0.00000000000E+00  0.14140194011E+03  0.14140194011E+03  0.00000000000E+00 0. -1.
         21   -1    0    0  502  503 -0.00000000000E+00 -0.00000000000E+00 -0.25768170504E+03  0.25768170504E+03  0.00000000000E+00 0.  1.
          6    1    1    2  501    0 -0.39626426404E+02  0.62043623597E+02 -0.23658512009E+02  0.18949509252E+03  0.17300000000E+03 0. -1.
         -6    1    1    2    0  503  0.39626426404E+02 -0.62043623597E+02 -0.92621252928E+02  0.20958855263E+03  0.17300000000E+03 0.  1.
<mgrwt>
<rscale>  2 0.18801241E+03</rscale>
<asrwt>0</asrwt>
<pdfrwt beam="1">  1       21 0.21754145E-01 0.18801241E+03</pdfrwt>
<pdfrwt beam="2">  1       21 0.39643339E-01 0.18801241E+03</pdfrwt>
<totfact> 0.12112588E+05</totfact>
</mgrwt>
</event>
<event>
 4    1  0.3935877E+000  0.1959185E+03  0.7546771E-02  0.1153229E+00
         21   -1    0    0  501  502  0.00000000000E+00  0.00000000000E+00  0.16375198289E+04  0.16375198289E+04  0.00000000000E+00 0.  1.
         21   -1    0    0  502  503 -0.00000000000E+00 -0.00000000000E+00 -0.23589791042E+02  0.23589791042E+02  0.00000000000E+00 0.  1.
          6    1    1    2  501    0  0.74447642300E+02 -0.53968624084E+02  0.87306756758E+03  0.89477988433E+03  0.17300000000E+03 0.  1.
         -6    1    1    2    0  503 -0.74447642300E+02  0.53968624084E+02  0.74086247030E+03  0.76632973564E+03  0.17300000000E+03 0.  1.
<mgrwt>
<rscale>  2 0.19591851E+03</rscale>
<asrwt>0</asrwt>
<pdfrwt beam="1">  1       21 0.25192604E+00 0.19591851E+03</pdfrwt>
<pdfrwt beam="2">  1       21 0.36291999E-02 0.19591851E+03</pdfrwt>
<totfact> 0.29789964E+04</totfact>
</mgrwt>
</event>
<event>
 4    1  0.3935877E+000  0.1806198E+03  0.7546771E-02  0.1167205E+00
         21   -1    0    0  503  502  0.00000000000E+00  0.00000000000E+00  0.28955396701E+03  0.28955396701E+03  0.00000000000E+00 0.  1.
         21   -1    0    0  501  503 -0.00000000000E+00 -0.00000000000E+00 -0.11324998410E+03  0.11324998410E+03  0.00000000000E+00 0.  1.
          6    1    1    2  501    0  0.51317020897E+02 -0.78154875074E+01  0.73716451489E+02  0.19508365821E+03  0.17300000000E+03 0.  1.
         -6    1    1    2    0  502 -0.51317020897E+02  0.78154875074E+01  0.10258753142E+03  0.20772029290E+03  0.17300000000E+03 0.  1.
<mgrwt>
<rscale>  2 0.18061982E+03</rscale>
<asrwt>0</asrwt>
<pdfrwt beam="1">  1       21 0.44546764E-01 0.18061982E+03</pdfrwt>
<pdfrwt beam="2">  1       21 0.17423075E-01 0.18061982E+03</pdfrwt>
<totfact> 0.14482432E+05</totfact>
</mgrwt>
</event>
<event>
 4    1  0.3935877E+000  0.2079768E+03  0.7546771E-02  0.1143178E+00
         21   -1    0    0  503  502  0.00000000000E+00  0.00000000000E+00  0.17624619344E+03  0.17624619344E+03  0.00000000000E+00 0.  1.
         21   -1    0    0  501  503 -0.00000000000E+00 -0.00000000000E+00 -0.28861722331E+03  0.28861722331E+03  0.00000000000E+00 0.  1.
          6    1    1    2  501    0 -0.11382015816E+03  0.19243495090E+02 -0.14610673196E+03  0.25416828605E+03  0.17300000000E+03 0.  1.
         -6    1    1    2    0  502  0.11382015816E+03 -0.19243495090E+02  0.33735702096E+02  0.21069513071E+03  0.17300000000E+03 0.  1.
<mgrwt>
<rscale>  2 0.20797678E+03</rscale>
<asrwt>0</asrwt>
<pdfrwt beam="1">  1       21 0.27114799E-01 0.20797678E+03</pdfrwt>
<pdfrwt beam="2">  1       21 0.44402650E-01 0.20797678E+03</pdfrwt>
<totfact> 0.62693323E+04</totfact>
</mgrwt>
</event>
<event>
 4    1  0.3935877E+000  0.2060636E+03  0.7546771E-02  0.1144722E+00
         21   -1    0    0  501  502  0.00000000000E+00  0.00000000000E+00  0.11560834166E+03  0.11560834166E+03  0.00000000000E+00 0. -1.
         21   -1    0    0  502  503 -0.00000000000E+00 -0.00000000000E+00 -0.46329484370E+03  0.46329484370E+03  0.00000000000E+00 0. -1.
          6    1    1    2  501    0 -0.10917673993E+03 -0.24771642540E+02 -0.42082573411E+02  0.21031675587E+03  0.17300000000E+03 0. -1.
         -6    1    1    2    0  503  0.10917673993E+03  0.24771642540E+02 -0.30560392862E+03  0.36858642949E+03  0.17300000000E+03 0. -1.
<mgrwt>
<rscale>  2 0.20606357E+03</rscale>
<asrwt>0</asrwt>
<pdfrwt beam="1">  1       21 0.17785899E-01 0.20606357E+03</pdfrwt>
<pdfrwt beam="2">  1       21 0.71276129E-01 0.20606357E+03</pdfrwt>
<totfact> 0.50768563E+04</totfact>
</mgrwt>
</event>
<event>
 4    1  0.3935877E+000  0.2864311E+03  0.7546771E-02  0.1092227E+00
         21   -1    0    0  501  502  0.00000000000E+00  0.00000000000E+00  0.78963418879E+02  0.78963418879E+02  0.00000000000E+00 0.  1.
         21   -1    0    0  502  503 -0.00000000000E+00 -0.00000000000E+00 -0.12091927946E+04  0.12091927946E+04  0.00000000000E+00 0.  1.
          6    1    1    2  501    0 -0.18600494909E+03 -0.13234784872E+03 -0.32347706934E+03  0.43206505127E+03  0.17300000000E+03 0.  1.
         -6    1    1    2    0  503  0.18600494909E+03  0.13234784872E+03 -0.80675230637E+03  0.85609116219E+03  0.17300000000E+03 0.  1.
<mgrwt>
<rscale>  2 0.28643113E+03</rscale>
<asrwt>0</asrwt>
<pdfrwt beam="1">  1       21 0.12148219E-01 0.28643113E+03</pdfrwt>
<pdfrwt beam="2">  1       21 0.18602964E+00 0.28643113E+03</pdfrwt>
<totfact> 0.89153954E+03</totfact>
</mgrwt>
</event>
<event>
 4    1  0.3935877E+000  0.1892533E+03  0.7546771E-02  0.1159137E+00
         21   -1    0    0  503  502  0.00000000000E+00  0.00000000000E+00  0.84759220352E+03  0.84759220352E+03  0.00000000000E+00 0. -1.
         21   -1    0    0  501  503 -0.00000000000E+00 -0.00000000000E+00 -0.48744292604E+02  0.48744292604E+02  0.00000000000E+00 0.  1.
          6    1    1    2  501    0 -0.59312996604E+02  0.48680502491E+02  0.23592829259E+03  0.30245492579E+03  0.17300000000E+03 0.  1.
         -6    1    1    2    0  502  0.59312996604E+02 -0.48680502491E+02  0.56291961833E+03  0.59388157034E+03  0.17300000000E+03 0. -1.
<mgrwt>
<rscale>  2 0.18925333E+03</rscale>
<asrwt>0</asrwt>
<pdfrwt beam="1">  1       21 0.13039879E+00 0.18925333E+03</pdfrwt>
<pdfrwt beam="2">  1       21 0.74991225E-02 0.18925333E+03</pdfrwt>
<totfact> 0.57691845E+04</totfact>
</mgrwt>
</event>
<event>
 4    1  0.3935877E+000  0.2035739E+03  0.7546771E-02  0.1146758E+00
         21   -1    0    0  501  502  0.00000000000E+00  0.00000000000E+00  0.27490612131E+03  0.27490612131E+03  0.00000000000E+00 0. -1.
         21   -1    0    0  502  503 -0.00000000000E+00 -0.00000000000E+00 -0.15795641112E+03  0.15795641112E+03  0.00000000000E+00 0.  1.
          6    1    1    2  501    0  0.70026392824E+02 -0.81299798431E+02  0.10470049398E+03  0.22892039305E+03  0.17300000000E+03 0. -1.
         -6    1    1    2    0  503 -0.70026392824E+02  0.81299798431E+02  0.12249216211E+02  0.20394213938E+03  0.17300000000E+03 0. -1.
<mgrwt>
<rscale>  2 0.20357395E+03</rscale>
<asrwt>0</asrwt>
<pdfrwt beam="1">  1       21 0.42293249E-01 0.20357395E+03</pdfrwt>
<pdfrwt beam="2">  1       21 0.24300986E-01 0.20357395E+03</pdfrwt>
<totfact> 0.85612908E+04</totfact>
</mgrwt>
</event>
<event>
 4    1  0.3935877E+000  0.1818140E+03  0.7546771E-02  0.1166059E+00
         21   -1    0    0  503  502  0.00000000000E+00  0.00000000000E+00  0.50900481125E+02  0.50900481125E+02  0.00000000000E+00 0. -1.
         21   -1    0    0  501  503 -0.00000000000E+00 -0.00000000000E+00 -0.10067956274E+04  0.10067956274E+04  0.00000000000E+00 0. -1.
          6    1    1    2  501    0 -0.43725289376E+02  0.34863091750E+02 -0.79302421079E+03  0.81359924717E+03  0.17300000000E+03 0. -1.
         -6    1    1    2    0  502  0.43725289376E+02 -0.34863091750E+02 -0.16287093548E+03  0.24409686135E+03  0.17300000000E+03 0. -1.
<mgrwt>
<rscale>  2 0.18181402E+03</rscale>
<asrwt>0</asrwt>
<pdfrwt beam="1">  1       21 0.78308440E-02 0.18181402E+03</pdfrwt>
<pdfrwt beam="2">  1       21 0.15489162E+00 0.18181402E+03</pdfrwt>
<totfact> 0.34427710E+04</totfact>
</mgrwt>
</event>
<event>
 4    1  0.3935877E+000  0.1741378E+03  0.7546771E-02  0.1173600E+00
         21   -1    0    0  503  502  0.00000000000E+00  0.00000000000E+00  0.29009850690E+03  0.29009850690E+03  0.00000000000E+00 0.  1.
         21   -1    0    0  501  503 -0.00000000000E+00 -0.00000000000E+00 -0.16038329646E+03  0.16038329646E+03  0.00000000000E+00 0.  1.
          6    1    1    2  501    0  0.19786599214E+02 -0.18591254902E+01 -0.68063061487E+02  0.18696669809E+03  0.17300000000E+03 0.  1.
         -6    1    1    2    0  502 -0.19786599214E+02  0.18591254902E+01  0.19777827193E+03  0.26351510527E+03  0.17300000000E+03 0.  1.
<mgrwt>
<rscale>  2 0.17413778E+03</rscale>
<asrwt>0</asrwt>
<pdfrwt beam="1">  1       21 0.44630539E-01 0.17413778E+03</pdfrwt>
<pdfrwt beam="2">  1       21 0.24674353E-01 0.17413778E+03</pdfrwt>
<totfact> 0.75433497E+04</totfact>
</mgrwt>
</event>
<event>
 4    1  0.3935877E+000  0.2309051E+03  0.7546771E-02  0.1126004E+00
         21   -1    0    0  503  502  0.00000000000E+00  0.00000000000E+00  0.10007766151E+04  0.10007766151E+04  0.00000000000E+00 0. -1.
         21   -1    0    0  501  503 -0.00000000000E+00 -0.00000000000E+00 -0.74481840317E+02  0.74481840317E+02  0.00000000000E+00 0. -1.
          6    1    1    2  501    0 -0.11711206079E+03  0.98351036818E+02  0.17627575712E+03  0.29050009255E+03  0.17300000000E+03 0. -1.
         -6    1    1    2    0  502  0.11711206079E+03 -0.98351036818E+02  0.75001901763E+03  0.78475836283E+03  0.17300000000E+03 0. -1.
<mgrwt>
<rscale>  2 0.23090509E+03</rscale>
<asrwt>0</asrwt>
<pdfrwt beam="1">  1       21 0.15396562E+00 0.23090509E+03</pdfrwt>
<pdfrwt beam="2">  1       21 0.11458745E-01 0.23090509E+03</pdfrwt>
<totfact> 0.17335340E+04</totfact>
</mgrwt>
</event>
<event>
 4    1  0.3935877E+000  0.1881880E+03  0.7546771E-02  0.1160106E+00
         21   -1    0    0  503  502  0.00000000000E+00  0.00000000000E+00  0.75296348348E+03  0.75296348348E+03  0.00000000000E+00 0. -1.
         21   -1    0    0  501  503 -0.00000000000E+00 -0.00000000000E+00 -0.56734587169E+02  0.56734587169E+02  0.00000000000E+00 0.  1.
          6    1    1    2  501    0 -0.19263603662E+02 -0.71516683267E+02  0.18070768909E+03  0.26090226390E+03  0.17300000000E+03 0.  1.
         -6    1    1    2    0  502  0.19263603662E+02  0.71516683267E+02  0.51552120722E+03  0.54879580675E+03  0.17300000000E+03 0. -1.
<mgrwt>
<rscale>  2 0.18818800E+03</rscale>
<asrwt>0</asrwt>
<pdfrwt beam="1">  1       21 0.11584053E+00 0.18818800E+03</pdfrwt>
<pdfrwt beam="2">  1       21 0.87283985E-02 0.18818800E+03</pdfrwt>
<totfact> 0.59492381E+04</totfact>
</mgrwt>
</event>
<event>
 4    1  0.3935877E+000  0.2218405E+03  0.7546771E-02  0.1132518E+00
         21   -1    0    0  503  502  0.00000000000E+00  0.00000000000E+00  0.11517930802E+04  0.11517930802E+04  0.00000000000E+00 0. -1.
         21   -1    0    0  501  503 -0.00000000000E+00 -0.00000000000E+00 -0.46305586792E+02  0.46305586792E+02  0.00000000000E+00 0. -1.
          6    1    1    2  501    0  0.30467271596E+02  0.13548407249E+03  0.38622084161E+03  0.44539839137E+03  0.17300000000E+03 0. -1.
         -6    1    1    2    0  502 -0.30467271596E+02 -0.13548407249E+03  0.71926665175E+03  0.75270027558E+03  0.17300000000E+03 0. -1.
<mgrwt>
<rscale>  2 0.22184046E+03</rscale>
<asrwt>0</asrwt>
<pdfrwt beam="1">  1       21 0.17719891E+00 0.22184046E+03</pdfrwt>
<pdfrwt beam="2">  1       21 0.71239373E-02 0.22184046E+03</pdfrwt>
<totfact> 0.27376355E+04</totfact>
</mgrwt>
</event>
<event>
 4    1  0.3935877E+000  0.2163952E+03  0.7546771E-02  0.1136599E+00
         21   -1    0    0  501  502  0.00000000000E+00  0.00000000000E+00  0.33698914074E+03  0.33698914074E+03  0.00000000000E+00 0.  1.
         21   -1    0    0  502  503 -0.00000000000E+00 -0.00000000000E+00 -0.14982748506E+03  0.14982748506E+03  0.00000000000E+00 0. -1.
          6    1    1    2  501    0  0.12997289811E+03 -0.22234854133E+01  0.15914554067E+03  0.26861534067E+03  0.17300000000E+03 0. -1.
         -6    1    1    2    0  503 -0.12997289811E+03  0.22234854133E+01  0.28016115017E+02  0.21820128513E+03  0.17300000000E+03 0.  1.
<mgrwt>
<rscale>  2 0.21639524E+03</rscale>
<asrwt>0</asrwt>
<pdfrwt beam="1">  1       21 0.51844483E-01 0.21639524E+03</pdfrwt>
<pdfrwt beam="2">  1       21 0.23050382E-01 0.21639524E+03</pdfrwt>
<totfact> 0.61767922E+04</totfact>
</mgrwt>
</event>
<event>
 4    1  0.3935877E+000  0.2230448E+03  0.7546771E-02  0.1131633E+00
         21   -1    0    0  503  502  0.00000000000E+00  0.00000000000E+00  0.19093477341E+03  0.19093477341E+03  0.00000000000E+00 0. -1.
         21   -1    0    0  501  503 -0.00000000000E+00 -0.00000000000E+00 -0.27100124809E+03  0.27100124809E+03  0.00000000000E+00 0. -1.
          6    1    1    2  501    0  0.11426355916E+03 -0.82242366726E+02 -0.85380485148E+02  0.23882796126E+03  0.17300000000E+03 0. -1.
         -6    1    1    2    0  502 -0.11426355916E+03  0.82242366726E+02  0.53140104593E+01  0.22310806024E+03  0.17300000000E+03 0. -1.
<mgrwt>
<rscale>  2 0.22304477E+03</rscale>
<asrwt>0</asrwt>
<pdfrwt beam="1">  1       21 0.29374581E-01 0.22304477E+03</pdfrwt>
<pdfrwt beam="2">  1       21 0.41692500E-01 0.22304477E+03</pdfrwt>
<totfact> 0.60657597E+04</totfact>
</mgrwt>
</event>
<event>
 4    1  0.3935877E+000  0.1987470E+03  0.7546771E-02  0.1150801E+00
         21   -1    0    0  503  502  0.00000000000E+00  0.00000000000E+00  0.31193716472E+03  0.31193716472E+03  0.00000000000E+00 0.  1.
         21   -1    0    0  501  503 -0.00000000000E+00 -0.00000000000E+00 -0.16214158013E+03  0.16214158013E+03  0.00000000000E+00 0.  1.
          6    1    1    2  501    0  0.21797441968E+02 -0.95374173705E+02 -0.36035786623E+02  0.20198747338E+03  0.17300000000E+03 0.  1.
         -6    1    1    2    0  502 -0.21797441968E+02  0.95374173705E+02  0.18583137121E+03  0.27209127148E+03  0.17300000000E+03 0.  1.
<mgrwt>
<rscale>  2 0.19874698E+03</rscale>
<asrwt>0</asrwt>
<pdfrwt beam="1">  1       21 0.47990333E-01 0.19874698E+03</pdfrwt>
<pdfrwt beam="2">  1       21 0.24944859E-01 0.19874698E+03</pdfrwt>
<totfact> 0.62942546E+04</totfact>
</mgrwt>
</event>
<event>
 4    1  0.3935877E+000  0.1992263E+03  0.7546771E-02  0.1150393E+00
         21   -1    0    0  501  502  0.00000000000E+00  0.00000000000E+00  0.29981566356E+03  0.29981566356E+03  0.00000000000E+00 0. -1.
         21   -1    0    0  502  503 -0.00000000000E+00 -0.00000000000E+00 -0.19460381043E+03  0.19460381043E+03  0.00000000000E+00 0. -1.
          6    1    1    2  501    0 -0.81764091183E+02  0.55468555789E+02  0.19238765215E+03  0.27695511547E+03  0.17300000000E+03 0. -1.
         -6    1    1    2    0  503  0.81764091183E+02 -0.55468555789E+02 -0.87175799026E+02  0.21746435851E+03  0.17300000000E+03 0. -1.
<mgrwt>
<rscale>  2 0.19922632E+03</rscale>
<asrwt>0</asrwt>
<pdfrwt beam="1">  1       21 0.46125486E-01 0.19922632E+03</pdfrwt>
<pdfrwt beam="2">  1       21 0.29939048E-01 0.19922632E+03</pdfrwt>
<totfact> 0.48028692E+04</totfact>
</mgrwt>
</event>
<event>
 4    1  0.3935877E+000  0.3685382E+03  0.7546771E-02  0.1055253E+00
         21   -1    0    0  501  502  0.00000000000E+00  0.00000000000E+00  0.84640734818E+03  0.84640734818E+03  0.00000000000E+00 0.  1.
         21   -1    0    0  502  503 -0.00000000000E+00 -0.00000000000E+00 -0.51704128076E+03  0.51704128076E+03  0.00000000000E+00 0. -1.
          6    1    1    2  501    0 -0.31797410778E+03  0.69165501761E+02  0.73081961311E+03  0.81848500704E+03  0.17300000000E+03 0.  1.
         -6    1    1    2    0  503  0.31797410778E+03 -0.69165501761E+02 -0.40145354569E+03  0.54496362190E+03  0.17300000000E+03 0. -1.
<mgrwt>
<rscale>  2 0.36853819E+03</rscale>
<asrwt>0</asrwt>
<pdfrwt beam="1">  1       21 0.13021651E+00 0.36853819E+03</pdfrwt>
<pdfrwt beam="2">  1       21 0.79544813E-01 0.36853819E+03</pdfrwt>
<totfact> 0.52214789E+02</totfact>
</mgrwt>
</event>
<event>
 4    1  0.3935877E+000  0.1921376E+03  0.7546771E-02  0.1156547E+00
         21   -1    0    0  501  502  0.00000000000E+00  0.00000000000E+00  0.70677815802E+03  0.70677815802E+03  0.00000000000E+00 0. -1.
         21   -1    0    0  502  503 -0.00000000000E+00 -0.00000000000E+00 -0.88837599692E+02  0.88837599692E+02  0.00000000000E+00 0. -1.
          6    1    1    2  501    0 -0.15045778683E+02  0.82228129014E+02  0.56432585505E+03  0.59613799689E+03  0.17300000000E+03 0. -1.
         -6    1    1    2    0  503  0.15045778683E+02 -0.82228129014E+02  0.53614703286E+02  0.19947776083E+03  0.17300000000E+03 0. -1.
<mgrwt>
<rscale>  2 0.19213756E+03</rscale>
<asrwt>0</asrwt>
<pdfrwt beam="1">  1       21 0.10873510E+00 0.19213756E+03</pdfrwt>
<pdfrwt beam="2">  1       21 0.13667324E-01 0.19213756E+03</pdfrwt>
<totfact> 0.31201888E+04</totfact>
</mgrwt>
</event>
<event>
 4    1  0.3935877E+000  0.1969061E+03  0.7546771E-02  0.1152376E+00
         21   -1    0    0  501  502  0.00000000000E+00  0.00000000000E+00  0.10028367430E+03  0.10028367430E+03  0.00000000000E+00 0.  1.
         21   -1    0    0  502  503 -0.00000000000E+00 -0.00000000000E+00 -0.60308798179E+03  0.60308798179E+03  0.00000000000E+00 0. -1.
          6    1    1    2  501    0 -0.37224484306E+02 -0.86356016309E+02 -0.40705388794E+02  0.20106952146E+03  0.17300000000E+03 0.  1.
         -6    1    1    2    0  503  0.37224484306E+02  0.86356016309E+02 -0.46209891870E+03  0.50230213462E+03  0.17300000000E+03 0. -1.
<mgrwt>
<rscale>  2 0.19690613E+03</rscale>
<asrwt>0</asrwt>
<pdfrwt beam="1">  1       21 0.15428258E-01 0.19690613E+03</pdfrwt>
<pdfrwt beam="2">  1       21 0.92782766E-01 0.19690613E+03</pdfrwt>
<totfact> 0.36394492E+04</totfact>
</mgrwt>
</event>
<event>
 4    1  0.3935877E+000  0.1900611E+03  0.7546771E-02  0.1158406E+00
         21   -1    0    0  503  502  0.00000000000E+00  0.00000000000E+00  0.48578673752E+02  0.48578673752E+02  0.00000000000E+00 0.  1.
         21   -1    0    0  501  503 -0.00000000000E+00 -0.00000000000E+00 -0.93824768932E+03  0.93824768932E+03  0.00000000000E+00 0.  1.
          6    1    1    2  501    0 -0.76997279759E+02  0.16298150037E+02 -0.66957126976E+03  0.69602363183E+03  0.17300000000E+03 0.  1.
         -6    1    1    2    0  502  0.76997279759E+02 -0.16298150037E+02 -0.22009774581E+03  0.29080273124E+03  0.17300000000E+03 0.  1.
<mgrwt>
<rscale>  2 0.19006107E+03</rscale>
<asrwt>0</asrwt>
<pdfrwt beam="1">  1       21 0.74736434E-02 0.19006107E+03</pdfrwt>
<pdfrwt beam="2">  1       21 0.14434577E+00 0.19006107E+03</pdfrwt>
<totfact> 0.44709762E+04</totfact>
</mgrwt>
</event>
<event>
 4    1  0.3935877E+000  0.1816472E+03  0.7546771E-02  0.1166218E+00
         21   -1    0    0  503  502  0.00000000000E+00  0.00000000000E+00  0.10355309583E+04  0.10355309583E+04  0.00000000000E+00 0.  1.
         21   -1    0    0  501  503 -0.00000000000E+00 -0.00000000000E+00 -0.52899663489E+02  0.52899663489E+02  0.00000000000E+00 0.  1.
          6    1    1    2  501    0 -0.18596469663E+01  0.55346693748E+02  0.14813180589E+03  0.23439015916E+03  0.17300000000E+03 0. -1.
         -6    1    1    2    0  502  0.18596469663E+01 -0.55346693748E+02  0.83449948892E+03  0.85404046262E+03  0.17300000000E+03 0. -1.
<mgrwt>
<rscale>  2 0.18164723E+03</rscale>
<asrwt>0</asrwt>
<pdfrwt beam="1">  1       21 0.15931244E+00 0.18164723E+03</pdfrwt>
<pdfrwt beam="2">  1       21 0.81384105E-02 0.18164723E+03</pdfrwt>
<totfact> 0.29866932E+04</totfact>
</mgrwt>
</event>
<event>
 4    1  0.3935877E+000  0.2774202E+03  0.7546771E-02  0.1097106E+00
         21   -1    0    0  501  502  0.00000000000E+00  0.00000000000E+00  0.55994149452E+02  0.55994149452E+02  0.00000000000E+00 0.  1.
         21   -1    0    0  502  503 -0.00000000000E+00 -0.00000000000E+00 -0.15116642170E+04  0.15116642170E+04  0.00000000000E+00 0. -1.
          6    1    1    2  501    0  0.45942823788E+02  0.21194867820E+03 -0.49169481727E+03  0.56455803827E+03  0.17300000000E+03 0.  1.
         -6    1    1    2    0  503 -0.45942823788E+02 -0.21194867820E+03 -0.96397525028E+03  0.10031003282E+04  0.17300000000E+03 0. -1.
<mgrwt>
<rscale>  2 0.27742023E+03</rscale>
<asrwt>0</asrwt>
<pdfrwt beam="1">  1       21 0.86144843E-02 0.27742023E+03</pdfrwt>
<pdfrwt beam="2">  1       21 0.23256373E+00 0.27742023E+03</pdfrwt>
<totfact> 0.83253668E+03</totfact>
</mgrwt>
</event>
<event>
 4    1  0.3935877E+000  0.2131103E+03  0.7546771E-02  0.1139126E+00
         21   -1    0    0  503  502  0.00000000000E+00  0.00000000000E+00  0.37542077028E+02  0.37542077028E+02  0.00000000000E+00 0. -1.
         21   -1    0    0  501  503 -0.00000000000E+00 -0.00000000000E+00 -0.13890730319E+04  0.13890730319E+04  0.00000000000E+00 0.  1.
          6    1    1    2  501    0 -0.12444591586E+03  0.45965749213E+00 -0.93206596269E+03  0.95611869350E+03  0.17300000000E+03 0.  1.
         -6    1    1    2    0  502  0.12444591586E+03 -0.45965749213E+00 -0.41946499216E+03  0.47049641540E+03  0.17300000000E+03 0. -1.
<mgrwt>
<rscale>  2 0.21311029E+03</rscale>
<asrwt>0</asrwt>
<pdfrwt beam="1">  1       21 0.57757043E-02 0.21311029E+03</pdfrwt>
<pdfrwt beam="2">  1       21 0.21370354E+00 0.21311029E+03</pdfrwt>
<totfact> 0.22799615E+04</totfact>
</mgrwt>
</event>
<event>
 4    1  0.3935877E+000  0.2079090E+03  0.7546771E-02  0.1143233E+00
         21   -1    0    0  503  502  0.00000000000E+00  0.00000000000E+00  0.13789487899E+03  0.13789487899E+03  0.00000000000E+00 0. -1.
         21   -1    0    0  501  503 -0.00000000000E+00 -0.00000000000E+00 -0.31834504467E+03  0.31834504467E+03  0.00000000000E+00 0.  1.
          6    1    1    2  501    0 -0.93979072263E+02  0.66821227128E+02 -0.11844967773E+03  0.23928323922E+03  0.17300000000E+03 0.  1.
         -6    1    1    2    0  502  0.93979072263E+02 -0.66821227128E+02 -0.62000487950E+02  0.21695668444E+03  0.17300000000E+03 0. -1.
<mgrwt>
<rscale>  2 0.20790898E+03</rscale>
<asrwt>0</asrwt>
<pdfrwt beam="1">  1       21 0.21214597E-01 0.20790898E+03</pdfrwt>
<pdfrwt beam="2">  1       21 0.48976161E-01 0.20790898E+03</pdfrwt>
<totfact> 0.81692913E+04</totfact>
</mgrwt>
</event>
<event>
 4    1  0.3935877E+000  0.2330890E+03  0.7546771E-02  0.1124484E+00
         21   -1    0    0  501  502  0.00000000000E+00  0.00000000000E+00  0.17808030221E+03  0.17808030221E+03  0.00000000000E+00 0. -1.
         21   -1    0    0  502  503 -0.00000000000E+00 -0.00000000000E+00 -0.59671665115E+03  0.59671665115E+03  0.00000000000E+00 0.  1.
          6    1    1    2  501    0  0.84823534532E+02  0.13117330756E+03  0.61506137137E+02  0.24106736306E+03  0.17300000000E+03 0. -1.
         -6    1    1    2    0  503 -0.84823534532E+02 -0.13117330756E+03 -0.48014248608E+03  0.53372959030E+03  0.17300000000E+03 0.  1.
<mgrwt>
<rscale>  2 0.23308897E+03</rscale>
<asrwt>0</asrwt>
<pdfrwt beam="1">  1       21 0.27396970E-01 0.23308897E+03</pdfrwt>
<pdfrwt beam="2">  1       21 0.91802562E-01 0.23308897E+03</pdfrwt>
<totfact> 0.12426603E+04</totfact>
</mgrwt>
</event>
<event>
 4    1  0.3935877E+000  0.2377889E+03  0.7546771E-02  0.1121275E+00
         21   -1    0    0  503  502  0.00000000000E+00  0.00000000000E+00  0.44314550375E+03  0.44314550375E+03  0.00000000000E+00 0. -1.
         21   -1    0    0  501  503 -0.00000000000E+00 -0.00000000000E+00 -0.12838313639E+03  0.12838313639E+03  0.00000000000E+00 0.  1.
          6    1    1    2  501    0  0.67690667705E+02  0.14843367994E+03  0.13500504495E+03  0.27344093695E+03  0.17300000000E+03 0.  1.
         -6    1    1    2    0  502 -0.67690667705E+02 -0.14843367994E+03  0.17975732241E+03  0.29808770320E+03  0.17300000000E+03 0. -1.
<mgrwt>
<rscale>  2 0.23778895E+03</rscale>
<asrwt>0</asrwt>
<pdfrwt beam="1">  1       21 0.68176231E-01 0.23778895E+03</pdfrwt>
<pdfrwt beam="2">  1       21 0.19751252E-01 0.23778895E+03</pdfrwt>
<totfact> 0.45420135E+04</totfact>
</mgrwt>
</event>
<event>
 4    1  0.3935877E+000  0.1798058E+03  0.7546771E-02  0.1167991E+00
         21   -1    0    0  503  502  0.00000000000E+00  0.00000000000E+00  0.95600191873E+02  0.95600191873E+02  0.00000000000E+00 0.  1.
         21   -1    0    0  501  503 -0.00000000000E+00 -0.00000000000E+00 -0.37630550762E+03  0.37630550762E+03  0.00000000000E+00 0.  1.
          6    1    1    2  501    0 -0.48916156985E+01  0.48756536854E+02 -0.21545603844E+03  0.28062685597E+03  0.17300000000E+03 0.  1.
         -6    1    1    2    0  502  0.48916156985E+01 -0.48756536854E+02 -0.65249277301E+02  0.19127884352E+03  0.17300000000E+03 0.  1.
<mgrwt>
<rscale>  2 0.17980581E+03</rscale>
<asrwt>0</asrwt>
<pdfrwt beam="1">  1       21 0.14707722E-01 0.17980581E+03</pdfrwt>
<pdfrwt beam="2">  1       21 0.57893155E-01 0.17980581E+03</pdfrwt>
<totfact> 0.11426658E+05</totfact>
</mgrwt>
</event>
<event>
 4    1  0.3935877E+000  0.1848116E+03  0.7546771E-02  0.1163226E+00
         21   -1    0    0  501  502  0.00000000000E+00  0.00000000000E+00  0.17289880713E+04  0.17289880713E+04  0.00000000000E+00 0.  1.
         21   -1    0    0  502  503 -0.00000000000E+00 -0.00000000000E+00 -0.32596751338E+02  0.32596751338E+02  0.00000000000E+00 0.  1.
          6    1    1    2  501    0 -0.43955631984E+02  0.47898081285E+02  0.14010448839E+04  0.14131815490E+04  0.17300000000E+03 0.  1.
         -6    1    1    2    0  503  0.43955631984E+02 -0.47898081285E+02  0.29534643604E+03  0.34840327360E+03  0.17300000000E+03 0.  1.
<mgrwt>
<rscale>  2 0.18481159E+03</rscale>
<asrwt>0</asrwt>
<pdfrwt beam="1">  1       21 0.26599809E+00 0.18481159E+03</pdfrwt>
<pdfrwt beam="2">  1       21 0.50148862E-02 0.18481159E+03</pdfrwt>
<totfact> 0.14461339E+04</totfact>
</mgrwt>
</event>
<event>
 4    1  0.3935877E+000  0.2433860E+03  0.7546771E-02  0.1117558E+00
         21   -1    0    0  503  502  0.00000000000E+00  0.00000000000E+00  0.45572174021E+03  0.45572174021E+03  0.00000000000E+00 0. -1.
         21   -1    0    0  501  503 -0.00000000000E+00 -0.00000000000E+00 -0.40297943377E+03  0.40297943377E+03  0.00000000000E+00 0. -1.
          6    1    1    2  501    0 -0.16607019664E+03  0.41574272964E+02 -0.32701373163E+03  0.40764532508E+03  0.17300000000E+03 0. -1.
         -6    1    1    2    0  502  0.16607019664E+03 -0.41574272964E+02  0.37975603807E+03  0.45105584891E+03  0.17300000000E+03 0. -1.
<mgrwt>
<rscale>  2 0.24338597E+03</rscale>
<asrwt>0</asrwt>
<pdfrwt beam="1">  1       21 0.70111037E-01 0.24338597E+03</pdfrwt>
<pdfrwt beam="2">  1       21 0.61996836E-01 0.24338597E+03</pdfrwt>
<totfact> 0.42965573E+03</totfact>
</mgrwt>
</event>
<event>
 4    1  0.3935877E+000  0.1767016E+03  0.7546771E-02  0.1171034E+00
         21   -1    0    0  501  502  0.00000000000E+00  0.00000000000E+00  0.31095213250E+02  0.31095213250E+02  0.00000000000E+00 0. -1.
         21   -1    0    0  502  503 -0.00000000000E+00 -0.00000000000E+00 -0.11167787355E+04  0.11167787355E+04  0.00000000000E+00 0. -1.
          6    1    1    2  501    0  0.35132047126E+02  0.77589304728E+01 -0.36055520970E+03  0.40152648851E+03  0.17300000000E+03 0.  1.
         -6    1    1    2    0  503 -0.35132047126E+02 -0.77589304728E+01 -0.72512831251E+03  0.74634746020E+03  0.17300000000E+03 0.  1.
<mgrwt>
<rscale>  2 0.17670162E+03</rscale>
<asrwt>0</asrwt>
<pdfrwt beam="1">  1       21 0.47838794E-02 0.17670162E+03</pdfrwt>
<pdfrwt beam="2">  1       21 0.17181210E+00 0.17670162E+03</pdfrwt>
<totfact> 0.60634544E+04</totfact>
</mgrwt>
</event>
<event>
 4    1  0.3935877E+000  0.1745276E+03  0.7546771E-02  0.1173207E+00
         21   -1    0    0  501  502  0.00000000000E+00  0.00000000000E+00  0.25521530006E+03  0.25521530006E+03  0.00000000000E+00 0. -1.
         21   -1    0    0  502  503 -0.00000000000E+00 -0.00000000000E+00 -0.21018853052E+03  0.21018853052E+03  0.00000000000E+00 0. -1.
          6    1    1    2  501    0 -0.11592239102E+02  0.19912552972E+02  0.17549210666E+03  0.24750226115E+03  0.17300000000E+03 0. -1.
         -6    1    1    2    0  503  0.11592239102E+02 -0.19912552972E+02 -0.13046533712E+03  0.21790156944E+03  0.17300000000E+03 0. -1.
<mgrwt>
<rscale>  2 0.17452762E+03</rscale>
<asrwt>0</asrwt>
<pdfrwt beam="1">  1       21 0.39263892E-01 0.17452762E+03</pdfrwt>
<pdfrwt beam="2">  1       21 0.32336697E-01 0.17452762E+03</pdfrwt>
<totfact> 0.58015754E+04</totfact>
</mgrwt>
</event>
<event>
 4    1  0.3935877E+000  0.2047684E+03  0.7546771E-02  0.1145777E+00
         21   -1    0    0  503  502  0.00000000000E+00  0.00000000000E+00  0.58612097972E+02  0.58612097972E+02  0.00000000000E+00 0.  1.
         21   -1    0    0  501  503 -0.00000000000E+00 -0.00000000000E+00 -0.13876816199E+04  0.13876816199E+04  0.00000000000E+00 0.  1.
          6    1    1    2  501    0 -0.10655997065E+03  0.25417589216E+02 -0.11678763216E+04  0.11856918586E+04  0.17300000000E+03 0.  1.
         -6    1    1    2    0  502  0.10655997065E+03 -0.25417589216E+02 -0.16119320035E+03  0.26060185921E+03  0.17300000000E+03 0.  1.
<mgrwt>
<rscale>  2 0.20476836E+03</rscale>
<asrwt>0</asrwt>
<pdfrwt beam="1">  1       21 0.90172461E-02 0.20476836E+03</pdfrwt>
<pdfrwt beam="2">  1       21 0.21348947E+00 0.20476836E+03</pdfrwt>
<totfact> 0.10633791E+04</totfact>
</mgrwt>
</event>
<event>
 4    1  0.3935877E+000  0.3105824E+03  0.7546771E-02  0.1080067E+00
         21   -1    0    0  503  502  0.00000000000E+00  0.00000000000E+00  0.60324076766E+03  0.60324076766E+03  0.00000000000E+00 0. -1.
         21   -1    0    0  501  503 -0.00000000000E+00 -0.00000000000E+00 -0.20122531394E+03  0.20122531394E+03  0.00000000000E+00 0.  1.
          6    1    1    2  501    0  0.21195139358E+03 -0.14700006719E+03  0.18737171704E+02  0.31114706265E+03  0.17300000000E+03 0. -1.
         -6    1    1    2    0  502 -0.21195139358E+03  0.14700006719E+03  0.38327828201E+03  0.49331901895E+03  0.17300000000E+03 0.  1.
<mgrwt>
<rscale>  2 0.31058238E+03</rscale>
<asrwt>0</asrwt>
<pdfrwt beam="1">  1       21 0.92806271E-01 0.31058238E+03</pdfrwt>
<pdfrwt beam="2">  1       21 0.30957741E-01 0.31058238E+03</pdfrwt>
<totfact> 0.91680661E+03</totfact>
</mgrwt>
</event>
<event>
 4    1  0.3935877E+000  0.1782309E+03  0.7546771E-02  0.1169526E+00
         21   -1    0    0  503  502  0.00000000000E+00  0.00000000000E+00  0.49548454249E+03  0.49548454249E+03  0.00000000000E+00 0. -1.
         21   -1    0    0  501  503 -0.00000000000E+00 -0.00000000000E+00 -0.11922129508E+03  0.11922129508E+03  0.00000000000E+00 0. -1.
          6    1    1    2  501    0 -0.28762918837E+02 -0.31779613440E+02 -0.20834018131E+02  0.17944443609E+03  0.17300000000E+03 0. -1.
         -6    1    1    2    0  502  0.28762918837E+02  0.31779613440E+02  0.39709726554E+03  0.43526140149E+03  0.17300000000E+03 0. -1.
<mgrwt>
<rscale>  2 0.17823089E+03</rscale>
<asrwt>0</asrwt>
<pdfrwt beam="1">  1       21 0.76228390E-01 0.17823089E+03</pdfrwt>
<pdfrwt beam="2">  1       21 0.18341738E-01 0.17823089E+03</pdfrwt>
<totfact> 0.41878464E+04</totfact>
</mgrwt>
</event>
<event>
 4    1  0.3935877E+000  0.3224660E+03  0.7546771E-02  0.1074520E+00
         21   -1    0    0  503  502  0.00000000000E+00  0.00000000000E+00  0.30199181296E+03  0.30199181296E+03  0.00000000000E+00 0. -1.
         21   -1    0    0  501  503 -0.00000000000E+00 -0.00000000000E+00 -0.36545536133E+03  0.36545536133E+03  0.00000000000E+00 0. -1.
          6    1    1    2  501    0  0.74627447737E+02 -0.26169847505E+03 -0.11197134416E+03  0.34135308657E+03  0.17300000000E+03 0. -1.
         -6    1    1    2    0  502 -0.74627447737E+02  0.26169847505E+03  0.48507795796E+02  0.32609408773E+03  0.17300000000E+03 0. -1.
<mgrwt>
<rscale>  2 0.32246604E+03</rscale>
<asrwt>0</asrwt>
<pdfrwt beam="1">  1       21 0.46460279E-01 0.32246604E+03</pdfrwt>
<pdfrwt beam="2">  1       21 0.56223901E-01 0.32246604E+03</pdfrwt>
<totfact> 0.12349270E+04</totfact>
</mgrwt>
</event>
<event>
 4    1  0.3935877E+000  0.1738046E+03  0.7546771E-02  0.1173937E+00
         21   -1    0    0  503  502  0.00000000000E+00  0.00000000000E+00  0.13088647512E+04  0.13088647512E+04  0.00000000000E+00 0.  1.
         21   -1    0    0  501  503 -0.00000000000E+00 -0.00000000000E+00 -0.48213971070E+02  0.48213971070E+02  0.00000000000E+00 0.  1.
          6    1    1    2  501    0 -0.15942077888E+02 -0.49898262246E+01  0.14040808333E+03  0.22343338622E+03  0.17300000000E+03 0.  1.
         -6    1    1    2    0  502  0.15942077888E+02  0.49898262246E+01  0.11202426968E+04  0.11336453360E+04  0.17300000000E+03 0.  1.
<mgrwt>
<rscale>  2 0.17380463E+03</rscale>
<asrwt>0</asrwt>
<pdfrwt beam="1">  1       21 0.20136378E+00 0.17380463E+03</pdfrwt>
<pdfrwt beam="2">  1       21 0.74175350E-02 0.17380463E+03</pdfrwt>
<totfact> 0.18279892E+04</totfact>
</mgrwt>
</event>
<event>
 4    1  0.3935877E+000  0.1745974E+03  0.7546771E-02  0.1173137E+00
         21   -1    0    0  501  502  0.00000000000E+00  0.00000000000E+00  0.31336119490E+02  0.31336119490E+02  0.00000000000E+00 0. -1.
         21   -1    0    0  502  503 -0.00000000000E+00 -0.00000000000E+00 -0.12084545116E+04  0.12084545116E+04  0.00000000000E+00 0. -1.
          6    1    1    2  501    0  0.65547672483E+01 -0.22634061848E+02 -0.31482647830E+03  0.35999996829E+03  0.17300000000E+03 0. -1.
         -6    1    1    2    0  503 -0.65547672483E+01  0.22634061848E+02 -0.86229191381E+03  0.87979066280E+03  0.17300000000E+03 0. -1.
<mgrwt>
<rscale>  2 0.17459744E+03</rscale>
<asrwt>0</asrwt>
<pdfrwt beam="1">  1       21 0.48209416E-02 0.17459744E+03</pdfrwt>
<pdfrwt beam="2">  1       21 0.18591607E+00 0.17459744E+03</pdfrwt>
<totfact> 0.48051140E+04</totfact>
</mgrwt>
</event>
<event>
 4    1  0.3935877E+000  0.1792788E+03  0.7546771E-02  0.1168503E+00
         21   -1    0    0  503  502  0.00000000000E+00  0.00000000000E+00  0.58413265862E+03  0.58413265862E+03  0.00000000000E+00 0. -1.
         21   -1    0    0  501  503 -0.00000000000E+00 -0.00000000000E+00 -0.78869952889E+02  0.78869952889E+02  0.00000000000E+00 0. -1.
          6    1    1    2  501    0  0.30066555562E+02  0.36164624512E+02  0.70349424245E+02  0.19258743293E+03  0.17300000000E+03 0. -1.
         -6    1    1    2    0  502 -0.30066555562E+02 -0.36164624512E+02  0.43491328149E+03  0.47041517859E+03  0.17300000000E+03 0. -1.
<mgrwt>
<rscale>  2 0.17927877E+03</rscale>
<asrwt>0</asrwt>
<pdfrwt beam="1">  1       21 0.89866560E-01 0.17927877E+03</pdfrwt>
<pdfrwt beam="2">  1       21 0.12133839E-01 0.17927877E+03</pdfrwt>
<totfact> 0.61025446E+04</totfact>
</mgrwt>
</event>
<event>
 4    1  0.3935877E+000  0.2033036E+03  0.7546771E-02  0.1146981E+00
         21   -1    0    0  503  502  0.00000000000E+00  0.00000000000E+00  0.95281134864E+03  0.95281134864E+03  0.00000000000E+00 0. -1.
         21   -1    0    0  501  503 -0.00000000000E+00 -0.00000000000E+00 -0.45374016454E+02  0.45374016454E+02  0.00000000000E+00 0. -1.
          6    1    1    2  501    0 -0.90015152944E+02  0.57451239002E+02  0.34907603289E+03  0.40396342577E+03  0.17300000000E+03 0. -1.
         -6    1    1    2    0  502  0.90015152944E+02 -0.57451239002E+02  0.55836129929E+03  0.59422193932E+03  0.17300000000E+03 0. -1.
<mgrwt>
<rscale>  2 0.20330365E+03</rscale>
<asrwt>0</asrwt>
<pdfrwt beam="1">  1       21 0.14658635E+00 0.20330365E+03</pdfrwt>
<pdfrwt beam="2">  1       21 0.69806186E-02 0.20330365E+03</pdfrwt>
<totfact> 0.47968278E+04</totfact>
</mgrwt>
</event>
<event>
 4    1  0.3935877E+000  0.3256033E+03  0.7546771E-02  0.1073099E+00
         21   -1    0    0  503  502  0.00000000000E+00  0.00000000000E+00  0.21276314910E+03  0.21276314910E+03  0.00000000000E+00 0.  1.
         21   -1    0    0  501  503 -0.00000000000E+00 -0.00000000000E+00 -0.13153352735E+04  0.13153352735E+04  0.00000000000E+00 0. -1.
          6    1    1    2  501    0  0.18469925053E+01  0.27583531821E+03 -0.11534662023E+04  0.11985415362E+04  0.17300000000E+03 0. -1.
         -6    1    1    2    0  502 -0.18469925053E+01 -0.27583531821E+03  0.50894077978E+02  0.32955688632E+03  0.17300000000E+03 0.  1.
<mgrwt>
<rscale>  2 0.32560334E+03</rscale>
<asrwt>0</asrwt>
<pdfrwt beam="1">  1       21 0.32732792E-01 0.32560334E+03</pdfrwt>
<pdfrwt beam="2">  1       21 0.20235927E+00 0.32560334E+03</pdfrwt>
<totfact> 0.10394428E+03</totfact>
</mgrwt>
</event>
<event>
 4    1  0.3935877E+000  0.1869549E+03  0.7546771E-02  0.1161237E+00
         21   -1    0    0  503  502  0.00000000000E+00  0.00000000000E+00  0.92792009956E+03  0.92792009956E+03  0.00000000000E+00 0.  1.
         21   -1    0    0  501  503 -0.00000000000E+00 -0.00000000000E+00 -0.46858263340E+02  0.46858263340E+02  0.00000000000E+00 0.  1.
          6    1    1    2  501    0  0.35235066030E+02 -0.61494977546E+02  0.22467402570E+03  0.29228506627E+03  0.17300000000E+03 0.  1.
         -6    1    1    2    0  502 -0.35235066030E+02  0.61494977546E+02  0.65638781053E+03  0.68249329663E+03  0.17300000000E+03 0.  1.
<mgrwt>
<rscale>  2 0.18695492E+03</rscale>
<asrwt>0</asrwt>
<pdfrwt beam="1">  1       21 0.14275693E+00 0.18695492E+03</pdfrwt>
<pdfrwt beam="2">  1       21 0.72089642E-02 0.18695492E+03</pdfrwt>
<totfact> 0.49062211E+04</totfact>
</mgrwt>
</event>
<event>
 4    1  0.3935877E+000  0.1819648E+03  0.7546771E-02  0.1165915E+00
         21   -1    0    0  501  502  0.00000000000E+00  0.00000000000E+00  0.61723724984E+02  0.61723724984E+02  0.00000000000E+00 0.  1.
         21   -1    0    0  502  503 -0.00000000000E+00 -0.00000000000E+00 -0.57598329543E+03  0.57598329543E+03  0.00000000000E+00 0.  1.
          6    1    1    2  501    0  0.79734872484E+01  0.55844432137E+02 -0.17358610416E+03  0.25148223130E+03  0.17300000000E+03 0.  1.
         -6    1    1    2    0  503 -0.79734872484E+01 -0.55844432137E+02 -0.34067346628E+03  0.38622478912E+03  0.17300000000E+03 0.  1.
<mgrwt>
<rscale>  2 0.18196477E+03</rscale>
<asrwt>0</asrwt>
<pdfrwt beam="1">  1       21 0.94959581E-02 0.18196477E+03</pdfrwt>
<pdfrwt beam="2">  1       21 0.88612811E-01 0.18196477E+03</pdfrwt>
<totfact> 0.97222150E+04</totfact>
</mgrwt>
</event>
<event>
 4    1  0.3935877E+000  0.1771529E+03  0.7546771E-02  0.1170587E+00
         21   -1    0    0  503  502  0.00000000000E+00  0.00000000000E+00  0.55196480398E+02  0.55196480398E+02  0.00000000000E+00 0. -1.
         21   -1    0    0  501  503 -0.00000000000E+00 -0.00000000000E+00 -0.57172446976E+03  0.57172446976E+03  0.00000000000E+00 0. -1.
          6    1    1    2  501    0 -0.37466478888E+02 -0.70999102656E+01 -0.28154218213E+03  0.33263966403E+03  0.17300000000E+03 0. -1.
         -6    1    1    2    0  502  0.37466478888E+02  0.70999102656E+01 -0.23498580723E+03  0.29428128613E+03  0.17300000000E+03 0. -1.
<mgrwt>
<rscale>  2 0.17715289E+03</rscale>
<asrwt>0</asrwt>
<pdfrwt beam="1">  1       21 0.84917661E-02 0.17715289E+03</pdfrwt>
<pdfrwt beam="2">  1       21 0.87957612E-01 0.17715289E+03</pdfrwt>
<totfact> 0.12050497E+05</totfact>
</mgrwt>
</event>
<event>
 4    1  0.3935877E+000  0.1941120E+03  0.7546771E-02  0.1154804E+00
         21   -1    0    0  503  502  0.00000000000E+00  0.00000000000E+00  0.15509567765E+03  0.15509567765E+03  0.00000000000E+00 0. -1.
         21   -1    0    0  501  503 -0.00000000000E+00 -0.00000000000E+00 -0.27894156858E+03  0.27894156858E+03  0.00000000000E+00 0. -1.
          6    1    1    2  501    0  0.88019628365E+02 -0.17402486935E+01 -0.13988443237E+03  0.23926374122E+03  0.17300000000E+03 0. -1.
         -6    1    1    2    0  502 -0.88019628365E+02  0.17402486935E+01  0.16038541435E+02  0.19477350501E+03  0.17300000000E+03 0. -1.
<mgrwt>
<rscale>  2 0.19411204E+03</rscale>
<asrwt>0</asrwt>
<pdfrwt beam="1">  1       21 0.23860874E-01 0.19411204E+03</pdfrwt>
<pdfrwt beam="2">  1       21 0.42914087E-01 0.19411204E+03</pdfrwt>
<totfact> 0.86397272E+04</totfact>
</mgrwt>
</event>
<event>
 4    1  0.3935877E+000  0.2246613E+03  0.7546771E-02  0.1130455E+00
         21   -1    0    0  503  502  0.00000000000E+00  0.00000000000E+00  0.78182442272E+02  0.78182442272E+02  0.00000000000E+00 0. -1.
         21   -1    0    0  501  503 -0.00000000000E+00 -0.00000000000E+00 -0.78838382354E+03  0.78838382354E+03  0.00000000000E+00 0. -1.
          6    1    1    2  501    0  0.13531238348E+03  0.47267959360E+02 -0.53950839935E+03  0.58441595981E+03  0.17300000000E+03 0. -1.
         -6    1    1    2    0  502 -0.13531238348E+03 -0.47267959360E+02 -0.17069298192E+03  0.28215030601E+03  0.17300000000E+03 0. -1.
<mgrwt>
<rscale>  2 0.22466130E+03</rscale>
<asrwt>0</asrwt>
<pdfrwt beam="1">  1       21 0.12028068E-01 0.22466130E+03</pdfrwt>
<pdfrwt beam="2">  1       21 0.12128982E+00 0.22466130E+03</pdfrwt>
<totfact> 0.29508033E+04</totfact>
</mgrwt>
</event>
<event>
 4    1  0.3935877E+000  0.2140702E+03  0.7546771E-02  0.1138383E+00
         21   -1    0    0  503  502  0.00000000000E+00  0.00000000000E+00  0.34433751055E+03  0.34433751055E+03  0.00000000000E+00 0.  1.
         21   -1    0    0  501  503 -0.00000000000E+00 -0.00000000000E+00 -0.13353879972E+03  0.13353879972E+03  0.00000000000E+00 0.  1.
          6    1    1    2  501    0  0.10244317005E+03  0.73501357994E+02  0.91465876223E+02  0.23279187965E+03  0.17300000000E+03 0.  1.
         -6    1    1    2    0  502 -0.10244317005E+03 -0.73501357994E+02  0.11933283460E+03  0.24508443062E+03  0.17300000000E+03 0.  1.
<mgrwt>
<rscale>  2 0.21407021E+03</rscale>
<asrwt>0</asrwt>
<pdfrwt beam="1">  1       21 0.52975001E-01 0.21407021E+03</pdfrwt>
<pdfrwt beam="2">  1       21 0.20544431E-01 0.21407021E+03</pdfrwt>
<totfact> 0.73422944E+04</totfact>
</mgrwt>
</event>
<event>
 4    1  0.3935877E+000  0.1887720E+03  0.7546771E-02  0.1159574E+00
         21   -1    0    0  501  502  0.00000000000E+00  0.00000000000E+00  0.24260852945E+04  0.24260852945E+04  0.00000000000E+00 0.  1.
         21   -1    0    0  502  503 -0.00000000000E+00 -0.00000000000E+00 -0.42668771271E+02  0.42668771271E+02  0.00000000000E+00 0.  1.
          6    1    1    2  501    0 -0.30265636783E+02 -0.69208833223E+02  0.21912959714E+04  0.21994119454E+04  0.17300000000E+03 0.  1.
         -6    1    1    2    0  503  0.30265636783E+02  0.69208833223E+02  0.19212055185E+03  0.26934212038E+03  0.17300000000E+03 0.  1.
<mgrwt>
<rscale>  2 0.18877201E+03</rscale>
<asrwt>0</asrwt>
<pdfrwt beam="1">  1       21 0.37324378E+00 0.18877201E+03</pdfrwt>
<pdfrwt beam="2">  1       21 0.65644282E-02 0.18877201E+03</pdfrwt>
<totfact> 0.21592490E+03</totfact>
</mgrwt>
</event>
<event>
 4    1  0.3935877E+000  0.2656173E+03  0.7546771E-02  0.1103814E+00
         21   -1    0    0  501  502  0.00000000000E+00  0.00000000000E+00  0.57977721401E+03  0.57977721401E+03  0.00000000000E+00 0.  1.
         21   -1    0    0  502  503 -0.00000000000E+00 -0.00000000000E+00 -0.50140450180E+03  0.50140450180E+03  0.00000000000E+00 0.  1.
          6    1    1    2  501    0 -0.19681630492E+03 -0.43438114114E+02  0.50962580033E+03  0.57469207755E+03  0.17300000000E+03 0.  1.
         -6    1    1    2    0  503  0.19681630492E+03  0.43438114114E+02 -0.43125308812E+03  0.50648963825E+03  0.17300000000E+03 0.  1.
<mgrwt>
<rscale>  2 0.26561726E+03</rscale>
<asrwt>0</asrwt>
<pdfrwt beam="1">  1       21 0.89196495E-01 0.26561726E+03</pdfrwt>
<pdfrwt beam="2">  1       21 0.77139154E-01 0.26561726E+03</pdfrwt>
<totfact> 0.15086121E+03</totfact>
</mgrwt>
</event>
<event>
 4    1  0.3935877E+000  0.2138182E+03  0.7546771E-02  0.1138578E+00
         21   -1    0    0  501  502  0.00000000000E+00  0.00000000000E+00  0.52628640960E+02  0.52628640960E+02  0.00000000000E+00 0.  1.
         21   -1    0    0  502  503 -0.00000000000E+00 -0.00000000000E+00 -0.86877035903E+03  0.86877035903E+03  0.00000000000E+00 0. -1.
          6    1    1    2  501    0  0.93847206519E+02  0.83557892731E+02 -0.41237114231E+03  0.46450853449E+03  0.17300000000E+03 0. -1.
         -6    1    1    2    0  503 -0.93847206519E+02 -0.83557892731E+02 -0.40377057576E+03  0.45689046550E+03  0.17300000000E+03 0.  1.
<mgrwt>
<rscale>  2 0.21381819E+03</rscale>
<asrwt>0</asrwt>
<pdfrwt beam="1">  1       21 0.80967138E-02 0.21381819E+03</pdfrwt>
<pdfrwt beam="2">  1       21 0.13365698E+00 0.21381819E+03</pdfrwt>
<totfact> 0.46810284E+04</totfact>
</mgrwt>
</event>
<event>
 4    1  0.3935877E+000  0.1941683E+03  0.7546771E-02  0.1154755E+00
         21   -1    0    0  501  502  0.00000000000E+00  0.00000000000E+00  0.25228527961E+03  0.25228527961E+03  0.00000000000E+00 0. -1.
         21   -1    0    0  502  503 -0.00000000000E+00 -0.00000000000E+00 -0.40337874581E+03  0.40337874581E+03  0.00000000000E+00 0.  1.
          6    1    1    2  501    0  0.47478540447E+02  0.74284068087E+02  0.18456499927E+03  0.26789097321E+03  0.17300000000E+03 0. -1.
         -6    1    1    2    0  503 -0.47478540447E+02 -0.74284068087E+02 -0.33565846547E+03  0.38777305220E+03  0.17300000000E+03 0.  1.
<mgrwt>
<rscale>  2 0.19416832E+03</rscale>
<asrwt>0</asrwt>
<pdfrwt beam="1">  1       21 0.38813120E-01 0.19416832E+03</pdfrwt>
<pdfrwt beam="2">  1       21 0.62058268E-01 0.19416832E+03</pdfrwt>
<totfact> 0.15409317E+04</totfact>
</mgrwt>
</event>
<event>
 4    1  0.3935877E+000  0.1972943E+03  0.7546771E-02  0.1152042E+00
         21   -1    0    0  503  502  0.00000000000E+00  0.00000000000E+00  0.14285026457E+03  0.14285026457E+03  0.00000000000E+00 0. -1.
         21   -1    0    0  501  503 -0.00000000000E+00 -0.00000000000E+00 -0.27430020366E+03  0.27430020366E+03  0.00000000000E+00 0. -1.
          6    1    1    2  501    0 -0.43746376203E+02  0.84156416699E+02 -0.82676098844E+02  0.21391677172E+03  0.17300000000E+03 0.  1.
         -6    1    1    2    0  502  0.43746376203E+02 -0.84156416699E+02 -0.48773840248E+02  0.20323369650E+03  0.17300000000E+03 0.  1.
<mgrwt>
<rscale>  2 0.19729432E+03</rscale>
<asrwt>0</asrwt>
<pdfrwt beam="1">  1       21 0.21976964E-01 0.19729432E+03</pdfrwt>
<pdfrwt beam="2">  1       21 0.42200031E-01 0.19729432E+03</pdfrwt>
<totfact> 0.10432442E+05</totfact>
</mgrwt>
</event>
<event>
 4    1  0.3935877E+000  0.2119795E+03  0.7546771E-02  0.1140008E+00
         21   -1    0    0  503  502  0.00000000000E+00  0.00000000000E+00  0.64765168934E+02  0.64765168934E+02  0.00000000000E+00 0. -1.
         21   -1    0    0  501  503 -0.00000000000E+00 -0.00000000000E+00 -0.76285709084E+03  0.76285709084E+03  0.00000000000E+00 0.  1.
          6    1    1    2  501    0  0.59013808748E+02  0.10734834597E+03 -0.47353334358E+03  0.51881511591E+03  0.17300000000E+03 0.  1.
         -6    1    1    2    0  502 -0.59013808748E+02 -0.10734834597E+03 -0.22455857832E+03  0.30880714387E+03  0.17300000000E+03 0. -1.
<mgrwt>
<rscale>  2 0.21197947E+03</rscale>
<asrwt>0</asrwt>
<pdfrwt beam="1">  1       21 0.99638719E-02 0.21197947E+03</pdfrwt>
<pdfrwt beam="2">  1       21 0.11736263E+00 0.21197947E+03</pdfrwt>
<totfact> 0.45090075E+04</totfact>
</mgrwt>
</event>
<event>
 4    1  0.3935877E+000  0.1967182E+03  0.7546771E-02  0.1152538E+00
         21   -1    0    0  501  502  0.00000000000E+00  0.00000000000E+00  0.72367166108E+02  0.72367166108E+02  0.00000000000E+00 0.  1.
         21   -1    0    0  502  503 -0.00000000000E+00 -0.00000000000E+00 -0.53480401805E+03  0.53480401805E+03  0.00000000000E+00 0.  1.
          6    1    1    2  501    0  0.61229149896E+02 -0.70852207093E+02 -0.22805317822E+03  0.30117485975E+03  0.17300000000E+03 0.  1.
         -6    1    1    2    0  503 -0.61229149896E+02  0.70852207093E+02 -0.23438367373E+03  0.30599632442E+03  0.17300000000E+03 0.  1.
<mgrwt>
<rscale>  2 0.19671818E+03</rscale>
<asrwt>0</asrwt>
<pdfrwt beam="1">  1       21 0.11133410E-01 0.19671818E+03</pdfrwt>
<pdfrwt beam="2">  1       21 0.82277541E-01 0.19671818E+03</pdfrwt>
<totfact> 0.86419554E+04</totfact>
</mgrwt>
</event>
<event>
 4    1  0.3935877E+000  0.1951092E+03  0.7546771E-02  0.1153932E+00
         21   -1    0    0  501  502  0.00000000000E+00  0.00000000000E+00  0.25764516882E+03  0.25764516882E+03  0.00000000000E+00 0.  1.
         21   -1    0    0  502  503 -0.00000000000E+00 -0.00000000000E+00 -0.16535999713E+03  0.16535999713E+03  0.00000000000E+00 0.  1.
          6    1    1    2  501    0 -0.78992644697E+02 -0.43574895802E+02  0.11515932666E+03  0.22655966096E+03  0.17300000000E+03 0.  1.
         -6    1    1    2    0  503  0.78992644697E+02  0.43574895802E+02 -0.22874154965E+02  0.19644550498E+03  0.17300000000E+03 0.  1.
<mgrwt>
<rscale>  2 0.19510922E+03</rscale>
<asrwt>0</asrwt>
<pdfrwt beam="1">  1       21 0.39637718E-01 0.19510922E+03</pdfrwt>
<pdfrwt beam="2">  1       21 0.25439999E-01 0.19510922E+03</pdfrwt>
<totfact> 0.89794203E+04</totfact>
</mgrwt>
</event>
<event>
 4    1  0.3935877E+000  0.1952327E+03  0.7546771E-02  0.1153825E+00
         21   -1    0    0  503  502  0.00000000000E+00  0.00000000000E+00  0.61810707972E+03  0.61810707972E+03  0.00000000000E+00 0.  1.
         21   -1    0    0  501  503 -0.00000000000E+00 -0.00000000000E+00 -0.67265767919E+02  0.67265767919E+02  0.00000000000E+00 0.  1.
          6    1    1    2  501    0 -0.15563135576E+02  0.89132369377E+02  0.17654030490E+03  0.26321525357E+03  0.17300000000E+03 0.  1.
         -6    1    1    2    0  502  0.15563135576E+02 -0.89132369377E+02  0.37430100690E+03  0.42215759407E+03  0.17300000000E+03 0.  1.
<mgrwt>
<rscale>  2 0.19523266E+03</rscale>
<asrwt>0</asrwt>
<pdfrwt beam="1">  1       21 0.95093393E-01 0.19523266E+03</pdfrwt>
<pdfrwt beam="2">  1       21 0.10348580E-01 0.19523266E+03</pdfrwt>
<totfact> 0.70503038E+04</totfact>
</mgrwt>
</event>
<event>
 4    1  0.3935877E+000  0.2453409E+03  0.7546771E-02  0.1116285E+00
         21   -1    0    0  503  502  0.00000000000E+00  0.00000000000E+00  0.73643683071E+03  0.73643683071E+03  0.00000000000E+00 0.  1.
         21   -1    0    0  501  503 -0.00000000000E+00 -0.00000000000E+00 -0.83409043940E+02  0.83409043940E+02  0.00000000000E+00 0.  1.
          6    1    1    2  501    0  0.15516160471E+03  0.78663919058E+02  0.26842780053E+03  0.36365590857E+03  0.17300000000E+03 0.  1.
         -6    1    1    2    0  502 -0.15516160471E+03 -0.78663919058E+02  0.38459998624E+03  0.45618996608E+03  0.17300000000E+03 0.  1.
<mgrwt>
<rscale>  2 0.24534086E+03</rscale>
<asrwt>0</asrwt>
<pdfrwt beam="1">  1       21 0.11329797E+00 0.24534086E+03</pdfrwt>
<pdfrwt beam="2">  1       21 0.12832161E-01 0.24534086E+03</pdfrwt>
<totfact> 0.30755487E+04</totfact>
</mgrwt>
</event>
<event>
 4    1  0.3935877E+000  0.1754807E+03  0.7546771E-02  0.1172250E+00
         21   -1    0    0  501  502  0.00000000000E+00  0.00000000000E+00  0.83266780296E+03  0.83266780296E+03  0.00000000000E+00 0. -1.
         21   -1    0    0  502  503 -0.00000000000E+00 -0.00000000000E+00 -0.54131819902E+02  0.54131819902E+02  0.00000000000E+00 0. -1.
          6    1    1    2  501    0  0.28689053464E+02 -0.64363059747E+01  0.63884381503E+03  0.66250653418E+03  0.17300000000E+03 0. -1.
         -6    1    1    2    0  503 -0.28689053464E+02  0.64363059747E+01  0.13969216802E+03  0.22429308868E+03  0.17300000000E+03 0. -1.
<mgrwt>
<rscale>  2 0.17548073E+03</rscale>
<asrwt>0</asrwt>
<pdfrwt beam="1">  1       21 0.12810273E+00 0.17548073E+03</pdfrwt>
<pdfrwt beam="2">  1       21 0.83279729E-02 0.17548073E+03</pdfrwt>
<totfact> 0.50649750E+04</totfact>
</mgrwt>
</event>
<event>
 4    1  0.3935877E+000  0.1829322E+03  0.7546771E-02  0.1164995E+00
         21   -1    0    0  501  502  0.00000000000E+00  0.00000000000E+00  0.10166802587E+04  0.10166802587E+04  0.00000000000E+00 0.  1.
         21   -1    0    0  502  503 -0.00000000000E+00 -0.00000000000E+00 -0.17369877015E+03  0.17369877015E+03  0.00000000000E+00 0.  1.
          6    1    1    2  501    0 -0.23057961322E+02  0.54804431126E+02  0.95732804923E+03  0.97464926466E+03  0.17300000000E+03 0.  1.
         -6    1    1    2    0  503  0.23057961322E+02 -0.54804431126E+02 -0.11434656063E+03  0.21572976424E+03  0.17300000000E+03 0.  1.
<mgrwt>
<rscale>  2 0.18293221E+03</rscale>
<asrwt>0</asrwt>
<pdfrwt beam="1">  1       21 0.15641234E+00 0.18293221E+03</pdfrwt>
<pdfrwt beam="2">  1       21 0.26722888E-01 0.18293221E+03</pdfrwt>
<totfact> 0.35978790E+03</totfact>
</mgrwt>
</event>
<event>
 4    1  0.3935877E+000  0.1857862E+03  0.7546771E-02  0.1162318E+00
         21   -1    0    0  501  502  0.00000000000E+00  0.00000000000E+00  0.71485238335E+02  0.71485238335E+02  0.00000000000E+00 0. -1.
         21   -1    0    0  502  503 -0.00000000000E+00 -0.00000000000E+00 -0.51571136205E+03  0.51571136205E+03  0.00000000000E+00 0. -1.
          6    1    1    2  501    0  0.15944294542E+01  0.67712450473E+02 -0.14799826756E+03  0.23752895688E+03  0.17300000000E+03 0.  1.
         -6    1    1    2    0  503 -0.15944294542E+01 -0.67712450473E+02 -0.29622785615E+03  0.34966764351E+03  0.17300000000E+03 0.  1.
<mgrwt>
<rscale>  2 0.18578622E+03</rscale>
<asrwt>0</asrwt>
<pdfrwt beam="1">  1       21 0.10997729E-01 0.18578622E+03</pdfrwt>
<pdfrwt beam="2">  1       21 0.79340212E-01 0.18578622E+03</pdfrwt>
<totfact> 0.96334326E+04</totfact>
</mgrwt>
</event>
<event>
 4    1  0.3935877E+000  0.2422108E+03  0.7546771E-02  0.1118329E+00
         21   -1    0    0  501  502  0.00000000000E+00  0.00000000000E+00  0.32619572466E+04  0.32619572466E+04  0.00000000000E+00 0.  1.
         21   -1    0    0  502  503 -0.00000000000E+00 -0.00000000000E+00 -0.22970534409E+02  0.22970534409E+02  0.00000000000E+00 0.  1.
          6    1    1    2  501    0  0.44254280440E+02 -0.16364177921E+03  0.23846831734E+04  0.23969522128E+04  0.17300000000E+03 0.  1.
         -6    1    1    2    0  503 -0.44254280440E+02  0.16364177921E+03  0.85430353882E+03  0.88797556818E+03  0.17300000000E+03 0.  1.
<mgrwt>
<rscale>  2 0.24221080E+03</rscale>
<asrwt>0</asrwt>
<pdfrwt beam="1">  1       21 0.50183921E+00 0.24221080E+03</pdfrwt>
<pdfrwt beam="2">  1       21 0.35339310E-02 0.24221080E+03</pdfrwt>
<totfact> 0.82476305E+02</totfact>
</mgrwt>
</event>
<event>
 4    1  0.3935877E+000  0.1810041E+03  0.7546771E-02  0.1166835E+00
         21   -1    0    0  503  502  0.00000000000E+00  0.00000000000E+00  0.30515991080E+03  0.30515991080E+03  0.00000000000E+00 0. -1.
         21   -1    0    0  501  503 -0.00000000000E+00 -0.00000000000E+00 -0.10736469006E+03  0.10736469006E+03  0.00000000000E+00 0. -1.
          6    1    1    2  501    0  0.49558534809E+02 -0.19427470033E+02  0.99993146178E+02  0.20678758243E+03  0.17300000000E+03 0. -1.
         -6    1    1    2    0  502 -0.49558534809E+02  0.19427470033E+02  0.97802074558E+02  0.20573701843E+03  0.17300000000E+03 0. -1.
<mgrwt>
<rscale>  2 0.18100407E+03</rscale>
<asrwt>0</asrwt>
<pdfrwt beam="1">  1       21 0.46947678E-01 0.18100407E+03</pdfrwt>
<pdfrwt beam="2">  1       21 0.16517645E-01 0.18100407E+03</pdfrwt>
<totfact> 0.14338499E+05</totfact>
</mgrwt>
</event>
<event>
 4    1  0.3935877E+000  0.2001652E+03  0.7546771E-02  0.1149600E+00
         21   -1    0    0  503  502  0.00000000000E+00  0.00000000000E+00  0.35857638673E+03  0.35857638673E+03  0.00000000000E+00 0. -1.
         21   -1    0    0  501  503 -0.00000000000E+00 -0.00000000000E+00 -0.36278399291E+03  0.36278399291E+03  0.00000000000E+00 0. -1.
          6    1    1    2  501    0  0.95154311563E+02  0.32905364315E+02 -0.30214168424E+03  0.36243027380E+03  0.17300000000E+03 0. -1.
         -6    1    1    2    0  502 -0.95154311563E+02 -0.32905364315E+02  0.29793407806E+03  0.35893010584E+03  0.17300000000E+03 0. -1.
<mgrwt>
<rscale>  2 0.20016520E+03</rscale>
<asrwt>0</asrwt>
<pdfrwt beam="1">  1       21 0.55165598E-01 0.20016520E+03</pdfrwt>
<pdfrwt beam="2">  1       21 0.55812922E-01 0.20016520E+03</pdfrwt>
<totfact> 0.93226839E+03</totfact>
</mgrwt>
</event>
<event>
 4    1  0.3935877E+000  0.2004899E+03  0.7546771E-02  0.1149326E+00
         21   -1    0    0  503  502  0.00000000000E+00  0.00000000000E+00  0.63105684299E+03  0.63105684299E+03  0.00000000000E+00 0.  1.
         21   -1    0    0  501  503 -0.00000000000E+00 -0.00000000000E+00 -0.71846874830E+02  0.71846874830E+02  0.00000000000E+00 0.  1.
          6    1    1    2  501    0 -0.13822108545E+02 -0.10038002992E+03  0.16123354111E+03  0.25727894564E+03  0.17300000000E+03 0.  1.
         -6    1    1    2    0  502  0.13822108545E+02  0.10038002992E+03  0.39797642706E+03  0.44562477219E+03  0.17300000000E+03 0.  1.
<mgrwt>
<rscale>  2 0.20048990E+03</rscale>
<asrwt>0</asrwt>
<pdfrwt beam="1">  1       21 0.97085664E-01 0.20048990E+03</pdfrwt>
<pdfrwt beam="2">  1       21 0.11053366E-01 0.20048990E+03</pdfrwt>
<totfact> 0.59584479E+04</totfact>
</mgrwt>
</event>
<event>
 4    1  0.3935877E+000  0.1974676E+03  0.7546771E-02  0.1151893E+00
         21   -1    0    0  501  502  0.00000000000E+00  0.00000000000E+00  0.21714268895E+03  0.21714268895E+03  0.00000000000E+00 0. -1.
         21   -1    0    0  502  503 -0.00000000000E+00 -0.00000000000E+00 -0.18011020306E+03  0.18011020306E+03  0.00000000000E+00 0. -1.
          6    1    1    2  501    0 -0.67286507154E+02 -0.67357204563E+02  0.76919674800E+01  0.19761739148E+03  0.17300000000E+03 0. -1.
         -6    1    1    2    0  503  0.67286507154E+02  0.67357204563E+02  0.29340518407E+02  0.19963550053E+03  0.17300000000E+03 0. -1.
<mgrwt>
<rscale>  2 0.19746764E+03</rscale>
<asrwt>0</asrwt>
<pdfrwt beam="1">  1       21 0.33406568E-01 0.19746764E+03</pdfrwt>
<pdfrwt beam="2">  1       21 0.27709262E-01 0.19746764E+03</pdfrwt>
<totfact> 0.10708106E+05</totfact>
</mgrwt>
</event>
<event>
 4    1  0.3935877E+000  0.1783433E+03  0.7546771E-02  0.1169416E+00
         21   -1    0    0  501  502  0.00000000000E+00  0.00000000000E+00  0.24113762889E+02  0.24113762889E+02  0.00000000000E+00 0. -1.
         21   -1    0    0  502  503 -0.00000000000E+00 -0.00000000000E+00 -0.13417054784E+04  0.13417054784E+04  0.00000000000E+00 0. -1.
          6    1    1    2  501    0 -0.31158647526E+02 -0.30107674441E+02 -0.56998034339E+03  0.59723021125E+03  0.17300000000E+03 0. -1.
         -6    1    1    2    0  503  0.31158647526E+02  0.30107674441E+02 -0.74761137210E+03  0.76858903002E+03  0.17300000000E+03 0. -1.
<mgrwt>
<rscale>  2 0.17834330E+03</rscale>
<asrwt>0</asrwt>
<pdfrwt beam="1">  1       21 0.37098090E-02 0.17834330E+03</pdfrwt>
<pdfrwt beam="2">  1       21 0.20641627E+00 0.17834330E+03</pdfrwt>
<totfact> 0.54844634E+04</totfact>
</mgrwt>
</event>
<event>
 4    1  0.3935877E+000  0.2184592E+03  0.7546771E-02  0.1135037E+00
         21   -1    0    0  501  502  0.00000000000E+00  0.00000000000E+00  0.71096147120E+02  0.71096147120E+02  0.00000000000E+00 0.  1.
         21   -1    0    0  502  503 -0.00000000000E+00 -0.00000000000E+00 -0.78558207538E+03  0.78558207538E+03  0.00000000000E+00 0. -1.
          6    1    1    2  501    0  0.10230965302E+03  0.85604684082E+02 -0.19384539862E+03  0.29206243443E+03  0.17300000000E+03 0.  1.
         -6    1    1    2    0  503 -0.10230965302E+03 -0.85604684082E+02 -0.52064052964E+03  0.56461578807E+03  0.17300000000E+03 0. -1.
<mgrwt>
<rscale>  2 0.21845921E+03</rscale>
<asrwt>0</asrwt>
<pdfrwt beam="1">  1       21 0.10937869E-01 0.21845921E+03</pdfrwt>
<pdfrwt beam="2">  1       21 0.12085878E+00 0.21845921E+03</pdfrwt>
<totfact> 0.35404609E+04</totfact>
</mgrwt>
</event>
<event>
 4    1  0.3935877E+000  0.2925338E+03  0.7546771E-02  0.1089034E+00
         21   -1    0    0  501  502  0.00000000000E+00  0.00000000000E+00  0.15821585867E+03  0.15821585867E+03  0.00000000000E+00 0.  1.
         21   -1    0    0  502  503 -0.00000000000E+00 -0.00000000000E+00 -0.54592300466E+03  0.54592300466E+03  0.00000000000E+00 0. -1.
          6    1    1    2  501    0 -0.59324592749E+02  0.22831472255E+03 -0.16002016570E+03  0.33344035939E+03  0.17300000000E+03 0. -1.
         -6    1    1    2    0  503  0.59324592749E+02 -0.22831472255E+03 -0.22768698028E+03  0.37069850394E+03  0.17300000000E+03 0.  1.
<mgrwt>
<rscale>  2 0.29253379E+03</rscale>
<asrwt>0</asrwt>
<pdfrwt beam="1">  1       21 0.24340901E-01 0.29253379E+03</pdfrwt>
<pdfrwt beam="2">  1       21 0.83988156E-01 0.29253379E+03</pdfrwt>
<totfact> 0.18642918E+04</totfact>
</mgrwt>
</event>
<event>
 4    1  0.3935877E+000  0.1812976E+03  0.7546771E-02  0.1166553E+00
         21   -1    0    0  501  502  0.00000000000E+00  0.00000000000E+00  0.38167371384E+03  0.38167371384E+03  0.00000000000E+00 0. -1.
         21   -1    0    0  502  503 -0.00000000000E+00 -0.00000000000E+00 -0.14235628084E+03  0.14235628084E+03  0.00000000000E+00 0. -1.
          6    1    1    2  501    0 -0.18013411975E+02  0.51140202265E+02  0.28434430951E+03  0.33722468719E+03  0.17300000000E+03 0. -1.
         -6    1    1    2    0  503  0.18013411975E+02 -0.51140202265E+02 -0.45026876512E+02  0.18680530749E+03  0.17300000000E+03 0. -1.
<mgrwt>
<rscale>  2 0.18129755E+03</rscale>
<asrwt>0</asrwt>
<pdfrwt beam="1">  1       21 0.58719033E-01 0.18129755E+03</pdfrwt>
<pdfrwt beam="2">  1       21 0.21900966E-01 0.18129755E+03</pdfrwt>
<totfact> 0.53113145E+04</totfact>
</mgrwt>
</event>
<event>
 4    1  0.3935877E+000  0.2242445E+03  0.7546771E-02  0.1130758E+00
         21   -1    0    0  503  502  0.00000000000E+00  0.00000000000E+00  0.75298597427E+02  0.75298597427E+02  0.00000000000E+00 0.  1.
         21   -1    0    0  501  503 -0.00000000000E+00 -0.00000000000E+00 -0.15341228267E+04  0.15341228267E+04  0.00000000000E+00 0.  1.
          6    1    1    2  501    0  0.11376886164E+03 -0.86100109518E+02 -0.13341200524E+04  0.13528347634E+04  0.17300000000E+03 0.  1.
         -6    1    1    2    0  502 -0.11376886164E+03  0.86100109518E+02 -0.12470417681E+03  0.25658666070E+03  0.17300000000E+03 0.  1.
<mgrwt>
<rscale>  2 0.22424447E+03</rscale>
<asrwt>0</asrwt>
<pdfrwt beam="1">  1       21 0.11584401E-01 0.22424447E+03</pdfrwt>
<pdfrwt beam="2">  1       21 0.23601888E+00 0.22424447E+03</pdfrwt>
<totfact> 0.48798778E+03</totfact>
</mgrwt>
</event>
<event>
 4    1  0.3935877E+000  0.2025444E+03  0.7546771E-02  0.1147610E+00
         21   -1    0    0  501  502  0.00000000000E+00  0.00000000000E+00  0.35797345613E+03  0.35797345613E+03  0.00000000000E+00 0. -1.
         21   -1    0    0  502  503 -0.00000000000E+00 -0.00000000000E+00 -0.38051028267E+03  0.38051028267E+03  0.00000000000E+00 0. -1.
          6    1    1    2  501    0 -0.88251317507E+02 -0.57506115707E+02  0.29740142167E+03  0.35982197542E+03  0.17300000000E+03 0. -1.
         -6    1    1    2    0  503  0.88251317507E+02  0.57506115707E+02 -0.31993824821E+03  0.37866176339E+03  0.17300000000E+03 0. -1.
<mgrwt>
<rscale>  2 0.20254444E+03</rscale>
<asrwt>0</asrwt>
<pdfrwt beam="1">  1       21 0.55072839E-01 0.20254444E+03</pdfrwt>
<pdfrwt beam="2">  1       21 0.58540044E-01 0.20254444E+03</pdfrwt>
<totfact> 0.84372065E+03</totfact>
</mgrwt>
</event>
<event>
 4    1  0.3935877E+000  0.3477704E+03  0.7546771E-02  0.1063534E+00
         21   -1    0    0  501  502  0.00000000000E+00  0.00000000000E+00  0.13215703283E+04  0.13215703283E+04  0.00000000000E+00 0.  1.
         21   -1    0    0  502  503 -0.00000000000E+00 -0.00000000000E+00 -0.93308671754E+02  0.93308671754E+02  0.00000000000E+00 0. -1.
          6    1    1    2  501    0 -0.28805331776E+03 -0.89669172698E+02  0.71219934851E+03  0.79257314263E+03  0.17300000000E+03 0.  1.
         -6    1    1    2    0  503  0.28805331776E+03  0.89669172698E+02  0.51606230802E+03  0.62230585740E+03  0.17300000000E+03 0. -1.
<mgrwt>
<rscale>  2 0.34777043E+03</rscale>
<asrwt>0</asrwt>
<pdfrwt beam="1">  1       21 0.20331850E+00 0.34777043E+03</pdfrwt>
<pdfrwt beam="2">  1       21 0.14355181E-01 0.34777043E+03</pdfrwt>
<totfact> 0.48802429E+03</totfact>
</mgrwt>
</event>
<event>
 4    1  0.3935877E+000  0.2567887E+03  0.7546771E-02  0.1109088E+00
         21   -1    0    0  503  502  0.00000000000E+00  0.00000000000E+00  0.74793364914E+02  0.74793364914E+02  0.00000000000E+00 0. -1.
         21   -1    0    0  501  503 -0.00000000000E+00 -0.00000000000E+00 -0.13022386960E+04  0.13022386960E+04  0.00000000000E+00 0. -1.
          6    1    1    2  501    0  0.17159110272E+03 -0.81042849263E+02 -0.10050185579E+04  0.10373055247E+04  0.17300000000E+03 0. -1.
         -6    1    1    2    0  502 -0.17159110272E+03  0.81042849263E+02 -0.22242677321E+03  0.33972653619E+03  0.17300000000E+03 0. -1.
<mgrwt>
<rscale>  2 0.25678873E+03</rscale>
<asrwt>0</asrwt>
<pdfrwt beam="1">  1       21 0.11506672E-01 0.25678873E+03</pdfrwt>
<pdfrwt beam="2">  1       21 0.20034441E+00 0.25678873E+03</pdfrwt>
<totfact> 0.80435536E+03</totfact>
</mgrwt>
</event>
<event>
 4    1  0.3935877E+000  0.1860031E+03  0.7546771E-02  0.1162116E+00
         21   -1    0    0  501  502  0.00000000000E+00  0.00000000000E+00  0.16797372385E+02  0.16797372385E+02  0.00000000000E+00 0. -1.
         21   -1    0    0  502  503 -0.00000000000E+00 -0.00000000000E+00 -0.21308761691E+04  0.21308761691E+04  0.00000000000E+00 0. -1.
          6    1    1    2  501    0 -0.44429499252E+02  0.51905439863E+02 -0.86074956676E+03  0.88061738102E+03  0.17300000000E+03 0. -1.
         -6    1    1    2    0  503  0.44429499252E+02 -0.51905439863E+02 -0.12533292299E+04  0.12670561604E+04  0.17300000000E+03 0. -1.
<mgrwt>
<rscale>  2 0.18600311E+03</rscale>
<asrwt>0</asrwt>
<pdfrwt beam="1">  1       21 0.25842109E-02 0.18600311E+03</pdfrwt>
<pdfrwt beam="2">  1       21 0.32782713E+00 0.18600311E+03</pdfrwt>
<totfact> 0.19219104E+04</totfact>
</mgrwt>
</event>
<event>
 4    1  0.3935877E+000  0.1806022E+03  0.7546771E-02  0.1167221E+00
         21   -1    0    0  503  502  0.00000000000E+00  0.00000000000E+00  0.83646974398E+03  0.83646974398E+03  0.00000000000E+00 0.  1.
         21   -1    0    0  501  503 -0.00000000000E+00 -0.00000000000E+00 -0.50159117552E+02  0.50159117552E+02  0.00000000000E+00 0.  1.
          6    1    1    2  501    0  0.18088969744E+02 -0.48589684458E+02  0.18399866873E+03  0.25782295933E+03  0.17300000000E+03 0.  1.
         -6    1    1    2    0  502 -0.18088969744E+02  0.48589684458E+02  0.60231195770E+03  0.62880590220E+03  0.17300000000E+03 0.  1.
<mgrwt>
<rscale>  2 0.18060224E+03</rscale>
<asrwt>0</asrwt>
<pdfrwt beam="1">  1       21 0.12868764E+00 0.18060224E+03</pdfrwt>
<pdfrwt beam="2">  1       21 0.77167879E-02 0.18060224E+03</pdfrwt>
<totfact> 0.57008798E+04</totfact>
</mgrwt>
</event>
<event>
 4    1  0.3935877E+000  0.1772331E+03  0.7546771E-02  0.1170508E+00
         21   -1    0    0  503  502  0.00000000000E+00  0.00000000000E+00  0.41588310832E+02  0.41588310832E+02  0.00000000000E+00 0. -1.
         21   -1    0    0  501  503 -0.00000000000E+00 -0.00000000000E+00 -0.13456822202E+04  0.13456822202E+04  0.00000000000E+00 0. -1.
          6    1    1    2  501    0  0.26193965954E+02 -0.28221124890E+02 -0.11114854564E+04  0.11255271989E+04  0.17300000000E+03 0. -1.
         -6    1    1    2    0  502 -0.26193965954E+02  0.28221124890E+02 -0.19260845295E+03  0.26174333208E+03  0.17300000000E+03 0. -1.
<mgrwt>
<rscale>  2 0.17723305E+03</rscale>
<asrwt>0</asrwt>
<pdfrwt beam="1">  1       21 0.63982017E-02 0.17723305E+03</pdfrwt>
<pdfrwt beam="2">  1       21 0.20702803E+00 0.17723305E+03</pdfrwt>
<totfact> 0.21652931E+04</totfact>
</mgrwt>
</event>
<event>
 4    1  0.3935877E+000  0.2165459E+03  0.7546771E-02  0.1136485E+00
         21   -1    0    0  503  502  0.00000000000E+00  0.00000000000E+00  0.34567594718E+03  0.34567594718E+03  0.00000000000E+00 0.  1.
         21   -1    0    0  501  503 -0.00000000000E+00 -0.00000000000E+00 -0.29725947413E+03  0.29725947413E+03  0.00000000000E+00 0.  1.
          6    1    1    2  501    0 -0.29658195947E+01  0.13020878858E+03 -0.21281903483E+03  0.30361829045E+03  0.17300000000E+03 0.  1.
         -6    1    1    2    0  502  0.29658195947E+01 -0.13020878858E+03  0.26123550788E+03  0.33931713085E+03  0.17300000000E+03 0.  1.
<mgrwt>
<rscale>  2 0.21654590E+03</rscale>
<asrwt>0</asrwt>
<pdfrwt beam="1">  1       21 0.53180915E-01 0.21654590E+03</pdfrwt>
<pdfrwt beam="2">  1       21 0.45732227E-01 0.21654590E+03</pdfrwt>
<totfact> 0.15123977E+04</totfact>
</mgrwt>
</event>
<event>
 4    1  0.3935877E+000  0.2926721E+03  0.7546771E-02  0.1088962E+00
         21   -1    0    0  501  502  0.00000000000E+00  0.00000000000E+00  0.88214817737E+02  0.88214817737E+02  0.00000000000E+00 0.  1.
         21   -1    0    0  502  503 -0.00000000000E+00 -0.00000000000E+00 -0.99000454391E+03  0.99000454391E+03  0.00000000000E+00 0.  1.
          6    1    1    2  501    0 -0.19285445216E+03  0.13614363542E+03 -0.37620819785E+03  0.47664403627E+03  0.17300000000E+03 0.  1.
         -6    1    1    2    0  503  0.19285445216E+03 -0.13614363542E+03 -0.52558152832E+03  0.60157532537E+03  0.17300000000E+03 0.  1.
<mgrwt>
<rscale>  2 0.29267205E+03</rscale>
<asrwt>0</asrwt>
<pdfrwt beam="1">  1       21 0.13571510E-01 0.29267205E+03</pdfrwt>
<pdfrwt beam="2">  1       21 0.15230839E+00 0.29267205E+03</pdfrwt>
<totfact> 0.12709767E+04</totfact>
</mgrwt>
</event>
<event>
 4    1  0.3935877E+000  0.1935596E+03  0.7546771E-02  0.1155289E+00
         21   -1    0    0  503  502  0.00000000000E+00  0.00000000000E+00  0.53186528258E+02  0.53186528258E+02  0.00000000000E+00 0. -1.
         21   -1    0    0  501  503 -0.00000000000E+00 -0.00000000000E+00 -0.82715785671E+03  0.82715785671E+03  0.00000000000E+00 0. -1.
          6    1    1    2  501    0  0.61440272067E+02  0.61330247779E+02 -0.55654794261E+03  0.58924605959E+03  0.17300000000E+03 0. -1.
         -6    1    1    2    0  502 -0.61440272067E+02 -0.61330247779E+02 -0.21742338584E+03  0.29109832537E+03  0.17300000000E+03 0. -1.
<mgrwt>
<rscale>  2 0.19355957E+03</rscale>
<asrwt>0</asrwt>
<pdfrwt beam="1">  1       21 0.81825431E-02 0.19355957E+03</pdfrwt>
<pdfrwt beam="2">  1       21 0.12725505E+00 0.19355957E+03</pdfrwt>
<totfact> 0.52602380E+04</totfact>
</mgrwt>
</event>
<event>
 4    1  0.3935877E+000  0.2436672E+03  0.7546771E-02  0.1117374E+00
         21   -1    0    0  501  502  0.00000000000E+00  0.00000000000E+00  0.10253667017E+03  0.10253667017E+03  0.00000000000E+00 0. -1.
         21   -1    0    0  502  503 -0.00000000000E+00 -0.00000000000E+00 -0.12235665624E+04  0.12235665624E+04  0.00000000000E+00 0. -1.
          6    1    1    2  501    0  0.16972213410E+03  0.25280475222E+02 -0.79286729783E+02  0.25624225013E+03  0.17300000000E+03 0. -1.
         -6    1    1    2    0  503 -0.16972213410E+03 -0.25280475222E+02 -0.10417431625E+04  0.10698609825E+04  0.17300000000E+03 0. -1.
<mgrwt>
<rscale>  2 0.24366720E+03</rscale>
<asrwt>0</asrwt>
<pdfrwt beam="1">  1       21 0.15774872E-01 0.24366720E+03</pdfrwt>
<pdfrwt beam="2">  1       21 0.18824102E+00 0.24366720E+03</pdfrwt>
<totfact> 0.55000481E+03</totfact>
</mgrwt>
</event>
<event>
 4    1  0.3935877E+000  0.1733432E+03  0.7546771E-02  0.1174406E+00
         21   -1    0    0  501  502  0.00000000000E+00  0.00000000000E+00  0.25065903516E+02  0.25065903516E+02  0.00000000000E+00 0.  1.
         21   -1    0    0  502  503 -0.00000000000E+00 -0.00000000000E+00 -0.17813239564E+04  0.17813239564E+04  0.00000000000E+00 0.  1.
          6    1    1    2  501    0  0.69746146822E+01  0.83806261524E+01 -0.36161316606E+03  0.40101366811E+03  0.17300000000E+03 0.  1.
         -6    1    1    2    0  503 -0.69746146822E+01 -0.83806261524E+01 -0.13946448868E+04  0.14053761918E+04  0.17300000000E+03 0.  1.
<mgrwt>
<rscale>  2 0.17334324E+03</rscale>
<asrwt>0</asrwt>
<pdfrwt beam="1">  1       21 0.38562905E-02 0.17334324E+03</pdfrwt>
<pdfrwt beam="2">  1       21 0.27405000E+00 0.17334324E+03</pdfrwt>
<totfact> 0.20445367E+04</totfact>
</mgrwt>
</event>
<event>
 4    1  0.3935877E+000  0.1916514E+03  0.7546771E-02  0.1156980E+00
         21   -1    0    0  501  502  0.00000000000E+00  0.00000000000E+00  0.14156512311E+04  0.14156512311E+04  0.00000000000E+00 0.  1.
         21   -1    0    0  502  503 -0.00000000000E+00 -0.00000000000E+00 -0.47939779180E+02  0.47939779180E+02  0.00000000000E+00 0.  1.
          6    1    1    2  501    0  0.76460082845E+02 -0.30905148813E+02  0.11795263123E+04  0.11949948091E+04  0.17300000000E+03 0.  1.
         -6    1    1    2    0  503 -0.76460082845E+02  0.30905148813E+02  0.18818513965E+03  0.26859620116E+03  0.17300000000E+03 0.  1.
<mgrwt>
<rscale>  2 0.19165143E+03</rscale>
<asrwt>0</asrwt>
<pdfrwt beam="1">  1       21 0.21779247E+00 0.19165143E+03</pdfrwt>
<pdfrwt beam="2">  1       21 0.73753517E-02 0.19165143E+03</pdfrwt>
<totfact> 0.14356161E+04</totfact>
</mgrwt>
</event>
<event>
 4    1  0.3935877E+000  0.3294772E+03  0.7546771E-02  0.1071368E+00
         21   -1    0    0  503  502  0.00000000000E+00  0.00000000000E+00  0.30217599279E+03  0.30217599279E+03  0.00000000000E+00 0. -1.
         21   -1    0    0  501  503 -0.00000000000E+00 -0.00000000000E+00 -0.36073946495E+03  0.36073946495E+03  0.00000000000E+00 0.  1.
          6    1    1    2  501    0  0.19595579653E+03 -0.20056801670E+03 -0.50616089502E+02  0.33334245459E+03  0.17300000000E+03 0.  1.
         -6    1    1    2    0  502 -0.19595579653E+03  0.20056801670E+03 -0.79473826540E+01  0.32957300315E+03  0.17300000000E+03 0. -1.
<mgrwt>
<rscale>  2 0.32947717E+03</rscale>
<asrwt>0</asrwt>
<pdfrwt beam="1">  1       21 0.46488614E-01 0.32947717E+03</pdfrwt>
<pdfrwt beam="2">  1       21 0.55498379E-01 0.32947717E+03</pdfrwt>
<totfact> 0.12647036E+04</totfact>
</mgrwt>
</event>
<event>
 4    1  0.3935877E+000  0.1814847E+03  0.7546771E-02  0.1166374E+00
         21   -1    0    0  501  502  0.00000000000E+00  0.00000000000E+00  0.11361289848E+03  0.11361289848E+03  0.00000000000E+00 0. -1.
         21   -1    0    0  502  503 -0.00000000000E+00 -0.00000000000E+00 -0.29105946957E+03  0.29105946957E+03  0.00000000000E+00 0. -1.
          6    1    1    2  501    0  0.38967474697E+02 -0.38590525491E+02 -0.75967858137E+02  0.19674300041E+03  0.17300000000E+03 0. -1.
         -6    1    1    2    0  503 -0.38967474697E+02  0.38590525491E+02 -0.10147871296E+03  0.20792936764E+03  0.17300000000E+03 0. -1.
<mgrwt>
<rscale>  2 0.18148469E+03</rscale>
<asrwt>0</asrwt>
<pdfrwt beam="1">  1       21 0.17478908E-01 0.18148469E+03</pdfrwt>
<pdfrwt beam="2">  1       21 0.44778379E-01 0.18148469E+03</pdfrwt>
<totfact> 0.14241156E+05</totfact>
</mgrwt>
</event>
<event>
 4    1  0.3935877E+000  0.2565178E+03  0.7546771E-02  0.1109254E+00
         21   -1    0    0  501  502  0.00000000000E+00  0.00000000000E+00  0.66029988682E+03  0.66029988682E+03  0.00000000000E+00 0. -1.
         21   -1    0    0  502  503 -0.00000000000E+00 -0.00000000000E+00 -0.16250104979E+03  0.16250104979E+03  0.00000000000E+00 0.  1.
          6    1    1    2  501    0  0.85133669684E+02 -0.16918814409E+03  0.50474619862E+03  0.56618909813E+03  0.17300000000E+03 0. -1.
         -6    1    1    2    0  503 -0.85133669684E+02  0.16918814409E+03 -0.69473615896E+01  0.25661183848E+03  0.17300000000E+03 0.  1.
<mgrwt>
<rscale>  2 0.25651778E+03</rscale>
<asrwt>0</asrwt>
<pdfrwt beam="1">  1       21 0.10158460E+00 0.25651778E+03</pdfrwt>
<pdfrwt beam="2">  1       21 0.25000162E-01 0.25651778E+03</pdfrwt>
<totfact> 0.11516490E+04</totfact>
</mgrwt>
</event>
<event>
 4    1  0.3935877E+000  0.1822036E+03  0.7546771E-02  0.1165687E+00
         21   -1    0    0  503  502  0.00000000000E+00  0.00000000000E+00  0.86458765698E+02  0.86458765698E+02  0.00000000000E+00 0.  1.
         21   -1    0    0  501  503 -0.00000000000E+00 -0.00000000000E+00 -0.42126705585E+03  0.42126705585E+03  0.00000000000E+00 0.  1.
          6    1    1    2  501    0 -0.30046888205E+02  0.48644967051E+02 -0.24293405868E+03  0.30366940112E+03  0.17300000000E+03 0.  1.
         -6    1    1    2    0  502  0.30046888205E+02 -0.48644967051E+02 -0.91874231479E+02  0.20405642043E+03  0.17300000000E+03 0.  1.
<mgrwt>
<rscale>  2 0.18220359E+03</rscale>
<asrwt>0</asrwt>
<pdfrwt beam="1">  1       21 0.13301349E-01 0.18220359E+03</pdfrwt>
<pdfrwt beam="2">  1       21 0.64810316E-01 0.18220359E+03</pdfrwt>
<totfact> 0.10740130E+05</totfact>
</mgrwt>
</event>
<event>
 4    1  0.3935877E+000  0.2396454E+03  0.7546771E-02  0.1120029E+00
         21   -1    0    0  501  502  0.00000000000E+00  0.00000000000E+00  0.10988933620E+03  0.10988933620E+03  0.00000000000E+00 0. -1.
         21   -1    0    0  502  503 -0.00000000000E+00 -0.00000000000E+00 -0.52551107085E+03  0.52551107085E+03  0.00000000000E+00 0.  1.
          6    1    1    2  501    0 -0.78002567589E+02  0.14634387365E+03 -0.18423036618E+03  0.30227596287E+03  0.17300000000E+03 0. -1.
         -6    1    1    2    0  503  0.78002567589E+02 -0.14634387365E+03 -0.23139136847E+03  0.33312444418E+03  0.17300000000E+03 0.  1.
<mgrwt>
<rscale>  2 0.23964543E+03</rscale>
<asrwt>0</asrwt>
<pdfrwt beam="1">  1       21 0.16906051E-01 0.23964543E+03</pdfrwt>
<pdfrwt beam="2">  1       21 0.80847859E-01 0.23964543E+03</pdfrwt>
<totfact> 0.41368272E+04</totfact>
</mgrwt>
</event>
<event>
 4    1  0.3935877E+000  0.2050447E+03  0.7546771E-02  0.1145551E+00
         21   -1    0    0  501  502  0.00000000000E+00  0.00000000000E+00  0.34487894410E+03  0.34487894410E+03  0.00000000000E+00 0. -1.
         21   -1    0    0  502  503 -0.00000000000E+00 -0.00000000000E+00 -0.23733607589E+03  0.23733607589E+03  0.00000000000E+00 0. -1.
          6    1    1    2  501    0 -0.59685120969E+00  0.11006345907E+03  0.25678648979E+03  0.32860709456E+03  0.17300000000E+03 0. -1.
         -6    1    1    2    0  503  0.59685120969E+00 -0.11006345907E+03 -0.14924362159E+03  0.25360792543E+03  0.17300000000E+03 0. -1.
<mgrwt>
<rscale>  2 0.20504468E+03</rscale>
<asrwt>0</asrwt>
<pdfrwt beam="1">  1       21 0.53058299E-01 0.20504468E+03</pdfrwt>
<pdfrwt beam="2">  1       21 0.36513242E-01 0.20504468E+03</pdfrwt>
<totfact> 0.24167259E+04</totfact>
</mgrwt>
</event>
<event>
 4    1  0.3935877E+000  0.1998094E+03  0.7546771E-02  0.1149900E+00
         21   -1    0    0  503  502  0.00000000000E+00  0.00000000000E+00  0.79212108006E+03  0.79212108006E+03  0.00000000000E+00 0.  1.
         21   -1    0    0  501  503 -0.00000000000E+00 -0.00000000000E+00 -0.83064079996E+02  0.83064079996E+02  0.00000000000E+00 0.  1.
          6    1    1    2  501    0 -0.36003548220E+02 -0.93265925123E+02  0.80124081363E+02  0.21527576893E+03  0.17300000000E+03 0.  1.
         -6    1    1    2    0  502  0.36003548220E+02  0.93265925123E+02  0.62893291870E+03  0.65990939113E+03  0.17300000000E+03 0.  1.
<mgrwt>
<rscale>  2 0.19980938E+03</rscale>
<asrwt>0</asrwt>
<pdfrwt beam="1">  1       21 0.12186478E+00 0.19980938E+03</pdfrwt>
<pdfrwt beam="2">  1       21 0.12779090E-01 0.19980938E+03</pdfrwt>
<totfact> 0.26527871E+04</totfact>
</mgrwt>
</event>
<event>
 4    1  0.3935877E+000  0.2240172E+03  0.7546771E-02  0.1130923E+00
         21   -1    0    0  503  502  0.00000000000E+00  0.00000000000E+00  0.80723163029E+02  0.80723163029E+02  0.00000000000E+00 0.  1.
         21   -1    0    0  501  503 -0.00000000000E+00 -0.00000000000E+00 -0.64765763558E+03  0.64765763558E+03  0.00000000000E+00 0.  1.
          6    1    1    2  501    0 -0.11538682251E+03 -0.83310315448E+02 -0.35640984499E+03  0.42096520649E+03  0.17300000000E+03 0.  1.
         -6    1    1    2    0  502  0.11538682251E+03  0.83310315448E+02 -0.21052462756E+03  0.30741559212E+03  0.17300000000E+03 0.  1.
<mgrwt>
<rscale>  2 0.22401725E+03</rscale>
<asrwt>0</asrwt>
<pdfrwt beam="1">  1       21 0.12418947E-01 0.22401725E+03</pdfrwt>
<pdfrwt beam="2">  1       21 0.99639644E-01 0.22401725E+03</pdfrwt>
<totfact> 0.44973280E+04</totfact>
</mgrwt>
</event>
<event>
 4    1  0.3935877E+000  0.1820493E+03  0.7546771E-02  0.1165834E+00
         21   -1    0    0  501  502  0.00000000000E+00  0.00000000000E+00  0.73053812674E+03  0.73053812674E+03  0.00000000000E+00 0. -1.
         21   -1    0    0  502  503 -0.00000000000E+00 -0.00000000000E+00 -0.57800444893E+02  0.57800444893E+02  0.00000000000E+00 0. -1.
          6    1    1    2  501    0 -0.48212783529E+02  0.29807351512E+02  0.51918805254E+03  0.55018013832E+03  0.17300000000E+03 0. -1.
         -6    1    1    2    0  503  0.48212783529E+02 -0.29807351512E+02  0.15354962931E+03  0.23815843332E+03  0.17300000000E+03 0. -1.
<mgrwt>
<rscale>  2 0.18204931E+03</rscale>
<asrwt>0</asrwt>
<pdfrwt beam="1">  1       21 0.11239047E+00 0.18204931E+03</pdfrwt>
<pdfrwt beam="2">  1       21 0.88923767E-02 0.18204931E+03</pdfrwt>
<totfact> 0.62165237E+04</totfact>
</mgrwt>
</event>
<event>
 4    1  0.3935877E+000  0.1745786E+03  0.7546771E-02  0.1173155E+00
         21   -1    0    0  501  502  0.00000000000E+00  0.00000000000E+00  0.88679798365E+02  0.88679798365E+02  0.00000000000E+00 0. -1.
         21   -1    0    0  502  503 -0.00000000000E+00 -0.00000000000E+00 -0.60260886700E+03  0.60260886700E+03  0.00000000000E+00 0. -1.
          6    1    1    2  501    0 -0.55682195625E+01 -0.22752705444E+02 -0.30395862131E+02  0.17720496356E+03  0.17300000000E+03 0. -1.
         -6    1    1    2    0  503  0.55682195625E+01  0.22752705444E+02 -0.48353320650E+03  0.51408370181E+03  0.17300000000E+03 0. -1.
<mgrwt>
<rscale>  2 0.17457861E+03</rscale>
<asrwt>0</asrwt>
<pdfrwt beam="1">  1       21 0.13643046E-01 0.17457861E+03</pdfrwt>
<pdfrwt beam="2">  1       21 0.92709059E-01 0.17457861E+03</pdfrwt>
<totfact> 0.46113753E+04</totfact>
</mgrwt>
</event>
<event>
 4    1  0.3935877E+000  0.2762891E+03  0.7546771E-02  0.1097733E+00
         21   -1    0    0  501  502  0.00000000000E+00  0.00000000000E+00  0.47560070179E+03  0.47560070179E+03  0.00000000000E+00 0. -1.
         21   -1    0    0  502  503 -0.00000000000E+00 -0.00000000000E+00 -0.17578452129E+03  0.17578452129E+03  0.00000000000E+00 0. -1.
          6    1    1    2  501    0  0.20319185838E+03 -0.71552155143E+02  0.24593475395E+03  0.36989126162E+03  0.17300000000E+03 0. -1.
         -6    1    1    2    0  503 -0.20319185838E+03  0.71552155143E+02  0.53881426541E+02  0.28149396147E+03  0.17300000000E+03 0. -1.
<mgrwt>
<rscale>  2 0.27628906E+03</rscale>
<asrwt>0</asrwt>
<pdfrwt beam="1">  1       21 0.73169338E-01 0.27628906E+03</pdfrwt>
<pdfrwt beam="2">  1       21 0.27043773E-01 0.27628906E+03</pdfrwt>
<totfact> 0.20961852E+04</totfact>
</mgrwt>
</event>
<event>
 4    1  0.3935877E+000  0.1849219E+03  0.7546771E-02  0.1163123E+00
         21   -1    0    0  503  502  0.00000000000E+00  0.00000000000E+00  0.62057909207E+02  0.62057909207E+02  0.00000000000E+00 0.  1.
         21   -1    0    0  501  503 -0.00000000000E+00 -0.00000000000E+00 -0.59538637761E+03  0.59538637761E+03  0.00000000000E+00 0. -1.
          6    1    1    2  501    0  0.19399830378E+02 -0.62376062834E+02 -0.35638219439E+03  0.40150267136E+03  0.17300000000E+03 0.  1.
         -6    1    1    2    0  502 -0.19399830378E+02  0.62376062834E+02 -0.17694627401E+03  0.25594161545E+03  0.17300000000E+03 0. -1.
<mgrwt>
<rscale>  2 0.18492195E+03</rscale>
<asrwt>0</asrwt>
<pdfrwt beam="1">  1       21 0.95473707E-02 0.18492195E+03</pdfrwt>
<pdfrwt beam="2">  1       21 0.91597903E-01 0.18492195E+03</pdfrwt>
<totfact> 0.89094227E+04</totfact>
</mgrwt>
</event>
<event>
 4    1  0.3935877E+000  0.1826676E+03  0.7546771E-02  0.1165246E+00
         21   -1    0    0  503  502  0.00000000000E+00  0.00000000000E+00  0.13299973462E+04  0.13299973462E+04  0.00000000000E+00 0.  1.
         21   -1    0    0  501  503 -0.00000000000E+00 -0.00000000000E+00 -0.37046435298E+02  0.37046435298E+02  0.00000000000E+00 0. -1.
          6    1    1    2  501    0 -0.58341570207E+02 -0.58927738304E+01  0.25813762332E+03  0.31623171278E+03  0.17300000000E+03 0. -1.
         -6    1    1    2    0  502  0.58341570207E+02  0.58927738304E+01  0.10348132876E+04  0.10508120687E+04  0.17300000000E+03 0.  1.
<mgrwt>
<rscale>  2 0.18266763E+03</rscale>
<asrwt>0</asrwt>
<pdfrwt beam="1">  1       21 0.20461494E+00 0.18266763E+03</pdfrwt>
<pdfrwt beam="2">  1       21 0.56994526E-02 0.18266763E+03</pdfrwt>
<totfact> 0.27211430E+04</totfact>
</mgrwt>
</event>
<event>
 4    1  0.3935877E+000  0.1995543E+03  0.7546771E-02  0.1150116E+00
         21   -1    0    0  501  502  0.00000000000E+00  0.00000000000E+00  0.18936737669E+04  0.18936737669E+04  0.00000000000E+00 0.  1.
         21   -1    0    0  502  503 -0.00000000000E+00 -0.00000000000E+00 -0.31299242221E+02  0.31299242221E+02  0.00000000000E+00 0.  1.
          6    1    1    2  501    0  0.89040527686E+02 -0.44324780532E+02  0.14825277811E+04  0.14958978988E+04  0.17300000000E+03 0.  1.
         -6    1    1    2    0  503 -0.89040527686E+02  0.44324780532E+02  0.37984674361E+03  0.42907511041E+03  0.17300000000E+03 0.  1.
<mgrwt>
<rscale>  2 0.19955426E+03</rscale>
<asrwt>0</asrwt>
<pdfrwt beam="1">  1       21 0.29133434E+00 0.19955426E+03</pdfrwt>
<pdfrwt beam="2">  1       21 0.48152695E-02 0.19955426E+03</pdfrwt>
<totfact> 0.10899541E+04</totfact>
</mgrwt>
</event>
<event>
 4    1  0.3935877E+000  0.2144618E+03  0.7546771E-02  0.1138081E+00
         21   -1    0    0  503  502  0.00000000000E+00  0.00000000000E+00  0.38423289544E+03  0.38423289544E+03  0.00000000000E+00 0. -1.
         21   -1    0    0  501  503 -0.00000000000E+00 -0.00000000000E+00 -0.35578439629E+03  0.35578439629E+03  0.00000000000E+00 0.  1.
          6    1    1    2  501    0  0.12310140220E+03 -0.30181000481E+02 -0.28717992536E+03  0.35842175931E+03  0.17300000000E+03 0.  1.
         -6    1    1    2    0  502 -0.12310140220E+03  0.30181000481E+02  0.31562842451E+03  0.38159553243E+03  0.17300000000E+03 0. -1.
<mgrwt>
<rscale>  2 0.21446176E+03</rscale>
<asrwt>0</asrwt>
<pdfrwt beam="1">  1       21 0.59112753E-01 0.21446176E+03</pdfrwt>
<pdfrwt beam="2">  1       21 0.54736061E-01 0.21446176E+03</pdfrwt>
<totfact> 0.83029730E+03</totfact>
</mgrwt>
</event>
<event>
 4    1  0.3935877E+000  0.1830927E+03  0.7546771E-02  0.1164843E+00
         21   -1    0    0  501  502  0.00000000000E+00  0.00000000000E+00  0.88936677600E+03  0.88936677600E+03  0.00000000000E+00 0.  1.
         21   -1    0    0  502  503 -0.00000000000E+00 -0.00000000000E+00 -0.66328751988E+02  0.66328751988E+02  0.00000000000E+00 0.  1.
          6    1    1    2  501    0  0.59687852742E+02  0.55936678956E+01  0.72549230735E+03  0.74823927784E+03  0.17300000000E+03 0.  1.
         -6    1    1    2    0  503 -0.59687852742E+02 -0.55936678956E+01  0.97545716668E+02  0.20745625015E+03  0.17300000000E+03 0.  1.
<mgrwt>
<rscale>  2 0.18309268E+03</rscale>
<asrwt>0</asrwt>
<pdfrwt beam="1">  1       21 0.13682565E+00 0.18309268E+03</pdfrwt>
<pdfrwt beam="2">  1       21 0.10204424E-01 0.18309268E+03</pdfrwt>
<totfact> 0.29893183E+04</totfact>
</mgrwt>
</event>
<event>
 4    1  0.3935877E+000  0.1844330E+03  0.7546771E-02  0.1163580E+00
         21   -1    0    0  501  502  0.00000000000E+00  0.00000000000E+00  0.14032591972E+03  0.14032591972E+03  0.00000000000E+00 0. -1.
         21   -1    0    0  502  503 -0.00000000000E+00 -0.00000000000E+00 -0.24331411060E+03  0.24331411060E+03  0.00000000000E+00 0. -1.
          6    1    1    2  501    0  0.42245175763E+02  0.47977946308E+02 -0.63226894260E+02  0.19496968576E+03  0.17300000000E+03 0. -1.
         -6    1    1    2    0  503 -0.42245175763E+02 -0.47977946308E+02 -0.39761296620E+02  0.18867034456E+03  0.17300000000E+03 0. -1.
<mgrwt>
<rscale>  2 0.18443302E+03</rscale>
<asrwt>0</asrwt>
<pdfrwt beam="1">  1       21 0.21588603E-01 0.18443302E+03</pdfrwt>
<pdfrwt beam="2">  1       21 0.37432940E-01 0.18443302E+03</pdfrwt>
<totfact> 0.13804387E+05</totfact>
</mgrwt>
</event>
<event>
 4    1  0.3935877E+000  0.1832598E+03  0.7546771E-02  0.1164685E+00
         21   -1    0    0  503  502  0.00000000000E+00  0.00000000000E+00  0.26398226389E+03  0.26398226389E+03  0.00000000000E+00 0.  1.
         21   -1    0    0  501  503 -0.00000000000E+00 -0.00000000000E+00 -0.13630419084E+03  0.13630419084E+03  0.00000000000E+00 0.  1.
          6    1    1    2  501    0  0.21094180249E+02 -0.56658619091E+02  0.12173774747E+02  0.18366372627E+03  0.17300000000E+03 0.  1.
         -6    1    1    2    0  502 -0.21094180249E+02  0.56658619091E+02  0.11550429830E+03  0.21662272846E+03  0.17300000000E+03 0.  1.
<mgrwt>
<rscale>  2 0.18325983E+03</rscale>
<asrwt>0</asrwt>
<pdfrwt beam="1">  1       21 0.40612656E-01 0.18325983E+03</pdfrwt>
<pdfrwt beam="2">  1       21 0.20969876E-01 0.18325983E+03</pdfrwt>
<totfact> 0.12379544E+05</totfact>
</mgrwt>
</event>
