<event>
 5    1  0.4059427E+001  0.9158071E+02  0.7546771E-02  0.1299068E+00
          2   -1    0    0  501    0  0.00000000000E+00  0.00000000000E+00  0.22709377510E+03  0.22709377510E+03  0.00000000000E+00 0. -1.
         -2   -1    0    0    0  501 -0.00000000000E+00 -0.00000000000E+00 -0.92329998502E+01  0.92329998502E+01  0.00000000000E+00 0.  1.
         23    2    1    2    0    0  0.00000000000E+00  0.00000000000E+00  0.21786077525E+03  0.23632677495E+03  0.91580713940E+02 0.  0.
          2    1    3    3  502    0 -0.41561558082E+02  0.23557914755E+01  0.15815320515E+03  0.16354005369E+03  0.00000000000E+00 0. -1.
         -2    1    3    3    0  502  0.41561558082E+02 -0.23557914755E+01  0.59707570100E+02  0.72786721255E+02  0.00000000000E+00 0.  1.
<mgrwt>
<rscale>  0 0.91580714E+02</rscale>
<asrwt>0</asrwt>
<pdfrwt beam="1">  1        2 0.34937500E-01 0.91580714E+02</pdfrwt>
<pdfrwt beam="2">  1       -2 0.14204617E-02 0.91580714E+02</pdfrwt>
<totfact> 0.16010273E+05</totfact>
</mgrwt>
</event>
<event>
 5    1  0.4059427E+001  0.8953414E+02  0.7546771E-02  0.1303984E+00
          2   -1    0    0  501    0  0.00000000000E+00  0.00000000000E+00  0.13336006178E+04  0.13336006178E+04  0.00000000000E+00 0. -1.
         -2   -1    0    0    0  501 -0.00000000000E+00 -0.00000000000E+00 -0.15027666715E+01  0.15027666715E+01  0.00000000000E+00 0.  1.
         23    2    1    2    0    0  0.00000000000E+00  0.00000000000E+00  0.13320978512E+04  0.13351033845E+04  0.89534140116E+02 0.  0.
          2    1    3    3  502    0  0.42369263278E+02 -0.22770250412E+01  0.87890025568E+03  0.87992385964E+03  0.00000000000E+00 0. -1.
         -2    1    3    3    0  502 -0.42369263278E+02  0.22770250412E+01  0.45319759548E+03  0.45517952487E+03  0.00000000000E+00 0.  1.
<mgrwt>
<rscale>  0 0.89534140E+02</rscale>
<asrwt>0</asrwt>
<pdfrwt beam="1">  1        2 0.20516838E+00 0.89534140E+02</pdfrwt>
<pdfrwt beam="2">  1       -2 0.23119594E-03 0.89534140E+02</pdfrwt>
<totfact> 0.25636582E+05</totfact>
</mgrwt>
</event>
<event>
 5    1  0.4059427E+001  0.9643261E+02  0.7546771E-02  0.1287982E+00
          1   -1    0    0  501    0  0.00000000000E+00  0.00000000000E+00  0.28563118068E+02  0.28563118068E+02  0.00000000000E+00 0. -1.
         -1   -1    0    0    0  501 -0.00000000000E+00 -0.00000000000E+00 -0.81392091832E+02  0.81392091832E+02  0.00000000000E+00 0.  1.
         23    2    1    2    0    0  0.00000000000E+00  0.00000000000E+00 -0.52828973764E+02  0.10995520990E+03  0.96432607116E+02 0.  0.
          2    1    3    3  502    0  0.17800646421E+02  0.19081565468E+02  0.19815316057E+02  0.32766078559E+02  0.00000000000E+00 0. -1.
         -2    1    3    3    0  502 -0.17800646421E+02 -0.19081565468E+02 -0.72644289820E+02  0.77189131341E+02  0.00000000000E+00 0.  1.
<mgrwt>
<rscale>  0 0.96432607E+02</rscale>
<asrwt>0</asrwt>
<pdfrwt beam="1">  1        1 0.43943259E-02 0.96432607E+02</pdfrwt>
<pdfrwt beam="2">  1       -1 0.12521860E-01 0.96432607E+02</pdfrwt>
<totfact> 0.73102834E+04</totfact>
</mgrwt>
</event>
<event>
 5    1  0.4059427E+001  0.9363834E+02  0.7546771E-02  0.1294273E+00
          1   -1    0    0  501    0  0.00000000000E+00  0.00000000000E+00  0.18219620444E+03  0.18219620444E+03  0.00000000000E+00 0. -1.
         -1   -1    0    0    0  501 -0.00000000000E+00 -0.00000000000E+00 -0.12031175607E+02  0.12031175607E+02  0.00000000000E+00 0.  1.
         23    2    1    2    0    0  0.00000000000E+00  0.00000000000E+00  0.17016502883E+03  0.19422738004E+03  0.93638336817E+02 0.  0.
          2    1    3    3  502    0  0.72350672936E+01 -0.29379686216E+02  0.10973510581E+02  0.32185867945E+02  0.00000000000E+00 0.  1.
         -2    1    3    3    0  502 -0.72350672936E+01  0.29379686216E+02  0.15919151825E+03  0.16204151210E+03  0.00000000000E+00 0. -1.
<mgrwt>
<rscale>  0 0.93638337E+02</rscale>
<asrwt>0</asrwt>
<pdfrwt beam="1">  1        1 0.28030183E-01 0.93638337E+02</pdfrwt>
<pdfrwt beam="2">  1       -1 0.18509502E-02 0.93638337E+02</pdfrwt>
<totfact> 0.10824636E+05</totfact>
</mgrwt>
</event>
<event>
 5    1  0.4059427E+001  0.9066188E+02  0.7546771E-02  0.1301257E+00
          2   -1    0    0  501    0  0.00000000000E+00  0.00000000000E+00  0.37120775996E+03  0.37120775996E+03  0.00000000000E+00 0.  1.
         -2   -1    0    0    0  501 -0.00000000000E+00 -0.00000000000E+00 -0.55356981539E+01  0.55356981539E+01  0.00000000000E+00 0. -1.
         23    2    1    2    0    0  0.00000000000E+00  0.00000000000E+00  0.36567206180E+03  0.37674345811E+03  0.90661879784E+02 0.  0.
          2    1    3    3  502    0  0.10988476865E+02 -0.25464706586E+02  0.33834688359E+02  0.43749103324E+02  0.00000000000E+00 0. -1.
         -2    1    3    3    0  502 -0.10988476865E+02  0.25464706586E+02  0.33183737345E+03  0.33299435479E+03  0.00000000000E+00 0.  1.
<mgrwt>
<rscale>  0 0.90661880E+02</rscale>
<asrwt>0</asrwt>
<pdfrwt beam="1">  1        2 0.57108867E-01 0.90661880E+02</pdfrwt>
<pdfrwt beam="2">  1       -2 0.85164616E-03 0.90661880E+02</pdfrwt>
<totfact> 0.19725998E+05</totfact>
</mgrwt>
</event>
<event>
 5    1  0.4059427E+001  0.8943608E+02  0.7546771E-02  0.1304223E+00
          2   -1    0    0  501    0  0.00000000000E+00  0.00000000000E+00  0.16454388623E+04  0.16454388623E+04  0.00000000000E+00 0. -1.
         -2   -1    0    0    0  501 -0.00000000000E+00 -0.00000000000E+00 -0.12153008143E+01  0.12153008143E+01  0.00000000000E+00 0.  1.
         23    2    1    2    0    0  0.00000000000E+00  0.00000000000E+00  0.16442235615E+04  0.16466541632E+04  0.89436081966E+02 0.  0.
          2    1    3    3  502    0  0.42493278777E+02  0.13811733872E+02  0.78886659398E+03  0.79013096752E+03  0.00000000000E+00 0. -1.
         -2    1    3    3    0  502 -0.42493278777E+02 -0.13811733872E+02  0.85535696755E+03  0.85652319564E+03  0.00000000000E+00 0.  1.
<mgrwt>
<rscale>  0 0.89436082E+02</rscale>
<asrwt>0</asrwt>
<pdfrwt beam="1">  1        2 0.25314266E+00 0.89436082E+02</pdfrwt>
<pdfrwt beam="2">  1       -2 0.18697067E-03 0.89436082E+02</pdfrwt>
<totfact> 0.23814100E+05</totfact>
</mgrwt>
</event>
<event>
 5    1  0.4059427E+001  0.9698432E+02  0.7546771E-02  0.1286768E+00
          2   -1    0    0  501    0  0.00000000000E+00  0.00000000000E+00  0.30868753952E+01  0.30868753952E+01  0.00000000000E+00 0. -1.
         -2   -1    0    0    0  501 -0.00000000000E+00 -0.00000000000E+00 -0.76177020770E+03  0.76177020770E+03  0.00000000000E+00 0.  1.
         23    2    1    2    0    0  0.00000000000E+00  0.00000000000E+00 -0.75868333231E+03  0.76485708310E+03  0.96984322669E+02 0.  0.
          2    1    3    3  502    0 -0.22247880555E+02 -0.22626973734E+02 -0.90163250004E+02  0.95584307189E+02  0.00000000000E+00 0. -1.
         -2    1    3    3    0  502  0.22247880555E+02  0.22626973734E+02 -0.66852008230E+03  0.66927277591E+03  0.00000000000E+00 0.  1.
<mgrwt>
<rscale>  0 0.96984323E+02</rscale>
<asrwt>0</asrwt>
<pdfrwt beam="1">  1        2 0.47490450E-03 0.96984323E+02</pdfrwt>
<pdfrwt beam="2">  1       -2 0.11719527E+00 0.96984323E+02</pdfrwt>
<totfact> 0.21331888E+04</totfact>
</mgrwt>
</event>
<event>
 5    1  0.4059427E+001  0.8920576E+02  0.7546771E-02  0.1304787E+00
         -2   -1    0    0    0  501 -0.00000000000E+00  0.00000000000E+00  0.20283451843E+03  0.20283451843E+03  0.00000000000E+00 0.  1.
          2   -1    0    0  501    0  0.00000000000E+00 -0.00000000000E+00 -0.98080793449E+01  0.98080793449E+01  0.00000000000E+00 0. -1.
         23    2    1    2    0    0  0.00000000000E+00  0.00000000000E+00  0.19302643909E+03  0.21264259778E+03  0.89205763281E+02 0.  0.
          2    1    3    3  502    0  0.43842405474E+01 -0.33279385083E+02  0.26499730528E+02  0.42766514410E+02  0.00000000000E+00 0. -1.
         -2    1    3    3    0  502 -0.43842405474E+01  0.33279385083E+02  0.16652670856E+03  0.16987608337E+03  0.00000000000E+00 0.  1.
<mgrwt>
<rscale>  0 0.89205763E+02</rscale>
<asrwt>0</asrwt>
<pdfrwt beam="2">  1        2 0.15089354E-02 0.89205763E+02</pdfrwt>
<pdfrwt beam="1">  1       -2 0.31205307E-01 0.89205763E+02</pdfrwt>
<totfact> 0.65491524E+04</totfact>
</mgrwt>
</event>
<event>
 5    1  0.4059427E+001  0.9054242E+02  0.7546771E-02  0.1301543E+00
         -3   -1    0    0    0  501 -0.00000000000E+00  0.00000000000E+00  0.80311717470E+01  0.80311717470E+01  0.00000000000E+00 0.  1.
          3   -1    0    0  501    0  0.00000000000E+00 -0.00000000000E+00 -0.25519095694E+03  0.25519095694E+03  0.00000000000E+00 0. -1.
         23    2    1    2    0    0  0.00000000000E+00  0.00000000000E+00 -0.24715978519E+03  0.26322212868E+03  0.90542418864E+02 0.  0.
          2    1    3    3  502    0  0.81147651434E+01 -0.37716828999E+02 -0.19244199837E+03  0.19627106598E+03  0.00000000000E+00 0. -1.
         -2    1    3    3    0  502 -0.81147651434E+01  0.37716828999E+02 -0.54717786817E+02  0.66951062704E+02  0.00000000000E+00 0.  1.
<mgrwt>
<rscale>  0 0.90542419E+02</rscale>
<asrwt>0</asrwt>
<pdfrwt beam="2">  1        3 0.39260136E-01 0.90542419E+02</pdfrwt>
<pdfrwt beam="1">  1       -3 0.12355653E-02 0.90542419E+02</pdfrwt>
<totfact> 0.26010668E+04</totfact>
</mgrwt>
</event>
<event>
 5    1  0.4059427E+001  0.9099595E+02  0.7546771E-02  0.1300458E+00
          1   -1    0    0  501    0  0.00000000000E+00  0.00000000000E+00  0.11395467001E+03  0.11395467001E+03  0.00000000000E+00 0. -1.
         -1   -1    0    0    0  501 -0.00000000000E+00 -0.00000000000E+00 -0.18165696543E+02  0.18165696543E+02  0.00000000000E+00 0.  1.
         23    2    1    2    0    0  0.00000000000E+00  0.00000000000E+00  0.95788973463E+02  0.13212036655E+03  0.90995954964E+02 0.  0.
          2    1    3    3  502    0 -0.13455851287E+02  0.29412018471E+02  0.94355081551E+02  0.99744715042E+02  0.00000000000E+00 0. -1.
         -2    1    3    3    0  502  0.13455851287E+02 -0.29412018471E+02  0.14338919116E+01  0.32375651506E+02  0.00000000000E+00 0.  1.
<mgrwt>
<rscale>  0 0.90995955E+02</rscale>
<asrwt>0</asrwt>
<pdfrwt beam="1">  1        1 0.17531487E-01 0.90995955E+02</pdfrwt>
<pdfrwt beam="2">  1       -1 0.27947226E-02 0.90995955E+02</pdfrwt>
<totfact> 0.10735946E+05</totfact>
</mgrwt>
</event>
<event>
 5    1  0.4059427E+001  0.9110681E+02  0.7546771E-02  0.1300193E+00
         -2   -1    0    0    0  501 -0.00000000000E+00  0.00000000000E+00  0.53182716933E+02  0.53182716933E+02  0.00000000000E+00 0.  1.
          2   -1    0    0  501    0  0.00000000000E+00 -0.00000000000E+00 -0.39018550965E+02  0.39018550965E+02  0.00000000000E+00 0. -1.
         23    2    1    2    0    0  0.00000000000E+00  0.00000000000E+00  0.14164165968E+02  0.92201267897E+02  0.91106806575E+02 0.  0.
          2    1    3    3  502    0 -0.51387269714E+01 -0.45106326669E+02  0.32785658245E+01  0.45516329095E+02  0.00000000000E+00 0. -1.
         -2    1    3    3    0  502  0.51387269714E+01  0.45106326669E+02  0.10885600144E+02  0.46684938802E+02  0.00000000000E+00 0.  1.
<mgrwt>
<rscale>  0 0.91106807E+02</rscale>
<asrwt>0</asrwt>
<pdfrwt beam="2">  1        2 0.60028540E-02 0.91106807E+02</pdfrwt>
<pdfrwt beam="1">  1       -2 0.81819564E-02 0.91106807E+02</pdfrwt>
<totfact> 0.94988636E+04</totfact>
</mgrwt>
</event>
<event>
 5    1  0.4059427E+001  0.9208262E+02  0.7546771E-02  0.1297885E+00
          2   -1    0    0  501    0  0.00000000000E+00  0.00000000000E+00  0.36165147593E+02  0.36165147593E+02  0.00000000000E+00 0. -1.
         -2   -1    0    0    0  501 -0.00000000000E+00 -0.00000000000E+00 -0.58614505354E+02  0.58614505354E+02  0.00000000000E+00 0.  1.
         23    2    1    2    0    0  0.00000000000E+00  0.00000000000E+00 -0.22449357762E+02  0.94779652947E+02  0.92082620232E+02 0.  0.
          2    1    3    3  502    0  0.37706341065E+01  0.22028199430E+02  0.30207800421E+02  0.37576195363E+02  0.00000000000E+00 0. -1.
         -2    1    3    3    0  502 -0.37706341065E+01 -0.22028199430E+02 -0.52657158183E+02  0.57203457584E+02  0.00000000000E+00 0.  1.
<mgrwt>
<rscale>  0 0.92082620E+02</rscale>
<asrwt>0</asrwt>
<pdfrwt beam="1">  1        2 0.55638688E-02 0.92082620E+02</pdfrwt>
<pdfrwt beam="2">  1       -2 0.90176162E-02 0.92082620E+02</pdfrwt>
<totfact> 0.90278351E+04</totfact>
</mgrwt>
</event>
<event>
 5    1  0.4059427E+001  0.8727306E+02  0.7546771E-02  0.1309593E+00
          2   -1    0    0  501    0  0.00000000000E+00  0.00000000000E+00  0.56742795581E+01  0.56742795581E+01  0.00000000000E+00 0. -1.
         -2   -1    0    0    0  501 -0.00000000000E+00 -0.00000000000E+00 -0.33557503401E+03  0.33557503401E+03  0.00000000000E+00 0.  1.
         23    2    1    2    0    0  0.00000000000E+00  0.00000000000E+00 -0.32990075445E+03  0.34124931357E+03  0.87273055536E+02 0.  0.
          2    1    3    3  502    0  0.31126748607E+02  0.15358746028E+01 -0.45520711663E+02  0.55166734360E+02  0.00000000000E+00 0. -1.
         -2    1    3    3    0  502 -0.31126748607E+02 -0.15358746028E+01 -0.28438004279E+03  0.28608257921E+03  0.00000000000E+00 0.  1.
<mgrwt>
<rscale>  0 0.87273056E+02</rscale>
<asrwt>0</asrwt>
<pdfrwt beam="1">  1        2 0.87296572E-03 0.87273056E+02</pdfrwt>
<pdfrwt beam="2">  1       -2 0.51626950E-01 0.87273056E+02</pdfrwt>
<totfact> 0.53471306E+04</totfact>
</mgrwt>
</event>
<event>
 5    1  0.4059427E+001  0.9127999E+02  0.7546771E-02  0.1299781E+00
          1   -1    0    0  501    0  0.00000000000E+00  0.00000000000E+00  0.53091193427E+03  0.53091193427E+03  0.00000000000E+00 0. -1.
         -1   -1    0    0    0  501 -0.00000000000E+00 -0.00000000000E+00 -0.39234552608E+01  0.39234552608E+01  0.00000000000E+00 0.  1.
         23    2    1    2    0    0  0.00000000000E+00  0.00000000000E+00  0.52698847901E+03  0.53483538953E+03  0.91279991707E+02 0.  0.
          2    1    3    3  502    0  0.25293009950E+02 -0.37779483179E+02  0.28691930194E+03  0.29049907320E+03  0.00000000000E+00 0. -1.
         -2    1    3    3    0  502 -0.25293009950E+02  0.37779483179E+02  0.24006917707E+03  0.24433631633E+03  0.00000000000E+00 0.  1.
<mgrwt>
<rscale>  0 0.91279992E+02</rscale>
<asrwt>0</asrwt>
<pdfrwt beam="1">  1        1 0.81678702E-01 0.91279992E+02</pdfrwt>
<pdfrwt beam="2">  1       -1 0.60360892E-03 0.91279992E+02</pdfrwt>
<totfact> 0.13976590E+05</totfact>
</mgrwt>
</event>
<event>
 5    1  0.4059427E+001  0.9241832E+02  0.7546771E-02  0.1297099E+00
         -1   -1    0    0    0  501 -0.00000000000E+00  0.00000000000E+00  0.45307080776E+01  0.45307080776E+01  0.00000000000E+00 0.  1.
          1   -1    0    0  501    0  0.00000000000E+00 -0.00000000000E+00 -0.47129204798E+03  0.47129204798E+03  0.00000000000E+00 0. -1.
         23    2    1    2    0    0  0.00000000000E+00  0.00000000000E+00 -0.46676133990E+03  0.47582275605E+03  0.92418324778E+02 0.  0.
          2    1    3    3  502    0  0.25819024701E+02 -0.20733646006E+02 -0.39931988300E+03  0.40069049786E+03  0.00000000000E+00 0. -1.
         -2    1    3    3    0  502 -0.25819024701E+02  0.20733646006E+02 -0.67441456897E+02  0.75132258196E+02  0.00000000000E+00 0.  1.
<mgrwt>
<rscale>  0 0.92418325E+02</rscale>
<asrwt>0</asrwt>
<pdfrwt beam="2">  1        1 0.72506436E-01 0.92418325E+02</pdfrwt>
<pdfrwt beam="1">  1       -1 0.69703233E-03 0.92418325E+02</pdfrwt>
<totfact> 0.13336128E+05</totfact>
</mgrwt>
</event>
<event>
 5    1  0.4059427E+001  0.8510314E+02  0.7546771E-02  0.1315163E+00
         -1   -1    0    0    0  501 -0.00000000000E+00  0.00000000000E+00  0.56266372821E+03  0.56266372821E+03  0.00000000000E+00 0.  1.
          1   -1    0    0  501    0  0.00000000000E+00 -0.00000000000E+00 -0.32179717068E+01  0.32179717068E+01  0.00000000000E+00 0. -1.
         23    2    1    2    0    0  0.00000000000E+00  0.00000000000E+00  0.55944575650E+03  0.56588169991E+03  0.85103136435E+02 0.  0.
          2    1    3    3  502    0 -0.33971657702E+02  0.21503046982E+02  0.18706466982E+03  0.19133647130E+03  0.00000000000E+00 0. -1.
         -2    1    3    3    0  502  0.33971657702E+02 -0.21503046982E+02  0.37238108668E+03  0.37454522861E+03  0.00000000000E+00 0.  1.
<mgrwt>
<rscale>  0 0.85103136E+02</rscale>
<asrwt>0</asrwt>
<pdfrwt beam="2">  1        1 0.49507302E-03 0.85103136E+02</pdfrwt>
<pdfrwt beam="1">  1       -1 0.86563572E-01 0.85103136E+02</pdfrwt>
<totfact> 0.52167243E+04</totfact>
</mgrwt>
</event>
<event>
 5    1  0.4059427E+001  0.8966053E+02  0.7546771E-02  0.1303676E+00
          2   -1    0    0  501    0  0.00000000000E+00  0.00000000000E+00  0.41376235216E+02  0.41376235216E+02  0.00000000000E+00 0.  1.
         -2   -1    0    0    0  501 -0.00000000000E+00 -0.00000000000E+00 -0.48572630946E+02  0.48572630946E+02  0.00000000000E+00 0. -1.
         23    2    1    2    0    0  0.00000000000E+00  0.00000000000E+00 -0.71963957303E+01  0.89948866163E+02  0.89660528732E+02 0.  0.
          2    1    3    3  502    0 -0.30113257957E+02 -0.75432676082E+01 -0.36044802136E+02  0.47570336892E+02  0.00000000000E+00 0. -1.
         -2    1    3    3    0  502  0.30113257957E+02  0.75432676082E+01  0.28848406406E+02  0.42378529271E+02  0.00000000000E+00 0.  1.
<mgrwt>
<rscale>  0 0.89660529E+02</rscale>
<asrwt>0</asrwt>
<pdfrwt beam="1">  1        2 0.63655747E-02 0.89660529E+02</pdfrwt>
<pdfrwt beam="2">  1       -2 0.74727124E-02 0.89660529E+02</pdfrwt>
<totfact> 0.10099231E+05</totfact>
</mgrwt>
</event>
<event>
 5    1  0.4059427E+001  0.9130678E+02  0.7546771E-02  0.1299718E+00
          1   -1    0    0  501    0  0.00000000000E+00  0.00000000000E+00  0.24722988424E+03  0.24722988424E+03  0.00000000000E+00 0. -1.
         -1   -1    0    0    0  501 -0.00000000000E+00 -0.00000000000E+00 -0.84303393618E+01  0.84303393618E+01  0.00000000000E+00 0.  1.
         23    2    1    2    0    0  0.00000000000E+00  0.00000000000E+00  0.23879954487E+03  0.25566022360E+03  0.91306775751E+02 0.  0.
          2    1    3    3  502    0 -0.35806185660E+02 -0.12376136118E+02  0.19073037016E+03  0.19445648814E+03  0.00000000000E+00 0. -1.
         -2    1    3    3    0  502  0.35806185660E+02  0.12376136118E+02  0.48069174709E+02  0.61203735457E+02  0.00000000000E+00 0.  1.
<mgrwt>
<rscale>  0 0.91306776E+02</rscale>
<asrwt>0</asrwt>
<pdfrwt beam="1">  1        1 0.38035361E-01 0.91306776E+02</pdfrwt>
<pdfrwt beam="2">  1       -1 0.12969755E-02 0.91306776E+02</pdfrwt>
<totfact> 0.12293283E+05</totfact>
</mgrwt>
</event>
<event>
 5    1  0.4059427E+001  0.8880460E+02  0.7546771E-02  0.1305773E+00
         -3   -1    0    0    0  501 -0.00000000000E+00  0.00000000000E+00  0.60010471694E+03  0.60010471694E+03  0.00000000000E+00 0.  1.
          3   -1    0    0  501    0  0.00000000000E+00 -0.00000000000E+00 -0.32853668163E+01  0.32853668163E+01  0.00000000000E+00 0. -1.
         23    2    1    2    0    0  0.00000000000E+00  0.00000000000E+00  0.59681935012E+03  0.60339008376E+03  0.88804597253E+02 0.  0.
          2    1    3    3  502    0 -0.23724976589E+02 -0.23328316211E+02  0.49818415640E+03  0.49929404016E+03  0.00000000000E+00 0.  1.
         -2    1    3    3    0  502  0.23724976589E+02  0.23328316211E+02  0.98635193720E+02  0.10409604359E+03  0.00000000000E+00 0. -1.
<mgrwt>
<rscale>  0 0.88804597E+02</rscale>
<asrwt>0</asrwt>
<pdfrwt beam="2">  1        3 0.50544153E-03 0.88804597E+02</pdfrwt>
<pdfrwt beam="1">  1       -3 0.92323715E-01 0.88804597E+02</pdfrwt>
<totfact> 0.16768037E+04</totfact>
</mgrwt>
</event>
<event>
 5    1  0.4059427E+001  0.8787112E+02  0.7546771E-02  0.1308091E+00
          2   -1    0    0  501    0  0.00000000000E+00  0.00000000000E+00  0.21323680888E+02  0.21323680888E+02  0.00000000000E+00 0. -1.
         -2   -1    0    0    0  501 -0.00000000000E+00 -0.00000000000E+00 -0.90525343720E+02  0.90525343720E+02  0.00000000000E+00 0.  1.
         23    2    1    2    0    0  0.00000000000E+00  0.00000000000E+00 -0.69201662832E+02  0.11184902461E+03  0.87871122486E+02 0.  0.
          2    1    3    3  502    0 -0.22077947460E+02 -0.35803410437E+02 -0.18449167159E+02  0.45931380687E+02  0.00000000000E+00 0. -1.
         -2    1    3    3    0  502  0.22077947460E+02  0.35803410437E+02 -0.50752495674E+02  0.65917643921E+02  0.00000000000E+00 0.  1.
<mgrwt>
<rscale>  0 0.87871122E+02</rscale>
<asrwt>0</asrwt>
<pdfrwt beam="1">  1        2 0.32805662E-02 0.87871122E+02</pdfrwt>
<pdfrwt beam="2">  1       -2 0.13926976E-01 0.87871122E+02</pdfrwt>
<totfact> 0.90027716E+04</totfact>
</mgrwt>
</event>
<event>
 5    1  0.4059427E+001  0.9023645E+02  0.7546771E-02  0.1302280E+00
         -1   -1    0    0    0  501 -0.00000000000E+00  0.00000000000E+00  0.50312804262E+03  0.50312804262E+03  0.00000000000E+00 0.  1.
          1   -1    0    0  501    0  0.00000000000E+00 -0.00000000000E+00 -0.40459962946E+01  0.40459962946E+01  0.00000000000E+00 0. -1.
         23    2    1    2    0    0  0.00000000000E+00  0.00000000000E+00  0.49908204632E+03  0.50717403891E+03  0.90236449313E+02 0.  0.
          2    1    3    3  502    0 -0.34180245622E+02  0.10206860594E+02  0.94270173176E+02  0.10079352531E+03  0.00000000000E+00 0. -1.
         -2    1    3    3    0  502  0.34180245622E+02 -0.10206860594E+02  0.40481187315E+03  0.40638051360E+03  0.00000000000E+00 0.  1.
<mgrwt>
<rscale>  0 0.90236449E+02</rscale>
<asrwt>0</asrwt>
<pdfrwt beam="2">  1        1 0.62246137E-03 0.90236449E+02</pdfrwt>
<pdfrwt beam="1">  1       -1 0.77404265E-01 0.90236449E+02</pdfrwt>
<totfact> 0.48152329E+04</totfact>
</mgrwt>
</event>
<event>
 5    1  0.4059427E+001  0.9207625E+02  0.7546771E-02  0.1297900E+00
          4   -1    0    0  501    0  0.00000000000E+00  0.00000000000E+00  0.67330775530E+01  0.67330775530E+01  0.00000000000E+00 0. -1.
         -4   -1    0    0    0  501 -0.00000000000E+00 -0.00000000000E+00 -0.31479048624E+03  0.31479048624E+03  0.00000000000E+00 0.  1.
         23    2    1    2    0    0  0.00000000000E+00  0.00000000000E+00 -0.30805740869E+03  0.32152356380E+03  0.92076245727E+02 0.  0.
          2    1    3    3  502    0  0.23349593834E+02  0.61296592625E+01 -0.17141030961E+02  0.29607282842E+02  0.00000000000E+00 0. -1.
         -2    1    3    3    0  502 -0.23349593834E+02 -0.61296592625E+01 -0.29091637773E+03  0.29191628095E+03  0.00000000000E+00 0.  1.
<mgrwt>
<rscale>  0 0.92076246E+02</rscale>
<asrwt>0</asrwt>
<pdfrwt beam="1">  1        4 0.10358579E-02 0.92076246E+02</pdfrwt>
<pdfrwt beam="2">  1       -4 0.48429315E-01 0.92076246E+02</pdfrwt>
<totfact> 0.16740105E+04</totfact>
</mgrwt>
</event>
<event>
 5    1  0.4059427E+001  0.9182709E+02  0.7546771E-02  0.1298487E+00
         -2   -1    0    0    0  501 -0.00000000000E+00  0.00000000000E+00  0.10910026169E+01  0.10910026169E+01  0.00000000000E+00 0.  1.
          2   -1    0    0  501    0  0.00000000000E+00 -0.00000000000E+00 -0.19322167202E+04  0.19322167202E+04  0.00000000000E+00 0. -1.
         23    2    1    2    0    0  0.00000000000E+00  0.00000000000E+00 -0.19311257176E+04  0.19333077228E+04  0.91827087465E+02 0.  0.
          2    1    3    3  502    0 -0.45695191373E+02 -0.42248620877E+01 -0.99645905515E+03  0.99751518714E+03  0.00000000000E+00 0. -1.
         -2    1    3    3    0  502  0.45695191373E+02  0.42248620877E+01 -0.93466666243E+03  0.93579253568E+03  0.00000000000E+00 0.  1.
<mgrwt>
<rscale>  0 0.91827087E+02</rscale>
<asrwt>0</asrwt>
<pdfrwt beam="2">  1        2 0.29726038E+00 0.91827087E+02</pdfrwt>
<pdfrwt beam="1">  1       -2 0.16784866E-03 0.91827087E+02</pdfrwt>
<totfact> 0.19917312E+05</totfact>
</mgrwt>
</event>
<event>
 5    1  0.4059427E+001  0.9063844E+02  0.7546771E-02  0.1301313E+00
         -2   -1    0    0    0  501 -0.00000000000E+00  0.00000000000E+00  0.62815147087E+01  0.62815147087E+01  0.00000000000E+00 0.  1.
          2   -1    0    0  501    0  0.00000000000E+00 -0.00000000000E+00 -0.32696441053E+03  0.32696441053E+03  0.00000000000E+00 0. -1.
         23    2    1    2    0    0  0.00000000000E+00  0.00000000000E+00 -0.32068289582E+03  0.33324592524E+03  0.90638441159E+02 0.  0.
          2    1    3    3  502    0 -0.34372102885E+02 -0.85854876534E+01 -0.56435898552E+02  0.66634545848E+02  0.00000000000E+00 0.  1.
         -2    1    3    3    0  502  0.34372102885E+02  0.85854876534E+01 -0.26424699727E+03  0.26661137939E+03  0.00000000000E+00 0. -1.
<mgrwt>
<rscale>  0 0.90638441E+02</rscale>
<asrwt>0</asrwt>
<pdfrwt beam="2">  1        2 0.50302219E-01 0.90638441E+02</pdfrwt>
<pdfrwt beam="1">  1       -2 0.96638684E-03 0.90638441E+02</pdfrwt>
<totfact> 0.18844005E+05</totfact>
</mgrwt>
</event>
<event>
 5    1  0.4059427E+001  0.9236602E+02  0.7546771E-02  0.1297221E+00
         -4   -1    0    0    0  501 -0.00000000000E+00  0.00000000000E+00  0.43238304296E+01  0.43238304296E+01  0.00000000000E+00 0. -1.
          4   -1    0    0  501    0  0.00000000000E+00 -0.00000000000E+00 -0.49328265833E+03  0.49328265833E+03  0.00000000000E+00 0.  1.
         23    2    1    2    0    0  0.00000000000E+00  0.00000000000E+00 -0.48895882790E+03  0.49760648876E+03  0.92366023373E+02 0.  0.
          2    1    3    3  502    0 -0.13959140469E+02  0.38398418531E+02 -0.12848594939E+03  0.13482557375E+03  0.00000000000E+00 0. -1.
         -2    1    3    3    0  502  0.13959140469E+02 -0.38398418531E+02 -0.36047287851E+03  0.36278091500E+03  0.00000000000E+00 0.  1.
<mgrwt>
<rscale>  0 0.92366023E+02</rscale>
<asrwt>0</asrwt>
<pdfrwt beam="2">  1        4 0.75889611E-01 0.92366023E+02</pdfrwt>
<pdfrwt beam="1">  1       -4 0.66520493E-03 0.92366023E+02</pdfrwt>
<totfact> 0.12673192E+04</totfact>
</mgrwt>
</event>
<event>
 5    1  0.4059427E+001  0.9029908E+02  0.7546771E-02  0.1302129E+00
          2   -1    0    0  501    0  0.00000000000E+00  0.00000000000E+00  0.29917316865E+03  0.29917316865E+03  0.00000000000E+00 0. -1.
         -2   -1    0    0    0  501 -0.00000000000E+00 -0.00000000000E+00 -0.68137155752E+01  0.68137155752E+01  0.00000000000E+00 0.  1.
         23    2    1    2    0    0  0.00000000000E+00  0.00000000000E+00  0.29235945307E+03  0.30598688423E+03  0.90299078155E+02 0.  0.
          2    1    3    3  502    0  0.55996914111E+01 -0.20474669090E+02  0.28121049699E+03  0.28201048249E+03  0.00000000000E+00 0. -1.
         -2    1    3    3    0  502 -0.55996914111E+01  0.20474669090E+02  0.11148956084E+02  0.23976401732E+02  0.00000000000E+00 0.  1.
<mgrwt>
<rscale>  0 0.90299078E+02</rscale>
<asrwt>0</asrwt>
<pdfrwt beam="1">  1        2 0.46026631E-01 0.90299078E+02</pdfrwt>
<pdfrwt beam="2">  1       -2 0.10482642E-02 0.90299078E+02</pdfrwt>
<totfact> 0.18416391E+05</totfact>
</mgrwt>
</event>
<event>
 5    1  0.4059427E+001  0.9196820E+02  0.7546771E-02  0.1298154E+00
         -1   -1    0    0    0  501 -0.00000000000E+00  0.00000000000E+00  0.38749724171E+03  0.38749724171E+03  0.00000000000E+00 0.  1.
          1   -1    0    0  501    0  0.00000000000E+00 -0.00000000000E+00 -0.54569095862E+01  0.54569095862E+01  0.00000000000E+00 0. -1.
         23    2    1    2    0    0  0.00000000000E+00  0.00000000000E+00  0.38204033213E+03  0.39295415130E+03  0.91968199132E+02 0.  0.
          2    1    3    3  502    0  0.12672209064E+02  0.44092249926E+02  0.17762669418E+03  0.18345559101E+03  0.00000000000E+00 0. -1.
         -2    1    3    3    0  502 -0.12672209064E+02 -0.44092249926E+02  0.20441363795E+03  0.20949856029E+03  0.00000000000E+00 0.  1.
<mgrwt>
<rscale>  0 0.91968199E+02</rscale>
<asrwt>0</asrwt>
<pdfrwt beam="2">  1        1 0.83952485E-03 0.91968199E+02</pdfrwt>
<pdfrwt beam="1">  1       -1 0.59614939E-01 0.91968199E+02</pdfrwt>
<totfact> 0.52926723E+04</totfact>
</mgrwt>
</event>
<event>
 5    1  0.4059427E+001  0.9016744E+02  0.7546771E-02  0.1302447E+00
          1   -1    0    0  501    0  0.00000000000E+00  0.00000000000E+00  0.39555661613E+02  0.39555661613E+02  0.00000000000E+00 0. -1.
         -1   -1    0    0    0  501 -0.00000000000E+00 -0.00000000000E+00 -0.51384351399E+02  0.51384351399E+02  0.00000000000E+00 0.  1.
         23    2    1    2    0    0  0.00000000000E+00  0.00000000000E+00 -0.11828689787E+02  0.90940013012E+02  0.90167444594E+02 0.  0.
          2    1    3    3  502    0 -0.29908327247E+02 -0.30649166139E+02  0.83011930737E+01  0.43620972366E+02  0.00000000000E+00 0. -1.
         -2    1    3    3    0  502  0.29908327247E+02  0.30649166139E+02 -0.20129882860E+02  0.47319040646E+02  0.00000000000E+00 0.  1.
<mgrwt>
<rscale>  0 0.90167445E+02</rscale>
<asrwt>0</asrwt>
<pdfrwt beam="1">  1        1 0.60854864E-02 0.90167445E+02</pdfrwt>
<pdfrwt beam="2">  1       -1 0.79052848E-02 0.90167445E+02</pdfrwt>
<totfact> 0.93397987E+04</totfact>
</mgrwt>
</event>
<event>
 5    1  0.4059427E+001  0.9019253E+02  0.7546771E-02  0.1302386E+00
         -1   -1    0    0    0  501 -0.00000000000E+00  0.00000000000E+00  0.11624477259E+03  0.11624477259E+03  0.00000000000E+00 0.  1.
          1   -1    0    0  501    0  0.00000000000E+00 -0.00000000000E+00 -0.17494747572E+02  0.17494747572E+02  0.00000000000E+00 0. -1.
         23    2    1    2    0    0  0.00000000000E+00  0.00000000000E+00  0.98750025013E+02  0.13373952016E+03  0.90192526363E+02 0.  0.
          2    1    3    3  502    0 -0.26927559791E+02 -0.21900588389E+02  0.66824987002E+01  0.35346641098E+02  0.00000000000E+00 0. -1.
         -2    1    3    3    0  502  0.26927559791E+02  0.21900588389E+02  0.92067526313E+02  0.98392879059E+02  0.00000000000E+00 0.  1.
<mgrwt>
<rscale>  0 0.90192526E+02</rscale>
<asrwt>0</asrwt>
<pdfrwt beam="2">  1        1 0.26914997E-02 0.90192526E+02</pdfrwt>
<pdfrwt beam="1">  1       -1 0.17883811E-01 0.90192526E+02</pdfrwt>
<totfact> 0.81284095E+04</totfact>
</mgrwt>
</event>
<event>
 5    1  0.4059427E+001  0.8421566E+02  0.7546771E-02  0.1317496E+00
          2   -1    0    0  501    0  0.00000000000E+00  0.00000000000E+00  0.16639474374E+04  0.16639474374E+04  0.00000000000E+00 0.  1.
         -2   -1    0    0    0  501 -0.00000000000E+00 -0.00000000000E+00 -0.10655802093E+01  0.10655802093E+01  0.00000000000E+00 0. -1.
         23    2    1    2    0    0  0.00000000000E+00  0.00000000000E+00  0.16628818572E+04  0.16650130176E+04  0.84215662642E+02 0.  0.
          2    1    3    3  502    0 -0.19494256454E+02  0.17425990628E+02  0.17889044171E+03  0.18079126450E+03  0.00000000000E+00 0. -1.
         -2    1    3    3    0  502  0.19494256454E+02 -0.17425990628E+02  0.14839914155E+04  0.14842217531E+04  0.00000000000E+00 0.  1.
<mgrwt>
<rscale>  0 0.84215663E+02</rscale>
<asrwt>0</asrwt>
<pdfrwt beam="1">  1        2 0.25598983E+00 0.84215663E+02</pdfrwt>
<pdfrwt beam="2">  1       -2 0.16393675E-03 0.84215663E+02</pdfrwt>
<totfact> 0.27721258E+05</totfact>
</mgrwt>
</event>
<event>
 5    1  0.4059427E+001  0.9171805E+02  0.7546771E-02  0.1298744E+00
         -2   -1    0    0    0  501 -0.00000000000E+00  0.00000000000E+00  0.32061158107E+01  0.32061158107E+01  0.00000000000E+00 0.  1.
          2   -1    0    0  501    0  0.00000000000E+00 -0.00000000000E+00 -0.65594950078E+03  0.65594950078E+03  0.00000000000E+00 0. -1.
         23    2    1    2    0    0  0.00000000000E+00  0.00000000000E+00 -0.65274338497E+03  0.65915561659E+03  0.91718047635E+02 0.  0.
          2    1    3    3  502    0 -0.43953183768E+02  0.44636780389E+00 -0.23240127578E+03  0.23652153092E+03  0.00000000000E+00 0. -1.
         -2    1    3    3    0  502  0.43953183768E+02 -0.44636780389E+00 -0.42034210920E+03  0.42263408567E+03  0.00000000000E+00 0.  1.
<mgrwt>
<rscale>  0 0.91718048E+02</rscale>
<asrwt>0</asrwt>
<pdfrwt beam="2">  1        2 0.10091544E+00 0.91718048E+02</pdfrwt>
<pdfrwt beam="1">  1       -2 0.49324795E-03 0.91718048E+02</pdfrwt>
<totfact> 0.22978257E+05</totfact>
</mgrwt>
</event>
<event>
 5    1  0.4059427E+001  0.9067474E+02  0.7546771E-02  0.1301226E+00
          1   -1    0    0  501    0  0.00000000000E+00  0.00000000000E+00  0.18634290841E+04  0.18634290841E+04  0.00000000000E+00 0. -1.
         -1   -1    0    0    0  501 -0.00000000000E+00 -0.00000000000E+00 -0.11030617307E+01  0.11030617307E+01  0.00000000000E+00 0.  1.
         23    2    1    2    0    0  0.00000000000E+00  0.00000000000E+00  0.18623260224E+04  0.18645321459E+04  0.90674744236E+02 0.  0.
          2    1    3    3  502    0  0.33663077305E+02  0.12406380805E+02  0.15011498803E+04  0.15015785308E+04  0.00000000000E+00 0. -1.
         -2    1    3    3    0  502 -0.33663077305E+02 -0.12406380805E+02  0.36117614215E+03  0.36295361510E+03  0.00000000000E+00 0.  1.
<mgrwt>
<rscale>  0 0.90674744E+02</rscale>
<asrwt>0</asrwt>
<pdfrwt beam="1">  1        1 0.28667888E+00 0.90674744E+02</pdfrwt>
<pdfrwt beam="2">  1       -1 0.16970330E-03 0.90674744E+02</pdfrwt>
<totfact> 0.89353971E+04</totfact>
</mgrwt>
</event>
<event>
 5    1  0.4059427E+001  0.8869196E+02  0.7546771E-02  0.1306051E+00
         -2   -1    0    0    0  501 -0.00000000000E+00  0.00000000000E+00  0.58050478808E+03  0.58050478808E+03  0.00000000000E+00 0.  1.
          2   -1    0    0  501    0  0.00000000000E+00 -0.00000000000E+00 -0.33876823952E+01  0.33876823952E+01  0.00000000000E+00 0. -1.
         23    2    1    2    0    0  0.00000000000E+00  0.00000000000E+00  0.57711710568E+03  0.58389247047E+03  0.88691957943E+02 0.  0.
          2    1    3    3  502    0 -0.92465240701E+01  0.40472137671E+02  0.18591831906E+03  0.19049701703E+03  0.00000000000E+00 0. -1.
         -2    1    3    3    0  502  0.92465240701E+01 -0.40472137671E+02  0.39119878662E+03  0.39339545344E+03  0.00000000000E+00 0.  1.
<mgrwt>
<rscale>  0 0.88691958E+02</rscale>
<asrwt>0</asrwt>
<pdfrwt beam="2">  1        2 0.52118237E-03 0.88691958E+02</pdfrwt>
<pdfrwt beam="1">  1       -2 0.89308350E-01 0.88691958E+02</pdfrwt>
<totfact> 0.34544189E+04</totfact>
</mgrwt>
</event>
<event>
 5    1  0.4059427E+001  0.8977766E+02  0.7546771E-02  0.1303391E+00
          2   -1    0    0  501    0  0.00000000000E+00  0.00000000000E+00  0.10284005765E+03  0.10284005765E+03  0.00000000000E+00 0. -1.
         -2   -1    0    0    0  501 -0.00000000000E+00 -0.00000000000E+00 -0.19593600153E+02  0.19593600153E+02  0.00000000000E+00 0.  1.
         23    2    1    2    0    0  0.00000000000E+00  0.00000000000E+00  0.83246457500E+02  0.12243365781E+03  0.89777658007E+02 0.  0.
          2    1    3    3  502    0  0.22433912275E+02 -0.21940407444E+02  0.85398001628E+02  0.90980660477E+02  0.00000000000E+00 0. -1.
         -2    1    3    3    0  502 -0.22433912275E+02  0.21940407444E+02 -0.21515441282E+01  0.31452997328E+02  0.00000000000E+00 0.  1.
<mgrwt>
<rscale>  0 0.89777658E+02</rscale>
<asrwt>0</asrwt>
<pdfrwt beam="1">  1        2 0.15821547E-01 0.89777658E+02</pdfrwt>
<pdfrwt beam="2">  1       -2 0.30144001E-02 0.89777658E+02</pdfrwt>
<totfact> 0.12909621E+05</totfact>
</mgrwt>
</event>
<event>
 5    1  0.4059427E+001  0.8952107E+02  0.7546771E-02  0.1304016E+00
          2   -1    0    0  501    0  0.00000000000E+00  0.00000000000E+00  0.15411184067E+04  0.15411184067E+04  0.00000000000E+00 0. -1.
         -2   -1    0    0    0  501 -0.00000000000E+00 -0.00000000000E+00 -0.13000334873E+01  0.13000334873E+01  0.00000000000E+00 0.  1.
         23    2    1    2    0    0  0.00000000000E+00  0.00000000000E+00  0.15398183732E+04  0.15424184402E+04  0.89521070964E+02 0.  0.
          2    1    3    3  502    0 -0.19010110061E+02 -0.13595686862E+02  0.14276400572E+04  0.14278313486E+04  0.00000000000E+00 0. -1.
         -2    1    3    3    0  502  0.19010110061E+02  0.13595686862E+02  0.11217831597E+03  0.11458709159E+03  0.00000000000E+00 0.  1.
<mgrwt>
<rscale>  0 0.89521071E+02</rscale>
<asrwt>0</asrwt>
<pdfrwt beam="1">  1        2 0.23709368E+00 0.89521071E+02</pdfrwt>
<pdfrwt beam="2">  1       -2 0.20000638E-03 0.89521071E+02</pdfrwt>
<totfact> 0.24498183E+05</totfact>
</mgrwt>
</event>
<event>
 5    1  0.4059427E+001  0.9016355E+02  0.7546771E-02  0.1302456E+00
         -2   -1    0    0    0  501 -0.00000000000E+00  0.00000000000E+00  0.19597949618E+01  0.19597949618E+01  0.00000000000E+00 0.  1.
          2   -1    0    0  501    0  0.00000000000E+00 -0.00000000000E+00 -0.10370300741E+04  0.10370300741E+04  0.00000000000E+00 0. -1.
         23    2    1    2    0    0  0.00000000000E+00  0.00000000000E+00 -0.10350702792E+04  0.10389898691E+04  0.90163547279E+02 0.  0.
          2    1    3    3  502    0 -0.16789303535E+02  0.28183517898E+02 -0.87386235773E+03  0.87447790804E+03  0.00000000000E+00 0. -1.
         -2    1    3    3    0  502  0.16789303535E+02 -0.28183517898E+02 -0.16120792143E+03  0.16451196104E+03  0.00000000000E+00 0.  1.
<mgrwt>
<rscale>  0 0.90163547E+02</rscale>
<asrwt>0</asrwt>
<pdfrwt beam="2">  1        2 0.15954291E+00 0.90163547E+02</pdfrwt>
<pdfrwt beam="1">  1       -2 0.30150725E-03 0.90163547E+02</pdfrwt>
<totfact> 0.25775807E+05</totfact>
</mgrwt>
</event>
<event>
 5    1  0.4059427E+001  0.8993426E+02  0.7546771E-02  0.1303011E+00
         -1   -1    0    0    0  501 -0.00000000000E+00  0.00000000000E+00  0.44071785235E+01  0.44071785235E+01  0.00000000000E+00 0.  1.
          1   -1    0    0  501    0  0.00000000000E+00 -0.00000000000E+00 -0.45880660927E+03  0.45880660927E+03  0.00000000000E+00 0. -1.
         23    2    1    2    0    0  0.00000000000E+00  0.00000000000E+00 -0.45439943075E+03  0.46321378780E+03  0.89934256762E+02 0.  0.
          2    1    3    3  502    0 -0.15322107795E+02  0.34529123651E+02 -0.35283753265E+03  0.35485398661E+03  0.00000000000E+00 0. -1.
         -2    1    3    3    0  502  0.15322107795E+02 -0.34529123651E+02 -0.10156189811E+03  0.10835980119E+03  0.00000000000E+00 0.  1.
<mgrwt>
<rscale>  0 0.89934257E+02</rscale>
<asrwt>0</asrwt>
<pdfrwt beam="2">  1        1 0.70585636E-01 0.89934257E+02</pdfrwt>
<pdfrwt beam="1">  1       -1 0.67802743E-03 0.89934257E+02</pdfrwt>
<totfact> 0.14283169E+05</totfact>
</mgrwt>
</event>
<event>
 5    1  0.4059427E+001  0.9001780E+02  0.7546771E-02  0.1302809E+00
         -2   -1    0    0    0  501 -0.00000000000E+00  0.00000000000E+00  0.18855303646E+02  0.18855303646E+02  0.00000000000E+00 0. -1.
          2   -1    0    0  501    0  0.00000000000E+00 -0.00000000000E+00 -0.10743933264E+03  0.10743933264E+03  0.00000000000E+00 0.  1.
         23    2    1    2    0    0  0.00000000000E+00  0.00000000000E+00 -0.88584028995E+02  0.12629463629E+03  0.90017803584E+02 0.  0.
          2    1    3    3  502    0 -0.10060347993E+02  0.41782604427E+02 -0.63052576559E+02  0.76306120627E+02  0.00000000000E+00 0. -1.
         -2    1    3    3    0  502  0.10060347993E+02 -0.41782604427E+02 -0.25531452436E+02  0.49988515660E+02  0.00000000000E+00 0.  1.
<mgrwt>
<rscale>  0 0.90017804E+02</rscale>
<asrwt>0</asrwt>
<pdfrwt beam="2">  1        2 0.16529128E-01 0.90017804E+02</pdfrwt>
<pdfrwt beam="1">  1       -2 0.29008160E-02 0.90017804E+02</pdfrwt>
<totfact> 0.12988955E+05</totfact>
</mgrwt>
</event>
<event>
 5    1  0.4059427E+001  0.9123355E+02  0.7546771E-02  0.1299892E+00
          2   -1    0    0  501    0  0.00000000000E+00  0.00000000000E+00  0.13749665639E+04  0.13749665639E+04  0.00000000000E+00 0. -1.
         -2   -1    0    0    0  501 -0.00000000000E+00 -0.00000000000E+00 -0.15134113703E+01  0.15134113703E+01  0.00000000000E+00 0.  1.
         23    2    1    2    0    0  0.00000000000E+00  0.00000000000E+00  0.13734531525E+04  0.13764799753E+04  0.91233547154E+02 0.  0.
          2    1    3    3  502    0  0.21097244311E+02  0.11265909171E+02  0.12727865424E+04  0.12730112321E+04  0.00000000000E+00 0. -1.
         -2    1    3    3    0  502 -0.21097244311E+02 -0.11265909171E+02  0.10066661007E+03  0.10346874316E+03  0.00000000000E+00 0.  1.
<mgrwt>
<rscale>  0 0.91233547E+02</rscale>
<asrwt>0</asrwt>
<pdfrwt beam="1">  1        2 0.21153232E+00 0.91233547E+02</pdfrwt>
<pdfrwt beam="2">  1       -2 0.23283362E-03 0.91233547E+02</pdfrwt>
<totfact> 0.24219040E+05</totfact>
</mgrwt>
</event>
<event>
 4    1  0.4059427E+001  0.1479500E+03  0.7546771E-02  0.1203015E+00
         -3   -1    0    0    0  501 -0.00000000000E+00  0.00000000000E+00  0.41426395519E+03  0.41426395519E+03  0.00000000000E+00 0.  1.
          3   -1    0    0  501    0  0.00000000000E+00 -0.00000000000E+00 -0.13209702317E+02  0.13209702317E+02  0.00000000000E+00 0. -1.
          2    1    1    2  502    0  0.57398003659E+02 -0.45632516586E+02  0.17229955957E+03  0.18725382672E+03  0.00000000000E+00 0. -1.
         -2    1    1    2    0  502 -0.57398003659E+02  0.45632516586E+02  0.22875469330E+03  0.24021983079E+03  0.00000000000E+00 0.  1.
<mgrwt>
<rscale>  0 0.14795004E+03</rscale>
<asrwt>0</asrwt>
<pdfrwt beam="2">  1        3 0.20322622E-02 0.14795004E+03</pdfrwt>
<pdfrwt beam="1">  1       -3 0.63732906E-01 0.14795004E+03</pdfrwt>
<totfact> 0.52292674E+03</totfact>
</mgrwt>
</event>
<event>
 5    1  0.4059427E+001  0.8605803E+02  0.7546771E-02  0.1312689E+00
          1   -1    0    0  501    0  0.00000000000E+00  0.00000000000E+00  0.19105248381E+03  0.19105248381E+03  0.00000000000E+00 0. -1.
         -1   -1    0    0    0  501 -0.00000000000E+00 -0.00000000000E+00 -0.96910350980E+01  0.96910350980E+01  0.00000000000E+00 0.  1.
         23    2    1    2    0    0  0.00000000000E+00  0.00000000000E+00  0.18136144872E+03  0.20074351891E+03  0.86058034516E+02 0.  0.
          2    1    3    3  502    0  0.19200400817E+02  0.14580269733E+02  0.17381801203E+03  0.17548202462E+03  0.00000000000E+00 0. -1.
         -2    1    3    3    0  502 -0.19200400817E+02 -0.14580269733E+02  0.75434366850E+01  0.25261494296E+02  0.00000000000E+00 0.  1.
<mgrwt>
<rscale>  0 0.86058035E+02</rscale>
<asrwt>0</asrwt>
<pdfrwt beam="1">  1        1 0.29392687E-01 0.86058035E+02</pdfrwt>
<pdfrwt beam="2">  1       -1 0.14909286E-02 0.86058035E+02</pdfrwt>
<totfact> 0.13696941E+05</totfact>
</mgrwt>
</event>
<event>
 5    1  0.4059427E+001  0.8857852E+02  0.7546771E-02  0.1306331E+00
         -2   -1    0    0    0  501 -0.00000000000E+00  0.00000000000E+00  0.25611487318E+01  0.25611487318E+01  0.00000000000E+00 0.  1.
          2   -1    0    0  501    0  0.00000000000E+00 -0.00000000000E+00 -0.76588235041E+03  0.76588235041E+03  0.00000000000E+00 0. -1.
         23    2    1    2    0    0  0.00000000000E+00  0.00000000000E+00 -0.76332120167E+03  0.76844349914E+03  0.88578521334E+02 0.  0.
          2    1    3    3  502    0 -0.36952196073E+02 -0.25638913759E+01 -0.59229316823E+03  0.59345028053E+03  0.00000000000E+00 0. -1.
         -2    1    3    3    0  502  0.36952196073E+02  0.25638913759E+01 -0.17102803345E+03  0.17499321861E+03  0.00000000000E+00 0.  1.
<mgrwt>
<rscale>  0 0.88578521E+02</rscale>
<asrwt>0</asrwt>
<pdfrwt beam="2">  1        2 0.11782822E+00 0.88578521E+02</pdfrwt>
<pdfrwt beam="1">  1       -2 0.39402234E-03 0.88578521E+02</pdfrwt>
<totfact> 0.26088659E+05</totfact>
</mgrwt>
</event>
<event>
 5    1  0.4059427E+001  0.9283620E+02  0.7546771E-02  0.1296125E+00
         -3   -1    0    0    0  501 -0.00000000000E+00  0.00000000000E+00  0.16933780171E+02  0.16933780171E+02  0.00000000000E+00 0.  1.
          3   -1    0    0  501    0  0.00000000000E+00 -0.00000000000E+00 -0.12723916995E+03  0.12723916995E+03  0.00000000000E+00 0. -1.
         23    2    1    2    0    0  0.00000000000E+00  0.00000000000E+00 -0.11030538978E+03  0.14417295013E+03  0.92836202706E+02 0.  0.
          2    1    3    3  502    0 -0.18971664772E+02  0.42361865187E+02 -0.54478538182E+02  0.71570684004E+02  0.00000000000E+00 0. -1.
         -2    1    3    3    0  502  0.18971664772E+02 -0.42361865187E+02 -0.55826851601E+02  0.72602266122E+02  0.00000000000E+00 0.  1.
<mgrwt>
<rscale>  0 0.92836203E+02</rscale>
<asrwt>0</asrwt>
<pdfrwt beam="2">  1        3 0.19575257E-01 0.92836203E+02</pdfrwt>
<pdfrwt beam="1">  1       -3 0.26051970E-02 0.92836203E+02</pdfrwt>
<totfact> 0.30153301E+04</totfact>
</mgrwt>
</event>
<event>
 5    1  0.4059427E+001  0.8990839E+02  0.7546771E-02  0.1303074E+00
          2   -1    0    0  501    0  0.00000000000E+00  0.00000000000E+00  0.25171127005E+01  0.25171127005E+01  0.00000000000E+00 0. -1.
         -2   -1    0    0    0  501 -0.00000000000E+00 -0.00000000000E+00 -0.80285628475E+03  0.80285628475E+03  0.00000000000E+00 0.  1.
         23    2    1    2    0    0  0.00000000000E+00  0.00000000000E+00 -0.80033917205E+03  0.80537339745E+03  0.89908392289E+02 0.  0.
          2    1    3    3  502    0  0.16475179139E+01  0.25396789578E+02 -0.73210911001E+03  0.73255133622E+03  0.00000000000E+00 0.  1.
         -2    1    3    3    0  502 -0.16475179139E+01 -0.25396789578E+02 -0.68230062040E+02  0.72822061232E+02  0.00000000000E+00 0. -1.
<mgrwt>
<rscale>  0 0.89908392E+02</rscale>
<asrwt>0</asrwt>
<pdfrwt beam="1">  1        2 0.38724849E-03 0.89908392E+02</pdfrwt>
<pdfrwt beam="2">  1       -2 0.12351623E+00 0.89908392E+02</pdfrwt>
<totfact> 0.24637062E+04</totfact>
</mgrwt>
</event>
<event>
 5    1  0.4059427E+001  0.9106668E+02  0.7546771E-02  0.1300289E+00
          1   -1    0    0  501    0  0.00000000000E+00  0.00000000000E+00  0.62396954481E+03  0.62396954481E+03  0.00000000000E+00 0. -1.
         -1   -1    0    0    0  501 -0.00000000000E+00 -0.00000000000E+00 -0.33227346581E+01  0.33227346581E+01  0.00000000000E+00 0.  1.
         23    2    1    2    0    0  0.00000000000E+00  0.00000000000E+00  0.62064681015E+03  0.62729227947E+03  0.91066683966E+02 0.  0.
          2    1    3    3  502    0  0.23201178468E+02 -0.35008962076E+00  0.40458795913E+02  0.46640448238E+02  0.00000000000E+00 0.  1.
         -2    1    3    3    0  502 -0.23201178468E+02  0.35008962076E+00  0.58018801424E+03  0.58065183123E+03  0.00000000000E+00 0. -1.
<mgrwt>
<rscale>  0 0.91066684E+02</rscale>
<asrwt>0</asrwt>
<pdfrwt beam="1">  1        1 0.95995222E-01 0.91066684E+02</pdfrwt>
<pdfrwt beam="2">  1       -1 0.51119044E-03 0.91066684E+02</pdfrwt>
<totfact> 0.14233095E+05</totfact>
</mgrwt>
</event>
<event>
 5    1  0.4059427E+001  0.9188488E+02  0.7546771E-02  0.1298350E+00
          1   -1    0    0  501    0  0.00000000000E+00  0.00000000000E+00  0.35058641034E+01  0.35058641034E+01  0.00000000000E+00 0. -1.
         -1   -1    0    0    0  501 -0.00000000000E+00 -0.00000000000E+00 -0.60205060683E+03  0.60205060683E+03  0.00000000000E+00 0.  1.
         23    2    1    2    0    0  0.00000000000E+00  0.00000000000E+00 -0.59854474273E+03  0.60555647093E+03  0.91884876034E+02 0.  0.
          2    1    3    3  502    0  0.42964365992E+02  0.15738335906E+02 -0.32650560560E+03  0.32969613654E+03  0.00000000000E+00 0. -1.
         -2    1    3    3    0  502 -0.42964365992E+02 -0.15738335906E+02 -0.27203913713E+03  0.27586033440E+03  0.00000000000E+00 0.  1.
<mgrwt>
<rscale>  0 0.91884876E+02</rscale>
<asrwt>0</asrwt>
<pdfrwt beam="1">  1        1 0.53936383E-03 0.91884876E+02</pdfrwt>
<pdfrwt beam="2">  1       -1 0.92623149E-01 0.91884876E+02</pdfrwt>
<totfact> 0.40676825E+04</totfact>
</mgrwt>
</event>
<event>
 5    1  0.4059427E+001  0.8992108E+02  0.7546771E-02  0.1303043E+00
         -3   -1    0    0    0  501 -0.00000000000E+00  0.00000000000E+00  0.34465211696E+02  0.34465211696E+02  0.00000000000E+00 0.  1.
          3   -1    0    0  501    0  0.00000000000E+00 -0.00000000000E+00 -0.58651904984E+02  0.58651904984E+02  0.00000000000E+00 0. -1.
         23    2    1    2    0    0  0.00000000000E+00  0.00000000000E+00 -0.24186693288E+02  0.93117116680E+02  0.89921083660E+02 0.  0.
          2    1    3    3  502    0 -0.99084106909E+01  0.43835098129E+02 -0.13466325950E+02  0.46915182670E+02  0.00000000000E+00 0. -1.
         -2    1    3    3    0  502  0.99084106909E+01 -0.43835098129E+02 -0.10720367338E+02  0.46201934010E+02  0.00000000000E+00 0.  1.
<mgrwt>
<rscale>  0 0.89921084E+02</rscale>
<asrwt>0</asrwt>
<pdfrwt beam="2">  1        3 0.90233700E-02 0.89921084E+02</pdfrwt>
<pdfrwt beam="1">  1       -3 0.53023403E-02 0.89921084E+02</pdfrwt>
<totfact> 0.36541666E+04</totfact>
</mgrwt>
</event>
<event>
 5    1  0.4059427E+001  0.8890299E+02  0.7546771E-02  0.1305530E+00
          2   -1    0    0  501    0  0.00000000000E+00  0.00000000000E+00  0.31271934307E+03  0.31271934307E+03  0.00000000000E+00 0. -1.
         -2   -1    0    0    0  501 -0.00000000000E+00 -0.00000000000E+00 -0.63185588105E+01  0.63185588105E+01  0.00000000000E+00 0.  1.
         23    2    1    2    0    0  0.00000000000E+00  0.00000000000E+00  0.30640078425E+03  0.31903790188E+03  0.88902993433E+02 0.  0.
          2    1    3    3  502    0 -0.40838104835E+02  0.24089472505E+01  0.21560313336E+03  0.21944991444E+03  0.00000000000E+00 0. -1.
         -2    1    3    3    0  502  0.40838104835E+02 -0.24089472505E+01  0.90797650896E+02  0.99587987436E+02  0.00000000000E+00 0.  1.
<mgrwt>
<rscale>  0 0.88902993E+02</rscale>
<asrwt>0</asrwt>
<pdfrwt beam="1">  1        2 0.48110656E-01 0.88902993E+02</pdfrwt>
<pdfrwt beam="2">  1       -2 0.97208621E-03 0.88902993E+02</pdfrwt>
<totfact> 0.19513888E+05</totfact>
</mgrwt>
</event>
<event>
 5    1  0.4059427E+001  0.8965793E+02  0.7546771E-02  0.1303682E+00
         -3   -1    0    0    0  501 -0.00000000000E+00  0.00000000000E+00  0.12861620106E+02  0.12861620106E+02  0.00000000000E+00 0.  1.
          3   -1    0    0  501    0  0.00000000000E+00 -0.00000000000E+00 -0.15625063482E+03  0.15625063482E+03  0.00000000000E+00 0. -1.
         23    2    1    2    0    0  0.00000000000E+00  0.00000000000E+00 -0.14338901471E+03  0.16911225493E+03  0.89657934538E+02 0.  0.
          2    1    3    3  502    0  0.14891522557E+02 -0.27601002038E+02 -0.13211350005E+03  0.13578493897E+03  0.00000000000E+00 0. -1.
         -2    1    3    3    0  502 -0.14891522557E+02  0.27601002038E+02 -0.11275514667E+02  0.33327315952E+02  0.00000000000E+00 0.  1.
<mgrwt>
<rscale>  0 0.89657935E+02</rscale>
<asrwt>0</asrwt>
<pdfrwt beam="2">  1        3 0.24038560E-01 0.89657935E+02</pdfrwt>
<pdfrwt beam="1">  1       -3 0.19787107E-02 0.89657935E+02</pdfrwt>
<totfact> 0.31576187E+04</totfact>
</mgrwt>
</event>
<event>
 5    1  0.4059427E+001  0.8945548E+02  0.7546771E-02  0.1304176E+00
         -3   -1    0    0    0  501 -0.00000000000E+00  0.00000000000E+00  0.93952696589E+03  0.93952696589E+03  0.00000000000E+00 0. -1.
          3   -1    0    0  501    0  0.00000000000E+00 -0.00000000000E+00 -0.21293381437E+01  0.21293381437E+01  0.00000000000E+00 0.  1.
         23    2    1    2    0    0  0.00000000000E+00  0.00000000000E+00  0.93739762774E+03  0.94165630403E+03  0.89455477318E+02 0.  0.
          2    1    3    3  502    0  0.34960188938E+02  0.51491771811E+01  0.75733362312E+03  0.75815759941E+03  0.00000000000E+00 0. -1.
         -2    1    3    3    0  502 -0.34960188938E+02 -0.51491771811E+01  0.18006400462E+03  0.18349870462E+03  0.00000000000E+00 0.  1.
<mgrwt>
<rscale>  0 0.89455477E+02</rscale>
<asrwt>0</asrwt>
<pdfrwt beam="2">  1        3 0.32759123E-03 0.89455477E+02</pdfrwt>
<pdfrwt beam="1">  1       -3 0.14454228E+00 0.89455477E+02</pdfrwt>
<totfact> 0.11156906E+04</totfact>
</mgrwt>
</event>
<event>
 5    1  0.4059427E+001  0.9125600E+02  0.7546771E-02  0.1299838E+00
         -3   -1    0    0    0  501 -0.00000000000E+00  0.00000000000E+00  0.12951797743E+02  0.12951797743E+02  0.00000000000E+00 0.  1.
          3   -1    0    0  501    0  0.00000000000E+00 -0.00000000000E+00 -0.16074328032E+03  0.16074328032E+03  0.00000000000E+00 0. -1.
         23    2    1    2    0    0  0.00000000000E+00  0.00000000000E+00 -0.14779148258E+03  0.17369507807E+03  0.91256001564E+02 0.  0.
          2    1    3    3  502    0 -0.42392985301E+02  0.19989650787E+01 -0.10578824257E+03  0.11398382925E+03  0.00000000000E+00 0. -1.
         -2    1    3    3    0  502  0.42392985301E+02 -0.19989650787E+01 -0.42003240012E+02  0.59711248820E+02  0.00000000000E+00 0.  1.
<mgrwt>
<rscale>  0 0.91256002E+02</rscale>
<asrwt>0</asrwt>
<pdfrwt beam="2">  1        3 0.24729735E-01 0.91256002E+02</pdfrwt>
<pdfrwt beam="1">  1       -3 0.19925843E-02 0.91256002E+02</pdfrwt>
<totfact> 0.29847084E+04</totfact>
</mgrwt>
</event>
<event>
 5    1  0.4059427E+001  0.9450116E+02  0.7546771E-02  0.1292304E+00
          2   -1    0    0  501    0  0.00000000000E+00  0.00000000000E+00  0.53525121883E+01  0.53525121883E+01  0.00000000000E+00 0. -1.
         -2   -1    0    0    0  501 -0.00000000000E+00 -0.00000000000E+00 -0.41711579087E+03  0.41711579087E+03  0.00000000000E+00 0.  1.
         23    2    1    2    0    0  0.00000000000E+00  0.00000000000E+00 -0.41176327868E+03  0.42246830306E+03  0.94501160936E+02 0.  0.
          2    1    3    3  502    0 -0.16247158179E+02  0.41109318752E+02 -0.13125343947E+03  0.13849697329E+03  0.00000000000E+00 0. -1.
         -2    1    3    3    0  502  0.16247158179E+02 -0.41109318752E+02 -0.28050983921E+03  0.28397132977E+03  0.00000000000E+00 0.  1.
<mgrwt>
<rscale>  0 0.94501161E+02</rscale>
<asrwt>0</asrwt>
<pdfrwt beam="1">  1        2 0.82346307E-03 0.94501161E+02</pdfrwt>
<pdfrwt beam="2">  1       -2 0.64171687E-01 0.94501161E+02</pdfrwt>
<totfact> 0.37808703E+04</totfact>
</mgrwt>
</event>
<event>
 5    1  0.4059427E+001  0.9042522E+02  0.7546771E-02  0.1301825E+00
          1   -1    0    0  501    0  0.00000000000E+00  0.00000000000E+00  0.12453542639E+04  0.12453542639E+04  0.00000000000E+00 0. -1.
         -1   -1    0    0    0  501 -0.00000000000E+00 -0.00000000000E+00 -0.16414446151E+01  0.16414446151E+01  0.00000000000E+00 0.  1.
         23    2    1    2    0    0  0.00000000000E+00  0.00000000000E+00  0.12437128193E+04  0.12469957085E+04  0.90425218838E+02 0.  0.
          2    1    3    3  502    0  0.81146694391E+01 -0.36587854086E+02  0.97063544226E+03  0.97135867767E+03  0.00000000000E+00 0. -1.
         -2    1    3    3    0  502 -0.81146694391E+01  0.36587854086E+02  0.27307737705E+03  0.27563703087E+03  0.00000000000E+00 0.  1.
<mgrwt>
<rscale>  0 0.90425219E+02</rscale>
<asrwt>0</asrwt>
<pdfrwt beam="1">  1        1 0.19159221E+00 0.90425219E+02</pdfrwt>
<pdfrwt beam="2">  1       -1 0.25253094E-03 0.90425219E+02</pdfrwt>
<totfact> 0.12775238E+05</totfact>
</mgrwt>
</event>
<event>
 5    1  0.4059427E+001  0.8992317E+02  0.7546771E-02  0.1303038E+00
          2   -1    0    0  501    0  0.00000000000E+00  0.00000000000E+00  0.16973710590E+04  0.16973710590E+04  0.00000000000E+00 0. -1.
         -2   -1    0    0    0  501 -0.00000000000E+00 -0.00000000000E+00 -0.11909854908E+01  0.11909854908E+01  0.00000000000E+00 0.  1.
         23    2    1    2    0    0  0.00000000000E+00  0.00000000000E+00  0.16961800735E+04  0.16985620444E+04  0.89923173960E+02 0.  0.
          2    1    3    3  502    0 -0.23188974371E+02 -0.38519713190E+02  0.85220538256E+03  0.85339059691E+03  0.00000000000E+00 0. -1.
         -2    1    3    3    0  502  0.23188974371E+02  0.38519713190E+02  0.84397469090E+03  0.84517144753E+03  0.00000000000E+00 0.  1.
<mgrwt>
<rscale>  0 0.89923174E+02</rscale>
<asrwt>0</asrwt>
<pdfrwt beam="1">  1        2 0.26113207E+00 0.89923174E+02</pdfrwt>
<pdfrwt beam="2">  1       -2 0.18322990E-03 0.89923174E+02</pdfrwt>
<totfact> 0.23076328E+05</totfact>
</mgrwt>
</event>
<event>
 5    1  0.4059427E+001  0.9386477E+02  0.7546771E-02  0.1293754E+00
         -2   -1    0    0    0  501 -0.00000000000E+00  0.00000000000E+00  0.17669090706E+02  0.17669090706E+02  0.00000000000E+00 0. -1.
          2   -1    0    0  501    0  0.00000000000E+00 -0.00000000000E+00 -0.12466112986E+03  0.12466112986E+03  0.00000000000E+00 0.  1.
         23    2    1    2    0    0  0.00000000000E+00  0.00000000000E+00 -0.10699203916E+03  0.14233022057E+03  0.93864771049E+02 0.  0.
          2    1    3    3  502    0  0.18273175522E+02 -0.39527224836E+02 -0.26956369550E+02  0.51214805537E+02  0.00000000000E+00 0. -1.
         -2    1    3    3    0  502 -0.18273175522E+02  0.39527224836E+02 -0.80035669606E+02  0.91115415031E+02  0.00000000000E+00 0.  1.
<mgrwt>
<rscale>  0 0.93864771E+02</rscale>
<asrwt>0</asrwt>
<pdfrwt beam="2">  1        2 0.19178634E-01 0.93864771E+02</pdfrwt>
<pdfrwt beam="1">  1       -2 0.27183218E-02 0.93864771E+02</pdfrwt>
<totfact> 0.12141599E+05</totfact>
</mgrwt>
</event>
<event>
 5    1  0.4059427E+001  0.9649015E+02  0.7546771E-02  0.1287855E+00
          2   -1    0    0  501    0  0.00000000000E+00  0.00000000000E+00  0.73466022816E+03  0.73466022816E+03  0.00000000000E+00 0. -1.
         -2   -1    0    0    0  501 -0.00000000000E+00 -0.00000000000E+00 -0.31682501163E+01  0.31682501163E+01  0.00000000000E+00 0.  1.
         23    2    1    2    0    0  0.00000000000E+00  0.00000000000E+00  0.73149197804E+03  0.73782847827E+03  0.96490151898E+02 0.  0.
          2    1    3    3  502    0 -0.42621554458E+02  0.88847207861E+01  0.52468866732E+03  0.52649191141E+03  0.00000000000E+00 0. -1.
         -2    1    3    3    0  502  0.42621554458E+02 -0.88847207861E+01  0.20680331072E+03  0.21133656686E+03  0.00000000000E+00 0.  1.
<mgrwt>
<rscale>  0 0.96490152E+02</rscale>
<asrwt>0</asrwt>
<pdfrwt beam="1">  1        2 0.11302451E+00 0.96490152E+02</pdfrwt>
<pdfrwt beam="2">  1       -2 0.48742368E-03 0.96490152E+02</pdfrwt>
<totfact> 0.20636872E+05</totfact>
</mgrwt>
</event>
<event>
 5    1  0.4059427E+001  0.9157254E+02  0.7546771E-02  0.1299088E+00
          1   -1    0    0  501    0  0.00000000000E+00  0.00000000000E+00  0.90289600523E+03  0.90289600523E+03  0.00000000000E+00 0. -1.
         -1   -1    0    0    0  501 -0.00000000000E+00 -0.00000000000E+00 -0.23218429360E+01  0.23218429360E+01  0.00000000000E+00 0.  1.
         23    2    1    2    0    0  0.00000000000E+00  0.00000000000E+00  0.90057416229E+03  0.90521784816E+03  0.91572544175E+02 0.  0.
          2    1    3    3  502    0  0.21575000729E+02 -0.16525794171E+01  0.84916302082E+03  0.84943866619E+03  0.00000000000E+00 0. -1.
         -2    1    3    3    0  502 -0.21575000729E+02  0.16525794171E+01  0.51411141468E+02  0.55779181979E+02  0.00000000000E+00 0.  1.
<mgrwt>
<rscale>  0 0.91572544E+02</rscale>
<asrwt>0</asrwt>
<pdfrwt beam="1">  1        1 0.13890680E+00 0.91572544E+02</pdfrwt>
<pdfrwt beam="2">  1       -1 0.35720733E-03 0.91572544E+02</pdfrwt>
<totfact> 0.13751473E+05</totfact>
</mgrwt>
</event>
<event>
 5    1  0.4059427E+001  0.9146312E+02  0.7546771E-02  0.1299347E+00
         -2   -1    0    0    0  501 -0.00000000000E+00  0.00000000000E+00  0.72993664988E+02  0.72993664988E+02  0.00000000000E+00 0.  1.
          2   -1    0    0  501    0  0.00000000000E+00 -0.00000000000E+00 -0.28651468185E+02  0.28651468185E+02  0.00000000000E+00 0. -1.
         23    2    1    2    0    0  0.00000000000E+00  0.00000000000E+00  0.44342196803E+02  0.10164513317E+03  0.91463121969E+02 0.  0.
          2    1    3    3  502    0  0.39353766891E+02  0.71554620458E+01 -0.24656232686E+01  0.40074916140E+02  0.00000000000E+00 0. -1.
         -2    1    3    3    0  502 -0.39353766891E+02 -0.71554620458E+01  0.46807820071E+02  0.61570217032E+02  0.00000000000E+00 0.  1.
<mgrwt>
<rscale>  0 0.91463122E+02</rscale>
<asrwt>0</asrwt>
<pdfrwt beam="2">  1        2 0.44079182E-02 0.91463122E+02</pdfrwt>
<pdfrwt beam="1">  1       -2 0.11229795E-01 0.91463122E+02</pdfrwt>
<totfact> 0.86567633E+04</totfact>
</mgrwt>
</event>
<event>
 5    1  0.4059427E+001  0.8844555E+02  0.7546771E-02  0.1306660E+00
          1   -1    0    0  501    0  0.00000000000E+00  0.00000000000E+00  0.71521770840E+01  0.71521770840E+01  0.00000000000E+00 0. -1.
         -1   -1    0    0    0  501 -0.00000000000E+00 -0.00000000000E+00 -0.27343474081E+03  0.27343474081E+03  0.00000000000E+00 0.  1.
         23    2    1    2    0    0  0.00000000000E+00  0.00000000000E+00 -0.26628256373E+03  0.28058691790E+03  0.88445546801E+02 0.  0.
          2    1    3    3  502    0 -0.17944495908E+02 -0.39962843971E+02 -0.11394355710E+03  0.12207443646E+03  0.00000000000E+00 0. -1.
         -2    1    3    3    0  502  0.17944495908E+02  0.39962843971E+02 -0.15233900663E+03  0.15851248144E+03  0.00000000000E+00 0.  1.
<mgrwt>
<rscale>  0 0.88445547E+02</rscale>
<asrwt>0</asrwt>
<pdfrwt beam="1">  1        1 0.11003348E-02 0.88445547E+02</pdfrwt>
<pdfrwt beam="2">  1       -1 0.42066889E-01 0.88445547E+02</pdfrwt>
<totfact> 0.67936731E+04</totfact>
</mgrwt>
</event>
<event>
 5    1  0.4059427E+001  0.9075781E+02  0.7546771E-02  0.1301027E+00
          1   -1    0    0  501    0  0.00000000000E+00  0.00000000000E+00  0.65550803245E+01  0.65550803245E+01  0.00000000000E+00 0. -1.
         -1   -1    0    0    0  501 -0.00000000000E+00 -0.00000000000E+00 -0.31414490479E+03  0.31414490479E+03  0.00000000000E+00 0.  1.
         23    2    1    2    0    0  0.00000000000E+00  0.00000000000E+00 -0.30758982446E+03  0.32069998511E+03  0.90757811442E+02 0.  0.
          2    1    3    3  502    0 -0.19430089054E+02 -0.29072376327E+02 -0.51594783380E+02  0.62327787527E+02  0.00000000000E+00 0. -1.
         -2    1    3    3    0  502  0.19430089054E+02  0.29072376327E+02 -0.25599504108E+03  0.25837219759E+03  0.00000000000E+00 0.  1.
<mgrwt>
<rscale>  0 0.90757811E+02</rscale>
<asrwt>0</asrwt>
<pdfrwt beam="1">  1        1 0.10084740E-02 0.90757811E+02</pdfrwt>
<pdfrwt beam="2">  1       -1 0.48329980E-01 0.90757811E+02</pdfrwt>
<totfact> 0.60197359E+04</totfact>
</mgrwt>
</event>
<event>
 5    1  0.4059427E+001  0.7682028E+02  0.7546771E-02  0.1338325E+00
          2   -1    0    0  501    0  0.00000000000E+00  0.00000000000E+00  0.30185791413E+04  0.30185791413E+04  0.00000000000E+00 0.  1.
         -2   -1    0    0    0  501 -0.00000000000E+00 -0.00000000000E+00 -0.48875276456E+00  0.48875276456E+00  0.00000000000E+00 0. -1.
         23    2    1    2    0    0  0.00000000000E+00  0.00000000000E+00  0.30180903886E+04  0.30190678941E+04  0.76820281186E+02 0.  0.
          2    1    3    3  502    0  0.44835763376E+01  0.32177244345E+02  0.23143308382E+04  0.23145588578E+04  0.00000000000E+00 0.  1.
         -2    1    3    3    0  502 -0.44835763376E+01 -0.32177244345E+02  0.70375955041E+03  0.70450903635E+03  0.00000000000E+00 0. -1.
<mgrwt>
<rscale>  0 0.76820281E+02</rscale>
<asrwt>0</asrwt>
<pdfrwt beam="1">  1        2 0.46438186E+00 0.76820281E+02</pdfrwt>
<pdfrwt beam="2">  1       -2 0.75195150E-04 0.76820281E+02</pdfrwt>
<totfact> 0.15798311E+05</totfact>
</mgrwt>
</event>
<event>
 5    1  0.4059427E+001  0.9036290E+02  0.7546771E-02  0.1301975E+00
          4   -1    0    0  501    0  0.00000000000E+00  0.00000000000E+00  0.98886616267E+02  0.98886616267E+02  0.00000000000E+00 0. -1.
         -4   -1    0    0    0  501 -0.00000000000E+00 -0.00000000000E+00 -0.20643473726E+02  0.20643473726E+02  0.00000000000E+00 0.  1.
         23    2    1    2    0    0  0.00000000000E+00  0.00000000000E+00  0.78243142541E+02  0.11953008999E+03  0.90362896473E+02 0.  0.
          2    1    3    3  502    0  0.13508525112E+02  0.40016541686E+02  0.17892753442E+02  0.45868883625E+02  0.00000000000E+00 0. -1.
         -2    1    3    3    0  502 -0.13508525112E+02 -0.40016541686E+02  0.60350389098E+02  0.73661206368E+02  0.00000000000E+00 0.  1.
<mgrwt>
<rscale>  0 0.90362896E+02</rscale>
<asrwt>0</asrwt>
<pdfrwt beam="1">  1        4 0.15213325E-01 0.90362896E+02</pdfrwt>
<pdfrwt beam="2">  1       -4 0.31759191E-02 0.90362896E+02</pdfrwt>
<totfact> 0.25918574E+04</totfact>
</mgrwt>
</event>
<event>
 5    1  0.4059427E+001  0.9103043E+02  0.7546771E-02  0.1300375E+00
          1   -1    0    0  501    0  0.00000000000E+00  0.00000000000E+00  0.59535945908E+01  0.59535945908E+01  0.00000000000E+00 0. -1.
         -1   -1    0    0    0  501 -0.00000000000E+00 -0.00000000000E+00 -0.34796366102E+03  0.34796366102E+03  0.00000000000E+00 0.  1.
         23    2    1    2    0    0  0.00000000000E+00  0.00000000000E+00 -0.34201006643E+03  0.35391725561E+03  0.91030425024E+02 0.  0.
          2    1    3    3  502    0 -0.33061892457E+02  0.17854428958E+02 -0.71140823238E+02  0.80454248472E+02  0.00000000000E+00 0. -1.
         -2    1    3    3    0  502  0.33061892457E+02 -0.17854428958E+02 -0.27086924319E+03  0.27346300713E+03  0.00000000000E+00 0.  1.
<mgrwt>
<rscale>  0 0.91030425E+02</rscale>
<asrwt>0</asrwt>
<pdfrwt beam="1">  1        1 0.91593752E-03 0.91030425E+02</pdfrwt>
<pdfrwt beam="2">  1       -1 0.53532878E-01 0.91030425E+02</pdfrwt>
<totfact> 0.57175522E+04</totfact>
</mgrwt>
</event>
<event>
 5    1  0.4059427E+001  0.8562979E+02  0.7546771E-02  0.1313794E+00
         -2   -1    0    0    0  501 -0.00000000000E+00  0.00000000000E+00  0.19521635694E+01  0.19521635694E+01  0.00000000000E+00 0.  1.
          2   -1    0    0  501    0  0.00000000000E+00 -0.00000000000E+00 -0.93901729161E+03  0.93901729161E+03  0.00000000000E+00 0. -1.
         23    2    1    2    0    0  0.00000000000E+00  0.00000000000E+00 -0.93706512804E+03  0.94096945518E+03  0.85629792659E+02 0.  0.
          2    1    3    3  502    0  0.31397985732E+02  0.84951218457E+01 -0.77447071157E+03  0.77515345815E+03  0.00000000000E+00 0. -1.
         -2    1    3    3    0  502 -0.31397985732E+02 -0.84951218457E+01 -0.16259441647E+03  0.16581599702E+03  0.00000000000E+00 0.  1.
<mgrwt>
<rscale>  0 0.85629793E+02</rscale>
<asrwt>0</asrwt>
<pdfrwt beam="2">  1        2 0.14446435E+00 0.85629793E+02</pdfrwt>
<pdfrwt beam="1">  1       -2 0.30033255E-03 0.85629793E+02</pdfrwt>
<totfact> 0.29358986E+05</totfact>
</mgrwt>
</event>
<event>
 5    1  0.4059427E+001  0.8921093E+02  0.7546771E-02  0.1304774E+00
         -1   -1    0    0    0  501 -0.00000000000E+00  0.00000000000E+00  0.32095491154E+02  0.32095491154E+02  0.00000000000E+00 0.  1.
          1   -1    0    0  501    0  0.00000000000E+00 -0.00000000000E+00 -0.61991492749E+02  0.61991492749E+02  0.00000000000E+00 0. -1.
         23    2    1    2    0    0  0.00000000000E+00  0.00000000000E+00 -0.29896001594E+02  0.94086983903E+02  0.89210927742E+02 0.  0.
          2    1    3    3  502    0 -0.21056444962E+01 -0.38375683128E+02 -0.38824308073E+02  0.54630153685E+02  0.00000000000E+00 0. -1.
         -2    1    3    3    0  502  0.21056444962E+01  0.38375683128E+02  0.89283064786E+01  0.39456830218E+02  0.00000000000E+00 0.  1.
<mgrwt>
<rscale>  0 0.89210928E+02</rscale>
<asrwt>0</asrwt>
<pdfrwt beam="2">  1        1 0.95371526E-02 0.89210928E+02</pdfrwt>
<pdfrwt beam="1">  1       -1 0.49377679E-02 0.89210928E+02</pdfrwt>
<totfact> 0.10286274E+05</totfact>
</mgrwt>
</event>
<event>
 5    1  0.4059427E+001  0.9094768E+02  0.7546771E-02  0.1300573E+00
          3   -1    0    0  501    0  0.00000000000E+00  0.00000000000E+00  0.15822450374E+02  0.15822450374E+02  0.00000000000E+00 0. -1.
         -3   -1    0    0    0  501 -0.00000000000E+00 -0.00000000000E+00 -0.13069216261E+03  0.13069216261E+03  0.00000000000E+00 0.  1.
         23    2    1    2    0    0  0.00000000000E+00  0.00000000000E+00 -0.11486971224E+03  0.14651461299E+03  0.90947682922E+02 0.  0.
          2    1    3    3  502    0 -0.10532683743E+02  0.25248326561E+02  0.10827522270E+01  0.27378600646E+02  0.00000000000E+00 0. -1.
         -2    1    3    3    0  502  0.10532683743E+02 -0.25248326561E+02 -0.11595246446E+03  0.11913601234E+03  0.00000000000E+00 0.  1.
<mgrwt>
<rscale>  0 0.90947683E+02</rscale>
<asrwt>0</asrwt>
<pdfrwt beam="1">  1        3 0.24342231E-02 0.90947683E+02</pdfrwt>
<pdfrwt beam="2">  1       -3 0.20106487E-01 0.90947683E+02</pdfrwt>
<totfact> 0.31738476E+04</totfact>
</mgrwt>
</event>
<event>
 5    1  0.4059427E+001  0.8703097E+02  0.7546771E-02  0.1310205E+00
         -2   -1    0    0    0  501 -0.00000000000E+00  0.00000000000E+00  0.28537669967E+01  0.28537669967E+01  0.00000000000E+00 0.  1.
          2   -1    0    0  501    0  0.00000000000E+00 -0.00000000000E+00 -0.66354311192E+03  0.66354311192E+03  0.00000000000E+00 0. -1.
         23    2    1    2    0    0  0.00000000000E+00  0.00000000000E+00 -0.66068934492E+03  0.66639687892E+03  0.87030969975E+02 0.  0.
          2    1    3    3  502    0 -0.19437552098E+02  0.11854818269E+02 -0.46390183107E+02  0.51675954142E+02  0.00000000000E+00 0.  1.
         -2    1    3    3    0  502  0.19437552098E+02 -0.11854818269E+02 -0.61429916182E+03  0.61472092478E+03  0.00000000000E+00 0. -1.
<mgrwt>
<rscale>  0 0.87030970E+02</rscale>
<asrwt>0</asrwt>
<pdfrwt beam="2">  1        2 0.10208361E+00 0.87030970E+02</pdfrwt>
<pdfrwt beam="1">  1       -2 0.43904085E-03 0.87030970E+02</pdfrwt>
<totfact> 0.26458747E+05</totfact>
</mgrwt>
</event>
<event>
 5    1  0.4059427E+001  0.8783754E+02  0.7546771E-02  0.1308175E+00
         -1   -1    0    0    0  501 -0.00000000000E+00  0.00000000000E+00  0.36845653944E+01  0.36845653944E+01  0.00000000000E+00 0.  1.
          1   -1    0    0  501    0  0.00000000000E+00 -0.00000000000E+00 -0.52349680271E+03  0.52349680271E+03  0.00000000000E+00 0. -1.
         23    2    1    2    0    0  0.00000000000E+00  0.00000000000E+00 -0.51981223732E+03  0.52718136811E+03  0.87837536472E+02 0.  0.
          2    1    3    3  502    0  0.46536148760E+01  0.26054708159E+02 -0.47025573448E+03  0.47099995729E+03  0.00000000000E+00 0. -1.
         -2    1    3    3    0  502 -0.46536148760E+01 -0.26054708159E+02 -0.49556502837E+02  0.56181410823E+02  0.00000000000E+00 0.  1.
<mgrwt>
<rscale>  0 0.87837536E+02</rscale>
<asrwt>0</asrwt>
<pdfrwt beam="2">  1        1 0.80537961E-01 0.87837536E+02</pdfrwt>
<pdfrwt beam="1">  1       -1 0.56685628E-03 0.87837536E+02</pdfrwt>
<totfact> 0.15449197E+05</totfact>
</mgrwt>
</event>
<event>
 5    1  0.4059427E+001  0.9053831E+02  0.7546771E-02  0.1301553E+00
         -1   -1    0    0    0  501 -0.00000000000E+00  0.00000000000E+00  0.97005858336E+03  0.97005858336E+03  0.00000000000E+00 0.  1.
          1   -1    0    0  501    0  0.00000000000E+00 -0.00000000000E+00 -0.21125491620E+01  0.21125491620E+01  0.00000000000E+00 0. -1.
         23    2    1    2    0    0  0.00000000000E+00  0.00000000000E+00  0.96794603420E+03  0.97217113252E+03  0.90538311169E+02 0.  0.
          2    1    3    3  502    0  0.34928508483E+02  0.73593127321E+01  0.18502246624E+03  0.18843426759E+03  0.00000000000E+00 0. -1.
         -2    1    3    3    0  502 -0.34928508483E+02 -0.73593127321E+01  0.78292356796E+03  0.78373686494E+03  0.00000000000E+00 0.  1.
<mgrwt>
<rscale>  0 0.90538311E+02</rscale>
<asrwt>0</asrwt>
<pdfrwt beam="2">  1        1 0.32500834E-03 0.90538311E+02</pdfrwt>
<pdfrwt beam="1">  1       -1 0.14923943E+00 0.90538311E+02</pdfrwt>
<totfact> 0.27086991E+04</totfact>
</mgrwt>
</event>
<event>
 5    1  0.4059427E+001  0.9296490E+02  0.7546771E-02  0.1295827E+00
         -1   -1    0    0    0  501 -0.00000000000E+00  0.00000000000E+00  0.55307688076E+01  0.55307688076E+01  0.00000000000E+00 0.  1.
          1   -1    0    0  501    0  0.00000000000E+00 -0.00000000000E+00 -0.39065425345E+03  0.39065425345E+03  0.00000000000E+00 0. -1.
         23    2    1    2    0    0  0.00000000000E+00  0.00000000000E+00 -0.38512348464E+03  0.39618502226E+03  0.92964904336E+02 0.  0.
          2    1    3    3  502    0  0.29259954243E+02 -0.32453786609E+02 -0.12501403664E+03  0.13243074622E+03  0.00000000000E+00 0. -1.
         -2    1    3    3    0  502 -0.29259954243E+02  0.32453786609E+02 -0.26010944800E+03  0.26375427604E+03  0.00000000000E+00 0.  1.
<mgrwt>
<rscale>  0 0.92964904E+02</rscale>
<asrwt>0</asrwt>
<pdfrwt beam="2">  1        1 0.60100640E-01 0.92964904E+02</pdfrwt>
<pdfrwt beam="1">  1       -1 0.85088771E-03 0.92964904E+02</pdfrwt>
<totfact> 0.12760015E+05</totfact>
</mgrwt>
</event>
<event>
 5    1  0.4059427E+001  0.1172912E+03  0.7546771E-02  0.1247634E+00
         -1   -1    0    0    0  501 -0.00000000000E+00  0.00000000000E+00  0.27618804662E+01  0.27618804662E+01  0.00000000000E+00 0.  1.
          1   -1    0    0  501    0  0.00000000000E+00 -0.00000000000E+00 -0.12452776067E+04  0.12452776067E+04  0.00000000000E+00 0. -1.
         23    2    1    2    0    0  0.00000000000E+00  0.00000000000E+00 -0.12425157262E+04  0.12480394871E+04  0.11729122553E+03 0.  0.
          2    1    3    3  502    0  0.23083564201E+02 -0.47469366771E+02 -0.34932729915E+03  0.35329273082E+03  0.00000000000E+00 0. -1.
         -2    1    3    3    0  502 -0.23083564201E+02  0.47469366771E+02 -0.89318842704E+03  0.89474675630E+03  0.00000000000E+00 0.  1.
<mgrwt>
<rscale>  0 0.11729123E+03</rscale>
<asrwt>0</asrwt>
<pdfrwt beam="2">  1        1 0.19158110E+00 0.11729123E+03</pdfrwt>
<pdfrwt beam="1">  1       -1 0.42490484E-03 0.11729123E+03</pdfrwt>
<totfact> 0.63702544E+04</totfact>
</mgrwt>
</event>
<event>
 5    1  0.4059427E+001  0.8807363E+02  0.7546771E-02  0.1307585E+00
         -3   -1    0    0    0  501 -0.00000000000E+00  0.00000000000E+00  0.45069140828E+01  0.45069140828E+01  0.00000000000E+00 0.  1.
          3   -1    0    0  501    0  0.00000000000E+00 -0.00000000000E+00 -0.43028133782E+03  0.43028133782E+03  0.00000000000E+00 0. -1.
         23    2    1    2    0    0  0.00000000000E+00  0.00000000000E+00 -0.42577442374E+03  0.43478825190E+03  0.88073628766E+02 0.  0.
          2    1    3    3  502    0  0.11801165877E+01  0.43488297672E+02 -0.24659271885E+03  0.25040086601E+03  0.00000000000E+00 0. -1.
         -2    1    3    3    0  502 -0.11801165877E+01 -0.43488297672E+02 -0.17918170489E+03  0.18438738590E+03  0.00000000000E+00 0.  1.
<mgrwt>
<rscale>  0 0.88073629E+02</rscale>
<asrwt>0</asrwt>
<pdfrwt beam="2">  1        3 0.66197158E-01 0.88073629E+02</pdfrwt>
<pdfrwt beam="1">  1       -3 0.69337109E-03 0.88073629E+02</pdfrwt>
<totfact> 0.21500263E+04</totfact>
</mgrwt>
</event>
<event>
 5    1  0.4059427E+001  0.8844760E+02  0.7546771E-02  0.1306655E+00
          1   -1    0    0  501    0  0.00000000000E+00  0.00000000000E+00  0.94510947340E+02  0.94510947340E+02  0.00000000000E+00 0. -1.
         -1   -1    0    0    0  501 -0.00000000000E+00 -0.00000000000E+00 -0.20693309896E+02  0.20693309896E+02  0.00000000000E+00 0.  1.
         23    2    1    2    0    0  0.00000000000E+00  0.00000000000E+00  0.73817637444E+02  0.11520425724E+03  0.88447596278E+02 0.  0.
          2    1    3    3  502    0 -0.24425938822E+02 -0.91283089749E+01 -0.96146832940E+01  0.27791988899E+02  0.00000000000E+00 0.  1.
         -2    1    3    3    0  502  0.24425938822E+02  0.91283089749E+01  0.83432320738E+02  0.87412268337E+02  0.00000000000E+00 0. -1.
<mgrwt>
<rscale>  0 0.88447596E+02</rscale>
<asrwt>0</asrwt>
<pdfrwt beam="1">  1        1 0.14540145E-01 0.88447596E+02</pdfrwt>
<pdfrwt beam="2">  1       -1 0.31835862E-02 0.88447596E+02</pdfrwt>
<totfact> 0.11241005E+05</totfact>
</mgrwt>
</event>
<event>
 5    1  0.4059427E+001  0.9259327E+02  0.7546771E-02  0.1296691E+00
          2   -1    0    0  501    0  0.00000000000E+00  0.00000000000E+00  0.32496726678E+02  0.32496726678E+02  0.00000000000E+00 0. -1.
         -2   -1    0    0    0  501 -0.00000000000E+00 -0.00000000000E+00 -0.65956750428E+02  0.65956750428E+02  0.00000000000E+00 0.  1.
         23    2    1    2    0    0  0.00000000000E+00  0.00000000000E+00 -0.33460023750E+02  0.98453477106E+02  0.92593271705E+02 0.  0.
          2    1    3    3  502    0  0.11192286615E+02 -0.44693037568E+02 -0.21561093708E+02  0.50868611625E+02  0.00000000000E+00 0. -1.
         -2    1    3    3    0  502 -0.11192286615E+02  0.44693037568E+02 -0.11898930043E+02  0.47584865482E+02  0.00000000000E+00 0.  1.
<mgrwt>
<rscale>  0 0.92593272E+02</rscale>
<asrwt>0</asrwt>
<pdfrwt beam="1">  1        2 0.49994964E-02 0.92593272E+02</pdfrwt>
<pdfrwt beam="2">  1       -2 0.10147192E-01 0.92593272E+02</pdfrwt>
<totfact> 0.86337810E+04</totfact>
</mgrwt>
</event>
<event>
 5    1  0.4059427E+001  0.9071941E+02  0.7546771E-02  0.1301119E+00
         -2   -1    0    0    0  501 -0.00000000000E+00  0.00000000000E+00  0.35941540902E+03  0.35941540902E+03  0.00000000000E+00 0.  1.
          2   -1    0    0  501    0  0.00000000000E+00 -0.00000000000E+00 -0.57245822188E+01  0.57245822188E+01  0.00000000000E+00 0. -1.
         23    2    1    2    0    0  0.00000000000E+00  0.00000000000E+00  0.35369082680E+03  0.36513999124E+03  0.90719414893E+02 0.  0.
          2    1    3    3  502    0  0.31471368686E+02  0.29974250084E+02  0.22910769784E+03  0.23319356750E+03  0.00000000000E+00 0. -1.
         -2    1    3    3    0  502 -0.31471368686E+02 -0.29974250084E+02  0.12458312896E+03  0.13194642374E+03  0.00000000000E+00 0.  1.
<mgrwt>
<rscale>  0 0.90719415E+02</rscale>
<asrwt>0</asrwt>
<pdfrwt beam="2">  1        2 0.88070524E-03 0.90719415E+02</pdfrwt>
<pdfrwt beam="1">  1       -2 0.55294661E-01 0.90719415E+02</pdfrwt>
<totfact> 0.46385426E+04</totfact>
</mgrwt>
</event>
<event>
 5    1  0.4059427E+001  0.9190246E+02  0.7546771E-02  0.1298309E+00
         -2   -1    0    0    0  501 -0.00000000000E+00  0.00000000000E+00  0.34053471190E+02  0.34053471190E+02  0.00000000000E+00 0.  1.
          2   -1    0    0  501    0  0.00000000000E+00 -0.00000000000E+00 -0.62005884004E+02  0.62005884004E+02  0.00000000000E+00 0. -1.
         23    2    1    2    0    0  0.00000000000E+00  0.00000000000E+00 -0.27952412814E+02  0.96059355193E+02  0.91902461001E+02 0.  0.
          2    1    3    3  502    0 -0.31163749659E+02 -0.23561627886E+02 -0.39261004108E+02  0.55387327477E+02  0.00000000000E+00 0. -1.
         -2    1    3    3    0  502  0.31163749659E+02  0.23561627886E+02  0.11308591295E+02  0.40672027716E+02  0.00000000000E+00 0.  1.
<mgrwt>
<rscale>  0 0.91902461E+02</rscale>
<asrwt>0</asrwt>
<pdfrwt beam="2">  1        2 0.95393667E-02 0.91902461E+02</pdfrwt>
<pdfrwt beam="1">  1       -2 0.52389956E-02 0.91902461E+02</pdfrwt>
<totfact> 0.10464644E+05</totfact>
</mgrwt>
</event>
<event>
 5    1  0.4059427E+001  0.8519774E+02  0.7546771E-02  0.1314916E+00
          1   -1    0    0  501    0  0.00000000000E+00  0.00000000000E+00  0.11578620417E+02  0.11578620417E+02  0.00000000000E+00 0. -1.
         -1   -1    0    0    0  501 -0.00000000000E+00 -0.00000000000E+00 -0.15672536694E+03  0.15672536694E+03  0.00000000000E+00 0.  1.
         23    2    1    2    0    0  0.00000000000E+00  0.00000000000E+00 -0.14514674653E+03  0.16830398736E+03  0.85197735499E+02 0.  0.
          2    1    3    3  502    0 -0.49140459171E+01 -0.34968111787E+02 -0.25503425322E+02  0.43558482439E+02  0.00000000000E+00 0. -1.
         -2    1    3    3    0  502  0.49140459171E+01  0.34968111787E+02 -0.11964332120E+03  0.12474550492E+03  0.00000000000E+00 0.  1.
<mgrwt>
<rscale>  0 0.85197735E+02</rscale>
<asrwt>0</asrwt>
<pdfrwt beam="1">  1        1 0.17813263E-02 0.85197735E+02</pdfrwt>
<pdfrwt beam="2">  1       -1 0.24111593E-01 0.85197735E+02</pdfrwt>
<totfact> 0.88230720E+04</totfact>
</mgrwt>
</event>
<event>
 5    1  0.4059427E+001  0.9195173E+02  0.7546771E-02  0.1298193E+00
          1   -1    0    0  501    0  0.00000000000E+00  0.00000000000E+00  0.11790877570E+03  0.11790877570E+03  0.00000000000E+00 0. -1.
         -1   -1    0    0    0  501 -0.00000000000E+00 -0.00000000000E+00 -0.17927252379E+02  0.17927252379E+02  0.00000000000E+00 0.  1.
         23    2    1    2    0    0  0.00000000000E+00  0.00000000000E+00  0.99981523322E+02  0.13583602808E+03  0.91951734724E+02 0.  0.
          2    1    3    3  502    0 -0.20029689976E+02 -0.41353112340E+02  0.52332103219E+02  0.69641348408E+02  0.00000000000E+00 0. -1.
         -2    1    3    3    0  502  0.20029689976E+02  0.41353112340E+02  0.47649420104E+02  0.66194679673E+02  0.00000000000E+00 0.  1.
<mgrwt>
<rscale>  0 0.91951735E+02</rscale>
<asrwt>0</asrwt>
<pdfrwt beam="1">  1        1 0.18139811E-01 0.91951735E+02</pdfrwt>
<pdfrwt beam="2">  1       -1 0.27580389E-02 0.91951735E+02</pdfrwt>
<totfact> 0.10496909E+05</totfact>
</mgrwt>
</event>
<event>
 5    1  0.4059427E+001  0.9150684E+02  0.7546771E-02  0.1299243E+00
          2   -1    0    0  501    0  0.00000000000E+00  0.00000000000E+00  0.85867982109E+03  0.85867982109E+03  0.00000000000E+00 0. -1.
         -2   -1    0    0    0  501 -0.00000000000E+00 -0.00000000000E+00 -0.24379000880E+01  0.24379000880E+01  0.00000000000E+00 0.  1.
         23    2    1    2    0    0  0.00000000000E+00  0.00000000000E+00  0.85624192100E+03  0.86111772117E+03  0.91506843708E+02 0.  0.
          2    1    3    3  502    0 -0.17114470256E+02  0.25177929463E+02  0.74953083332E+03  0.75014885411E+03  0.00000000000E+00 0. -1.
         -2    1    3    3    0  502  0.17114470256E+02 -0.25177929463E+02  0.10671108768E+03  0.11096886707E+03  0.00000000000E+00 0.  1.
<mgrwt>
<rscale>  0 0.91506844E+02</rscale>
<asrwt>0</asrwt>
<pdfrwt beam="1">  1        2 0.13210435E+00 0.91506844E+02</pdfrwt>
<pdfrwt beam="2">  1       -2 0.37506224E-03 0.91506844E+02</pdfrwt>
<totfact> 0.24414217E+05</totfact>
</mgrwt>
</event>
<event>
 5    1  0.4059427E+001  0.9187148E+02  0.7546771E-02  0.1298382E+00
          1   -1    0    0  501    0  0.00000000000E+00  0.00000000000E+00  0.16849787893E+04  0.16849787893E+04  0.00000000000E+00 0.  1.
         -1   -1    0    0    0  501 -0.00000000000E+00 -0.00000000000E+00 -0.12522959693E+01  0.12522959693E+01  0.00000000000E+00 0. -1.
         23    2    1    2    0    0  0.00000000000E+00  0.00000000000E+00  0.16837264934E+04  0.16862310853E+04  0.91871478625E+02 0.  0.
          2    1    3    3  502    0  0.33500819875E+02  0.24183138880E+02  0.47342137934E+03  0.47522092920E+03  0.00000000000E+00 0. -1.
         -2    1    3    3    0  502 -0.33500819875E+02 -0.24183138880E+02  0.12103051140E+04  0.12110101561E+04  0.00000000000E+00 0.  1.
<mgrwt>
<rscale>  0 0.91871479E+02</rscale>
<asrwt>0</asrwt>
<pdfrwt beam="1">  1        1 0.25922569E+00 0.91871479E+02</pdfrwt>
<pdfrwt beam="2">  1       -1 0.19266227E-03 0.91871479E+02</pdfrwt>
<totfact> 0.97160369E+04</totfact>
</mgrwt>
</event>
<event>
 5    1  0.4059427E+001  0.9970718E+02  0.7546771E-02  0.1280913E+00
         -2   -1    0    0    0  501 -0.00000000000E+00  0.00000000000E+00  0.16067413817E+02  0.16067413817E+02  0.00000000000E+00 0.  1.
          2   -1    0    0  501    0  0.00000000000E+00 -0.00000000000E+00 -0.15468454032E+03  0.15468454032E+03  0.00000000000E+00 0. -1.
         23    2    1    2    0    0  0.00000000000E+00  0.00000000000E+00 -0.13861712650E+03  0.17075195414E+03  0.99707181696E+02 0.  0.
          2    1    3    3  502    0 -0.17514644129E+02 -0.13418089945E+02 -0.14586808449E+03  0.14752730584E+03  0.00000000000E+00 0. -1.
         -2    1    3    3    0  502  0.17514644129E+02  0.13418089945E+02  0.72509579847E+01  0.23224648296E+02  0.00000000000E+00 0.  1.
<mgrwt>
<rscale>  0 0.99707182E+02</rscale>
<asrwt>0</asrwt>
<pdfrwt beam="2">  1        2 0.23797621E-01 0.99707182E+02</pdfrwt>
<pdfrwt beam="1">  1       -2 0.24719099E-02 0.99707182E+02</pdfrwt>
<totfact> 0.11068603E+05</totfact>
</mgrwt>
</event>
<event>
 5    1  0.4059427E+001  0.9046532E+02  0.7546771E-02  0.1301729E+00
         -3   -1    0    0    0  501 -0.00000000000E+00  0.00000000000E+00  0.22174655823E+03  0.22174655823E+03  0.00000000000E+00 0. -1.
          3   -1    0    0  501    0  0.00000000000E+00 -0.00000000000E+00 -0.92267209772E+01  0.92267209772E+01  0.00000000000E+00 0.  1.
         23    2    1    2    0    0  0.00000000000E+00  0.00000000000E+00  0.21251983726E+03  0.23097327921E+03  0.90465321986E+02 0.  0.
          2    1    3    3  502    0  0.26928194900E+02 -0.34889301981E+02  0.13224743785E+03  0.13939790490E+03  0.00000000000E+00 0. -1.
         -2    1    3    3    0  502 -0.26928194900E+02  0.34889301981E+02  0.80272399407E+02  0.91575374309E+02  0.00000000000E+00 0.  1.
<mgrwt>
<rscale>  0 0.90465322E+02</rscale>
<asrwt>0</asrwt>
<pdfrwt beam="2">  1        3 0.14194957E-02 0.90465322E+02</pdfrwt>
<pdfrwt beam="1">  1       -3 0.34114851E-01 0.90465322E+02</pdfrwt>
<totfact> 0.27543832E+04</totfact>
</mgrwt>
</event>
<event>
 5    1  0.4059427E+001  0.9015462E+02  0.7546771E-02  0.1302478E+00
          2   -1    0    0  501    0  0.00000000000E+00  0.00000000000E+00  0.70240186665E+03  0.70240186665E+03  0.00000000000E+00 0. -1.
         -2   -1    0    0    0  501 -0.00000000000E+00 -0.00000000000E+00 -0.28928791440E+01  0.28928791440E+01  0.00000000000E+00 0.  1.
         23    2    1    2    0    0  0.00000000000E+00  0.00000000000E+00  0.69950898751E+03  0.70529474580E+03  0.90154616315E+02 0.  0.
          2    1    3    3  502    0 -0.14591532204E+02 -0.19228150595E+02  0.64758294882E+03  0.64803264593E+03  0.00000000000E+00 0. -1.
         -2    1    3    3    0  502  0.14591532204E+02  0.19228150595E+02  0.51926038687E+02  0.57262099866E+02  0.00000000000E+00 0.  1.
<mgrwt>
<rscale>  0 0.90154616E+02</rscale>
<asrwt>0</asrwt>
<pdfrwt beam="1">  1        2 0.10806169E+00 0.90154616E+02</pdfrwt>
<pdfrwt beam="2">  1       -2 0.44505889E-03 0.90154616E+02</pdfrwt>
<totfact> 0.24449023E+05</totfact>
</mgrwt>
</event>
<event>
 5    1  0.4059427E+001  0.9234886E+02  0.7546771E-02  0.1297261E+00
         -2   -1    0    0    0  501 -0.00000000000E+00  0.00000000000E+00  0.91076797066E+01  0.91076797066E+01  0.00000000000E+00 0.  1.
          2   -1    0    0  501    0  0.00000000000E+00 -0.00000000000E+00 -0.23409674101E+03  0.23409674101E+03  0.00000000000E+00 0. -1.
         23    2    1    2    0    0  0.00000000000E+00  0.00000000000E+00 -0.22498906130E+03  0.24320442072E+03  0.92348863284E+02 0.  0.
          2    1    3    3  502    0 -0.46136122365E+02  0.17654485297E+00 -0.11742507910E+03  0.12616347394E+03  0.00000000000E+00 0. -1.
         -2    1    3    3    0  502  0.46136122365E+02 -0.17654485297E+00 -0.10756398220E+03  0.11704094678E+03  0.00000000000E+00 0.  1.
<mgrwt>
<rscale>  0 0.92348863E+02</rscale>
<asrwt>0</asrwt>
<pdfrwt beam="2">  1        2 0.36014879E-01 0.92348863E+02</pdfrwt>
<pdfrwt beam="1">  1       -2 0.14011817E-02 0.92348863E+02</pdfrwt>
<totfact> 0.15831026E+05</totfact>
</mgrwt>
</event>
<event>
 5    1  0.4059427E+001  0.8683437E+02  0.7546771E-02  0.1310704E+00
          2   -1    0    0  501    0  0.00000000000E+00  0.00000000000E+00  0.85762977736E+03  0.85762977736E+03  0.00000000000E+00 0. -1.
         -2   -1    0    0    0  501 -0.00000000000E+00 -0.00000000000E+00 -0.21979787388E+01  0.21979787388E+01  0.00000000000E+00 0.  1.
         23    2    1    2    0    0  0.00000000000E+00  0.00000000000E+00  0.85543179862E+03  0.85982775610E+03  0.86834371452E+02 0.  0.
          2    1    3    3  502    0  0.13907140082E+02 -0.38461213250E+02  0.57201881874E+03  0.57347903402E+03  0.00000000000E+00 0. -1.
         -2    1    3    3    0  502 -0.13907140082E+02  0.38461213250E+02  0.28341297988E+03  0.28634872207E+03  0.00000000000E+00 0.  1.
<mgrwt>
<rscale>  0 0.86834371E+02</rscale>
<asrwt>0</asrwt>
<pdfrwt beam="1">  1        2 0.13194278E+00 0.86834371E+02</pdfrwt>
<pdfrwt beam="2">  1       -2 0.33815126E-03 0.86834371E+02</pdfrwt>
<totfact> 0.28015077E+05</totfact>
</mgrwt>
</event>
<event>
 5    1  0.4059427E+001  0.8772795E+02  0.7546771E-02  0.1308449E+00
         -4   -1    0    0    0  501 -0.00000000000E+00  0.00000000000E+00  0.17245082426E+02  0.17245082426E+02  0.00000000000E+00 0.  1.
          4   -1    0    0  501    0  0.00000000000E+00 -0.00000000000E+00 -0.11157083418E+03  0.11157083418E+03  0.00000000000E+00 0. -1.
         23    2    1    2    0    0  0.00000000000E+00  0.00000000000E+00 -0.94325751755E+02  0.12881591661E+03  0.87727948382E+02 0.  0.
          2    1    3    3  502    0 -0.37118271593E+02  0.17361686476E+02 -0.70139443224E+02  0.81232602686E+02  0.00000000000E+00 0. -1.
         -2    1    3    3    0  502  0.37118271593E+02 -0.17361686476E+02 -0.24186308531E+02  0.47583313921E+02  0.00000000000E+00 0.  1.
<mgrwt>
<rscale>  0 0.87727948E+02</rscale>
<asrwt>0</asrwt>
<pdfrwt beam="2">  1        4 0.17164744E-01 0.87727948E+02</pdfrwt>
<pdfrwt beam="1">  1       -4 0.26530896E-02 0.87727948E+02</pdfrwt>
<totfact> 0.27486791E+04</totfact>
</mgrwt>
</event>
<event>
 5    1  0.4059427E+001  0.8741750E+02  0.7546771E-02  0.1309229E+00
         -2   -1    0    0    0  501 -0.00000000000E+00  0.00000000000E+00  0.27892553520E+01  0.27892553520E+01  0.00000000000E+00 0.  1.
          2   -1    0    0  501    0  0.00000000000E+00 -0.00000000000E+00 -0.68493364704E+03  0.68493364704E+03  0.00000000000E+00 0. -1.
         23    2    1    2    0    0  0.00000000000E+00  0.00000000000E+00 -0.68214439168E+03  0.68772290239E+03  0.87417500325E+02 0.  0.
          2    1    3    3  502    0 -0.20660057820E+02 -0.35400875917E+02 -0.22165923307E+03  0.22541711472E+03  0.00000000000E+00 0. -1.
         -2    1    3    3    0  502  0.20660057820E+02  0.35400875917E+02 -0.46048515861E+03  0.46230578766E+03  0.00000000000E+00 0.  1.
<mgrwt>
<rscale>  0 0.87417500E+02</rscale>
<asrwt>0</asrwt>
<pdfrwt beam="2">  1        2 0.10537461E+00 0.87417500E+02</pdfrwt>
<pdfrwt beam="1">  1       -2 0.42911539E-03 0.87417500E+02</pdfrwt>
<totfact> 0.26357238E+05</totfact>
</mgrwt>
</event>
<event>
 5    1  0.4059427E+001  0.9164493E+02  0.7546771E-02  0.1298916E+00
         -1   -1    0    0    0  501 -0.00000000000E+00  0.00000000000E+00  0.14416665507E+03  0.14416665507E+03  0.00000000000E+00 0.  1.
          1   -1    0    0  501    0  0.00000000000E+00 -0.00000000000E+00 -0.14564382897E+02  0.14564382897E+02  0.00000000000E+00 0. -1.
         23    2    1    2    0    0  0.00000000000E+00  0.00000000000E+00  0.12960227217E+03  0.15873103797E+03  0.91644931456E+02 0.  0.
          2    1    3    3  502    0 -0.19220659170E+02 -0.40418994072E+02  0.47780589710E+02  0.65468416613E+02  0.00000000000E+00 0. -1.
         -2    1    3    3    0  502  0.19220659170E+02  0.40418994072E+02  0.81821682464E+02  0.93262621355E+02  0.00000000000E+00 0.  1.
<mgrwt>
<rscale>  0 0.91644931E+02</rscale>
<asrwt>0</asrwt>
<pdfrwt beam="2">  1        1 0.22406744E-02 0.91644931E+02</pdfrwt>
<pdfrwt beam="1">  1       -1 0.22179484E-01 0.91644931E+02</pdfrwt>
<totfact> 0.74480594E+04</totfact>
</mgrwt>
</event>
<event>
 5    1  0.4059427E+001  0.9108715E+02  0.7546771E-02  0.1300240E+00
          2   -1    0    0  501    0  0.00000000000E+00  0.00000000000E+00  0.86126280177E+02  0.86126280177E+02  0.00000000000E+00 0. -1.
         -2   -1    0    0    0  501 -0.00000000000E+00 -0.00000000000E+00 -0.24083443384E+02  0.24083443384E+02  0.00000000000E+00 0.  1.
         23    2    1    2    0    0  0.00000000000E+00  0.00000000000E+00  0.62042836793E+02  0.11020972356E+03  0.91087153705E+02 0.  0.
          2    1    3    3  502    0 -0.33997798264E+02 -0.30130336936E+02  0.27095195571E+02  0.52894584919E+02  0.00000000000E+00 0. -1.
         -2    1    3    3    0  502  0.33997798264E+02  0.30130336936E+02  0.34947641222E+02  0.57315138643E+02  0.00000000000E+00 0.  1.
<mgrwt>
<rscale>  0 0.91087154E+02</rscale>
<asrwt>0</asrwt>
<pdfrwt beam="1">  1        2 0.13250197E-01 0.91087154E+02</pdfrwt>
<pdfrwt beam="2">  1       -2 0.37051452E-02 0.91087154E+02</pdfrwt>
<totfact> 0.11765187E+05</totfact>
</mgrwt>
</event>
<event>
 5    1  0.4059427E+001  0.9302690E+02  0.7546771E-02  0.1295683E+00
          2   -1    0    0  501    0  0.00000000000E+00  0.00000000000E+00  0.32609406726E+04  0.32609406726E+04  0.00000000000E+00 0. -1.
         -2   -1    0    0    0  501 -0.00000000000E+00 -0.00000000000E+00 -0.66345923803E+00  0.66345923803E+00  0.00000000000E+00 0.  1.
         23    2    1    2    0    0  0.00000000000E+00  0.00000000000E+00  0.32602772134E+04  0.32616041319E+04  0.93026903935E+02 0.  0.
          2    1    3    3  502    0 -0.26746197043E+02 -0.27414922896E+02  0.25554826721E+04  0.25557696735E+04  0.00000000000E+00 0. -1.
         -2    1    3    3    0  502  0.26746197043E+02  0.27414922896E+02  0.70479454133E+03  0.70583445832E+03  0.00000000000E+00 0.  1.
<mgrwt>
<rscale>  0 0.93026904E+02</rscale>
<asrwt>0</asrwt>
<pdfrwt beam="1">  1        2 0.50167035E+00 0.93026904E+02</pdfrwt>
<pdfrwt beam="2">  1       -2 0.10207326E-03 0.93026904E+02</pdfrwt>
<totfact> 0.76222368E+04</totfact>
</mgrwt>
</event>
<event>
 5    1  0.4059427E+001  0.9118613E+02  0.7546771E-02  0.1300004E+00
         -1   -1    0    0    0  501 -0.00000000000E+00  0.00000000000E+00  0.20315135493E+02  0.20315135493E+02  0.00000000000E+00 0.  1.
          1   -1    0    0  501    0  0.00000000000E+00 -0.00000000000E+00 -0.10232408524E+03  0.10232408524E+03  0.00000000000E+00 0. -1.
         23    2    1    2    0    0  0.00000000000E+00  0.00000000000E+00 -0.82008949751E+02  0.12263922074E+03  0.91186131752E+02 0.  0.
          2    1    3    3  502    0  0.32711870949E+02 -0.99735168901E+01 -0.81557937541E+02  0.88437744860E+02  0.00000000000E+00 0. -1.
         -2    1    3    3    0  502 -0.32711870949E+02  0.99735168901E+01 -0.45101221015E+00  0.34201475877E+02  0.00000000000E+00 0.  1.
<mgrwt>
<rscale>  0 0.91186132E+02</rscale>
<asrwt>0</asrwt>
<pdfrwt beam="2">  1        1 0.15742167E-01 0.91186132E+02</pdfrwt>
<pdfrwt beam="1">  1       -1 0.31254055E-02 0.91186132E+02</pdfrwt>
<totfact> 0.10482346E+05</totfact>
</mgrwt>
</event>
<event>
 5    1  0.4059427E+001  0.9295118E+02  0.7546771E-02  0.1295858E+00
          1   -1    0    0  501    0  0.00000000000E+00  0.00000000000E+00  0.15578802410E+02  0.15578802410E+02  0.00000000000E+00 0.  1.
         -1   -1    0    0    0  501 -0.00000000000E+00 -0.00000000000E+00 -0.13864868808E+03  0.13864868808E+03  0.00000000000E+00 0. -1.
         23    2    1    2    0    0  0.00000000000E+00  0.00000000000E+00 -0.12306988567E+03  0.15422749049E+03  0.92951181078E+02 0.  0.
          2    1    3    3  502    0  0.20950847362E+02  0.39051341156E+02 -0.84766267870E+02  0.95651792560E+02  0.00000000000E+00 0. -1.
         -2    1    3    3    0  502 -0.20950847362E+02 -0.39051341156E+02 -0.38303617796E+02  0.58575697927E+02  0.00000000000E+00 0.  1.
<mgrwt>
<rscale>  0 0.92951181E+02</rscale>
<asrwt>0</asrwt>
<pdfrwt beam="1">  1        1 0.23967388E-02 0.92951181E+02</pdfrwt>
<pdfrwt beam="2">  1       -1 0.21330568E-01 0.92951181E+02</pdfrwt>
<totfact> 0.72429414E+04</totfact>
</mgrwt>
</event>
<event>
 5    1  0.4059427E+001  0.9689496E+02  0.7546771E-02  0.1286964E+00
         -2   -1    0    0    0  501 -0.00000000000E+00  0.00000000000E+00  0.17697408681E+02  0.17697408681E+02  0.00000000000E+00 0.  1.
          2   -1    0    0  501    0  0.00000000000E+00 -0.00000000000E+00 -0.13262723786E+03  0.13262723786E+03  0.00000000000E+00 0. -1.
         23    2    1    2    0    0  0.00000000000E+00  0.00000000000E+00 -0.11492982918E+03  0.15032464654E+03  0.96894962318E+02 0.  0.
          2    1    3    3  502    0 -0.23611101101E+02  0.28619361821E+02 -0.10579867478E+03  0.11211561689E+03  0.00000000000E+00 0. -1.
         -2    1    3    3    0  502  0.23611101101E+02 -0.28619361821E+02 -0.91311544061E+01  0.38209029653E+02  0.00000000000E+00 0.  1.
<mgrwt>
<rscale>  0 0.96894962E+02</rscale>
<asrwt>0</asrwt>
<pdfrwt beam="2">  1        2 0.20404191E-01 0.96894962E+02</pdfrwt>
<pdfrwt beam="1">  1       -2 0.27226782E-02 0.96894962E+02</pdfrwt>
<totfact> 0.11357930E+05</totfact>
</mgrwt>
</event>
<event>
 5    1  0.4059427E+001  0.9220001E+02  0.7546771E-02  0.1297610E+00
         -1   -1    0    0    0  501 -0.00000000000E+00  0.00000000000E+00  0.65499902948E+01  0.65499902948E+01  0.00000000000E+00 0.  1.
          1   -1    0    0  501    0  0.00000000000E+00 -0.00000000000E+00 -0.32446006755E+03  0.32446006755E+03  0.00000000000E+00 0. -1.
         23    2    1    2    0    0  0.00000000000E+00  0.00000000000E+00 -0.31791007726E+03  0.33101005785E+03  0.92200006367E+02 0.  0.
          2    1    3    3  502    0  0.14925645372E+01  0.24146465345E+02 -0.18071310511E+02  0.30196883964E+02  0.00000000000E+00 0.  1.
         -2    1    3    3    0  502 -0.14925645372E+01 -0.24146465345E+02 -0.29983876675E+03  0.30081317388E+03  0.00000000000E+00 0. -1.
<mgrwt>
<rscale>  0 0.92200006E+02</rscale>
<asrwt>0</asrwt>
<pdfrwt beam="2">  1        1 0.49916914E-01 0.92200006E+02</pdfrwt>
<pdfrwt beam="1">  1       -1 0.10076912E-02 0.92200006E+02</pdfrwt>
<totfact> 0.12621575E+05</totfact>
</mgrwt>
</event>
<event>
 5    1  0.4059427E+001  0.8872198E+02  0.7546771E-02  0.1305976E+00
          2   -1    0    0  501    0  0.00000000000E+00  0.00000000000E+00  0.39576172212E+02  0.39576172212E+02  0.00000000000E+00 0. -1.
         -2   -1    0    0    0  501 -0.00000000000E+00 -0.00000000000E+00 -0.49724303073E+02  0.49724303073E+02  0.00000000000E+00 0.  1.
         23    2    1    2    0    0  0.00000000000E+00  0.00000000000E+00 -0.10148130861E+02  0.89300475284E+02  0.88721983330E+02 0.  0.
          2    1    3    3  502    0 -0.18242544296E+02 -0.11075162837E+02 -0.44217843837E+02  0.49098547513E+02  0.00000000000E+00 0.  1.
         -2    1    3    3    0  502  0.18242544296E+02  0.11075162837E+02  0.34069712976E+02  0.40201927772E+02  0.00000000000E+00 0. -1.
<mgrwt>
<rscale>  0 0.88721983E+02</rscale>
<asrwt>0</asrwt>
<pdfrwt beam="1">  1        2 0.60886419E-02 0.88721983E+02</pdfrwt>
<pdfrwt beam="2">  1       -2 0.76498927E-02 0.88721983E+02</pdfrwt>
<totfact> 0.10292742E+05</totfact>
</mgrwt>
</event>
<event>
 5    1  0.4059427E+001  0.9069724E+02  0.7546771E-02  0.1301172E+00
         -2   -1    0    0    0  501 -0.00000000000E+00  0.00000000000E+00  0.20844231689E+01  0.20844231689E+01  0.00000000000E+00 0.  1.
          2   -1    0    0  501    0  0.00000000000E+00 -0.00000000000E+00 -0.98660263330E+03  0.98660263330E+03  0.00000000000E+00 0. -1.
         23    2    1    2    0    0  0.00000000000E+00  0.00000000000E+00 -0.98451821013E+03  0.98868705647E+03  0.90697241135E+02 0.  0.
          2    1    3    3  502    0 -0.30658017819E+02 -0.31631725155E+02 -0.60967479616E+03  0.61126413045E+03  0.00000000000E+00 0. -1.
         -2    1    3    3    0  502  0.30658017819E+02  0.31631725155E+02 -0.37484341397E+03  0.37742292602E+03  0.00000000000E+00 0.  1.
<mgrwt>
<rscale>  0 0.90697241E+02</rscale>
<asrwt>0</asrwt>
<pdfrwt beam="2">  1        2 0.15178454E+00 0.90697241E+02</pdfrwt>
<pdfrwt beam="1">  1       -2 0.32068150E-03 0.90697241E+02</pdfrwt>
<totfact> 0.25334406E+05</totfact>
</mgrwt>
</event>
<event>
 5    1  0.4059427E+001  0.9034510E+02  0.7546771E-02  0.1302018E+00
          2   -1    0    0  501    0  0.00000000000E+00  0.00000000000E+00  0.14898185887E+04  0.14898185887E+04  0.00000000000E+00 0.  1.
         -2   -1    0    0    0  501 -0.00000000000E+00 -0.00000000000E+00 -0.13696696929E+01  0.13696696929E+01  0.00000000000E+00 0. -1.
         23    2    1    2    0    0  0.00000000000E+00  0.00000000000E+00  0.14884489190E+04  0.14911882584E+04  0.90345102109E+02 0.  0.
          2    1    3    3  502    0  0.13949902474E+02 -0.25203805464E+02  0.16990819446E+03  0.17233289336E+03  0.00000000000E+00 0. -1.
         -2    1    3    3    0  502 -0.13949902474E+02  0.25203805464E+02  0.13185407245E+04  0.13188553650E+04  0.00000000000E+00 0.  1.
<mgrwt>
<rscale>  0 0.90345102E+02</rscale>
<asrwt>0</asrwt>
<pdfrwt beam="1">  1        2 0.22920156E+00 0.90345102E+02</pdfrwt>
<pdfrwt beam="2">  1       -2 0.21071961E-03 0.90345102E+02</pdfrwt>
<totfact> 0.24234659E+05</totfact>
</mgrwt>
</event>
<event>
 5    1  0.4059427E+001  0.9140589E+02  0.7546771E-02  0.1299482E+00
         -1   -1    0    0    0  501 -0.00000000000E+00  0.00000000000E+00  0.51176981995E+02  0.51176981995E+02  0.00000000000E+00 0. -1.
          1   -1    0    0  501    0  0.00000000000E+00 -0.00000000000E+00 -0.40814430795E+02  0.40814430795E+02  0.00000000000E+00 0.  1.
         23    2    1    2    0    0  0.00000000000E+00  0.00000000000E+00  0.10362551199E+02  0.91991412790E+02  0.91405894557E+02 0.  0.
          2    1    3    3  502    0 -0.24638968145E+02  0.31113583100E+02  0.27989759067E+02  0.48565012274E+02  0.00000000000E+00 0. -1.
         -2    1    3    3    0  502  0.24638968145E+02 -0.31113583100E+02 -0.17627207867E+02  0.43426400516E+02  0.00000000000E+00 0.  1.
<mgrwt>
<rscale>  0 0.91405895E+02</rscale>
<asrwt>0</asrwt>
<pdfrwt beam="2">  1        1 0.62791432E-02 0.91405895E+02</pdfrwt>
<pdfrwt beam="1">  1       -1 0.78733818E-02 0.91405895E+02</pdfrwt>
<totfact> 0.90299131E+04</totfact>
</mgrwt>
</event>
<event>
 5    1  0.4059427E+001  0.9080198E+02  0.7546771E-02  0.1300921E+00
          1   -1    0    0  501    0  0.00000000000E+00  0.00000000000E+00  0.19480951087E+04  0.19480951087E+04  0.00000000000E+00 0. -1.
         -1   -1    0    0    0  501 -0.00000000000E+00 -0.00000000000E+00 -0.10580847504E+01  0.10580847504E+01  0.00000000000E+00 0.  1.
         23    2    1    2    0    0  0.00000000000E+00  0.00000000000E+00  0.19470370239E+04  0.19491531934E+04  0.90801976340E+02 0.  0.
          2    1    3    3  502    0 -0.29898637888E+02 -0.16708352980E+02  0.33379199775E+03  0.33554462500E+03  0.00000000000E+00 0.  1.
         -2    1    3    3    0  502  0.29898637888E+02  0.16708352980E+02  0.16132450262E+04  0.16136085684E+04  0.00000000000E+00 0. -1.
<mgrwt>
<rscale>  0 0.90801976E+02</rscale>
<asrwt>0</asrwt>
<pdfrwt beam="1">  1        1 0.29970407E+00 0.90801976E+02</pdfrwt>
<pdfrwt beam="2">  1       -1 0.16278383E-03 0.90801976E+02</pdfrwt>
<totfact> 0.83782754E+04</totfact>
</mgrwt>
</event>
<event>
 5    1  0.4059427E+001  0.9377287E+02  0.7546771E-02  0.1293964E+00
          1   -1    0    0  501    0  0.00000000000E+00  0.00000000000E+00  0.19698089850E+02  0.19698089850E+02  0.00000000000E+00 0. -1.
         -1   -1    0    0    0  501 -0.00000000000E+00 -0.00000000000E+00 -0.11160158156E+03  0.11160158156E+03  0.00000000000E+00 0.  1.
         23    2    1    2    0    0  0.00000000000E+00  0.00000000000E+00 -0.91903491713E+02  0.13129967141E+03  0.93772874139E+02 0.  0.
          2    1    3    3  502    0  0.89551879649E+01  0.18524383062E+02  0.13039062233E+02  0.24359090772E+02  0.00000000000E+00 0. -1.
         -2    1    3    3    0  502 -0.89551879649E+01 -0.18524383062E+02 -0.10494255395E+03  0.10694058064E+03  0.00000000000E+00 0.  1.
<mgrwt>
<rscale>  0 0.93772874E+02</rscale>
<asrwt>0</asrwt>
<pdfrwt beam="1">  1        1 0.30304754E-02 0.93772874E+02</pdfrwt>
<pdfrwt beam="2">  1       -1 0.17169474E-01 0.93772874E+02</pdfrwt>
<totfact> 0.74103177E+04</totfact>
</mgrwt>
</event>
<event>
 5    1  0.4059427E+001  0.9421856E+02  0.7546771E-02  0.1292946E+00
          1   -1    0    0  501    0  0.00000000000E+00  0.00000000000E+00  0.10178897063E+04  0.10178897063E+04  0.00000000000E+00 0. -1.
         -1   -1    0    0    0  501 -0.00000000000E+00 -0.00000000000E+00 -0.21802798873E+01  0.21802798873E+01  0.00000000000E+00 0.  1.
         23    2    1    2    0    0  0.00000000000E+00  0.00000000000E+00  0.10157094264E+04  0.10200699862E+04  0.94218564076E+02 0.  0.
          2    1    3    3  502    0 -0.33309793137E+02  0.32863620530E+02  0.44882762518E+03  0.45126023202E+03  0.00000000000E+00 0.  1.
         -2    1    3    3    0  502  0.33309793137E+02 -0.32863620530E+02  0.56688180121E+03  0.56880975415E+03  0.00000000000E+00 0. -1.
<mgrwt>
<rscale>  0 0.94218564E+02</rscale>
<asrwt>0</asrwt>
<pdfrwt beam="1">  1        1 0.15659804E+00 0.94218564E+02</pdfrwt>
<pdfrwt beam="2">  1       -1 0.33542849E-03 0.94218564E+02</pdfrwt>
<totfact> 0.12409155E+05</totfact>
</mgrwt>
</event>
<event>
 5    1  0.4059427E+001  0.8957109E+02  0.7546771E-02  0.1303894E+00
          2   -1    0    0  501    0  0.00000000000E+00  0.00000000000E+00  0.72783651308E+03  0.72783651308E+03  0.00000000000E+00 0. -1.
         -2   -1    0    0    0  501 -0.00000000000E+00 -0.00000000000E+00 -0.27557632025E+01  0.27557632025E+01  0.00000000000E+00 0.  1.
         23    2    1    2    0    0  0.00000000000E+00  0.00000000000E+00  0.72508074988E+03  0.73059227628E+03  0.89571090875E+02 0.  0.
          2    1    3    3  502    0 -0.26475713041E+02 -0.15251950609E+02  0.62961766012E+03  0.63035861485E+03  0.00000000000E+00 0. -1.
         -2    1    3    3    0  502  0.26475713041E+02  0.15251950609E+02  0.95463089754E+02  0.10023366143E+03  0.00000000000E+00 0.  1.
<mgrwt>
<rscale>  0 0.89571091E+02</rscale>
<asrwt>0</asrwt>
<pdfrwt beam="1">  1        2 0.11197469E+00 0.89571091E+02</pdfrwt>
<pdfrwt beam="2">  1       -2 0.42396415E-03 0.89571091E+02</pdfrwt>
<totfact> 0.25069924E+05</totfact>
</mgrwt>
</event>
<event>
 5    1  0.4059427E+001  0.9116676E+02  0.7546771E-02  0.1300051E+00
         -2   -1    0    0    0  501 -0.00000000000E+00  0.00000000000E+00  0.52279988826E+02  0.52279988826E+02  0.00000000000E+00 0.  1.
          2   -1    0    0  501    0  0.00000000000E+00 -0.00000000000E+00 -0.39744548519E+02  0.39744548519E+02  0.00000000000E+00 0. -1.
         23    2    1    2    0    0  0.00000000000E+00  0.00000000000E+00  0.12535440308E+02  0.92024537345E+02  0.91166760444E+02 0.  0.
          2    1    3    3  502    0 -0.16194497051E+02  0.24856471391E+02 -0.28666266633E+02  0.41253614962E+02  0.00000000000E+00 0. -1.
         -2    1    3    3    0  502  0.16194497051E+02 -0.24856471391E+02  0.41201706941E+02  0.50770922383E+02  0.00000000000E+00 0.  1.
<mgrwt>
<rscale>  0 0.91166760E+02</rscale>
<asrwt>0</asrwt>
<pdfrwt beam="2">  1        2 0.61145459E-02 0.91166760E+02</pdfrwt>
<pdfrwt beam="1">  1       -2 0.80430752E-02 0.91166760E+02</pdfrwt>
<totfact> 0.95260909E+04</totfact>
</mgrwt>
</event>
<event>
 5    1  0.4059427E+001  0.9588699E+02  0.7546771E-02  0.1289191E+00
          4   -1    0    0  501    0  0.00000000000E+00  0.00000000000E+00  0.62435574749E+02  0.62435574749E+02  0.00000000000E+00 0. -1.
         -4   -1    0    0    0  501 -0.00000000000E+00 -0.00000000000E+00 -0.36815210941E+02  0.36815210941E+02  0.00000000000E+00 0.  1.
         23    2    1    2    0    0  0.00000000000E+00  0.00000000000E+00  0.25620363808E+02  0.99250785690E+02  0.95886992957E+02 0.  0.
          2    1    3    3  502    0 -0.34550426174E+02  0.31992172338E+02  0.34744751801E+01  0.47215495522E+02  0.00000000000E+00 0. -1.
         -2    1    3    3    0  502  0.34550426174E+02 -0.31992172338E+02  0.22145888628E+02  0.52035290167E+02  0.00000000000E+00 0.  1.
<mgrwt>
<rscale>  0 0.95886993E+02</rscale>
<asrwt>0</asrwt>
<pdfrwt beam="1">  1        4 0.96054731E-02 0.95886993E+02</pdfrwt>
<pdfrwt beam="2">  1       -4 0.56638786E-02 0.95886993E+02</pdfrwt>
<totfact> 0.23106059E+04</totfact>
</mgrwt>
</event>
<event>
 5    1  0.4059427E+001  0.9982810E+02  0.7546771E-02  0.1280658E+00
         -2   -1    0    0    0  501 -0.00000000000E+00  0.00000000000E+00  0.13405012954E+01  0.13405012954E+01  0.00000000000E+00 0.  1.
          2   -1    0    0  501    0  0.00000000000E+00 -0.00000000000E+00 -0.18585674989E+04  0.18585674989E+04  0.00000000000E+00 0. -1.
         23    2    1    2    0    0  0.00000000000E+00  0.00000000000E+00 -0.18572269976E+04  0.18599080002E+04  0.99828095041E+02 0.  0.
          2    1    3    3  502    0  0.74500393837E+01 -0.40971395257E+02 -0.14413088932E+04  0.14419103592E+04  0.00000000000E+00 0. -1.
         -2    1    3    3    0  502 -0.74500393837E+01  0.40971395257E+02 -0.41591810435E+03  0.41799764095E+03  0.00000000000E+00 0.  1.
<mgrwt>
<rscale>  0 0.99828095E+02</rscale>
<asrwt>0</asrwt>
<pdfrwt beam="2">  1        2 0.28593259E+00 0.99828095E+02</pdfrwt>
<pdfrwt beam="1">  1       -2 0.20623160E-03 0.99828095E+02</pdfrwt>
<totfact> 0.16466455E+05</totfact>
</mgrwt>
</event>
<event>
 5    1  0.4059427E+001  0.9281741E+02  0.7546771E-02  0.1296169E+00
          2   -1    0    0  501    0  0.00000000000E+00  0.00000000000E+00  0.13618450954E+03  0.13618450954E+03  0.00000000000E+00 0. -1.
         -2   -1    0    0    0  501 -0.00000000000E+00 -0.00000000000E+00 -0.15815073126E+02  0.15815073126E+02  0.00000000000E+00 0.  1.
         23    2    1    2    0    0  0.00000000000E+00  0.00000000000E+00  0.12036943641E+03  0.15199958266E+03  0.92817411665E+02 0.  0.
          2    1    3    3  502    0 -0.35054010617E+02  0.27368495724E+02  0.81907091852E+02  0.93201877203E+02  0.00000000000E+00 0. -1.
         -2    1    3    3    0  502  0.35054010617E+02 -0.27368495724E+02  0.38462344559E+02  0.58797705461E+02  0.00000000000E+00 0.  1.
<mgrwt>
<rscale>  0 0.92817412E+02</rscale>
<asrwt>0</asrwt>
<pdfrwt beam="1">  1        2 0.20951462E-01 0.92817412E+02</pdfrwt>
<pdfrwt beam="2">  1       -2 0.24330883E-02 0.92817412E+02</pdfrwt>
<totfact> 0.12891477E+05</totfact>
</mgrwt>
</event>
<event>
 5    1  0.4059427E+001  0.8518145E+02  0.7546771E-02  0.1314959E+00
         -1   -1    0    0    0  501 -0.00000000000E+00  0.00000000000E+00  0.64349415020E+03  0.64349415020E+03  0.00000000000E+00 0.  1.
          1   -1    0    0  501    0  0.00000000000E+00 -0.00000000000E+00 -0.28189378641E+01  0.28189378641E+01  0.00000000000E+00 0. -1.
         23    2    1    2    0    0  0.00000000000E+00  0.00000000000E+00  0.64067521234E+03  0.64631308807E+03  0.85181453975E+02 0.  0.
          2    1    3    3  502    0 -0.29496150955E+02  0.24298494078E+02  0.17767465085E+03  0.18173805680E+03  0.00000000000E+00 0. -1.
         -2    1    3    3    0  502  0.29496150955E+02 -0.24298494078E+02  0.46300056148E+03  0.46457503126E+03  0.00000000000E+00 0.  1.
<mgrwt>
<rscale>  0 0.85181454E+02</rscale>
<asrwt>0</asrwt>
<pdfrwt beam="2">  1        1 0.43368326E-03 0.85181454E+02</pdfrwt>
<pdfrwt beam="1">  1       -1 0.98998983E-01 0.85181454E+02</pdfrwt>
<totfact> 0.47164217E+04</totfact>
</mgrwt>
</event>
<event>
 5    1  0.4059427E+001  0.9146546E+02  0.7546771E-02  0.1299341E+00
          2   -1    0    0  501    0  0.00000000000E+00  0.00000000000E+00  0.10188873843E+03  0.10188873843E+03  0.00000000000E+00 0. -1.
         -2   -1    0    0    0  501 -0.00000000000E+00 -0.00000000000E+00 -0.20527122050E+02  0.20527122050E+02  0.00000000000E+00 0.  1.
         23    2    1    2    0    0  0.00000000000E+00  0.00000000000E+00  0.81361616383E+02  0.12241586048E+03  0.91465459477E+02 0.  0.
          2    1    3    3  502    0 -0.16408393785E+02  0.29099414939E+02  0.82481917049E+02  0.88990325185E+02  0.00000000000E+00 0. -1.
         -2    1    3    3    0  502  0.16408393785E+02 -0.29099414939E+02 -0.11203006658E+01  0.33425535299E+02  0.00000000000E+00 0.  1.
<mgrwt>
<rscale>  0 0.91465459E+02</rscale>
<asrwt>0</asrwt>
<pdfrwt beam="1">  1        2 0.15675190E-01 0.91465459E+02</pdfrwt>
<pdfrwt beam="2">  1       -2 0.31580189E-02 0.91465459E+02</pdfrwt>
<totfact> 0.12230969E+05</totfact>
</mgrwt>
</event>
<event>
 5    1  0.4059427E+001  0.9098183E+02  0.7546771E-02  0.1300491E+00
          2   -1    0    0  501    0  0.00000000000E+00  0.00000000000E+00  0.80563756489E+01  0.80563756489E+01  0.00000000000E+00 0. -1.
         -2   -1    0    0    0  501 -0.00000000000E+00 -0.00000000000E+00 -0.25686779385E+03  0.25686779385E+03  0.00000000000E+00 0.  1.
         23    2    1    2    0    0  0.00000000000E+00  0.00000000000E+00 -0.24881141820E+03  0.26492416950E+03  0.90981832019E+02 0.  0.
          2    1    3    3  502    0 -0.32861833772E+02  0.53116025751E+01 -0.34124227241E+02  0.47671544191E+02  0.00000000000E+00 0. -1.
         -2    1    3    3    0  502  0.32861833772E+02 -0.53116025751E+01 -0.21468719096E+03  0.21725262531E+03  0.00000000000E+00 0.  1.
<mgrwt>
<rscale>  0 0.90981832E+02</rscale>
<asrwt>0</asrwt>
<pdfrwt beam="1">  1        2 0.12394423E-02 0.90981832E+02</pdfrwt>
<pdfrwt beam="2">  1       -2 0.39518125E-01 0.90981832E+02</pdfrwt>
<totfact> 0.55721361E+04</totfact>
</mgrwt>
</event>
<event>
 5    1  0.4059427E+001  0.9048944E+02  0.7546771E-02  0.1301671E+00
          1   -1    0    0  501    0  0.00000000000E+00  0.00000000000E+00  0.78530922258E+03  0.78530922258E+03  0.00000000000E+00 0. -1.
         -1   -1    0    0    0  501 -0.00000000000E+00 -0.00000000000E+00 -0.26067242182E+01  0.26067242182E+01  0.00000000000E+00 0.  1.
         23    2    1    2    0    0  0.00000000000E+00  0.00000000000E+00  0.78270249836E+03  0.78791594679E+03  0.90489437378E+02 0.  0.
          2    1    3    3  502    0 -0.31567635726E+02 -0.19464462154E+02  0.61701970582E+03  0.61813323667E+03  0.00000000000E+00 0. -1.
         -2    1    3    3    0  502  0.31567635726E+02  0.19464462154E+02  0.16568279254E+03  0.16978271012E+03  0.00000000000E+00 0.  1.
<mgrwt>
<rscale>  0 0.90489437E+02</rscale>
<asrwt>0</asrwt>
<pdfrwt beam="1">  1        1 0.12081661E+00 0.90489437E+02</pdfrwt>
<pdfrwt beam="2">  1       -1 0.40103512E-03 0.90489437E+02</pdfrwt>
<totfact> 0.14437052E+05</totfact>
</mgrwt>
</event>
<event>
 5    1  0.4059427E+001  0.9109799E+02  0.7546771E-02  0.1300214E+00
         -3   -1    0    0    0  501 -0.00000000000E+00  0.00000000000E+00  0.69783339094E+01  0.69783339094E+01  0.00000000000E+00 0.  1.
          3   -1    0    0  501    0  0.00000000000E+00 -0.00000000000E+00 -0.29730746185E+03  0.29730746185E+03  0.00000000000E+00 0. -1.
         23    2    1    2    0    0  0.00000000000E+00  0.00000000000E+00 -0.29032912794E+03  0.30428579576E+03  0.91097985544E+02 0.  0.
          2    1    3    3  502    0 -0.17223175276E+02 -0.30611329844E+02 -0.24203158164E+03  0.24456691885E+03  0.00000000000E+00 0. -1.
         -2    1    3    3    0  502  0.17223175276E+02  0.30611329844E+02 -0.48297546298E+02  0.59718876913E+02  0.00000000000E+00 0.  1.
<mgrwt>
<rscale>  0 0.91097986E+02</rscale>
<asrwt>0</asrwt>
<pdfrwt beam="2">  1        3 0.45739606E-01 0.91097986E+02</pdfrwt>
<pdfrwt beam="1">  1       -3 0.10735899E-02 0.91097986E+02</pdfrwt>
<totfact> 0.23921919E+04</totfact>
</mgrwt>
</event>
<event>
 4    1  0.4059427E+001  0.1545887E+03  0.7546771E-02  0.1194945E+00
          1   -1    0    0  501    0  0.00000000000E+00  0.00000000000E+00  0.14144485685E+03  0.14144485685E+03  0.00000000000E+00 0. -1.
         -1   -1    0    0    0  501 -0.00000000000E+00 -0.00000000000E+00 -0.42238475695E+02  0.42238475695E+02  0.00000000000E+00 0.  1.
          2    1    1    2  502    0  0.65569361596E+02 -0.16581210061E+02  0.94064002603E+02  0.11585471200E+03  0.00000000000E+00 0. -1.
         -2    1    1    2    0  502 -0.65569361596E+02  0.16581210061E+02  0.51423785484E+01  0.67828620540E+02  0.00000000000E+00 0.  1.
<mgrwt>
<rscale>  0 0.15458868E+03</rscale>
<asrwt>0</asrwt>
<pdfrwt beam="1">  1        1 0.21760747E-01 0.15458868E+03</pdfrwt>
<pdfrwt beam="2">  1       -1 0.64982271E-02 0.15458868E+03</pdfrwt>
<totfact> 0.25349101E+04</totfact>
</mgrwt>
</event>
<event>
 5    1  0.4059427E+001  0.1043526E+03  0.7546771E-02  0.1271400E+00
          1   -1    0    0  501    0  0.00000000000E+00  0.00000000000E+00  0.53323746194E+03  0.53323746194E+03  0.00000000000E+00 0. -1.
         -1   -1    0    0    0  501 -0.00000000000E+00 -0.00000000000E+00 -0.51053568909E+01  0.51053568909E+01  0.00000000000E+00 0.  1.
         23    2    1    2    0    0  0.00000000000E+00  0.00000000000E+00  0.52813210505E+03  0.53834281883E+03  0.10435262432E+03 0.  0.
          2    1    3    3  502    0  0.10675114392E+02  0.48429784893E+02  0.34772355000E+03  0.35124218049E+03  0.00000000000E+00 0. -1.
         -2    1    3    3    0  502 -0.10675114392E+02 -0.48429784893E+02  0.18040855505E+03  0.18710063834E+03  0.00000000000E+00 0.  1.
<mgrwt>
<rscale>  0 0.10435262E+03</rscale>
<asrwt>0</asrwt>
<pdfrwt beam="1">  1        1 0.82036489E-01 0.10435262E+03</pdfrwt>
<pdfrwt beam="2">  1       -1 0.78543994E-03 0.10435262E+03</pdfrwt>
<totfact> 0.97853939E+04</totfact>
</mgrwt>
</event>
<event>
 5    1  0.4059427E+001  0.9202735E+02  0.7546771E-02  0.1298015E+00
          4   -1    0    0  501    0  0.00000000000E+00  0.00000000000E+00  0.11728144152E+03  0.11728144152E+03  0.00000000000E+00 0. -1.
         -4   -1    0    0    0  501 -0.00000000000E+00 -0.00000000000E+00 -0.18052798102E+02  0.18052798102E+02  0.00000000000E+00 0.  1.
         23    2    1    2    0    0  0.00000000000E+00  0.00000000000E+00  0.99228643414E+02  0.13533423962E+03  0.92027347778E+02 0.  0.
          2    1    3    3  502    0 -0.12632098719E+02 -0.42896227511E+02  0.33666623460E+02  0.55974081394E+02  0.00000000000E+00 0. -1.
         -2    1    3    3    0  502  0.12632098719E+02  0.42896227511E+02  0.65562019955E+02  0.79360158224E+02  0.00000000000E+00 0.  1.
<mgrwt>
<rscale>  0 0.92027348E+02</rscale>
<asrwt>0</asrwt>
<pdfrwt beam="1">  1        4 0.18043298E-01 0.92027348E+02</pdfrwt>
<pdfrwt beam="2">  1       -4 0.27773536E-02 0.92027348E+02</pdfrwt>
<totfact> 0.23825657E+04</totfact>
</mgrwt>
</event>
<event>
 5    1  0.4059427E+001  0.9402107E+02  0.7546771E-02  0.1293396E+00
          1   -1    0    0  501    0  0.00000000000E+00  0.00000000000E+00  0.33819585544E+02  0.33819585544E+02  0.00000000000E+00 0. -1.
         -1   -1    0    0    0  501 -0.00000000000E+00 -0.00000000000E+00 -0.65346460089E+02  0.65346460089E+02  0.00000000000E+00 0.  1.
         23    2    1    2    0    0  0.00000000000E+00  0.00000000000E+00 -0.31526874546E+02  0.99166045633E+02  0.94021065660E+02 0.  0.
          2    1    3    3  502    0 -0.31131541505E+01  0.20733952532E+02  0.28615176555E+02  0.35474171528E+02  0.00000000000E+00 0. -1.
         -2    1    3    3    0  502  0.31131541505E+01 -0.20733952532E+02 -0.60142051100E+02  0.63691874104E+02  0.00000000000E+00 0.  1.
<mgrwt>
<rscale>  0 0.94021066E+02</rscale>
<asrwt>0</asrwt>
<pdfrwt beam="1">  1        1 0.52030132E-02 0.94021066E+02</pdfrwt>
<pdfrwt beam="2">  1       -1 0.10053302E-01 0.94021066E+02</pdfrwt>
<totfact> 0.80915801E+04</totfact>
</mgrwt>
</event>
<event>
 5    1  0.4059427E+001  0.9113050E+02  0.7546771E-02  0.1300137E+00
         -2   -1    0    0    0  501 -0.00000000000E+00  0.00000000000E+00  0.14700842919E+01  0.14700842919E+01  0.00000000000E+00 0.  1.
          2   -1    0    0  501    0  0.00000000000E+00 -0.00000000000E+00 -0.14122946020E+04  0.14122946020E+04  0.00000000000E+00 0. -1.
         23    2    1    2    0    0  0.00000000000E+00  0.00000000000E+00 -0.14108245178E+04  0.14137646863E+04  0.91130502250E+02 0.  0.
          2    1    3    3  502    0  0.25459044691E+01 -0.38155812193E+02 -0.10897761150E+04  0.10904468481E+04  0.00000000000E+00 0. -1.
         -2    1    3    3    0  502 -0.25459044691E+01  0.38155812193E+02 -0.32104840277E+03  0.32331783829E+03  0.00000000000E+00 0.  1.
<mgrwt>
<rscale>  0 0.91130502E+02</rscale>
<asrwt>0</asrwt>
<pdfrwt beam="2">  1        2 0.21727565E+00 0.91130502E+02</pdfrwt>
<pdfrwt beam="1">  1       -2 0.22616727E-03 0.91130502E+02</pdfrwt>
<totfact> 0.24111177E+05</totfact>
</mgrwt>
</event>
<event>
 5    1  0.4059427E+001  0.8948749E+02  0.7546771E-02  0.1304098E+00
          1   -1    0    0  501    0  0.00000000000E+00  0.00000000000E+00  0.15369272294E+04  0.15369272294E+04  0.00000000000E+00 0. -1.
         -1   -1    0    0    0  501 -0.00000000000E+00 -0.00000000000E+00 -0.13026009670E+01  0.13026009670E+01  0.00000000000E+00 0.  1.
         23    2    1    2    0    0  0.00000000000E+00  0.00000000000E+00  0.15356246284E+04  0.15382298303E+04  0.89487493992E+02 0.  0.
          2    1    3    3  502    0 -0.24233640307E+02 -0.23331462115E+02  0.26069031792E+03  0.26285179912E+03  0.00000000000E+00 0.  1.
         -2    1    3    3    0  502  0.24233640307E+02  0.23331462115E+02  0.12749343105E+04  0.12753780312E+04  0.00000000000E+00 0. -1.
<mgrwt>
<rscale>  0 0.89487494E+02</rscale>
<asrwt>0</asrwt>
<pdfrwt beam="1">  1        1 0.23644889E+00 0.89487494E+02</pdfrwt>
<pdfrwt beam="2">  1       -1 0.20040138E-03 0.89487494E+02</pdfrwt>
<totfact> 0.11376739E+05</totfact>
</mgrwt>
</event>
<event>
 5    1  0.4059427E+001  0.9136980E+02  0.7546771E-02  0.1299568E+00
         -2   -1    0    0    0  501 -0.00000000000E+00  0.00000000000E+00  0.74182454910E+02  0.74182454910E+02  0.00000000000E+00 0.  1.
          2   -1    0    0  501    0  0.00000000000E+00 -0.00000000000E+00 -0.28134819331E+02  0.28134819331E+02  0.00000000000E+00 0. -1.
         23    2    1    2    0    0  0.00000000000E+00  0.00000000000E+00  0.46047635579E+02  0.10231727424E+03  0.91369797338E+02 0.  0.
          2    1    3    3  502    0  0.35853488273E+02  0.28299271059E+02  0.22029385097E+02  0.50711095153E+02  0.00000000000E+00 0.  1.
         -2    1    3    3    0  502 -0.35853488273E+02 -0.28299271059E+02  0.24018250482E+02  0.51606179088E+02  0.00000000000E+00 0. -1.
<mgrwt>
<rscale>  0 0.91369797E+02</rscale>
<asrwt>0</asrwt>
<pdfrwt beam="2">  1        2 0.43284338E-02 0.91369797E+02</pdfrwt>
<pdfrwt beam="1">  1       -2 0.11412685E-01 0.91369797E+02</pdfrwt>
<totfact> 0.86405279E+04</totfact>
</mgrwt>
</event>
<event>
 5    1  0.4059427E+001  0.9127303E+02  0.7546771E-02  0.1299798E+00
          1   -1    0    0  501    0  0.00000000000E+00  0.00000000000E+00  0.36351741181E+02  0.36351741181E+02  0.00000000000E+00 0. -1.
         -1   -1    0    0    0  501 -0.00000000000E+00 -0.00000000000E+00 -0.57292758456E+02  0.57292758456E+02  0.00000000000E+00 0.  1.
         23    2    1    2    0    0  0.00000000000E+00  0.00000000000E+00 -0.20941017276E+02  0.93644499637E+02  0.91273030560E+02 0.  0.
          2    1    3    3  502    0 -0.43289435809E+01  0.29293942068E+02  0.25156589964E+02  0.38855228902E+02  0.00000000000E+00 0. -1.
         -2    1    3    3    0  502  0.43289435809E+01 -0.29293942068E+02 -0.46097607240E+02  0.54789270735E+02  0.00000000000E+00 0.  1.
<mgrwt>
<rscale>  0 0.91273031E+02</rscale>
<asrwt>0</asrwt>
<pdfrwt beam="1">  1        1 0.55925756E-02 0.91273031E+02</pdfrwt>
<pdfrwt beam="2">  1       -1 0.88142706E-02 0.91273031E+02</pdfrwt>
<totfact> 0.89079244E+04</totfact>
</mgrwt>
</event>
<event>
 5    1  0.4059427E+001  0.8597535E+02  0.7546771E-02  0.1312901E+00
         -2   -1    0    0    0  501 -0.00000000000E+00  0.00000000000E+00  0.28716437472E+02  0.28716437472E+02  0.00000000000E+00 0.  1.
          2   -1    0    0  501    0  0.00000000000E+00 -0.00000000000E+00 -0.64351303967E+02  0.64351303967E+02  0.00000000000E+00 0. -1.
         23    2    1    2    0    0  0.00000000000E+00  0.00000000000E+00 -0.35634866495E+02  0.93067741438E+02  0.85975349876E+02 0.  0.
          2    1    3    3  502    0 -0.26927258146E+02  0.33281981677E+02 -0.13600894469E+02  0.44919392984E+02  0.00000000000E+00 0.  1.
         -2    1    3    3    0  502  0.26927258146E+02 -0.33281981677E+02 -0.22033972026E+02  0.48148348455E+02  0.00000000000E+00 0. -1.
<mgrwt>
<rscale>  0 0.85975350E+02</rscale>
<asrwt>0</asrwt>
<pdfrwt beam="2">  1        2 0.99002006E-02 0.85975350E+02</pdfrwt>
<pdfrwt beam="1">  1       -2 0.44179135E-02 0.85975350E+02</pdfrwt>
<totfact> 0.12736971E+05</totfact>
</mgrwt>
</event>
<event>
 5    1  0.4059427E+001  0.8943139E+02  0.7546771E-02  0.1304235E+00
         -1   -1    0    0    0  501 -0.00000000000E+00  0.00000000000E+00  0.52778477504E+01  0.52778477504E+01  0.00000000000E+00 0.  1.
          1   -1    0    0  501    0  0.00000000000E+00 -0.00000000000E+00 -0.37884631541E+03  0.37884631541E+03  0.00000000000E+00 0. -1.
         23    2    1    2    0    0  0.00000000000E+00  0.00000000000E+00 -0.37356846766E+03  0.38412416316E+03  0.89431385397E+02 0.  0.
          2    1    3    3  502    0 -0.29462778157E+02  0.33601089583E+02 -0.18012371416E+03  0.18558459236E+03  0.00000000000E+00 0. -1.
         -2    1    3    3    0  502  0.29462778157E+02 -0.33601089583E+02 -0.19344475349E+03  0.19853957080E+03  0.00000000000E+00 0.  1.
<mgrwt>
<rscale>  0 0.89431385E+02</rscale>
<asrwt>0</asrwt>
<pdfrwt beam="2">  1        1 0.58284044E-01 0.89431385E+02</pdfrwt>
<pdfrwt beam="1">  1       -1 0.81197664E-03 0.89431385E+02</pdfrwt>
<totfact> 0.14070213E+05</totfact>
</mgrwt>
</event>
<event>
 5    1  0.4059427E+001  0.9213890E+02  0.7546771E-02  0.1297753E+00
         -2   -1    0    0    0  501 -0.00000000000E+00  0.00000000000E+00  0.13412094138E+01  0.13412094138E+01  0.00000000000E+00 0. -1.
          2   -1    0    0  501    0  0.00000000000E+00 -0.00000000000E+00 -0.15824480157E+04  0.15824480157E+04  0.00000000000E+00 0.  1.
         23    2    1    2    0    0  0.00000000000E+00  0.00000000000E+00 -0.15811068063E+04  0.15837892252E+04  0.92138898965E+02 0.  0.
          2    1    3    3  502    0  0.40061959017E+02  0.76399833950E+01 -0.42226239868E+03  0.42422737210E+03  0.00000000000E+00 0. -1.
         -2    1    3    3    0  502 -0.40061959017E+02 -0.76399833950E+01 -0.11588444077E+04  0.11595618531E+04  0.00000000000E+00 0.  1.
<mgrwt>
<rscale>  0 0.92138899E+02</rscale>
<asrwt>0</asrwt>
<pdfrwt beam="2">  1        2 0.24345392E+00 0.92138899E+02</pdfrwt>
<pdfrwt beam="1">  1       -2 0.20633959E-03 0.92138899E+02</pdfrwt>
<totfact> 0.22443996E+05</totfact>
</mgrwt>
</event>
<event>
 5    1  0.4059427E+001  0.7124193E+02  0.7546771E-02  0.1355920E+00
          2   -1    0    0  501    0  0.00000000000E+00  0.00000000000E+00  0.39660287120E+03  0.39660287120E+03  0.00000000000E+00 0. -1.
         -2   -1    0    0    0  501 -0.00000000000E+00 -0.00000000000E+00 -0.31993040707E+01  0.31993040707E+01  0.00000000000E+00 0.  1.
         23    2    1    2    0    0  0.00000000000E+00  0.00000000000E+00  0.39340356713E+03  0.39980217527E+03  0.71241930920E+02 0.  0.
          2    1    3    3  502    0  0.19721335493E+02  0.24932150736E+02  0.10650728422E+03  0.11115010035E+03  0.00000000000E+00 0.  1.
         -2    1    3    3    0  502 -0.19721335493E+02 -0.24932150736E+02  0.28689628291E+03  0.28865207493E+03  0.00000000000E+00 0. -1.
<mgrwt>
<rscale>  0 0.71241931E+02</rscale>
<asrwt>0</asrwt>
<pdfrwt beam="1">  1        2 0.61015788E-01 0.71241931E+02</pdfrwt>
<pdfrwt beam="2">  1       -2 0.49220094E-03 0.71241931E+02</pdfrwt>
<totfact> 0.37983536E+05</totfact>
</mgrwt>
</event>
<event>
 5    1  0.4059427E+001  0.8330810E+02  0.7546771E-02  0.1319917E+00
         -1   -1    0    0    0  501 -0.00000000000E+00  0.00000000000E+00  0.30482446832E+01  0.30482446832E+01  0.00000000000E+00 0.  1.
          1   -1    0    0  501    0  0.00000000000E+00 -0.00000000000E+00 -0.56919963037E+03  0.56919963037E+03  0.00000000000E+00 0. -1.
         23    2    1    2    0    0  0.00000000000E+00  0.00000000000E+00 -0.56615138568E+03  0.57224787505E+03  0.83308096772E+02 0.  0.
          2    1    3    3  502    0 -0.17540370749E+02 -0.15166067041E+02 -0.52076737407E+03  0.52128335106E+03  0.00000000000E+00 0. -1.
         -2    1    3    3    0  502  0.17540370749E+02  0.15166067041E+02 -0.45384011617E+02  0.50964523994E+02  0.00000000000E+00 0.  1.
<mgrwt>
<rscale>  0 0.83308097E+02</rscale>
<asrwt>0</asrwt>
<pdfrwt beam="2">  1        1 0.87569104E-01 0.83308097E+02</pdfrwt>
<pdfrwt beam="1">  1       -1 0.46896109E-03 0.83308097E+02</pdfrwt>
<totfact> 0.17895079E+05</totfact>
</mgrwt>
</event>
<event>
 5    1  0.4059427E+001  0.7112758E+02  0.7546771E-02  0.1356300E+00
         -2   -1    0    0    0  501 -0.00000000000E+00  0.00000000000E+00  0.16316676496E+01  0.16316676496E+01  0.00000000000E+00 0.  1.
          2   -1    0    0  501    0  0.00000000000E+00 -0.00000000000E+00 -0.77514755289E+03  0.77514755289E+03  0.00000000000E+00 0. -1.
         23    2    1    2    0    0  0.00000000000E+00  0.00000000000E+00 -0.77351588524E+03  0.77677922054E+03  0.71127580746E+02 0.  0.
          2    1    3    3  502    0  0.10126150005E+02 -0.18172051850E+02 -0.70176962100E+03  0.70207788980E+03  0.00000000000E+00 0. -1.
         -2    1    3    3    0  502 -0.10126150005E+02  0.18172051850E+02 -0.71746264241E+02  0.74701330744E+02  0.00000000000E+00 0.  1.
<mgrwt>
<rscale>  0 0.71127581E+02</rscale>
<asrwt>0</asrwt>
<pdfrwt beam="2">  1        2 0.11925341E+00 0.71127581E+02</pdfrwt>
<pdfrwt beam="1">  1       -2 0.25102592E-03 0.71127581E+02</pdfrwt>
<totfact> 0.46245486E+05</totfact>
</mgrwt>
</event>
<event>
 5    1  0.4059427E+001  0.9076052E+02  0.7546771E-02  0.1301020E+00
         -2   -1    0    0    0  501 -0.00000000000E+00  0.00000000000E+00  0.21391304028E+01  0.21391304028E+01  0.00000000000E+00 0.  1.
          2   -1    0    0  501    0  0.00000000000E+00 -0.00000000000E+00 -0.96271269601E+03  0.96271269601E+03  0.00000000000E+00 0. -1.
         23    2    1    2    0    0  0.00000000000E+00  0.00000000000E+00 -0.96057356560E+03  0.96485182641E+03  0.90760519989E+02 0.  0.
          2    1    3    3  502    0 -0.23502902243E+01  0.34146390334E+02 -0.79705229293E+03  0.79778684967E+03  0.00000000000E+00 0. -1.
         -2    1    3    3    0  502  0.23502902243E+01 -0.34146390334E+02 -0.16352127267E+03  0.16706497674E+03  0.00000000000E+00 0.  1.
<mgrwt>
<rscale>  0 0.90760520E+02</rscale>
<asrwt>0</asrwt>
<pdfrwt beam="2">  1        2 0.14810958E+00 0.90760520E+02</pdfrwt>
<pdfrwt beam="1">  1       -2 0.32909713E-03 0.90760520E+02</pdfrwt>
<totfact> 0.25249888E+05</totfact>
</mgrwt>
</event>
<event>
 5    1  0.4059427E+001  0.9273712E+02  0.7546771E-02  0.1296356E+00
         -1   -1    0    0    0  501 -0.00000000000E+00  0.00000000000E+00  0.15553849213E+01  0.15553849213E+01  0.00000000000E+00 0.  1.
          1   -1    0    0  501    0  0.00000000000E+00 -0.00000000000E+00 -0.13823223018E+04  0.13823223018E+04  0.00000000000E+00 0. -1.
         23    2    1    2    0    0  0.00000000000E+00  0.00000000000E+00 -0.13807669169E+04  0.13838776867E+04  0.92737118018E+02 0.  0.
          2    1    3    3  502    0  0.38342748413E+02  0.25905448397E+02 -0.73461238441E+03  0.73606834868E+03  0.00000000000E+00 0. -1.
         -2    1    3    3    0  502 -0.38342748413E+02 -0.25905448397E+02 -0.64615453245E+03  0.64780933801E+03  0.00000000000E+00 0.  1.
<mgrwt>
<rscale>  0 0.92737118E+02</rscale>
<asrwt>0</asrwt>
<pdfrwt beam="2">  1        1 0.21266432E+00 0.92737118E+02</pdfrwt>
<pdfrwt beam="1">  1       -1 0.23929072E-03 0.92737118E+02</pdfrwt>
<totfact> 0.11229291E+05</totfact>
</mgrwt>
</event>
<event>
 5    1  0.4059427E+001  0.8893258E+02  0.7546771E-02  0.1305457E+00
         -1   -1    0    0    0  501 -0.00000000000E+00  0.00000000000E+00  0.11926952198E+02  0.11926952198E+02  0.00000000000E+00 0.  1.
          1   -1    0    0  501    0  0.00000000000E+00 -0.00000000000E+00 -0.16578005302E+03  0.16578005302E+03  0.00000000000E+00 0. -1.
         23    2    1    2    0    0  0.00000000000E+00  0.00000000000E+00 -0.15385310082E+03  0.17770700521E+03  0.88932575982E+02 0.  0.
          2    1    3    3  502    0 -0.28372649942E+02  0.13405766930E+02 -0.13987938067E+03  0.14335607063E+03  0.00000000000E+00 0. -1.
         -2    1    3    3    0  502  0.28372649942E+02 -0.13405766930E+02 -0.13973720152E+02  0.34350934581E+02  0.00000000000E+00 0.  1.
<mgrwt>
<rscale>  0 0.88932576E+02</rscale>
<asrwt>0</asrwt>
<pdfrwt beam="2">  1        1 0.25504623E-01 0.88932576E+02</pdfrwt>
<pdfrwt beam="1">  1       -1 0.18349158E-02 0.88932576E+02</pdfrwt>
<totfact> 0.12214330E+05</totfact>
</mgrwt>
</event>
<event>
 5    1  0.4059427E+001  0.9048647E+02  0.7546771E-02  0.1301678E+00
         -2   -1    0    0    0  501 -0.00000000000E+00  0.00000000000E+00  0.86659432767E+02  0.86659432767E+02  0.00000000000E+00 0.  1.
          2   -1    0    0  501    0  0.00000000000E+00 -0.00000000000E+00 -0.23620630443E+02  0.23620630443E+02  0.00000000000E+00 0. -1.
         23    2    1    2    0    0  0.00000000000E+00  0.00000000000E+00  0.63038802324E+02  0.11028006321E+03  0.90486472708E+02 0.  0.
          2    1    3    3  502    0  0.44591275600E+02 -0.76293802927E+01  0.30787004055E+02  0.54721375367E+02  0.00000000000E+00 0. -1.
         -2    1    3    3    0  502 -0.44591275600E+02  0.76293802927E+01  0.32251798269E+02  0.55558687843E+02  0.00000000000E+00 0.  1.
<mgrwt>
<rscale>  0 0.90486473E+02</rscale>
<asrwt>0</asrwt>
<pdfrwt beam="2">  1        2 0.36339432E-02 0.90486473E+02</pdfrwt>
<pdfrwt beam="1">  1       -2 0.13332220E-01 0.90486473E+02</pdfrwt>
<totfact> 0.84772283E+04</totfact>
</mgrwt>
</event>
<event>
 5    1  0.4059427E+001  0.9198259E+02  0.7546771E-02  0.1298120E+00
         -3   -1    0    0    0  501 -0.00000000000E+00  0.00000000000E+00  0.59867747319E+02  0.59867747319E+02  0.00000000000E+00 0.  1.
          3   -1    0    0  501    0  0.00000000000E+00 -0.00000000000E+00 -0.35331200616E+02  0.35331200616E+02  0.00000000000E+00 0. -1.
         23    2    1    2    0    0  0.00000000000E+00  0.00000000000E+00  0.24536546703E+02  0.95198947935E+02  0.91982593808E+02 0.  0.
          2    1    3    3  502    0 -0.33607854851E+02 -0.29675853152E+02  0.16602291347E+01  0.44865360009E+02  0.00000000000E+00 0. -1.
         -2    1    3    3    0  502  0.33607854851E+02  0.29675853152E+02  0.22876317569E+02  0.50333587926E+02  0.00000000000E+00 0.  1.
<mgrwt>
<rscale>  0 0.91982594E+02</rscale>
<asrwt>0</asrwt>
<pdfrwt beam="2">  1        3 0.54355693E-02 0.91982594E+02</pdfrwt>
<pdfrwt beam="1">  1       -3 0.92104227E-02 0.91982594E+02</pdfrwt>
<totfact> 0.34201168E+04</totfact>
</mgrwt>
</event>
<event>
 5    1  0.4059427E+001  0.9026423E+02  0.7546771E-02  0.1302213E+00
         -1   -1    0    0    0  501 -0.00000000000E+00  0.00000000000E+00  0.27411304564E+01  0.27411304564E+01  0.00000000000E+00 0.  1.
          1   -1    0    0  501    0  0.00000000000E+00 -0.00000000000E+00 -0.74309044863E+03  0.74309044863E+03  0.00000000000E+00 0. -1.
         23    2    1    2    0    0  0.00000000000E+00  0.00000000000E+00 -0.74034931818E+03  0.74583157909E+03  0.90264231246E+02 0.  0.
          2    1    3    3  502    0 -0.32659242912E+02 -0.21858036849E+02 -0.55354609990E+03  0.55493935222E+03  0.00000000000E+00 0. -1.
         -2    1    3    3    0  502  0.32659242912E+02  0.21858036849E+02 -0.18680321827E+03  0.19089222687E+03  0.00000000000E+00 0.  1.
<mgrwt>
<rscale>  0 0.90264231E+02</rscale>
<asrwt>0</asrwt>
<pdfrwt beam="2">  1        1 0.11432163E+00 0.90264231E+02</pdfrwt>
<pdfrwt beam="1">  1       -1 0.42171229E-03 0.90264231E+02</pdfrwt>
<totfact> 0.14578922E+05</totfact>
</mgrwt>
</event>
<event>
 5    1  0.4059427E+001  0.8961550E+02  0.7546771E-02  0.1303786E+00
          2   -1    0    0  501    0  0.00000000000E+00  0.00000000000E+00  0.57852205170E+02  0.57852205170E+02  0.00000000000E+00 0. -1.
         -2   -1    0    0    0  501 -0.00000000000E+00 -0.00000000000E+00 -0.34704542292E+02  0.34704542292E+02  0.00000000000E+00 0.  1.
         23    2    1    2    0    0  0.00000000000E+00  0.00000000000E+00  0.23147662878E+02  0.92556747463E+02  0.89615496451E+02 0.  0.
          2    1    3    3  502    0  0.22204296449E+02  0.30256729877E+02  0.36856512545E+02  0.52601359304E+02  0.00000000000E+00 0. -1.
         -2    1    3    3    0  502 -0.22204296449E+02 -0.30256729877E+02 -0.13708849668E+02  0.39955388158E+02  0.00000000000E+00 0.  1.
<mgrwt>
<rscale>  0 0.89615496E+02</rscale>
<asrwt>0</asrwt>
<pdfrwt beam="1">  1        2 0.89003392E-02 0.89615496E+02</pdfrwt>
<pdfrwt beam="2">  1       -2 0.53391604E-02 0.89615496E+02</pdfrwt>
<totfact> 0.11028299E+05</totfact>
</mgrwt>
</event>
<event>
 5    1  0.4059427E+001  0.8943145E+02  0.7546771E-02  0.1304234E+00
         -3   -1    0    0    0  501 -0.00000000000E+00  0.00000000000E+00  0.92396225889E+02  0.92396225889E+02  0.00000000000E+00 0.  1.
          3   -1    0    0  501    0  0.00000000000E+00 -0.00000000000E+00 -0.21640449866E+02  0.21640449866E+02  0.00000000000E+00 0. -1.
         23    2    1    2    0    0  0.00000000000E+00  0.00000000000E+00  0.70755776024E+02  0.11403667576E+03  0.89431446240E+02 0.  0.
          2    1    3    3  502    0 -0.47261353119E+01 -0.40921678573E+02  0.13197386444E+02  0.43256111027E+02  0.00000000000E+00 0. -1.
         -2    1    3    3    0  502  0.47261353119E+01  0.40921678573E+02  0.57558389580E+02  0.70780564728E+02  0.00000000000E+00 0.  1.
<mgrwt>
<rscale>  0 0.89431446E+02</rscale>
<asrwt>0</asrwt>
<pdfrwt beam="2">  1        3 0.33293000E-02 0.89431446E+02</pdfrwt>
<pdfrwt beam="1">  1       -3 0.14214804E-01 0.89431446E+02</pdfrwt>
<totfact> 0.35471420E+04</totfact>
</mgrwt>
</event>
<event>
 5    1  0.4059427E+001  0.9054097E+02  0.7546771E-02  0.1301547E+00
          1   -1    0    0  501    0  0.00000000000E+00  0.00000000000E+00  0.10758786384E+02  0.10758786384E+02  0.00000000000E+00 0. -1.
         -1   -1    0    0    0  501 -0.00000000000E+00 -0.00000000000E+00 -0.19048773438E+03  0.19048773438E+03  0.00000000000E+00 0.  1.
         23    2    1    2    0    0  0.00000000000E+00  0.00000000000E+00 -0.17972894800E+03  0.20124652077E+03  0.90540970683E+02 0.  0.
          2    1    3    3  502    0  0.32690741710E+02  0.11514277276E+02 -0.15459669483E+03  0.15843421734E+03  0.00000000000E+00 0.  1.
         -2    1    3    3    0  502 -0.32690741710E+02 -0.11514277276E+02 -0.25132253173E+02  0.42812303422E+02  0.00000000000E+00 0. -1.
<mgrwt>
<rscale>  0 0.90540971E+02</rscale>
<asrwt>0</asrwt>
<pdfrwt beam="1">  1        1 0.16551979E-02 0.90540971E+02</pdfrwt>
<pdfrwt beam="2">  1       -1 0.29305805E-01 0.90540971E+02</pdfrwt>
<totfact> 0.71675504E+04</totfact>
</mgrwt>
</event>
<event>
 5    1  0.4059427E+001  0.8997461E+02  0.7546771E-02  0.1302913E+00
          2   -1    0    0  501    0  0.00000000000E+00  0.00000000000E+00  0.18539889996E+04  0.18539889996E+04  0.00000000000E+00 0. -1.
         -2   -1    0    0    0  501 -0.00000000000E+00 -0.00000000000E+00 -0.10916232847E+01  0.10916232847E+01  0.00000000000E+00 0.  1.
         23    2    1    2    0    0  0.00000000000E+00  0.00000000000E+00  0.18528973763E+04  0.18550806229E+04  0.89974608896E+02 0.  0.
          2    1    3    3  502    0  0.30342405124E+02  0.24331815167E+02  0.13925933718E+04  0.13931363888E+04  0.00000000000E+00 0. -1.
         -2    1    3    3    0  502 -0.30342405124E+02 -0.24331815167E+02  0.46030400452E+03  0.46194423403E+03  0.00000000000E+00 0.  1.
<mgrwt>
<rscale>  0 0.89974609E+02</rscale>
<asrwt>0</asrwt>
<pdfrwt beam="1">  1        2 0.28522656E+00 0.89974609E+02</pdfrwt>
<pdfrwt beam="2">  1       -2 0.16794353E-03 0.89974609E+02</pdfrwt>
<totfact> 0.21726952E+05</totfact>
</mgrwt>
</event>
<event>
 5    1  0.4059427E+001  0.8254344E+02  0.7546771E-02  0.1321985E+00
         -2   -1    0    0    0  501 -0.00000000000E+00  0.00000000000E+00  0.62613113386E+01  0.62613113386E+01  0.00000000000E+00 0.  1.
          2   -1    0    0  501    0  0.00000000000E+00 -0.00000000000E+00 -0.27204441752E+03  0.27204441752E+03  0.00000000000E+00 0. -1.
         23    2    1    2    0    0  0.00000000000E+00  0.00000000000E+00 -0.26578310619E+03  0.27830572886E+03  0.82543438166E+02 0.  0.
          2    1    3    3  502    0  0.16904840490E+02  0.24888894857E+02 -0.22814370544E+03  0.23011905843E+03  0.00000000000E+00 0. -1.
         -2    1    3    3    0  502 -0.16904840490E+02 -0.24888894857E+02 -0.37639400744E+02  0.48186670435E+02  0.00000000000E+00 0.  1.
<mgrwt>
<rscale>  0 0.82543438E+02</rscale>
<asrwt>0</asrwt>
<pdfrwt beam="2">  1        2 0.41852983E-01 0.82543438E+02</pdfrwt>
<pdfrwt beam="1">  1       -2 0.96327877E-03 0.82543438E+02</pdfrwt>
<totfact> 0.22563512E+05</totfact>
</mgrwt>
</event>
<event>
 5    1  0.4059427E+001  0.1072535E+03  0.7546771E-02  0.1265742E+00
          2   -1    0    0  501    0  0.00000000000E+00  0.00000000000E+00  0.10427319156E+02  0.10427319156E+02  0.00000000000E+00 0.  1.
         -2   -1    0    0    0  501 -0.00000000000E+00 -0.00000000000E+00 -0.27579731322E+03  0.27579731322E+03  0.00000000000E+00 0. -1.
         23    2    1    2    0    0  0.00000000000E+00  0.00000000000E+00 -0.26536999407E+03  0.28622463238E+03  0.10725346815E+03 0.  0.
          2    1    3    3  502    0  0.22657110478E+02 -0.30284911835E+02 -0.23414049217E+03  0.23717565350E+03  0.00000000000E+00 0. -1.
         -2    1    3    3    0  502 -0.22657110478E+02  0.30284911835E+02 -0.31229501892E+02  0.49048978873E+02  0.00000000000E+00 0.  1.
<mgrwt>
<rscale>  0 0.10725347E+03</rscale>
<asrwt>0</asrwt>
<pdfrwt beam="1">  1        2 0.16042031E-02 0.10725347E+03</pdfrwt>
<pdfrwt beam="2">  1       -2 0.42430352E-01 0.10725347E+03</pdfrwt>
<totfact> 0.35124328E+04</totfact>
</mgrwt>
</event>
<event>
 5    1  0.4059427E+001  0.8771240E+02  0.7546771E-02  0.1308488E+00
          1   -1    0    0  501    0  0.00000000000E+00  0.00000000000E+00  0.81849147282E+03  0.81849147282E+03  0.00000000000E+00 0. -1.
         -1   -1    0    0    0  501 -0.00000000000E+00 -0.00000000000E+00 -0.23498917551E+01  0.23498917551E+01  0.00000000000E+00 0.  1.
         23    2    1    2    0    0  0.00000000000E+00  0.00000000000E+00  0.81614158107E+03  0.82084136458E+03  0.87712401941E+02 0.  0.
          2    1    3    3  502    0 -0.75981582024E+01  0.36288608582E+02  0.62729772052E+03  0.62839241346E+03  0.00000000000E+00 0. -1.
         -2    1    3    3    0  502  0.75981582024E+01 -0.36288608582E+02  0.18884386055E+03  0.19244895112E+03  0.00000000000E+00 0.  1.
<mgrwt>
<rscale>  0 0.87712402E+02</rscale>
<asrwt>0</asrwt>
<pdfrwt beam="1">  1        1 0.12592154E+00 0.87712402E+02</pdfrwt>
<pdfrwt beam="2">  1       -1 0.36152246E-03 0.87712402E+02</pdfrwt>
<totfact> 0.15616682E+05</totfact>
</mgrwt>
</event>
<event>
 5    1  0.4059427E+001  0.6715024E+02  0.7546771E-02  0.1370061E+00
          1   -1    0    0  501    0  0.00000000000E+00  0.00000000000E+00  0.31547552884E+02  0.31547552884E+02  0.00000000000E+00 0. -1.
         -1   -1    0    0    0  501 -0.00000000000E+00 -0.00000000000E+00 -0.35733004309E+02  0.35733004309E+02  0.00000000000E+00 0.  1.
         23    2    1    2    0    0  0.00000000000E+00  0.00000000000E+00 -0.41854514248E+01  0.67280557193E+02  0.67150244769E+02 0.  0.
          2    1    3    3  502    0  0.27177082281E+02 -0.16399333679E+01  0.17592428257E+02  0.32415686245E+02  0.00000000000E+00 0. -1.
         -2    1    3    3    0  502 -0.27177082281E+02  0.16399333679E+01 -0.21777879682E+02  0.34864870948E+02  0.00000000000E+00 0.  1.
<mgrwt>
<rscale>  0 0.67150245E+02</rscale>
<asrwt>0</asrwt>
<pdfrwt beam="1">  1        1 0.48534697E-02 0.67150245E+02</pdfrwt>
<pdfrwt beam="2">  1       -1 0.54973852E-02 0.67150245E+02</pdfrwt>
<totfact> 0.20469258E+05</totfact>
</mgrwt>
</event>
<event>
 5    1  0.4059427E+001  0.9143704E+02  0.7546771E-02  0.1299409E+00
          2   -1    0    0  501    0  0.00000000000E+00  0.00000000000E+00  0.13563053109E+04  0.13563053109E+04  0.00000000000E+00 0. -1.
         -2   -1    0    0    0  501 -0.00000000000E+00 -0.00000000000E+00 -0.15410858158E+01  0.15410858158E+01  0.00000000000E+00 0.  1.
         23    2    1    2    0    0  0.00000000000E+00  0.00000000000E+00  0.13547642251E+04  0.13578463967E+04  0.91437035748E+02 0.  0.
          2    1    3    3  502    0  0.29831199325E+02  0.62432291569E+01  0.11834415899E+04  0.11838339728E+04  0.00000000000E+00 0. -1.
         -2    1    3    3    0  502 -0.29831199325E+02 -0.62432291569E+01  0.17132263520E+03  0.17401242397E+03  0.00000000000E+00 0.  1.
<mgrwt>
<rscale>  0 0.91437036E+02</rscale>
<asrwt>0</asrwt>
<pdfrwt beam="1">  1        2 0.20866140E+00 0.91437036E+02</pdfrwt>
<pdfrwt beam="2">  1       -2 0.23709121E-03 0.91437036E+02</pdfrwt>
<totfact> 0.24160530E+05</totfact>
</mgrwt>
</event>
<event>
 5    1  0.4059427E+001  0.9235368E+02  0.7546771E-02  0.1297250E+00
          1   -1    0    0  501    0  0.00000000000E+00  0.00000000000E+00  0.76823957746E+03  0.76823957746E+03  0.00000000000E+00 0. -1.
         -1   -1    0    0    0  501 -0.00000000000E+00 -0.00000000000E+00 -0.27755669775E+01  0.27755669775E+01  0.00000000000E+00 0.  1.
         23    2    1    2    0    0  0.00000000000E+00  0.00000000000E+00  0.76546401048E+03  0.77101514444E+03  0.92353676743E+02 0.  0.
          2    1    3    3  502    0 -0.20570104445E+02 -0.20214749489E+02  0.68380358326E+03  0.68441150325E+03  0.00000000000E+00 0. -1.
         -2    1    3    3    0  502  0.20570104445E+02  0.20214749489E+02  0.81660427223E+02  0.86603641193E+02  0.00000000000E+00 0.  1.
<mgrwt>
<rscale>  0 0.92353677E+02</rscale>
<asrwt>0</asrwt>
<pdfrwt beam="1">  1        1 0.11819053E+00 0.92353677E+02</pdfrwt>
<pdfrwt beam="2">  1       -1 0.42701092E-03 0.92353677E+02</pdfrwt>
<totfact> 0.13699633E+05</totfact>
</mgrwt>
</event>
<event>
 5    1  0.4059427E+001  0.9232060E+02  0.7546771E-02  0.1297327E+00
          2   -1    0    0  501    0  0.00000000000E+00  0.00000000000E+00  0.60692222673E+03  0.60692222673E+03  0.00000000000E+00 0. -1.
         -2   -1    0    0    0  501 -0.00000000000E+00 -0.00000000000E+00 -0.35107847171E+01  0.35107847171E+01  0.00000000000E+00 0.  1.
         23    2    1    2    0    0  0.00000000000E+00  0.00000000000E+00  0.60341144202E+03  0.61043301145E+03  0.92320599610E+02 0.  0.
          2    1    3    3  502    0  0.27968301281E+02  0.15185139168E+02  0.80624261121E+02  0.86678058408E+02  0.00000000000E+00 0.  1.
         -2    1    3    3    0  502 -0.27968301281E+02 -0.15185139168E+02  0.52278718089E+03  0.52375495304E+03  0.00000000000E+00 0. -1.
<mgrwt>
<rscale>  0 0.92320600E+02</rscale>
<asrwt>0</asrwt>
<pdfrwt beam="1">  1        2 0.93372567E-01 0.92320600E+02</pdfrwt>
<pdfrwt beam="2">  1       -2 0.54012121E-03 0.92320600E+02</pdfrwt>
<totfact> 0.22117689E+05</totfact>
</mgrwt>
</event>
<event>
 5    1  0.4059427E+001  0.9040173E+02  0.7546771E-02  0.1301882E+00
         -2   -1    0    0    0  501 -0.00000000000E+00  0.00000000000E+00  0.97386350374E+01  0.97386350374E+01  0.00000000000E+00 0. -1.
          2   -1    0    0  501    0  0.00000000000E+00 -0.00000000000E+00 -0.20979514932E+03  0.20979514932E+03  0.00000000000E+00 0.  1.
         23    2    1    2    0    0  0.00000000000E+00  0.00000000000E+00 -0.20005651428E+03  0.21953378436E+03  0.90401734316E+02 0.  0.
          2    1    3    3  502    0 -0.23226323635E+02 -0.20183496483E+02 -0.19622732086E+02  0.36495030544E+02  0.00000000000E+00 0. -1.
         -2    1    3    3    0  502  0.23226323635E+02  0.20183496483E+02 -0.18043378220E+03  0.18303875381E+03  0.00000000000E+00 0.  1.
<mgrwt>
<rscale>  0 0.90401734E+02</rscale>
<asrwt>0</asrwt>
<pdfrwt beam="2">  1        2 0.32276177E-01 0.90401734E+02</pdfrwt>
<pdfrwt beam="1">  1       -2 0.14982515E-02 0.90401734E+02</pdfrwt>
<totfact> 0.16103830E+05</totfact>
</mgrwt>
</event>
<event>
 5    1  0.4059427E+001  0.9108592E+02  0.7546771E-02  0.1300243E+00
          2   -1    0    0  501    0  0.00000000000E+00  0.00000000000E+00  0.61735127345E+02  0.61735127345E+02  0.00000000000E+00 0. -1.
         -2   -1    0    0    0  501 -0.00000000000E+00 -0.00000000000E+00 -0.33597745970E+02  0.33597745970E+02  0.00000000000E+00 0.  1.
         23    2    1    2    0    0  0.00000000000E+00  0.00000000000E+00  0.28137381374E+02  0.95332873315E+02  0.91085918253E+02 0.  0.
          2    1    3    3  502    0 -0.39268855067E+01 -0.43992295615E+02  0.25696068645E+02  0.51098243091E+02  0.00000000000E+00 0. -1.
         -2    1    3    3    0  502  0.39268855067E+01  0.43992295615E+02  0.24413127299E+01  0.44234630224E+02  0.00000000000E+00 0.  1.
<mgrwt>
<rscale>  0 0.91085918E+02</rscale>
<asrwt>0</asrwt>
<pdfrwt beam="1">  1        2 0.94977119E-02 0.91085918E+02</pdfrwt>
<pdfrwt beam="2">  1       -2 0.51688840E-02 0.91085918E+02</pdfrwt>
<totfact> 0.10718695E+05</totfact>
</mgrwt>
</event>
<event>
 5    1  0.4059427E+001  0.8949663E+02  0.7546771E-02  0.1304075E+00
          1   -1    0    0  501    0  0.00000000000E+00  0.00000000000E+00  0.12765973565E+03  0.12765973565E+03  0.00000000000E+00 0. -1.
         -1   -1    0    0    0  501 -0.00000000000E+00 -0.00000000000E+00 -0.15685538124E+02  0.15685538124E+02  0.00000000000E+00 0.  1.
         23    2    1    2    0    0  0.00000000000E+00  0.00000000000E+00  0.11197419753E+03  0.14334527378E+03  0.89496628997E+02 0.  0.
          2    1    3    3  502    0  0.33805973446E+02  0.52156381871E+01  0.10219684542E+03  0.10776939239E+03  0.00000000000E+00 0. -1.
         -2    1    3    3    0  502 -0.33805973446E+02 -0.52156381871E+01  0.97773521137E+01  0.35575881390E+02  0.00000000000E+00 0.  1.
<mgrwt>
<rscale>  0 0.89496629E+02</rscale>
<asrwt>0</asrwt>
<pdfrwt beam="1">  1        1 0.19639959E-01 0.89496629E+02</pdfrwt>
<pdfrwt beam="2">  1       -1 0.24131598E-02 0.89496629E+02</pdfrwt>
<totfact> 0.11453100E+05</totfact>
</mgrwt>
</event>
<event>
 5    1  0.4059427E+001  0.9271328E+02  0.7546771E-02  0.1296411E+00
          2   -1    0    0  501    0  0.00000000000E+00  0.00000000000E+00  0.15593687407E+01  0.15593687407E+01  0.00000000000E+00 0. -1.
         -2   -1    0    0    0  501 -0.00000000000E+00 -0.00000000000E+00 -0.13780819560E+04  0.13780819560E+04  0.00000000000E+00 0.  1.
         23    2    1    2    0    0  0.00000000000E+00  0.00000000000E+00 -0.13765225873E+04  0.13796413248E+04  0.92713276814E+02 0.  0.
          2    1    3    3  502    0 -0.20850149213E+02 -0.87544902045E+01 -0.12904379957E+04  0.12906361186E+04  0.00000000000E+00 0.  1.
         -2    1    3    3    0  502  0.20850149213E+02  0.87544902045E+01 -0.86084591568E+02  0.89005206176E+02  0.00000000000E+00 0. -1.
<mgrwt>
<rscale>  0 0.92713277E+02</rscale>
<asrwt>0</asrwt>
<pdfrwt beam="1">  1        2 0.23990163E-03 0.92713277E+02</pdfrwt>
<pdfrwt beam="2">  1       -2 0.21201372E+00 0.92713277E+02</pdfrwt>
<totfact> 0.11649524E+04</totfact>
</mgrwt>
</event>
<event>
 5    1  0.4059427E+001  0.8954612E+02  0.7546771E-02  0.1303955E+00
          2   -1    0    0  501    0  0.00000000000E+00  0.00000000000E+00  0.28012929484E+03  0.28012929484E+03  0.00000000000E+00 0. -1.
         -2   -1    0    0    0  501 -0.00000000000E+00 -0.00000000000E+00 -0.71560780190E+01  0.71560780190E+01  0.00000000000E+00 0.  1.
         23    2    1    2    0    0  0.00000000000E+00  0.00000000000E+00  0.27297321682E+03  0.28728537286E+03  0.89546124188E+02 0.  0.
          2    1    3    3  502    0  0.35129728492E+02 -0.10979570713E+02  0.21827961031E+03  0.22136087521E+03  0.00000000000E+00 0. -1.
         -2    1    3    3    0  502 -0.35129728492E+02  0.10979570713E+02  0.54693606511E+02  0.65924497648E+02  0.00000000000E+00 0.  1.
<mgrwt>
<rscale>  0 0.89546124E+02</rscale>
<asrwt>0</asrwt>
<pdfrwt beam="1">  1        2 0.43096806E-01 0.89546124E+02</pdfrwt>
<pdfrwt beam="2">  1       -2 0.11009353E-02 0.89546124E+02</pdfrwt>
<totfact> 0.18376438E+05</totfact>
</mgrwt>
</event>
<event>
 5    1  0.4059427E+001  0.8880082E+02  0.7546771E-02  0.1305782E+00
          2   -1    0    0  501    0  0.00000000000E+00  0.00000000000E+00  0.12323955739E+02  0.12323955739E+02  0.00000000000E+00 0. -1.
         -2   -1    0    0    0  501 -0.00000000000E+00 -0.00000000000E+00 -0.15996458843E+03  0.15996458843E+03  0.00000000000E+00 0.  1.
         23    2    1    2    0    0  0.00000000000E+00  0.00000000000E+00 -0.14764063269E+03  0.17228854417E+03  0.88800822239E+02 0.  0.
          2    1    3    3  502    0 -0.17436282804E+02  0.11162214900E+02  0.23860165440E+01  0.20840155336E+02  0.00000000000E+00 0. -1.
         -2    1    3    3    0  502  0.17436282804E+02 -0.11162214900E+02 -0.15002664923E+03  0.15144838883E+03  0.00000000000E+00 0.  1.
<mgrwt>
<rscale>  0 0.88800822E+02</rscale>
<asrwt>0</asrwt>
<pdfrwt beam="1">  1        2 0.18959933E-02 0.88800822E+02</pdfrwt>
<pdfrwt beam="2">  1       -2 0.24609936E-01 0.88800822E+02</pdfrwt>
<totfact> 0.72931245E+04</totfact>
</mgrwt>
</event>
<event>
 5    1  0.4059427E+001  0.9207018E+02  0.7546771E-02  0.1297915E+00
         -1   -1    0    0    0  501 -0.00000000000E+00  0.00000000000E+00  0.36844748874E+01  0.36844748874E+01  0.00000000000E+00 0.  1.
          1   -1    0    0  501    0  0.00000000000E+00 -0.00000000000E+00 -0.57517810571E+03  0.57517810571E+03  0.00000000000E+00 0. -1.
         23    2    1    2    0    0  0.00000000000E+00  0.00000000000E+00 -0.57149363083E+03  0.57886258060E+03  0.92070175112E+02 0.  0.
          2    1    3    3  502    0  0.42148818227E+02 -0.14753014111E+02 -0.21543844891E+03  0.22001795284E+03  0.00000000000E+00 0. -1.
         -2    1    3    3    0  502 -0.42148818227E+02  0.14753014111E+02 -0.35605518192E+03  0.35884462776E+03  0.00000000000E+00 0.  1.
<mgrwt>
<rscale>  0 0.92070175E+02</rscale>
<asrwt>0</asrwt>
<pdfrwt beam="2">  1        1 0.88488905E-01 0.92070175E+02</pdfrwt>
<pdfrwt beam="1">  1       -1 0.56684251E-03 0.92070175E+02</pdfrwt>
<totfact> 0.13758306E+05</totfact>
</mgrwt>
</event>
<event>
 5    1  0.4059427E+001  0.8243723E+02  0.7546771E-02  0.1322274E+00
          1   -1    0    0  501    0  0.00000000000E+00  0.00000000000E+00  0.26316871825E+03  0.26316871825E+03  0.00000000000E+00 0. -1.
         -1   -1    0    0    0  501 -0.00000000000E+00 -0.00000000000E+00 -0.64558359875E+01  0.64558359875E+01  0.00000000000E+00 0.  1.
         23    2    1    2    0    0  0.00000000000E+00  0.00000000000E+00  0.25671288226E+03  0.26962455423E+03  0.82437226592E+02 0.  0.
          2    1    3    3  502    0  0.16745978782E+02  0.14332613136E+02  0.24227340259E+03  0.24327402904E+03  0.00000000000E+00 0. -1.
         -2    1    3    3    0  502 -0.16745978782E+02 -0.14332613136E+02  0.14439479669E+02  0.26350525190E+02  0.00000000000E+00 0.  1.
<mgrwt>
<rscale>  0 0.82437227E+02</rscale>
<asrwt>0</asrwt>
<pdfrwt beam="1">  1        1 0.40487487E-01 0.82437227E+02</pdfrwt>
<pdfrwt beam="2">  1       -1 0.99320574E-03 0.82437227E+02</pdfrwt>
<totfact> 0.16321755E+05</totfact>
</mgrwt>
</event>
<event>
 5    1  0.4059427E+001  0.9178289E+02  0.7546771E-02  0.1298591E+00
          4   -1    0    0  501    0  0.00000000000E+00  0.00000000000E+00  0.43890696696E+02  0.43890696696E+02  0.00000000000E+00 0. -1.
         -4   -1    0    0    0  501 -0.00000000000E+00 -0.00000000000E+00 -0.47983397895E+02  0.47983397895E+02  0.00000000000E+00 0.  1.
         23    2    1    2    0    0  0.00000000000E+00  0.00000000000E+00 -0.40927011988E+01  0.91874094591E+02  0.91782890856E+02 0.  0.
          2    1    3    3  502    0 -0.42751951597E+02  0.16668643248E+02 -0.13735738512E+01  0.45907077213E+02  0.00000000000E+00 0. -1.
         -2    1    3    3    0  502  0.42751951597E+02 -0.16668643248E+02 -0.27191273477E+01  0.45967017378E+02  0.00000000000E+00 0.  1.
<mgrwt>
<rscale>  0 0.91782891E+02</rscale>
<asrwt>0</asrwt>
<pdfrwt beam="1">  1        4 0.67524149E-02 0.91782891E+02</pdfrwt>
<pdfrwt beam="2">  1       -4 0.73820612E-02 0.91782891E+02</pdfrwt>
<totfact> 0.26489480E+04</totfact>
</mgrwt>
</event>
<event>
 5    1  0.4059427E+001  0.9088947E+02  0.7546771E-02  0.1300712E+00
          1   -1    0    0  501    0  0.00000000000E+00  0.00000000000E+00  0.19252693311E+03  0.19252693311E+03  0.00000000000E+00 0. -1.
         -1   -1    0    0    0  501 -0.00000000000E+00 -0.00000000000E+00 -0.10726934251E+02  0.10726934251E+02  0.00000000000E+00 0.  1.
         23    2    1    2    0    0  0.00000000000E+00  0.00000000000E+00  0.18179999886E+03  0.20325386736E+03  0.90889465901E+02 0.  0.
          2    1    3    3  502    0  0.36670860982E+02  0.26562033503E+02  0.82259150922E+02  0.93898144707E+02  0.00000000000E+00 0. -1.
         -2    1    3    3    0  502 -0.36670860982E+02 -0.26562033503E+02  0.99540847940E+02  0.10935572266E+03  0.00000000000E+00 0.  1.
<mgrwt>
<rscale>  0 0.90889466E+02</rscale>
<asrwt>0</asrwt>
<pdfrwt beam="1">  1        1 0.29619526E-01 0.90889466E+02</pdfrwt>
<pdfrwt beam="2">  1       -1 0.16502977E-02 0.90889466E+02</pdfrwt>
<totfact> 0.11853637E+05</totfact>
</mgrwt>
</event>
<event>
 5    1  0.4059427E+001  0.7773288E+02  0.7546771E-02  0.1335611E+00
          1   -1    0    0  501    0  0.00000000000E+00  0.00000000000E+00  0.25922868180E+03  0.25922868180E+03  0.00000000000E+00 0. -1.
         -1   -1    0    0    0  501 -0.00000000000E+00 -0.00000000000E+00 -0.58272875223E+01  0.58272875223E+01  0.00000000000E+00 0.  1.
         23    2    1    2    0    0  0.00000000000E+00  0.00000000000E+00  0.25340139428E+03  0.26505596933E+03  0.77732877546E+02 0.  0.
          2    1    3    3  502    0 -0.33851125079E+02  0.15655774568E+02  0.16399092306E+03  0.16817855034E+03  0.00000000000E+00 0. -1.
         -2    1    3    3    0  502  0.33851125079E+02 -0.15655774568E+02  0.89410471220E+02  0.96877418991E+02  0.00000000000E+00 0.  1.
<mgrwt>
<rscale>  0 0.77732878E+02</rscale>
<asrwt>0</asrwt>
<pdfrwt beam="1">  1        1 0.39881327E-01 0.77732878E+02</pdfrwt>
<pdfrwt beam="2">  1       -1 0.89650598E-03 0.77732878E+02</pdfrwt>
<totfact> 0.18998116E+05</totfact>
</mgrwt>
</event>
<event>
 5    1  0.4059427E+001  0.9296429E+02  0.7546771E-02  0.1295828E+00
         -2   -1    0    0    0  501 -0.00000000000E+00  0.00000000000E+00  0.46951818741E+01  0.46951818741E+01  0.00000000000E+00 0.  1.
          2   -1    0    0  501    0  0.00000000000E+00 -0.00000000000E+00 -0.46017165966E+03  0.46017165966E+03  0.00000000000E+00 0. -1.
         23    2    1    2    0    0  0.00000000000E+00  0.00000000000E+00 -0.45547647779E+03  0.46486684154E+03  0.92964286378E+02 0.  0.
          2    1    3    3  502    0 -0.47211316313E+01  0.39004041108E+02 -0.35194631880E+03  0.35413248316E+03  0.00000000000E+00 0. -1.
         -2    1    3    3    0  502  0.47211316313E+01 -0.39004041108E+02 -0.10353015899E+03  0.11073435838E+03  0.00000000000E+00 0.  1.
<mgrwt>
<rscale>  0 0.92964286E+02</rscale>
<asrwt>0</asrwt>
<pdfrwt beam="2">  1        2 0.70795650E-01 0.92964286E+02</pdfrwt>
<pdfrwt beam="1">  1       -2 0.72233557E-03 0.92964286E+02</pdfrwt>
<totfact> 0.19910632E+05</totfact>
</mgrwt>
</event>
<event>
 5    1  0.4059427E+001  0.9193211E+02  0.7546771E-02  0.1298239E+00
         -1   -1    0    0    0  501 -0.00000000000E+00  0.00000000000E+00  0.19623773325E+01  0.19623773325E+01  0.00000000000E+00 0.  1.
          1   -1    0    0  501    0  0.00000000000E+00 -0.00000000000E+00 -0.10766930331E+04  0.10766930331E+04  0.00000000000E+00 0. -1.
         23    2    1    2    0    0  0.00000000000E+00  0.00000000000E+00 -0.10747306558E+04  0.10786554104E+04  0.91932105431E+02 0.  0.
          2    1    3    3  502    0 -0.28030412469E+02 -0.36427859546E+02 -0.53231831727E+03  0.53429905846E+03  0.00000000000E+00 0. -1.
         -2    1    3    3    0  502  0.28030412469E+02  0.36427859546E+02 -0.54241233849E+03  0.54435635196E+03  0.00000000000E+00 0.  1.
<mgrwt>
<rscale>  0 0.91932105E+02</rscale>
<asrwt>0</asrwt>
<pdfrwt beam="2">  1        1 0.16564532E+00 0.91932105E+02</pdfrwt>
<pdfrwt beam="1">  1       -1 0.30190377E-03 0.91932105E+02</pdfrwt>
<totfact> 0.13013348E+05</totfact>
</mgrwt>
</event>
<event>
 5    1  0.4059427E+001  0.8643538E+02  0.7546771E-02  0.1311721E+00
         -1   -1    0    0    0  501 -0.00000000000E+00  0.00000000000E+00  0.71542607649E+02  0.71542607649E+02  0.00000000000E+00 0.  1.
          1   -1    0    0  501    0  0.00000000000E+00 -0.00000000000E+00 -0.26107084464E+02  0.26107084464E+02  0.00000000000E+00 0. -1.
         23    2    1    2    0    0  0.00000000000E+00  0.00000000000E+00  0.45435523185E+02  0.97649692113E+02  0.86435383973E+02 0.  0.
          2    1    3    3  502    0 -0.38641007035E+02  0.19155940968E+02  0.25850917860E+02  0.50282675478E+02  0.00000000000E+00 0. -1.
         -2    1    3    3    0  502  0.38641007035E+02 -0.19155940968E+02  0.19584605326E+02  0.47367016634E+02  0.00000000000E+00 0.  1.
<mgrwt>
<rscale>  0 0.86435384E+02</rscale>
<asrwt>0</asrwt>
<pdfrwt beam="2">  1        1 0.40164746E-02 0.86435384E+02</pdfrwt>
<pdfrwt beam="1">  1       -1 0.11006555E-01 0.86435384E+02</pdfrwt>
<totfact> 0.98801772E+04</totfact>
</mgrwt>
</event>
<event>
 5    1  0.4059427E+001  0.9130094E+02  0.7546771E-02  0.1299732E+00
         -2   -1    0    0    0  501 -0.00000000000E+00  0.00000000000E+00  0.13713250106E+01  0.13713250106E+01  0.00000000000E+00 0.  1.
          2   -1    0    0  501    0  0.00000000000E+00 -0.00000000000E+00 -0.15196729453E+04  0.15196729453E+04  0.00000000000E+00 0. -1.
         23    2    1    2    0    0  0.00000000000E+00  0.00000000000E+00 -0.15183016203E+04  0.15210442703E+04  0.91300942337E+02 0.  0.
          2    1    3    3  502    0 -0.44881443107E+02 -0.47237033085E+01 -0.64456394175E+03  0.64614188249E+03  0.00000000000E+00 0.  1.
         -2    1    3    3    0  502  0.44881443107E+02  0.47237033085E+01 -0.87373767855E+03  0.87490238783E+03  0.00000000000E+00 0. -1.
<mgrwt>
<rscale>  0 0.91300942E+02</rscale>
<asrwt>0</asrwt>
<pdfrwt beam="2">  1        2 0.23379502E+00 0.91300942E+02</pdfrwt>
<pdfrwt beam="1">  1       -2 0.21097381E-03 0.91300942E+02</pdfrwt>
<totfact> 0.23393575E+05</totfact>
</mgrwt>
</event>
<event>
 5    1  0.4059427E+001  0.8889053E+02  0.7546771E-02  0.1305561E+00
          2   -1    0    0  501    0  0.00000000000E+00  0.00000000000E+00  0.56318137719E+03  0.56318137719E+03  0.00000000000E+00 0. -1.
         -2   -1    0    0    0  501 -0.00000000000E+00 -0.00000000000E+00 -0.35075404752E+01  0.35075404752E+01  0.00000000000E+00 0.  1.
         23    2    1    2    0    0  0.00000000000E+00  0.00000000000E+00  0.55967383672E+03  0.56668891767E+03  0.88890527625E+02 0.  0.
          2    1    3    3  502    0  0.20779849473E+02 -0.15026337897E+02  0.51126288810E+03  0.51190559064E+03  0.00000000000E+00 0. -1.
         -2    1    3    3    0  502 -0.20779849473E+02  0.15026337897E+02  0.48410948615E+02  0.54783327031E+02  0.00000000000E+00 0.  1.
<mgrwt>
<rscale>  0 0.88890528E+02</rscale>
<asrwt>0</asrwt>
<pdfrwt beam="1">  1        2 0.86643217E-01 0.88890528E+02</pdfrwt>
<pdfrwt beam="2">  1       -2 0.53962206E-03 0.88890528E+02</pdfrwt>
<totfact> 0.23917758E+05</totfact>
</mgrwt>
</event>
<event>
 5    1  0.4059427E+001  0.9034131E+02  0.7546771E-02  0.1302027E+00
          2   -1    0    0  501    0  0.00000000000E+00  0.00000000000E+00  0.35625845486E+03  0.35625845486E+03  0.00000000000E+00 0. -1.
         -2   -1    0    0    0  501 -0.00000000000E+00 -0.00000000000E+00 -0.57272696573E+01  0.57272696573E+01  0.00000000000E+00 0.  1.
         23    2    1    2    0    0  0.00000000000E+00  0.00000000000E+00  0.35053118520E+03  0.36198572452E+03  0.90341313665E+02 0.  0.
          2    1    3    3  502    0 -0.24977344921E+02 -0.20573373847E+02  0.30154595189E+03  0.30327725363E+03  0.00000000000E+00 0. -1.
         -2    1    3    3    0  502  0.24977344921E+02  0.20573373847E+02  0.48985233316E+02  0.58708470886E+02  0.00000000000E+00 0.  1.
<mgrwt>
<rscale>  0 0.90341314E+02</rscale>
<asrwt>0</asrwt>
<pdfrwt beam="1">  1        2 0.54808976E-01 0.90341314E+02</pdfrwt>
<pdfrwt beam="2">  1       -2 0.88111869E-03 0.90341314E+02</pdfrwt>
<totfact> 0.19617364E+05</totfact>
</mgrwt>
</event>
<event>
 5    1  0.4059427E+001  0.9256415E+02  0.7546771E-02  0.1296758E+00
         -2   -1    0    0    0  501 -0.00000000000E+00  0.00000000000E+00  0.23703575627E+01  0.23703575627E+01  0.00000000000E+00 0.  1.
          2   -1    0    0  501    0  0.00000000000E+00 -0.00000000000E+00 -0.90367391975E+03  0.90367391975E+03  0.00000000000E+00 0. -1.
         23    2    1    2    0    0  0.00000000000E+00  0.00000000000E+00 -0.90130356218E+03  0.90604427731E+03  0.92564146620E+02 0.  0.
          2    1    3    3  502    0 -0.34125849707E+02 -0.19864395346E+02 -0.21433766028E+03  0.21794448934E+03  0.00000000000E+00 0.  1.
         -2    1    3    3    0  502  0.34125849707E+02  0.19864395346E+02 -0.68696590190E+03  0.68809978797E+03  0.00000000000E+00 0. -1.
<mgrwt>
<rscale>  0 0.92564147E+02</rscale>
<asrwt>0</asrwt>
<pdfrwt beam="2">  1        2 0.13902668E+00 0.92564147E+02</pdfrwt>
<pdfrwt beam="1">  1       -2 0.36467060E-03 0.92564147E+02</pdfrwt>
<totfact> 0.23837373E+05</totfact>
</mgrwt>
</event>
<event>
 5    1  0.4059427E+001  0.6727065E+02  0.7546771E-02  0.1369628E+00
          2   -1    0    0  501    0  0.00000000000E+00  0.00000000000E+00  0.77339110251E+03  0.77339110251E+03  0.00000000000E+00 0. -1.
         -2   -1    0    0    0  501 -0.00000000000E+00 -0.00000000000E+00 -0.14628241216E+01  0.14628241216E+01  0.00000000000E+00 0.  1.
         23    2    1    2    0    0  0.00000000000E+00  0.00000000000E+00  0.77192827839E+03  0.77485392663E+03  0.67270652150E+02 0.  0.
          2    1    3    3  502    0 -0.20815534690E+02  0.21399796600E+02  0.20748481541E+03  0.20962153135E+03  0.00000000000E+00 0.  1.
         -2    1    3    3    0  502  0.20815534690E+02 -0.21399796600E+02  0.56444346298E+03  0.56523239528E+03  0.00000000000E+00 0. -1.
<mgrwt>
<rscale>  0 0.67270652E+02</rscale>
<asrwt>0</asrwt>
<pdfrwt beam="1">  1        2 0.11898292E+00 0.67270652E+02</pdfrwt>
<pdfrwt beam="2">  1       -2 0.22505048E-03 0.67270652E+02</pdfrwt>
<totfact> 0.53319780E+05</totfact>
</mgrwt>
</event>
<event>
 5    1  0.4059427E+001  0.9026856E+02  0.7546771E-02  0.1302203E+00
         -2   -1    0    0    0  501 -0.00000000000E+00  0.00000000000E+00  0.78845459610E+01  0.78845459610E+01  0.00000000000E+00 0.  1.
          2   -1    0    0  501    0  0.00000000000E+00 -0.00000000000E+00 -0.25836656121E+03  0.25836656121E+03  0.00000000000E+00 0. -1.
         23    2    1    2    0    0  0.00000000000E+00  0.00000000000E+00 -0.25048201525E+03  0.26625110717E+03  0.90268555470E+02 0.  0.
          2    1    3    3  502    0 -0.43283989710E+01  0.44914084518E+02 -0.12215735677E+03  0.13022453624E+03  0.00000000000E+00 0. -1.
         -2    1    3    3    0  502  0.43283989710E+01 -0.44914084518E+02 -0.12832465848E+03  0.13602657093E+03  0.00000000000E+00 0.  1.
<mgrwt>
<rscale>  0 0.90268555E+02</rscale>
<asrwt>0</asrwt>
<pdfrwt beam="2">  1        2 0.39748709E-01 0.90268555E+02</pdfrwt>
<pdfrwt beam="1">  1       -2 0.12130068E-02 0.90268555E+02</pdfrwt>
<totfact> 0.17453162E+05</totfact>
</mgrwt>
</event>
<event>
 5    1  0.4059427E+001  0.9692440E+02  0.7546771E-02  0.1286900E+00
          2   -1    0    0  501    0  0.00000000000E+00  0.00000000000E+00  0.23380596225E+04  0.23380596225E+04  0.00000000000E+00 0.  1.
         -2   -1    0    0    0  501 -0.00000000000E+00 -0.00000000000E+00 -0.10045016232E+01  0.10045016232E+01  0.00000000000E+00 0. -1.
         23    2    1    2    0    0  0.00000000000E+00  0.00000000000E+00  0.23370551209E+04  0.23390641241E+04  0.96924397051E+02 0.  0.
          2    1    3    3  502    0  0.15593648274E+02  0.45190576661E+02  0.97662250774E+03  0.97779183506E+03  0.00000000000E+00 0. -1.
         -2    1    3    3    0  502 -0.15593648274E+02 -0.45190576661E+02  0.13604326131E+04  0.13612722891E+04  0.00000000000E+00 0.  1.
<mgrwt>
<rscale>  0 0.96924397E+02</rscale>
<asrwt>0</asrwt>
<pdfrwt beam="1">  1        2 0.35969713E+00 0.96924397E+02</pdfrwt>
<pdfrwt beam="2">  1       -2 0.15454058E-03 0.96924397E+02</pdfrwt>
<totfact> 0.13977738E+05</totfact>
</mgrwt>
</event>
<event>
 5    1  0.4059427E+001  0.9901443E+02  0.7546771E-02  0.1282382E+00
          1   -1    0    0  501    0  0.00000000000E+00  0.00000000000E+00  0.38532763025E+03  0.38532763025E+03  0.00000000000E+00 0. -1.
         -1   -1    0    0    0  501 -0.00000000000E+00 -0.00000000000E+00 -0.63607280760E+01  0.63607280760E+01  0.00000000000E+00 0.  1.
         23    2    1    2    0    0  0.00000000000E+00  0.00000000000E+00  0.37896690218E+03  0.39168835833E+03  0.99014428771E+02 0.  0.
          2    1    3    3  502    0 -0.37746226959E+02  0.21043812337E+02  0.28502774698E+03  0.28828533822E+03  0.00000000000E+00 0. -1.
         -2    1    3    3    0  502  0.37746226959E+02 -0.21043812337E+02  0.93939155197E+02  0.10340302010E+03  0.00000000000E+00 0.  1.
<mgrwt>
<rscale>  0 0.99014429E+02</rscale>
<asrwt>0</asrwt>
<pdfrwt beam="1">  1        1 0.59281156E-01 0.99014429E+02</pdfrwt>
<pdfrwt beam="2">  1       -1 0.97857385E-03 0.99014429E+02</pdfrwt>
<totfact> 0.10757689E+05</totfact>
</mgrwt>
</event>
<event>
 5    1  0.4059427E+001  0.9071886E+02  0.7546771E-02  0.1301120E+00
          1   -1    0    0  501    0  0.00000000000E+00  0.00000000000E+00  0.99093729655E+01  0.99093729655E+01  0.00000000000E+00 0. -1.
         -1   -1    0    0    0  501 -0.00000000000E+00 -0.00000000000E+00 -0.20762948186E+03  0.20762948186E+03  0.00000000000E+00 0.  1.
         23    2    1    2    0    0  0.00000000000E+00  0.00000000000E+00 -0.19772010889E+03  0.21753885482E+03  0.90718861861E+02 0.  0.
          2    1    3    3  502    0 -0.28606542622E+02 -0.19315606819E+02 -0.28291538325E+02  0.44630013314E+02  0.00000000000E+00 0. -1.
         -2    1    3    3    0  502  0.28606542622E+02  0.19315606819E+02 -0.16942857057E+03  0.17290884151E+03  0.00000000000E+00 0.  1.
<mgrwt>
<rscale>  0 0.90718862E+02</rscale>
<asrwt>0</asrwt>
<pdfrwt beam="1">  1        1 0.15245188E-02 0.90718862E+02</pdfrwt>
<pdfrwt beam="2">  1       -1 0.31943000E-01 0.90718862E+02</pdfrwt>
<totfact> 0.69581804E+04</totfact>
</mgrwt>
</event>
<event>
 5    1  0.4059427E+001  0.9154179E+02  0.7546771E-02  0.1299160E+00
         -1   -1    0    0    0  501 -0.00000000000E+00  0.00000000000E+00  0.69031475059E+01  0.69031475059E+01  0.00000000000E+00 0.  1.
          1   -1    0    0  501    0  0.00000000000E+00 -0.00000000000E+00 -0.30348109251E+03  0.30348109251E+03  0.00000000000E+00 0. -1.
         23    2    1    2    0    0  0.00000000000E+00  0.00000000000E+00 -0.29657794501E+03  0.31038424002E+03  0.91541788203E+02 0.  0.
          2    1    3    3  502    0  0.99033845515E+01 -0.22954481700E+02 -0.27828718621E+03  0.27940784396E+03  0.00000000000E+00 0. -1.
         -2    1    3    3    0  502 -0.99033845515E+01  0.22954481700E+02 -0.18290758798E+02  0.30976396064E+02  0.00000000000E+00 0.  1.
<mgrwt>
<rscale>  0 0.91541788E+02</rscale>
<asrwt>0</asrwt>
<pdfrwt beam="2">  1        1 0.46689395E-01 0.91541788E+02</pdfrwt>
<pdfrwt beam="1">  1       -1 0.10620228E-02 0.91541788E+02</pdfrwt>
<totfact> 0.12704310E+05</totfact>
</mgrwt>
</event>
<event>
 5    1  0.4059427E+001  0.8948379E+02  0.7546771E-02  0.1304107E+00
         -2   -1    0    0    0  501 -0.00000000000E+00  0.00000000000E+00  0.10576255188E+01  0.10576255188E+01  0.00000000000E+00 0.  1.
          2   -1    0    0  501    0  0.00000000000E+00 -0.00000000000E+00 -0.18927654766E+04  0.18927654766E+04  0.00000000000E+00 0. -1.
         23    2    1    2    0    0  0.00000000000E+00  0.00000000000E+00 -0.18917078511E+04  0.18938231022E+04  0.89483787788E+02 0.  0.
          2    1    3    3  502    0  0.33156405447E+02 -0.25894715172E+02 -0.12681801079E+04  0.12688777205E+04  0.00000000000E+00 0. -1.
         -2    1    3    3    0  502 -0.33156405447E+02  0.25894715172E+02 -0.62352774319E+03  0.62494538163E+03  0.00000000000E+00 0.  1.
<mgrwt>
<rscale>  0 0.89483788E+02</rscale>
<asrwt>0</asrwt>
<pdfrwt beam="2">  1        2 0.29119312E+00 0.89483788E+02</pdfrwt>
<pdfrwt beam="1">  1       -2 0.16271249E-03 0.89483788E+02</pdfrwt>
<totfact> 0.21690444E+05</totfact>
</mgrwt>
</event>
<event>
 5    1  0.4059427E+001  0.8801371E+02  0.7546771E-02  0.1307734E+00
         -2   -1    0    0    0  501 -0.00000000000E+00  0.00000000000E+00  0.41079688701E+01  0.41079688701E+01  0.00000000000E+00 0. -1.
          2   -1    0    0  501    0  0.00000000000E+00 -0.00000000000E+00 -0.47142600899E+03  0.47142600899E+03  0.00000000000E+00 0.  1.
         23    2    1    2    0    0  0.00000000000E+00  0.00000000000E+00 -0.46731804012E+03  0.47553397786E+03  0.88013711875E+02 0.  0.
          2    1    3    3  502    0 -0.42620865481E+02 -0.10273949014E+02 -0.25424077407E+03  0.25799314604E+03  0.00000000000E+00 0. -1.
         -2    1    3    3    0  502  0.42620865481E+02  0.10273949014E+02 -0.21307726604E+03  0.21754083182E+03  0.00000000000E+00 0.  1.
<mgrwt>
<rscale>  0 0.88013712E+02</rscale>
<asrwt>0</asrwt>
<pdfrwt beam="2">  1        2 0.72527048E-01 0.88013712E+02</pdfrwt>
<pdfrwt beam="1">  1       -2 0.63199547E-03 0.88013712E+02</pdfrwt>
<totfact> 0.23201872E+05</totfact>
</mgrwt>
</event>
<event>
 5    1  0.4059427E+001  0.9049444E+02  0.7546771E-02  0.1301659E+00
          2   -1    0    0  501    0  0.00000000000E+00  0.00000000000E+00  0.69353802158E+03  0.69353802158E+03  0.00000000000E+00 0. -1.
         -2   -1    0    0    0  501 -0.00000000000E+00 -0.00000000000E+00 -0.29519805804E+01  0.29519805804E+01  0.00000000000E+00 0.  1.
         23    2    1    2    0    0  0.00000000000E+00  0.00000000000E+00  0.69058604100E+03  0.69649000216E+03  0.90494436768E+02 0.  0.
          2    1    3    3  502    0  0.78442323750E+01  0.44543755548E+02  0.35512717690E+03  0.35799579594E+03  0.00000000000E+00 0. -1.
         -2    1    3    3    0  502 -0.78442323750E+01 -0.44543755548E+02  0.33545886410E+03  0.33849420622E+03  0.00000000000E+00 0.  1.
<mgrwt>
<rscale>  0 0.90494437E+02</rscale>
<asrwt>0</asrwt>
<pdfrwt beam="1">  1        2 0.10669803E+00 0.90494437E+02</pdfrwt>
<pdfrwt beam="2">  1       -2 0.45415141E-03 0.90494437E+02</pdfrwt>
<totfact> 0.24136126E+05</totfact>
</mgrwt>
</event>
<event>
 5    1  0.4059427E+001  0.9133450E+02  0.7546771E-02  0.1299652E+00
          2   -1    0    0  501    0  0.00000000000E+00  0.00000000000E+00  0.17960690126E+04  0.17960690126E+04  0.00000000000E+00 0. -1.
         -2   -1    0    0    0  501 -0.00000000000E+00 -0.00000000000E+00 -0.11611457629E+01  0.11611457629E+01  0.00000000000E+00 0.  1.
         23    2    1    2    0    0  0.00000000000E+00  0.00000000000E+00  0.17949078669E+04  0.17972301584E+04  0.91334504409E+02 0.  0.
          2    1    3    3  502    0 -0.17959010370E+02 -0.40046132776E+02  0.11457948302E+04  0.11466350822E+04  0.00000000000E+00 0.  1.
         -2    1    3    3    0  502  0.17959010370E+02  0.40046132776E+02  0.64911303666E+03  0.65059507620E+03  0.00000000000E+00 0. -1.
<mgrwt>
<rscale>  0 0.91334504E+02</rscale>
<asrwt>0</asrwt>
<pdfrwt beam="1">  1        2 0.27631609E+00 0.91334504E+02</pdfrwt>
<pdfrwt beam="2">  1       -2 0.17863925E-03 0.91334504E+02</pdfrwt>
<totfact> 0.21367938E+05</totfact>
</mgrwt>
</event>
<event>
 5    1  0.4059427E+001  0.8409174E+02  0.7546771E-02  0.1317825E+00
         -2   -1    0    0    0  501 -0.00000000000E+00  0.00000000000E+00  0.11384408157E+01  0.11384408157E+01  0.00000000000E+00 0.  1.
          2   -1    0    0  501    0  0.00000000000E+00 -0.00000000000E+00 -0.15528741753E+04  0.15528741753E+04  0.00000000000E+00 0. -1.
         23    2    1    2    0    0  0.00000000000E+00  0.00000000000E+00 -0.15517357345E+04  0.15540126161E+04  0.84091743774E+02 0.  0.
          2    1    3    3  502    0  0.20830718658E+02  0.37714316902E+01 -0.10453038206E+03  0.10665244165E+03  0.00000000000E+00 0.  1.
         -2    1    3    3    0  502 -0.20830718658E+02 -0.37714316902E+01 -0.14472053524E+04  0.14473601745E+04  0.00000000000E+00 0. -1.
<mgrwt>
<rscale>  0 0.84091744E+02</rscale>
<asrwt>0</asrwt>
<pdfrwt beam="2">  1        2 0.23890358E+00 0.84091744E+02</pdfrwt>
<pdfrwt beam="1">  1       -2 0.17514484E-03 0.84091744E+02</pdfrwt>
<totfact> 0.28775247E+05</totfact>
</mgrwt>
</event>
<event>
 5    1  0.4059427E+001  0.9028250E+02  0.7546771E-02  0.1302169E+00
         -2   -1    0    0    0  501 -0.00000000000E+00  0.00000000000E+00  0.72807653942E+00  0.72807653942E+00  0.00000000000E+00 0.  1.
          2   -1    0    0  501    0  0.00000000000E+00 -0.00000000000E+00 -0.27987887234E+04  0.27987887234E+04  0.00000000000E+00 0. -1.
         23    2    1    2    0    0  0.00000000000E+00  0.00000000000E+00 -0.27980606468E+04  0.27995167999E+04  0.90282499041E+02 0.  0.
          2    1    3    3  502    0 -0.41064167485E+02  0.17994265823E+01 -0.19776747010E+04  0.19781017989E+04  0.00000000000E+00 0. -1.
         -2    1    3    3    0  502  0.41064167485E+02 -0.17994265823E+01 -0.82038594585E+03  0.82141500104E+03  0.00000000000E+00 0.  1.
<mgrwt>
<rscale>  0 0.90282499E+02</rscale>
<asrwt>0</asrwt>
<pdfrwt beam="2">  1        2 0.43059128E+00 0.90282499E+02</pdfrwt>
<pdfrwt beam="1">  1       -2 0.11200959E-03 0.90282499E+02</pdfrwt>
<totfact> 0.12318672E+05</totfact>
</mgrwt>
</event>
<event>
 5    1  0.4059427E+001  0.9097895E+02  0.7546771E-02  0.1300498E+00
         -1   -1    0    0    0  501 -0.00000000000E+00  0.00000000000E+00  0.49229061078E+01  0.49229061078E+01  0.00000000000E+00 0.  1.
          1   -1    0    0  501    0  0.00000000000E+00 -0.00000000000E+00 -0.42033956039E+03  0.42033956039E+03  0.00000000000E+00 0. -1.
         23    2    1    2    0    0  0.00000000000E+00  0.00000000000E+00 -0.41541665428E+03  0.42526246650E+03  0.90978946778E+02 0.  0.
          2    1    3    3  502    0  0.97222778243E+01  0.37130581603E+02 -0.32183097856E+03  0.32411168065E+03  0.00000000000E+00 0. -1.
         -2    1    3    3    0  502 -0.97222778243E+01 -0.37130581603E+02 -0.93585675725E+02  0.10115078585E+03  0.00000000000E+00 0.  1.
<mgrwt>
<rscale>  0 0.90978947E+02</rscale>
<asrwt>0</asrwt>
<pdfrwt beam="2">  1        1 0.64667669E-01 0.90978947E+02</pdfrwt>
<pdfrwt beam="1">  1       -1 0.75736965E-03 0.90978947E+02</pdfrwt>
<totfact> 0.13675149E+05</totfact>
</mgrwt>
</event>
<event>
 5    1  0.4059427E+001  0.9018839E+02  0.7546771E-02  0.1302396E+00
          2   -1    0    0  501    0  0.00000000000E+00  0.00000000000E+00  0.36752672691E+03  0.36752672691E+03  0.00000000000E+00 0. -1.
         -2   -1    0    0    0  501 -0.00000000000E+00 -0.00000000000E+00 -0.55328940788E+01  0.55328940788E+01  0.00000000000E+00 0.  1.
         23    2    1    2    0    0  0.00000000000E+00  0.00000000000E+00  0.36199383283E+03  0.37305962099E+03  0.90188390630E+02 0.  0.
          2    1    3    3  502    0  0.41353353991E+02  0.26004867026E+00  0.25537469106E+03  0.25870137291E+03  0.00000000000E+00 0. -1.
         -2    1    3    3    0  502 -0.41353353991E+02 -0.26004867026E+00  0.10661914177E+03  0.11435824808E+03  0.00000000000E+00 0.  1.
<mgrwt>
<rscale>  0 0.90188391E+02</rscale>
<asrwt>0</asrwt>
<pdfrwt beam="1">  1        2 0.56542554E-01 0.90188391E+02</pdfrwt>
<pdfrwt beam="2">  1       -2 0.85121476E-03 0.90188391E+02</pdfrwt>
<totfact> 0.19930042E+05</totfact>
</mgrwt>
</event>
<event>
 5    1  0.4059427E+001  0.9227520E+02  0.7546771E-02  0.1297434E+00
          2   -1    0    0  501    0  0.00000000000E+00  0.00000000000E+00  0.11513868253E+04  0.11513868253E+04  0.00000000000E+00 0. -1.
         -2   -1    0    0    0  501 -0.00000000000E+00 -0.00000000000E+00 -0.18487949045E+01  0.18487949045E+01  0.00000000000E+00 0.  1.
         23    2    1    2    0    0  0.00000000000E+00  0.00000000000E+00  0.11495380304E+04  0.11532356202E+04  0.92275199175E+02 0.  0.
          2    1    3    3  502    0  0.24691931590E+02 -0.30886355903E+02  0.27769489158E+03  0.28049618763E+03  0.00000000000E+00 0. -1.
         -2    1    3    3    0  502 -0.24691931590E+02  0.30886355903E+02  0.87184313882E+03  0.87273943258E+03  0.00000000000E+00 0.  1.
<mgrwt>
<rscale>  0 0.92275199E+02</rscale>
<asrwt>0</asrwt>
<pdfrwt beam="1">  1        2 0.17713586E+00 0.92275199E+02</pdfrwt>
<pdfrwt beam="2">  1       -2 0.28443091E-03 0.92275199E+02</pdfrwt>
<totfact> 0.24186338E+05</totfact>
</mgrwt>
</event>
<event>
 5    1  0.4059427E+001  0.9105504E+02  0.7546771E-02  0.1300317E+00
          2   -1    0    0  501    0  0.00000000000E+00  0.00000000000E+00  0.69601359971E+03  0.69601359971E+03  0.00000000000E+00 0. -1.
         -2   -1    0    0    0  501 -0.00000000000E+00 -0.00000000000E+00 -0.29780382320E+01  0.29780382320E+01  0.00000000000E+00 0.  1.
         23    2    1    2    0    0  0.00000000000E+00  0.00000000000E+00  0.69303556148E+03  0.69899163795E+03  0.91055040716E+02 0.  0.
          2    1    3    3  502    0  0.26669213233E+02 -0.33945514886E+02  0.45755265603E+03  0.45958457106E+03  0.00000000000E+00 0. -1.
         -2    1    3    3    0  502 -0.26669213233E+02  0.33945514886E+02  0.23548290546E+03  0.23940706689E+03  0.00000000000E+00 0.  1.
<mgrwt>
<rscale>  0 0.91055041E+02</rscale>
<asrwt>0</asrwt>
<pdfrwt beam="1">  1        2 0.10707889E+00 0.91055041E+02</pdfrwt>
<pdfrwt beam="2">  1       -2 0.45816028E-03 0.91055041E+02</pdfrwt>
<totfact> 0.23766323E+05</totfact>
</mgrwt>
</event>
<event>
 5    1  0.4059427E+001  0.9450329E+02  0.7546771E-02  0.1292299E+00
          4   -1    0    0  501    0  0.00000000000E+00  0.00000000000E+00  0.78919384603E+01  0.78919384603E+01  0.00000000000E+00 0. -1.
         -4   -1    0    0    0  501 -0.00000000000E+00 -0.00000000000E+00 -0.28291121843E+03  0.28291121843E+03  0.00000000000E+00 0.  1.
         23    2    1    2    0    0  0.00000000000E+00  0.00000000000E+00 -0.27501927997E+03  0.29080315689E+03  0.94503289373E+02 0.  0.
          2    1    3    3  502    0 -0.23401633298E+02  0.41049500263E+02 -0.13794495607E+03  0.14581326695E+03  0.00000000000E+00 0. -1.
         -2    1    3    3    0  502  0.23401633298E+02 -0.41049500263E+02 -0.13707432390E+03  0.14498988994E+03  0.00000000000E+00 0.  1.
<mgrwt>
<rscale>  0 0.94503289E+02</rscale>
<asrwt>0</asrwt>
<pdfrwt beam="1">  1        4 0.12141444E-02 0.94503289E+02</pdfrwt>
<pdfrwt beam="2">  1       -4 0.43524802E-01 0.94503289E+02</pdfrwt>
<totfact> 0.16452569E+04</totfact>
</mgrwt>
</event>
<event>
 5    1  0.4059427E+001  0.9444146E+02  0.7546771E-02  0.1292439E+00
          3   -1    0    0  501    0  0.00000000000E+00  0.00000000000E+00  0.13574420311E+01  0.13574420311E+01  0.00000000000E+00 0. -1.
         -3   -1    0    0    0  501 -0.00000000000E+00 -0.00000000000E+00 -0.16426465455E+04  0.16426465455E+04  0.00000000000E+00 0.  1.
         23    2    1    2    0    0  0.00000000000E+00  0.00000000000E+00 -0.16412891035E+04  0.16440039875E+04  0.94441462570E+02 0.  0.
          2    1    3    3  502    0  0.19444101904E+02 -0.37172543533E+02 -0.44328523990E+03  0.44526584756E+03  0.00000000000E+00 0. -1.
         -2    1    3    3    0  502 -0.19444101904E+02  0.37172543533E+02 -0.11980038636E+04  0.11987381400E+04  0.00000000000E+00 0.  1.
<mgrwt>
<rscale>  0 0.94441463E+02</rscale>
<asrwt>0</asrwt>
<pdfrwt beam="1">  1        3 0.20883733E-03 0.94441463E+02</pdfrwt>
<pdfrwt beam="2">  1       -3 0.25271474E+00 0.94441463E+02</pdfrwt>
<totfact> 0.47771841E+03</totfact>
</mgrwt>
</event>
<event>
 5    1  0.4059427E+001  0.8141907E+02  0.7546771E-02  0.1325072E+00
          2   -1    0    0  501    0  0.00000000000E+00  0.00000000000E+00  0.31932294982E+02  0.31932294982E+02  0.00000000000E+00 0.  1.
         -2   -1    0    0    0  501 -0.00000000000E+00 -0.00000000000E+00 -0.51899372150E+02  0.51899372150E+02  0.00000000000E+00 0. -1.
         23    2    1    2    0    0  0.00000000000E+00  0.00000000000E+00 -0.19967077168E+02  0.83831667133E+02  0.81419065603E+02 0.  0.
          2    1    3    3  502    0  0.20103679225E+02 -0.33004457680E+02 -0.23161777743E+02  0.45054634538E+02  0.00000000000E+00 0. -1.
         -2    1    3    3    0  502 -0.20103679225E+02  0.33004457680E+02  0.31947005746E+01  0.38777032595E+02  0.00000000000E+00 0.  1.
<mgrwt>
<rscale>  0 0.81419066E+02</rscale>
<asrwt>0</asrwt>
<pdfrwt beam="1">  1        2 0.49126608E-02 0.81419066E+02</pdfrwt>
<pdfrwt beam="2">  1       -2 0.79845187E-02 0.81419066E+02</pdfrwt>
<totfact> 0.12503217E+05</totfact>
</mgrwt>
</event>
<event>
 5    1  0.4059427E+001  0.9084295E+02  0.7546771E-02  0.1300823E+00
         -2   -1    0    0    0  501 -0.00000000000E+00  0.00000000000E+00  0.57608282267E+01  0.57608282267E+01  0.00000000000E+00 0. -1.
          2   -1    0    0  501    0  0.00000000000E+00 -0.00000000000E+00 -0.35812738535E+03  0.35812738535E+03  0.00000000000E+00 0.  1.
         23    2    1    2    0    0  0.00000000000E+00  0.00000000000E+00 -0.35236655713E+03  0.36388821358E+03  0.90842949101E+02 0.  0.
          2    1    3    3  502    0 -0.21614611070E+02 -0.21572469462E+01 -0.33597270954E+03  0.33667418476E+03  0.00000000000E+00 0. -1.
         -2    1    3    3    0  502  0.21614611070E+02  0.21572469462E+01 -0.16393847587E+02  0.27214028823E+02  0.00000000000E+00 0.  1.
<mgrwt>
<rscale>  0 0.90842949E+02</rscale>
<asrwt>0</asrwt>
<pdfrwt beam="2">  1        2 0.55096544E-01 0.90842949E+02</pdfrwt>
<pdfrwt beam="1">  1       -2 0.88628089E-03 0.90842949E+02</pdfrwt>
<totfact> 0.19367843E+05</totfact>
</mgrwt>
</event>
<event>
 5    1  0.4059427E+001  0.9154896E+02  0.7546771E-02  0.1299143E+00
          2   -1    0    0  501    0  0.00000000000E+00  0.00000000000E+00  0.16338957365E+04  0.16338957365E+04  0.00000000000E+00 0. -1.
         -2   -1    0    0    0  501 -0.00000000000E+00 -0.00000000000E+00 -0.12823971360E+01  0.12823971360E+01  0.00000000000E+00 0.  1.
         23    2    1    2    0    0  0.00000000000E+00  0.00000000000E+00  0.16326133394E+04  0.16351781337E+04  0.91548964234E+02 0.  0.
          2    1    3    3  502    0  0.21763807508E+02  0.30649585779E+02  0.12828383199E+04  0.12833889572E+04  0.00000000000E+00 0. -1.
         -2    1    3    3    0  502 -0.21763807508E+02 -0.30649585779E+02  0.34977501946E+03  0.35178917644E+03  0.00000000000E+00 0.  1.
<mgrwt>
<rscale>  0 0.91548964E+02</rscale>
<asrwt>0</asrwt>
<pdfrwt beam="1">  1        2 0.25136691E+00 0.91548964E+02</pdfrwt>
<pdfrwt beam="2">  1       -2 0.19729317E-03 0.91548964E+02</pdfrwt>
<totfact> 0.22474757E+05</totfact>
</mgrwt>
</event>
<event>
 5    1  0.4059427E+001  0.9119046E+02  0.7546771E-02  0.1299994E+00
          1   -1    0    0  501    0  0.00000000000E+00  0.00000000000E+00  0.48931295287E+03  0.48931295287E+03  0.00000000000E+00 0. -1.
         -1   -1    0    0    0  501 -0.00000000000E+00 -0.00000000000E+00 -0.42486614792E+01  0.42486614792E+01  0.00000000000E+00 0.  1.
         23    2    1    2    0    0  0.00000000000E+00  0.00000000000E+00  0.48506429140E+03  0.49356161435E+03  0.91190462092E+02 0.  0.
          2    1    3    3  502    0  0.29068064130E+02 -0.19622288212E+02  0.40023156223E+03  0.40176521745E+03  0.00000000000E+00 0. -1.
         -2    1    3    3    0  502 -0.29068064130E+02  0.19622288212E+02  0.84832729162E+02  0.91796396901E+02  0.00000000000E+00 0.  1.
<mgrwt>
<rscale>  0 0.91190462E+02</rscale>
<asrwt>0</asrwt>
<pdfrwt beam="1">  1        1 0.75278871E-01 0.91190462E+02</pdfrwt>
<pdfrwt beam="2">  1       -1 0.65364062E-03 0.91190462E+02</pdfrwt>
<totfact> 0.13884702E+05</totfact>
</mgrwt>
</event>
<event>
 5    1  0.4059427E+001  0.8863123E+02  0.7546771E-02  0.1306201E+00
          3   -1    0    0  501    0  0.00000000000E+00  0.00000000000E+00  0.43287540348E+01  0.43287540348E+01  0.00000000000E+00 0. -1.
         -3   -1    0    0    0  501 -0.00000000000E+00 -0.00000000000E+00 -0.45368104136E+03  0.45368104136E+03  0.00000000000E+00 0.  1.
         23    2    1    2    0    0  0.00000000000E+00  0.00000000000E+00 -0.44935228733E+03  0.45800979540E+03  0.88631227867E+02 0.  0.
          2    1    3    3  502    0  0.39869251148E+02 -0.65611449700E+01 -0.13062206567E+03  0.13672867238E+03  0.00000000000E+00 0. -1.
         -2    1    3    3    0  502 -0.39869251148E+02  0.65611449700E+01 -0.31873022166E+03  0.32128112302E+03  0.00000000000E+00 0.  1.
<mgrwt>
<rscale>  0 0.88631228E+02</rscale>
<asrwt>0</asrwt>
<pdfrwt beam="1">  1        3 0.66596245E-03 0.88631228E+02</pdfrwt>
<pdfrwt beam="2">  1       -3 0.69797053E-01 0.88631228E+02</pdfrwt>
<totfact> 0.20441481E+04</totfact>
</mgrwt>
</event>
<event>
 5    1  0.4059427E+001  0.8985542E+02  0.7546771E-02  0.1303202E+00
         -2   -1    0    0    0  501 -0.00000000000E+00  0.00000000000E+00  0.29625373994E+01  0.29625373994E+01  0.00000000000E+00 0.  1.
          2   -1    0    0  501    0  0.00000000000E+00 -0.00000000000E+00 -0.68134130790E+03  0.68134130790E+03  0.00000000000E+00 0. -1.
         23    2    1    2    0    0  0.00000000000E+00  0.00000000000E+00 -0.67837877050E+03  0.68430384530E+03  0.89855419568E+02 0.  0.
          2    1    3    3  502    0 -0.35597373835E+02 -0.28442533142E+01 -0.54680889536E+03  0.54797375015E+03  0.00000000000E+00 0. -1.
         -2    1    3    3    0  502  0.35597373835E+02  0.28442533142E+01 -0.13156987514E+03  0.13633009515E+03  0.00000000000E+00 0.  1.
<mgrwt>
<rscale>  0 0.89855420E+02</rscale>
<asrwt>0</asrwt>
<pdfrwt beam="2">  1        2 0.10482177E+00 0.89855420E+02</pdfrwt>
<pdfrwt beam="1">  1       -2 0.45577484E-03 0.89855420E+02</pdfrwt>
<totfact> 0.24486732E+05</totfact>
</mgrwt>
</event>
<event>
 5    1  0.4059427E+001  0.9345578E+02  0.7546771E-02  0.1294692E+00
         -2   -1    0    0    0  501 -0.00000000000E+00  0.00000000000E+00  0.17710158225E+02  0.17710158225E+02  0.00000000000E+00 0.  1.
          2   -1    0    0  501    0  0.00000000000E+00 -0.00000000000E+00 -0.12329057230E+03  0.12329057230E+03  0.00000000000E+00 0. -1.
         23    2    1    2    0    0  0.00000000000E+00  0.00000000000E+00 -0.10558041407E+03  0.14100073052E+03  0.93455776559E+02 0.  0.
          2    1    3    3  502    0 -0.21586568124E+02 -0.37764759983E+02 -0.27038016953E+02  0.51217295719E+02  0.00000000000E+00 0.  1.
         -2    1    3    3    0  502  0.21586568124E+02  0.37764759983E+02 -0.78542397117E+02  0.89783434802E+02  0.00000000000E+00 0. -1.
<mgrwt>
<rscale>  0 0.93455777E+02</rscale>
<asrwt>0</asrwt>
<pdfrwt beam="2">  1        2 0.18967781E-01 0.93455777E+02</pdfrwt>
<pdfrwt beam="1">  1       -2 0.27246397E-02 0.93455777E+02</pdfrwt>
<totfact> 0.12243637E+05</totfact>
</mgrwt>
</event>
<event>
 5    1  0.4059427E+001  0.9153354E+02  0.7546771E-02  0.1299180E+00
         -2   -1    0    0    0  501 -0.00000000000E+00  0.00000000000E+00  0.40784368900E+01  0.40784368900E+01  0.00000000000E+00 0.  1.
          2   -1    0    0  501    0  0.00000000000E+00 -0.00000000000E+00 -0.51357845377E+03  0.51357845377E+03  0.00000000000E+00 0. -1.
         23    2    1    2    0    0  0.00000000000E+00  0.00000000000E+00 -0.50950001688E+03  0.51765689066E+03  0.91533541651E+02 0.  0.
          2    1    3    3  502    0  0.60103104489E+01 -0.45340752316E+02 -0.26402493299E+03  0.26795722213E+03  0.00000000000E+00 0. -1.
         -2    1    3    3    0  502 -0.60103104489E+01  0.45340752316E+02 -0.24547508390E+03  0.24969966853E+03  0.00000000000E+00 0.  1.
<mgrwt>
<rscale>  0 0.91533542E+02</rscale>
<asrwt>0</asrwt>
<pdfrwt beam="2">  1        2 0.79012072E-01 0.91533542E+02</pdfrwt>
<pdfrwt beam="1">  1       -2 0.62745181E-03 0.91533542E+02</pdfrwt>
<totfact> 0.21513100E+05</totfact>
</mgrwt>
</event>
<event>
 5    1  0.4059427E+001  0.9243756E+02  0.7546771E-02  0.1297054E+00
          1   -1    0    0  501    0  0.00000000000E+00  0.00000000000E+00  0.25854211467E+02  0.25854211467E+02  0.00000000000E+00 0. -1.
         -1   -1    0    0    0  501 -0.00000000000E+00 -0.00000000000E+00 -0.82623884991E+02  0.82623884991E+02  0.00000000000E+00 0.  1.
         23    2    1    2    0    0  0.00000000000E+00  0.00000000000E+00 -0.56769673524E+02  0.10847809646E+03  0.92437555025E+02 0.  0.
          2    1    3    3  502    0 -0.12257263154E+02 -0.43901438791E+02 -0.19401511951E+02  0.49537818825E+02  0.00000000000E+00 0. -1.
         -2    1    3    3    0  502  0.12257263154E+02  0.43901438791E+02 -0.37368161573E+02  0.58940277632E+02  0.00000000000E+00 0.  1.
<mgrwt>
<rscale>  0 0.92437555E+02</rscale>
<asrwt>0</asrwt>
<pdfrwt beam="1">  1        1 0.39775710E-02 0.92437555E+02</pdfrwt>
<pdfrwt beam="2">  1       -1 0.12711367E-01 0.92437555E+02</pdfrwt>
<totfact> 0.81273161E+04</totfact>
</mgrwt>
</event>
<event>
 5    1  0.4059427E+001  0.9525715E+02  0.7546771E-02  0.1290598E+00
          1   -1    0    0  501    0  0.00000000000E+00  0.00000000000E+00  0.74185218035E+02  0.74185218035E+02  0.00000000000E+00 0. -1.
         -1   -1    0    0    0  501 -0.00000000000E+00 -0.00000000000E+00 -0.30578615509E+02  0.30578615509E+02  0.00000000000E+00 0.  1.
         23    2    1    2    0    0  0.00000000000E+00  0.00000000000E+00  0.43606602526E+02  0.10476383354E+03  0.95257152145E+02 0.  0.
          2    1    3    3  502    0 -0.89209300134E+01  0.42812495561E+02  0.42553954199E+02  0.61019110010E+02  0.00000000000E+00 0. -1.
         -2    1    3    3    0  502  0.89209300134E+01 -0.42812495561E+02  0.10526483271E+01  0.43744723533E+02  0.00000000000E+00 0.  1.
<mgrwt>
<rscale>  0 0.95257152E+02</rscale>
<asrwt>0</asrwt>
<pdfrwt beam="1">  1        1 0.11413110E-01 0.95257152E+02</pdfrwt>
<pdfrwt beam="2">  1       -1 0.47044024E-02 0.95257152E+02</pdfrwt>
<totfact> 0.88215856E+04</totfact>
</mgrwt>
</event>
<event>
 5    1  0.4059427E+001  0.9084449E+02  0.7546771E-02  0.1300819E+00
          1   -1    0    0  501    0  0.00000000000E+00  0.00000000000E+00  0.40798874708E+01  0.40798874708E+01  0.00000000000E+00 0. -1.
         -1   -1    0    0    0  501 -0.00000000000E+00 -0.00000000000E+00 -0.50569535036E+03  0.50569535036E+03  0.00000000000E+00 0.  1.
         23    2    1    2    0    0  0.00000000000E+00  0.00000000000E+00 -0.50161546289E+03  0.50977523783E+03  0.90844485226E+02 0.  0.
          2    1    3    3  502    0 -0.12605069033E+02 -0.40424255607E+02 -0.15857177194E+03  0.16412804472E+03  0.00000000000E+00 0. -1.
         -2    1    3    3    0  502  0.12605069033E+02  0.40424255607E+02 -0.34304369095E+03  0.34564719311E+03  0.00000000000E+00 0.  1.
<mgrwt>
<rscale>  0 0.90844485E+02</rscale>
<asrwt>0</asrwt>
<pdfrwt beam="1">  1        1 0.62767545E-03 0.90844485E+02</pdfrwt>
<pdfrwt beam="2">  1       -1 0.77799229E-01 0.90844485E+02</pdfrwt>
<totfact> 0.47162841E+04</totfact>
</mgrwt>
</event>
<event>
 5    1  0.4059427E+001  0.9244919E+02  0.7546771E-02  0.1297027E+00
          2   -1    0    0  501    0  0.00000000000E+00  0.00000000000E+00  0.42441807762E+03  0.42441807762E+03  0.00000000000E+00 0. -1.
         -2   -1    0    0    0  501 -0.00000000000E+00 -0.00000000000E+00 -0.50344540479E+01  0.50344540479E+01  0.00000000000E+00 0.  1.
         23    2    1    2    0    0  0.00000000000E+00  0.00000000000E+00  0.41938362357E+03  0.42945253167E+03  0.92449192725E+02 0.  0.
          2    1    3    3  502    0 -0.38044966787E+01  0.41237417679E+02  0.30508586665E+03  0.30788371967E+03  0.00000000000E+00 0. -1.
         -2    1    3    3    0  502  0.38044966787E+01 -0.41237417679E+02  0.11429775693E+03  0.12156881200E+03  0.00000000000E+00 0.  1.
<mgrwt>
<rscale>  0 0.92449193E+02</rscale>
<asrwt>0</asrwt>
<pdfrwt beam="1">  1        2 0.65295060E-01 0.92449193E+02</pdfrwt>
<pdfrwt beam="2">  1       -2 0.77453173E-03 0.92449193E+02</pdfrwt>
<totfact> 0.19649256E+05</totfact>
</mgrwt>
</event>
<event>
 5    1  0.4059427E+001  0.9178405E+02  0.7546771E-02  0.1298588E+00
         -2   -1    0    0    0  501 -0.00000000000E+00  0.00000000000E+00  0.99296530273E+01  0.99296530273E+01  0.00000000000E+00 0.  1.
          2   -1    0    0  501    0  0.00000000000E+00 -0.00000000000E+00 -0.21209985131E+03  0.21209985131E+03  0.00000000000E+00 0. -1.
         23    2    1    2    0    0  0.00000000000E+00  0.00000000000E+00 -0.20217019828E+03  0.22202950434E+03  0.91784049391E+02 0.  0.
          2    1    3    3  502    0  0.18919913948E+02 -0.15262669217E+02 -0.19524663692E+03  0.19675406335E+03  0.00000000000E+00 0. -1.
         -2    1    3    3    0  502 -0.18919913948E+02  0.15262669217E+02 -0.69235613670E+01  0.25275440993E+02  0.00000000000E+00 0.  1.
<mgrwt>
<rscale>  0 0.91784049E+02</rscale>
<asrwt>0</asrwt>
<pdfrwt beam="2">  1        2 0.32630744E-01 0.91784049E+02</pdfrwt>
<pdfrwt beam="1">  1       -2 0.15276390E-02 0.91784049E+02</pdfrwt>
<totfact> 0.15521654E+05</totfact>
</mgrwt>
</event>
<event>
 5    1  0.4059427E+001  0.9113341E+02  0.7546771E-02  0.1300130E+00
          2   -1    0    0  501    0  0.00000000000E+00  0.00000000000E+00  0.34957261666E+03  0.34957261666E+03  0.00000000000E+00 0. -1.
         -2   -1    0    0    0  501 -0.00000000000E+00 -0.00000000000E+00 -0.59396083218E+01  0.59396083218E+01  0.00000000000E+00 0.  1.
         23    2    1    2    0    0  0.00000000000E+00  0.00000000000E+00  0.34363300834E+03  0.35551222498E+03  0.91133406015E+02 0.  0.
          2    1    3    3  502    0  0.28171796836E+02 -0.13958485451E+01  0.31142280910E+03  0.31269756085E+03  0.00000000000E+00 0. -1.
         -2    1    3    3    0  502 -0.28171796836E+02  0.13958485451E+01  0.32210199232E+02  0.42814664132E+02  0.00000000000E+00 0.  1.
<mgrwt>
<rscale>  0 0.91133406E+02</rscale>
<asrwt>0</asrwt>
<pdfrwt beam="1">  1        2 0.53780386E-01 0.91133406E+02</pdfrwt>
<pdfrwt beam="2">  1       -2 0.91378617E-03 0.91133406E+02</pdfrwt>
<totfact> 0.19035310E+05</totfact>
</mgrwt>
</event>
<event>
 5    1  0.4059427E+001  0.8592165E+02  0.7546771E-02  0.1313040E+00
          1   -1    0    0  501    0  0.00000000000E+00  0.00000000000E+00  0.24173539466E+02  0.24173539466E+02  0.00000000000E+00 0. -1.
         -1   -1    0    0    0  501 -0.00000000000E+00 -0.00000000000E+00 -0.76349288710E+02  0.76349288710E+02  0.00000000000E+00 0.  1.
         23    2    1    2    0    0  0.00000000000E+00  0.00000000000E+00 -0.52175749244E+02  0.10052282818E+03  0.85921651377E+02 0.  0.
          2    1    3    3  502    0 -0.22896219660E+02 -0.35401737665E+02 -0.35743400638E+02  0.55273054860E+02  0.00000000000E+00 0. -1.
         -2    1    3    3    0  502  0.22896219660E+02  0.35401737665E+02 -0.16432348607E+02  0.45249773316E+02  0.00000000000E+00 0.  1.
<mgrwt>
<rscale>  0 0.85921651E+02</rscale>
<asrwt>0</asrwt>
<pdfrwt beam="1">  1        1 0.37190061E-02 0.85921651E+02</pdfrwt>
<pdfrwt beam="2">  1       -1 0.11746044E-01 0.85921651E+02</pdfrwt>
<totfact> 0.99274726E+04</totfact>
</mgrwt>
</event>
<event>
 5    1  0.4059427E+001  0.8978995E+02  0.7546771E-02  0.1303361E+00
          2   -1    0    0  501    0  0.00000000000E+00  0.00000000000E+00  0.14592652488E+04  0.14592652488E+04  0.00000000000E+00 0. -1.
         -2   -1    0    0    0  501 -0.00000000000E+00 -0.00000000000E+00 -0.13812148411E+01  0.13812148411E+01  0.00000000000E+00 0.  1.
         23    2    1    2    0    0  0.00000000000E+00  0.00000000000E+00  0.14578840340E+04  0.14606464637E+04  0.89789950859E+02 0.  0.
          2    1    3    3  502    0 -0.86627556347E+01  0.35692535114E+02  0.11489296356E+04  0.11495165540E+04  0.00000000000E+00 0. -1.
         -2    1    3    3    0  502  0.86627556347E+01 -0.35692535114E+02  0.30895439844E+03  0.31112990971E+03  0.00000000000E+00 0.  1.
<mgrwt>
<rscale>  0 0.89789951E+02</rscale>
<asrwt>0</asrwt>
<pdfrwt beam="1">  1        2 0.22450111E+00 0.89789951E+02</pdfrwt>
<pdfrwt beam="2">  1       -2 0.21249576E-03 0.89789951E+02</pdfrwt>
<totfact> 0.24812218E+05</totfact>
</mgrwt>
</event>
<event>
 5    1  0.4059427E+001  0.9180497E+02  0.7546771E-02  0.1298539E+00
          2   -1    0    0  501    0  0.00000000000E+00  0.00000000000E+00  0.18435247752E+02  0.18435247752E+02  0.00000000000E+00 0. -1.
         -2   -1    0    0    0  501 -0.00000000000E+00 -0.00000000000E+00 -0.11429399412E+03  0.11429399412E+03  0.00000000000E+00 0.  1.
         23    2    1    2    0    0  0.00000000000E+00  0.00000000000E+00 -0.95858746364E+02  0.13272924187E+03  0.91804969323E+02 0.  0.
          2    1    3    3  502    0  0.26468469846E+02 -0.60940508964E+01  0.55705326904E+01  0.27726308567E+02  0.00000000000E+00 0. -1.
         -2    1    3    3    0  502 -0.26468469846E+02  0.60940508964E+01 -0.10142927905E+03  0.10500293330E+03  0.00000000000E+00 0.  1.
<mgrwt>
<rscale>  0 0.91804969E+02</rscale>
<asrwt>0</asrwt>
<pdfrwt beam="1">  1        2 0.28361920E-02 0.91804969E+02</pdfrwt>
<pdfrwt beam="2">  1       -2 0.17583691E-01 0.91804969E+02</pdfrwt>
<totfact> 0.75293429E+04</totfact>
</mgrwt>
</event>
<event>
 5    1  0.4059427E+001  0.9171112E+02  0.7546771E-02  0.1298760E+00
          3   -1    0    0  501    0  0.00000000000E+00  0.00000000000E+00  0.13720510575E+03  0.13720510575E+03  0.00000000000E+00 0. -1.
         -3   -1    0    0    0  501 -0.00000000000E+00 -0.00000000000E+00 -0.15325468521E+02  0.15325468521E+02  0.00000000000E+00 0.  1.
         23    2    1    2    0    0  0.00000000000E+00  0.00000000000E+00  0.12187963723E+03  0.15253057428E+03  0.91711123190E+02 0.  0.
          2    1    3    3  502    0 -0.74143058166E+01  0.42527056914E+02  0.86662994347E+02  0.96819404510E+02  0.00000000000E+00 0. -1.
         -2    1    3    3    0  502  0.74143058166E+01 -0.42527056914E+02  0.35216642886E+02  0.55711169766E+02  0.00000000000E+00 0.  1.
<mgrwt>
<rscale>  0 0.91711123E+02</rscale>
<asrwt>0</asrwt>
<pdfrwt beam="1">  1        3 0.21108477E-01 0.91711123E+02</pdfrwt>
<pdfrwt beam="2">  1       -3 0.23577645E-02 0.91711123E+02</pdfrwt>
<totfact> 0.30663041E+04</totfact>
</mgrwt>
</event>
<event>
 5    1  0.4059427E+001  0.9098885E+02  0.7546771E-02  0.1300475E+00
         -2   -1    0    0    0  501 -0.00000000000E+00  0.00000000000E+00  0.18825364882E+01  0.18825364882E+01  0.00000000000E+00 0.  1.
          2   -1    0    0  501    0  0.00000000000E+00 -0.00000000000E+00 -0.10994436065E+04  0.10994436065E+04  0.00000000000E+00 0. -1.
         23    2    1    2    0    0  0.00000000000E+00  0.00000000000E+00 -0.10975610700E+04  0.11013261430E+04  0.90988849997E+02 0.  0.
          2    1    3    3  502    0 -0.17463189137E+02  0.14206747557E+02 -0.10273004806E+04  0.10275471143E+04  0.00000000000E+00 0. -1.
         -2    1    3    3    0  502  0.17463189137E+02 -0.14206747557E+02 -0.70260589452E+02  0.73779028735E+02  0.00000000000E+00 0.  1.
<mgrwt>
<rscale>  0 0.90988850E+02</rscale>
<asrwt>0</asrwt>
<pdfrwt beam="2">  1        2 0.16914502E+00 0.90988850E+02</pdfrwt>
<pdfrwt beam="1">  1       -2 0.28962126E-03 0.90988850E+02</pdfrwt>
<totfact> 0.25155662E+05</totfact>
</mgrwt>
</event>
<event>
 5    1  0.4059427E+001  0.9054644E+02  0.7546771E-02  0.1301534E+00
          1   -1    0    0  501    0  0.00000000000E+00  0.00000000000E+00  0.67582447507E+02  0.67582447507E+02  0.00000000000E+00 0. -1.
         -1   -1    0    0    0  501 -0.00000000000E+00 -0.00000000000E+00 -0.30328356003E+02  0.30328356003E+02  0.00000000000E+00 0.  1.
         23    2    1    2    0    0  0.00000000000E+00  0.00000000000E+00  0.37254091504E+02  0.97910803510E+02  0.90546441731E+02 0.  0.
          2    1    3    3  502    0  0.30180242313E+02  0.30357074400E+02  0.34565809980E+02  0.55019943764E+02  0.00000000000E+00 0. -1.
         -2    1    3    3    0  502 -0.30180242313E+02 -0.30357074400E+02  0.26882815237E+01  0.42890859746E+02  0.00000000000E+00 0.  1.
<mgrwt>
<rscale>  0 0.90546442E+02</rscale>
<asrwt>0</asrwt>
<pdfrwt beam="1">  1        1 0.10397300E-01 0.90546442E+02</pdfrwt>
<pdfrwt beam="2">  1       -1 0.46659010E-02 0.90546442E+02</pdfrwt>
<totfact> 0.10003081E+05</totfact>
</mgrwt>
</event>
<event>
 5    1  0.4059427E+001  0.9192390E+02  0.7546771E-02  0.1298258E+00
         -2   -1    0    0    0  501 -0.00000000000E+00  0.00000000000E+00  0.30144720903E+01  0.30144720903E+01  0.00000000000E+00 0.  1.
          2   -1    0    0  501    0  0.00000000000E+00 -0.00000000000E+00 -0.70078637738E+03  0.70078637738E+03  0.00000000000E+00 0. -1.
         23    2    1    2    0    0  0.00000000000E+00  0.00000000000E+00 -0.69777190529E+03  0.70380084947E+03  0.91923902786E+02 0.  0.
          2    1    3    3  502    0 -0.14246387591E+02  0.20338882117E+02 -0.64500643317E+03  0.64548425892E+03  0.00000000000E+00 0. -1.
         -2    1    3    3    0  502  0.14246387591E+02 -0.20338882117E+02 -0.52765472120E+02  0.58316590549E+02  0.00000000000E+00 0.  1.
<mgrwt>
<rscale>  0 0.91923903E+02</rscale>
<asrwt>0</asrwt>
<pdfrwt beam="2">  1        2 0.10781323E+00 0.91923903E+02</pdfrwt>
<pdfrwt beam="1">  1       -2 0.46376518E-03 0.91923903E+02</pdfrwt>
<totfact> 0.23215071E+05</totfact>
</mgrwt>
</event>
<event>
 5    1  0.4059427E+001  0.9544421E+02  0.7546771E-02  0.1290179E+00
         -2   -1    0    0    0  501 -0.00000000000E+00  0.00000000000E+00  0.31415737708E+01  0.31415737708E+01  0.00000000000E+00 0.  1.
          2   -1    0    0  501    0  0.00000000000E+00 -0.00000000000E+00 -0.72492303739E+03  0.72492303739E+03  0.00000000000E+00 0. -1.
         23    2    1    2    0    0  0.00000000000E+00  0.00000000000E+00 -0.72178146362E+03  0.72806461116E+03  0.95444207789E+02 0.  0.
          2    1    3    3  502    0 -0.19754523231E+02  0.35412876779E+02 -0.16895680106E+03  0.17375475146E+03  0.00000000000E+00 0. -1.
         -2    1    3    3    0  502  0.19754523231E+02 -0.35412876779E+02 -0.55282466256E+03  0.55430985971E+03  0.00000000000E+00 0.  1.
<mgrwt>
<rscale>  0 0.95444208E+02</rscale>
<asrwt>0</asrwt>
<pdfrwt beam="2">  1        2 0.11152649E+00 0.95444208E+02</pdfrwt>
<pdfrwt beam="1">  1       -2 0.48331959E-03 0.95444208E+02</pdfrwt>
<totfact> 0.21180221E+05</totfact>
</mgrwt>
</event>
<event>
 5    1  0.4059427E+001  0.1062598E+03  0.7546771E-02  0.1267657E+00
         -1   -1    0    0    0  501 -0.00000000000E+00  0.00000000000E+00  0.42287503096E+01  0.42287503096E+01  0.00000000000E+00 0.  1.
          1   -1    0    0  501    0  0.00000000000E+00 -0.00000000000E+00 -0.66752259778E+03  0.66752259778E+03  0.00000000000E+00 0. -1.
         23    2    1    2    0    0  0.00000000000E+00  0.00000000000E+00 -0.66329384747E+03  0.67175134808E+03  0.10625980222E+03 0.  0.
          2    1    3    3  502    0  0.31845959112E+02 -0.17689441259E+02 -0.57613771643E+03  0.57728827265E+03  0.00000000000E+00 0. -1.
         -2    1    3    3    0  502 -0.31845959112E+02  0.17689441259E+02 -0.87156131032E+02  0.94463075433E+02  0.00000000000E+00 0.  1.
<mgrwt>
<rscale>  0 0.10625980E+03</rscale>
<asrwt>0</asrwt>
<pdfrwt beam="2">  1        1 0.10269580E+00 0.10625980E+03</pdfrwt>
<pdfrwt beam="1">  1       -1 0.65057686E-03 0.10625980E+03</pdfrwt>
<totfact> 0.94533454E+04</totfact>
</mgrwt>
</event>
<event>
 4    1  0.4059427E+001  0.1318227E+03  0.7546771E-02  0.1224776E+00
          1   -1    0    0  501    0  0.00000000000E+00  0.00000000000E+00  0.12194236272E+02  0.12194236272E+02  0.00000000000E+00 0. -1.
         -1   -1    0    0    0  501 -0.00000000000E+00 -0.00000000000E+00 -0.35625917818E+03  0.35625917818E+03  0.00000000000E+00 0.  1.
          2    1    1    2  502    0 -0.26561363365E+02  0.11747201363E+02 -0.66550298005E+01  0.29795841745E+02  0.00000000000E+00 0. -1.
         -2    1    1    2    0  502  0.26561363365E+02 -0.11747201363E+02 -0.33740991210E+03  0.33865757270E+03  0.00000000000E+00 0.  1.
<mgrwt>
<rscale>  0 0.13182274E+03</rscale>
<asrwt>0</asrwt>
<pdfrwt beam="1">  1        1 0.18760362E-02 0.13182274E+03</pdfrwt>
<pdfrwt beam="2">  1       -1 0.54809107E-01 0.13182274E+03</pdfrwt>
<totfact> 0.21206940E+04</totfact>
</mgrwt>
</event>
<event>
 5    1  0.4059427E+001  0.9188412E+02  0.7546771E-02  0.1298352E+00
         -1   -1    0    0    0  501 -0.00000000000E+00  0.00000000000E+00  0.31630687454E+02  0.31630687454E+02  0.00000000000E+00 0.  1.
          1   -1    0    0  501    0  0.00000000000E+00 -0.00000000000E+00 -0.66728645027E+02  0.66728645027E+02  0.00000000000E+00 0. -1.
         23    2    1    2    0    0  0.00000000000E+00  0.00000000000E+00 -0.35097957574E+02  0.98359332481E+02  0.91884120828E+02 0.  0.
          2    1    3    3  502    0 -0.42888819498E+02  0.98906995552E+01 -0.31644944037E+02  0.54209586410E+02  0.00000000000E+00 0. -1.
         -2    1    3    3    0  502  0.42888819498E+02 -0.98906995552E+01 -0.34530135372E+01  0.44149746071E+02  0.00000000000E+00 0.  1.
<mgrwt>
<rscale>  0 0.91884121E+02</rscale>
<asrwt>0</asrwt>
<pdfrwt beam="2">  1        1 0.10265945E-01 0.91884121E+02</pdfrwt>
<pdfrwt beam="1">  1       -1 0.48662596E-02 0.91884121E+02</pdfrwt>
<totfact> 0.95871492E+04</totfact>
</mgrwt>
</event>
<event>
 5    1  0.4059427E+001  0.9109128E+02  0.7546771E-02  0.1300230E+00
          2   -1    0    0  501    0  0.00000000000E+00  0.00000000000E+00  0.35992938412E+02  0.35992938412E+02  0.00000000000E+00 0. -1.
         -2   -1    0    0    0  501 -0.00000000000E+00 -0.00000000000E+00 -0.57633681125E+02  0.57633681125E+02  0.00000000000E+00 0.  1.
         23    2    1    2    0    0  0.00000000000E+00  0.00000000000E+00 -0.21640742713E+02  0.93626619537E+02  0.91091284658E+02 0.  0.
          2    1    3    3  502    0 -0.63521651606E+01  0.23472645705E+02  0.28762412364E+02  0.37664193389E+02  0.00000000000E+00 0. -1.
         -2    1    3    3    0  502  0.63521651606E+01 -0.23472645705E+02 -0.50403155077E+02  0.55962426148E+02  0.00000000000E+00 0.  1.
<mgrwt>
<rscale>  0 0.91091285E+02</rscale>
<asrwt>0</asrwt>
<pdfrwt beam="1">  1        2 0.55373752E-02 0.91091285E+02</pdfrwt>
<pdfrwt beam="2">  1       -2 0.88667201E-02 0.91091285E+02</pdfrwt>
<totfact> 0.93067563E+04</totfact>
</mgrwt>
</event>
<event>
 5    1  0.4059427E+001  0.8955756E+02  0.7546771E-02  0.1303927E+00
         -2   -1    0    0    0  501 -0.00000000000E+00  0.00000000000E+00  0.28467007337E+01  0.28467007337E+01  0.00000000000E+00 0.  1.
          2   -1    0    0  501    0  0.00000000000E+00 -0.00000000000E+00 -0.70437292596E+03  0.70437292596E+03  0.00000000000E+00 0. -1.
         23    2    1    2    0    0  0.00000000000E+00  0.00000000000E+00 -0.70152622523E+03  0.70721962669E+03  0.89557555239E+02 0.  0.
          2    1    3    3  502    0 -0.34581207024E+02  0.17685623049E+02 -0.17480441777E+03  0.17906765653E+03  0.00000000000E+00 0.  1.
         -2    1    3    3    0  502  0.34581207024E+02 -0.17685623049E+02 -0.52672180745E+03  0.52815197016E+03  0.00000000000E+00 0. -1.
<mgrwt>
<rscale>  0 0.89557555E+02</rscale>
<asrwt>0</asrwt>
<pdfrwt beam="2">  1        2 0.10836513E+00 0.89557555E+02</pdfrwt>
<pdfrwt beam="1">  1       -2 0.43795371E-03 0.89557555E+02</pdfrwt>
<totfact> 0.24896640E+05</totfact>
</mgrwt>
</event>
<event>
 5    1  0.4059427E+001  0.9292414E+02  0.7546771E-02  0.1295921E+00
          2   -1    0    0  501    0  0.00000000000E+00  0.00000000000E+00  0.28520724354E+04  0.28520724354E+04  0.00000000000E+00 0. -1.
         -2   -1    0    0    0  501 -0.00000000000E+00 -0.00000000000E+00 -0.75689662763E+00  0.75689662763E+00  0.00000000000E+00 0.  1.
         23    2    1    2    0    0  0.00000000000E+00  0.00000000000E+00  0.28513155388E+04  0.28528293321E+04  0.92924141280E+02 0.  0.
          2    1    3    3  502    0 -0.10250305587E+01  0.43462993535E+02  0.19288498501E+04  0.19293397385E+04  0.00000000000E+00 0. -1.
         -2    1    3    3    0  502  0.10250305587E+01 -0.43462993535E+02  0.92246568874E+03  0.92348959355E+03  0.00000000000E+00 0.  1.
<mgrwt>
<rscale>  0 0.92924141E+02</rscale>
<asrwt>0</asrwt>
<pdfrwt beam="1">  1        2 0.43877177E+00 0.92924141E+02</pdfrwt>
<pdfrwt beam="2">  1       -2 0.11644792E-03 0.92924141E+02</pdfrwt>
<totfact> 0.10942732E+05</totfact>
</mgrwt>
</event>
<event>
 5    1  0.4059427E+001  0.9071327E+02  0.7546771E-02  0.1301134E+00
          1   -1    0    0  501    0  0.00000000000E+00  0.00000000000E+00  0.13629779022E+02  0.13629779022E+02  0.00000000000E+00 0. -1.
         -1   -1    0    0    0  501 -0.00000000000E+00 -0.00000000000E+00 -0.15093599338E+03  0.15093599338E+03  0.00000000000E+00 0.  1.
         23    2    1    2    0    0  0.00000000000E+00  0.00000000000E+00 -0.13730621436E+03  0.16456577240E+03  0.90713267746E+02 0.  0.
          2    1    3    3  502    0 -0.32797155457E+02  0.51799048276E+01 -0.12598524051E+02  0.35513485162E+02  0.00000000000E+00 0. -1.
         -2    1    3    3    0  502  0.32797155457E+02 -0.51799048276E+01 -0.12470769031E+03  0.12905228724E+03  0.00000000000E+00 0.  1.
<mgrwt>
<rscale>  0 0.90713268E+02</rscale>
<asrwt>0</asrwt>
<pdfrwt beam="1">  1        1 0.20968891E-02 0.90713268E+02</pdfrwt>
<pdfrwt beam="2">  1       -1 0.23220922E-01 0.90713268E+02</pdfrwt>
<totfact> 0.75673626E+04</totfact>
</mgrwt>
</event>
<event>
 5    1  0.4059427E+001  0.9389273E+02  0.7546771E-02  0.1293690E+00
         -1   -1    0    0    0  501 -0.00000000000E+00  0.00000000000E+00  0.57603524258E+02  0.57603524258E+02  0.00000000000E+00 0.  1.
          1   -1    0    0  501    0  0.00000000000E+00 -0.00000000000E+00 -0.38260871027E+02  0.38260871027E+02  0.00000000000E+00 0. -1.
         23    2    1    2    0    0  0.00000000000E+00  0.00000000000E+00  0.19342653231E+02  0.95864395285E+02  0.93892726286E+02 0.  0.
          2    1    3    3  502    0 -0.16609116817E+02  0.34148692470E+02 -0.18512042871E+02  0.42245611489E+02  0.00000000000E+00 0. -1.
         -2    1    3    3    0  502  0.16609116817E+02 -0.34148692470E+02  0.37854696102E+02  0.53618783796E+02  0.00000000000E+00 0.  1.
<mgrwt>
<rscale>  0 0.93892726E+02</rscale>
<asrwt>0</asrwt>
<pdfrwt beam="2">  1        1 0.58862878E-02 0.93892726E+02</pdfrwt>
<pdfrwt beam="1">  1       -1 0.88620807E-02 0.93892726E+02</pdfrwt>
<totfact> 0.82846373E+04</totfact>
</mgrwt>
</event>
<event>
 5    1  0.4059427E+001  0.9069148E+02  0.7546771E-02  0.1301186E+00
          1   -1    0    0  501    0  0.00000000000E+00  0.00000000000E+00  0.40001714657E+01  0.40001714657E+01  0.00000000000E+00 0. -1.
         -1   -1    0    0    0  501 -0.00000000000E+00 -0.00000000000E+00 -0.51403694907E+03  0.51403694907E+03  0.00000000000E+00 0.  1.
         23    2    1    2    0    0  0.00000000000E+00  0.00000000000E+00 -0.51003677760E+03  0.51803712053E+03  0.90691475585E+02 0.  0.
          2    1    3    3  502    0 -0.22161612947E+02 -0.24908224032E+02 -0.79453933054E+02  0.86165446616E+02  0.00000000000E+00 0. -1.
         -2    1    3    3    0  502  0.22161612947E+02  0.24908224032E+02 -0.43058284455E+03  0.43187167392E+03  0.00000000000E+00 0.  1.
<mgrwt>
<rscale>  0 0.90691476E+02</rscale>
<asrwt>0</asrwt>
<pdfrwt beam="1">  1        1 0.61541056E-03 0.90691476E+02</pdfrwt>
<pdfrwt beam="2">  1       -1 0.79082664E-01 0.90691476E+02</pdfrwt>
<totfact> 0.46887430E+04</totfact>
</mgrwt>
</event>
<event>
 5    1  0.4059427E+001  0.9150338E+02  0.7546771E-02  0.1299251E+00
          2   -1    0    0  501    0  0.00000000000E+00  0.00000000000E+00  0.25917090282E+03  0.25917090282E+03  0.00000000000E+00 0. -1.
         -2   -1    0    0    0  501 -0.00000000000E+00 -0.00000000000E+00 -0.80765898658E+01  0.80765898658E+01  0.00000000000E+00 0.  1.
         23    2    1    2    0    0  0.00000000000E+00  0.00000000000E+00  0.25109431296E+03  0.26724749269E+03  0.91503378894E+02 0.  0.
          2    1    3    3  502    0 -0.35212569717E+02  0.26457188125E+02  0.16170983927E+03  0.16760065628E+03  0.00000000000E+00 0. -1.
         -2    1    3    3    0  502  0.35212569717E+02 -0.26457188125E+02  0.89384473692E+02  0.99646836411E+02  0.00000000000E+00 0.  1.
<mgrwt>
<rscale>  0 0.91503379E+02</rscale>
<asrwt>0</asrwt>
<pdfrwt beam="1">  1        2 0.39872440E-01 0.91503379E+02</pdfrwt>
<pdfrwt beam="2">  1       -2 0.12425525E-02 0.91503379E+02</pdfrwt>
<totfact> 0.16849806E+05</totfact>
</mgrwt>
</event>
<event>
 5    1  0.4059427E+001  0.8675379E+02  0.7546771E-02  0.1310909E+00
          2   -1    0    0  501    0  0.00000000000E+00  0.00000000000E+00  0.11115147706E+03  0.11115147706E+03  0.00000000000E+00 0. -1.
         -2   -1    0    0    0  501 -0.00000000000E+00 -0.00000000000E+00 -0.16927846306E+02  0.16927846306E+02  0.00000000000E+00 0.  1.
         23    2    1    2    0    0  0.00000000000E+00  0.00000000000E+00  0.94223630757E+02  0.12807932337E+03  0.86753792319E+02 0.  0.
          2    1    3    3  502    0 -0.25828226888E+02 -0.19865566702E+02  0.48401813386E+01  0.32941848763E+02  0.00000000000E+00 0.  1.
         -2    1    3    3    0  502  0.25828226888E+02  0.19865566702E+02  0.89383449419E+02  0.95137474606E+02  0.00000000000E+00 0. -1.
<mgrwt>
<rscale>  0 0.86753792E+02</rscale>
<asrwt>0</asrwt>
<pdfrwt beam="1">  1        2 0.17100227E-01 0.86753792E+02</pdfrwt>
<pdfrwt beam="2">  1       -2 0.26042841E-02 0.86753792E+02</pdfrwt>
<totfact> 0.14517883E+05</totfact>
</mgrwt>
</event>
<event>
 5    1  0.4059427E+001  0.9179579E+02  0.7546771E-02  0.1298560E+00
         -2   -1    0    0    0  501 -0.00000000000E+00  0.00000000000E+00  0.88509637402E+01  0.88509637402E+01  0.00000000000E+00 0.  1.
          2   -1    0    0  501    0  0.00000000000E+00 -0.00000000000E+00 -0.23800987986E+03  0.23800987986E+03  0.00000000000E+00 0. -1.
         23    2    1    2    0    0  0.00000000000E+00  0.00000000000E+00 -0.22915891612E+03  0.24686084360E+03  0.91795791111E+02 0.  0.
          2    1    3    3  502    0 -0.22028814697E+02 -0.15992912906E+01 -0.22277883272E+03  0.22387102251E+03  0.00000000000E+00 0. -1.
         -2    1    3    3    0  502  0.22028814697E+02  0.15992912906E+01 -0.63800833947E+01  0.22989821089E+02  0.00000000000E+00 0.  1.
<mgrwt>
<rscale>  0 0.91795791E+02</rscale>
<asrwt>0</asrwt>
<pdfrwt beam="2">  1        2 0.36616907E-01 0.91795791E+02</pdfrwt>
<pdfrwt beam="1">  1       -2 0.13616866E-02 0.91795791E+02</pdfrwt>
<totfact> 0.16187353E+05</totfact>
</mgrwt>
</event>
<event>
 5    1  0.4059427E+001  0.8996446E+02  0.7546771E-02  0.1302938E+00
         -2   -1    0    0    0  501 -0.00000000000E+00  0.00000000000E+00  0.11922843029E+01  0.11922843029E+01  0.00000000000E+00 0.  1.
          2   -1    0    0  501    0  0.00000000000E+00 -0.00000000000E+00 -0.16970793881E+04  0.16970793881E+04  0.00000000000E+00 0. -1.
         23    2    1    2    0    0  0.00000000000E+00  0.00000000000E+00 -0.16958871038E+04  0.16982716724E+04  0.89964462211E+02 0.  0.
          2    1    3    3  502    0  0.22221297713E+02 -0.19185195640E+02 -0.14913032937E+04  0.14915922270E+04  0.00000000000E+00 0. -1.
         -2    1    3    3    0  502 -0.22221297713E+02  0.19185195640E+02 -0.20458381001E+03  0.20667944533E+03  0.00000000000E+00 0.  1.
<mgrwt>
<rscale>  0 0.89964462E+02</rscale>
<asrwt>0</asrwt>
<pdfrwt beam="2">  1        2 0.26108976E+00 0.89964462E+02</pdfrwt>
<pdfrwt beam="1">  1       -2 0.18342791E-03 0.89964462E+02</pdfrwt>
<totfact> 0.23050592E+05</totfact>
</mgrwt>
</event>
<event>
 5    1  0.4059427E+001  0.9017372E+02  0.7546771E-02  0.1302432E+00
          2   -1    0    0  501    0  0.00000000000E+00  0.00000000000E+00  0.44148590554E+01  0.44148590554E+01  0.00000000000E+00 0. -1.
         -2   -1    0    0    0  501 -0.00000000000E+00 -0.00000000000E+00 -0.46045070892E+03  0.46045070892E+03  0.00000000000E+00 0.  1.
         23    2    1    2    0    0  0.00000000000E+00  0.00000000000E+00 -0.45603584987E+03  0.46486556798E+03  0.90173720825E+02 0.  0.
          2    1    3    3  502    0  0.21519141797E+02  0.89544138769E+01 -0.29052393361E+02  0.37246430051E+02  0.00000000000E+00 0. -1.
         -2    1    3    3    0  502 -0.21519141797E+02 -0.89544138769E+01 -0.42698345651E+03  0.42761913793E+03  0.00000000000E+00 0.  1.
<mgrwt>
<rscale>  0 0.90173721E+02</rscale>
<asrwt>0</asrwt>
<pdfrwt beam="1">  1        2 0.67920935E-03 0.90173721E+02</pdfrwt>
<pdfrwt beam="2">  1       -2 0.70838543E-01 0.90173721E+02</pdfrwt>
<totfact> 0.39767880E+04</totfact>
</mgrwt>
</event>
<event>
 5    1  0.4059427E+001  0.9474722E+02  0.7546771E-02  0.1291746E+00
          1   -1    0    0  501    0  0.00000000000E+00  0.00000000000E+00  0.88388116102E+03  0.88388116102E+03  0.00000000000E+00 0. -1.
         -1   -1    0    0    0  501 -0.00000000000E+00 -0.00000000000E+00 -0.25390957274E+01  0.25390957274E+01  0.00000000000E+00 0.  1.
         23    2    1    2    0    0  0.00000000000E+00  0.00000000000E+00  0.88134206529E+03  0.88642025675E+03  0.94747219051E+02 0.  0.
          2    1    3    3  502    0  0.44715773237E+02 -0.22212357216E+01  0.58555491618E+03  0.58726399015E+03  0.00000000000E+00 0. -1.
         -2    1    3    3    0  502 -0.44715773237E+02  0.22212357216E+01  0.29578714911E+03  0.29915626660E+03  0.00000000000E+00 0.  1.
<mgrwt>
<rscale>  0 0.94747219E+02</rscale>
<asrwt>0</asrwt>
<pdfrwt beam="1">  1        1 0.13598147E+00 0.94747219E+02</pdfrwt>
<pdfrwt beam="2">  1       -1 0.39063082E-03 0.94747219E+02</pdfrwt>
<totfact> 0.12609177E+05</totfact>
</mgrwt>
</event>
<event>
 5    1  0.4059427E+001  0.9185015E+02  0.7546771E-02  0.1298432E+00
         -2   -1    0    0    0  501 -0.00000000000E+00  0.00000000000E+00  0.79141175247E+02  0.79141175247E+02  0.00000000000E+00 0.  1.
          2   -1    0    0  501    0  0.00000000000E+00 -0.00000000000E+00 -0.26650001806E+02  0.26650001806E+02  0.00000000000E+00 0. -1.
         23    2    1    2    0    0  0.00000000000E+00  0.00000000000E+00  0.52491173442E+02  0.10579117705E+03  0.91850148900E+02 0.  0.
          2    1    3    3  502    0 -0.13190289482E+02 -0.21527004388E+02  0.70431283665E+02  0.74819525347E+02  0.00000000000E+00 0.  1.
         -2    1    3    3    0  502  0.13190289482E+02  0.21527004388E+02 -0.17940110223E+02  0.30971651705E+02  0.00000000000E+00 0. -1.
<mgrwt>
<rscale>  0 0.91850149E+02</rscale>
<asrwt>0</asrwt>
<pdfrwt beam="2">  1        2 0.41000003E-02 0.91850149E+02</pdfrwt>
<pdfrwt beam="1">  1       -2 0.12175565E-01 0.91850149E+02</pdfrwt>
<totfact> 0.83803304E+04</totfact>
</mgrwt>
</event>
<event>
 5    1  0.4059427E+001  0.9205995E+02  0.7546771E-02  0.1297939E+00
          1   -1    0    0  501    0  0.00000000000E+00  0.00000000000E+00  0.22183055515E+03  0.22183055515E+03  0.00000000000E+00 0. -1.
         -1   -1    0    0    0  501 -0.00000000000E+00 -0.00000000000E+00 -0.95512473967E+01  0.95512473967E+01  0.00000000000E+00 0.  1.
         23    2    1    2    0    0  0.00000000000E+00  0.00000000000E+00  0.21227930775E+03  0.23138180255E+03  0.92059948129E+02 0.  0.
          2    1    3    3  502    0  0.27787630848E+02  0.12787504022E+02  0.19258997279E+03  0.19500402638E+03  0.00000000000E+00 0. -1.
         -2    1    3    3    0  502 -0.27787630848E+02 -0.12787504022E+02  0.19689334966E+02  0.36377776164E+02  0.00000000000E+00 0.  1.
<mgrwt>
<rscale>  0 0.92059948E+02</rscale>
<asrwt>0</asrwt>
<pdfrwt beam="1">  1        1 0.34127774E-01 0.92059948E+02</pdfrwt>
<pdfrwt beam="2">  1       -1 0.14694228E-02 0.92059948E+02</pdfrwt>
<totfact> 0.11773705E+05</totfact>
</mgrwt>
</event>
<event>
 5    1  0.4059427E+001  0.9079619E+02  0.7546771E-02  0.1300935E+00
         -1   -1    0    0    0  501 -0.00000000000E+00  0.00000000000E+00  0.12697492441E+02  0.12697492441E+02  0.00000000000E+00 0.  1.
          1   -1    0    0  501    0  0.00000000000E+00 -0.00000000000E+00 -0.16231450777E+03  0.16231450777E+03  0.00000000000E+00 0. -1.
         23    2    1    2    0    0  0.00000000000E+00  0.00000000000E+00 -0.14961701532E+03  0.17501200021E+03  0.90796194532E+02 0.  0.
          2    1    3    3  502    0  0.34099272552E+02 -0.29835274938E+02 -0.80288655551E+02  0.92190955247E+02  0.00000000000E+00 0. -1.
         -2    1    3    3    0  502 -0.34099272552E+02  0.29835274938E+02 -0.69328359774E+02  0.82821044959E+02  0.00000000000E+00 0.  1.
<mgrwt>
<rscale>  0 0.90796195E+02</rscale>
<asrwt>0</asrwt>
<pdfrwt beam="2">  1        1 0.24971461E-01 0.90796195E+02</pdfrwt>
<pdfrwt beam="1">  1       -1 0.19534605E-02 0.90796195E+02</pdfrwt>
<totfact> 0.11507281E+05</totfact>
</mgrwt>
</event>
<event>
 5    1  0.4059427E+001  0.8372568E+02  0.7546771E-02  0.1318799E+00
         -1   -1    0    0    0  501 -0.00000000000E+00  0.00000000000E+00  0.12214789486E+03  0.12214789486E+03  0.00000000000E+00 0.  1.
          1   -1    0    0  501    0  0.00000000000E+00 -0.00000000000E+00 -0.14347339739E+02  0.14347339739E+02  0.00000000000E+00 0. -1.
         23    2    1    2    0    0  0.00000000000E+00  0.00000000000E+00  0.10780055512E+03  0.13649523460E+03  0.83725679357E+02 0.  0.
          2    1    3    3  502    0 -0.31842540797E+02  0.32340545528E+01  0.99105177540E+01  0.33505594688E+02  0.00000000000E+00 0. -1.
         -2    1    3    3    0  502  0.31842540797E+02 -0.32340545528E+01  0.97890037365E+02  0.10298963991E+03  0.00000000000E+00 0.  1.
<mgrwt>
<rscale>  0 0.83725679E+02</rscale>
<asrwt>0</asrwt>
<pdfrwt beam="2">  1        1 0.22072831E-02 0.83725679E+02</pdfrwt>
<pdfrwt beam="1">  1       -1 0.18791983E-01 0.83725679E+02</pdfrwt>
<totfact> 0.97490344E+04</totfact>
</mgrwt>
</event>
<event>
 5    1  0.4059427E+001  0.9123778E+02  0.7546771E-02  0.1299882E+00
          3   -1    0    0  501    0  0.00000000000E+00  0.00000000000E+00  0.46849593697E+02  0.46849593697E+02  0.00000000000E+00 0. -1.
         -3   -1    0    0    0  501 -0.00000000000E+00 -0.00000000000E+00 -0.44420515984E+02  0.44420515984E+02  0.00000000000E+00 0.  1.
         23    2    1    2    0    0  0.00000000000E+00  0.00000000000E+00  0.24290777124E+01  0.91270109681E+02  0.91237780018E+02 0.  0.
          2    1    3    3  502    0  0.42464015160E+02  0.15447709514E+02  0.74824444246E+01  0.45801869910E+02  0.00000000000E+00 0. -1.
         -2    1    3    3    0  502 -0.42464015160E+02 -0.15447709514E+02 -0.50533667121E+01  0.45468239771E+02  0.00000000000E+00 0.  1.
<mgrwt>
<rscale>  0 0.91237780E+02</rscale>
<asrwt>0</asrwt>
<pdfrwt beam="1">  1        3 0.72076298E-02 0.91237780E+02</pdfrwt>
<pdfrwt beam="2">  1       -3 0.68339255E-02 0.91237780E+02</pdfrwt>
<totfact> 0.35266979E+04</totfact>
</mgrwt>
</event>
<event>
 5    1  0.4059427E+001  0.9209044E+02  0.7546771E-02  0.1297867E+00
         -1   -1    0    0    0  501 -0.00000000000E+00  0.00000000000E+00  0.28136115830E+03  0.28136115830E+03  0.00000000000E+00 0.  1.
          1   -1    0    0  501    0  0.00000000000E+00 -0.00000000000E+00 -0.75353771487E+01  0.75353771487E+01  0.00000000000E+00 0. -1.
         23    2    1    2    0    0  0.00000000000E+00  0.00000000000E+00  0.27382578115E+03  0.28889653545E+03  0.92090443430E+02 0.  0.
          2    1    3    3  502    0 -0.10989151440E+02 -0.26733033226E+02  0.24468862632E+02  0.37870064079E+02  0.00000000000E+00 0. -1.
         -2    1    3    3    0  502  0.10989151440E+02  0.26733033226E+02  0.24935691852E+03  0.25102647137E+03  0.00000000000E+00 0.  1.
<mgrwt>
<rscale>  0 0.92090443E+02</rscale>
<asrwt>0</asrwt>
<pdfrwt beam="2">  1        1 0.11592890E-02 0.92090443E+02</pdfrwt>
<pdfrwt beam="1">  1       -1 0.43286324E-01 0.92090443E+02</pdfrwt>
<totfact> 0.60496380E+04</totfact>
</mgrwt>
</event>
<event>
 5    1  0.4059427E+001  0.9273632E+02  0.7546771E-02  0.1296357E+00
          2   -1    0    0  501    0  0.00000000000E+00  0.00000000000E+00  0.27721969116E+03  0.27721969116E+03  0.00000000000E+00 0. -1.
         -2   -1    0    0    0  501 -0.00000000000E+00 -0.00000000000E+00 -0.77556046057E+01  0.77556046057E+01  0.00000000000E+00 0.  1.
         23    2    1    2    0    0  0.00000000000E+00  0.00000000000E+00  0.26946408655E+03  0.28497529577E+03  0.92736321116E+02 0.  0.
          2    1    3    3  502    0  0.35581127914E+02 -0.38582736537E+01  0.22532471499E+03  0.22814935925E+03  0.00000000000E+00 0. -1.
         -2    1    3    3    0  502 -0.35581127914E+02  0.38582736537E+01  0.44139371564E+02  0.56825936519E+02  0.00000000000E+00 0.  1.
<mgrwt>
<rscale>  0 0.92736321E+02</rscale>
<asrwt>0</asrwt>
<pdfrwt beam="1">  1        2 0.42649176E-01 0.92736321E+02</pdfrwt>
<pdfrwt beam="2">  1       -2 0.11931701E-02 0.92736321E+02</pdfrwt>
<totfact> 0.16670448E+05</totfact>
</mgrwt>
</event>
<event>
 5    1  0.4059427E+001  0.9240611E+02  0.7546771E-02  0.1297127E+00
         -1   -1    0    0    0  501 -0.00000000000E+00  0.00000000000E+00  0.14311823074E+01  0.14311823074E+01  0.00000000000E+00 0.  1.
          1   -1    0    0  501    0  0.00000000000E+00 -0.00000000000E+00 -0.14915794979E+04  0.14915794979E+04  0.00000000000E+00 0. -1.
         23    2    1    2    0    0  0.00000000000E+00  0.00000000000E+00 -0.14901483156E+04  0.14930106802E+04  0.92406107754E+02 0.  0.
          2    1    3    3  502    0 -0.43628079111E+02  0.27672777062E+01 -0.98670458132E+03  0.98767251552E+03  0.00000000000E+00 0.  1.
         -2    1    3    3    0  502  0.43628079111E+02 -0.27672777062E+01 -0.50344373426E+03  0.50533816468E+03  0.00000000000E+00 0. -1.
<mgrwt>
<rscale>  0 0.92406108E+02</rscale>
<asrwt>0</asrwt>
<pdfrwt beam="2">  1        1 0.22947481E+00 0.92406108E+02</pdfrwt>
<pdfrwt beam="1">  1       -1 0.22018090E-03 0.92406108E+02</pdfrwt>
<totfact> 0.10714825E+05</totfact>
</mgrwt>
</event>
<event>
 5    1  0.4059427E+001  0.9740401E+02  0.7546771E-02  0.1285852E+00
          3   -1    0    0  501    0  0.00000000000E+00  0.00000000000E+00  0.22647306799E+02  0.22647306799E+02  0.00000000000E+00 0. -1.
         -3   -1    0    0    0  501 -0.00000000000E+00 -0.00000000000E+00 -0.10473144757E+03  0.10473144757E+03  0.00000000000E+00 0.  1.
         23    2    1    2    0    0  0.00000000000E+00  0.00000000000E+00 -0.82084140771E+02  0.12737875437E+03  0.97404008638E+02 0.  0.
          2    1    3    3  502    0  0.28915366879E+02  0.38400962318E+01 -0.92044462758E+02  0.96555827920E+02  0.00000000000E+00 0.  1.
         -2    1    3    3    0  502 -0.28915366879E+02 -0.38400962318E+01  0.99603219877E+01  0.30822926450E+02  0.00000000000E+00 0. -1.
<mgrwt>
<rscale>  0 0.97404009E+02</rscale>
<asrwt>0</asrwt>
<pdfrwt beam="1">  1        3 0.34842010E-02 0.97404009E+02</pdfrwt>
<pdfrwt beam="2">  1       -3 0.16112531E-01 0.97404009E+02</pdfrwt>
<totfact> 0.27349069E+04</totfact>
</mgrwt>
</event>
<event>
 5    1  0.4059427E+001  0.9207915E+02  0.7546771E-02  0.1297893E+00
         -2   -1    0    0    0  501 -0.00000000000E+00  0.00000000000E+00  0.22287509168E+01  0.22287509168E+01  0.00000000000E+00 0.  1.
          2   -1    0    0  501    0  0.00000000000E+00 -0.00000000000E+00 -0.95104500796E+03  0.95104500796E+03  0.00000000000E+00 0. -1.
         23    2    1    2    0    0  0.00000000000E+00  0.00000000000E+00 -0.94881625704E+03  0.95327375888E+03  0.92079149288E+02 0.  0.
          2    1    3    3  502    0  0.27438924410E+01 -0.42793602482E+02 -0.64789682669E+03  0.64931434559E+03  0.00000000000E+00 0. -1.
         -2    1    3    3    0  502 -0.27438924410E+01  0.42793602482E+02 -0.30091943036E+03  0.30395941329E+03  0.00000000000E+00 0.  1.
<mgrwt>
<rscale>  0 0.92079149E+02</rscale>
<asrwt>0</asrwt>
<pdfrwt beam="2">  1        2 0.14631459E+00 0.92079149E+02</pdfrwt>
<pdfrwt beam="1">  1       -2 0.34288483E-03 0.92079149E+02</pdfrwt>
<totfact> 0.24286637E+05</totfact>
</mgrwt>
</event>
<event>
 5    1  0.4059427E+001  0.9146702E+02  0.7546771E-02  0.1299337E+00
         -1   -1    0    0    0  501 -0.00000000000E+00  0.00000000000E+00  0.62423346951E+01  0.62423346951E+01  0.00000000000E+00 0.  1.
          1   -1    0    0  501    0  0.00000000000E+00 -0.00000000000E+00 -0.33505957776E+03  0.33505957776E+03  0.00000000000E+00 0. -1.
         23    2    1    2    0    0  0.00000000000E+00  0.00000000000E+00 -0.32881724307E+03  0.34130191246E+03  0.91467021974E+02 0.  0.
          2    1    3    3  502    0  0.29805286495E+02  0.17879469825E+02 -0.27532182038E+03  0.27750700049E+03  0.00000000000E+00 0. -1.
         -2    1    3    3    0  502 -0.29805286495E+02 -0.17879469825E+02 -0.53495422686E+02  0.63794911965E+02  0.00000000000E+00 0.  1.
<mgrwt>
<rscale>  0 0.91467022E+02</rscale>
<asrwt>0</asrwt>
<pdfrwt beam="2">  1        1 0.51547641E-01 0.91467022E+02</pdfrwt>
<pdfrwt beam="1">  1       -1 0.96035894E-03 0.91467022E+02</pdfrwt>
<totfact> 0.12969551E+05</totfact>
</mgrwt>
</event>
<event>
 5    1  0.4059427E+001  0.1021549E+03  0.7546771E-02  0.1275829E+00
          1   -1    0    0  501    0  0.00000000000E+00  0.00000000000E+00  0.81004855619E+03  0.81004855619E+03  0.00000000000E+00 0. -1.
         -1   -1    0    0    0  501 -0.00000000000E+00 -0.00000000000E+00 -0.32206762129E+01  0.32206762129E+01  0.00000000000E+00 0.  1.
         23    2    1    2    0    0  0.00000000000E+00  0.00000000000E+00  0.80682787998E+03  0.81326923241E+03  0.10215486511E+03 0.  0.
          2    1    3    3  502    0 -0.11521073081E+02  0.25717806224E+02  0.74255884558E+03  0.74309338567E+03  0.00000000000E+00 0. -1.
         -2    1    3    3    0  502  0.11521073081E+02 -0.25717806224E+02  0.64269034398E+02  0.70175846731E+02  0.00000000000E+00 0.  1.
<mgrwt>
<rscale>  0 0.10215487E+03</rscale>
<asrwt>0</asrwt>
<pdfrwt beam="1">  1        1 0.12462269E+00 0.10215487E+03</pdfrwt>
<pdfrwt beam="2">  1       -1 0.49548929E-03 0.10215487E+03</pdfrwt>
<totfact> 0.10432591E+05</totfact>
</mgrwt>
</event>
<event>
 5    1  0.4059427E+001  0.9132666E+02  0.7546771E-02  0.1299670E+00
         -1   -1    0    0    0  501 -0.00000000000E+00  0.00000000000E+00  0.21258793984E+01  0.21258793984E+01  0.00000000000E+00 0.  1.
          1   -1    0    0  501    0  0.00000000000E+00 -0.00000000000E+00 -0.98083634487E+03  0.98083634487E+03  0.00000000000E+00 0. -1.
         23    2    1    2    0    0  0.00000000000E+00  0.00000000000E+00 -0.97871046547E+03  0.98296222427E+03  0.91326661578E+02 0.  0.
          2    1    3    3  502    0 -0.21705819470E+02  0.72449319389E+01 -0.91467089114E+03  0.91495708683E+03  0.00000000000E+00 0. -1.
         -2    1    3    3    0  502  0.21705819470E+02 -0.72449319389E+01 -0.64039574326E+02  0.68005137435E+02  0.00000000000E+00 0.  1.
<mgrwt>
<rscale>  0 0.91326662E+02</rscale>
<asrwt>0</asrwt>
<pdfrwt beam="2">  1        1 0.15089761E+00 0.91326662E+02</pdfrwt>
<pdfrwt beam="1">  1       -1 0.32705899E-03 0.91326662E+02</pdfrwt>
<totfact> 0.13610014E+05</totfact>
</mgrwt>
</event>
<event>
 5    1  0.4059427E+001  0.8833855E+02  0.7546771E-02  0.1306926E+00
         -2   -1    0    0    0  501 -0.00000000000E+00  0.00000000000E+00  0.19806357841E+03  0.19806357841E+03  0.00000000000E+00 0.  1.
          2   -1    0    0  501    0  0.00000000000E+00 -0.00000000000E+00 -0.98499939849E+01  0.98499939849E+01  0.00000000000E+00 0. -1.
         23    2    1    2    0    0  0.00000000000E+00  0.00000000000E+00  0.18821358443E+03  0.20791357240E+03  0.88338554573E+02 0.  0.
          2    1    3    3  502    0 -0.22831026844E+02 -0.59454585633E+01  0.62219649566E+01  0.24399121136E+02  0.00000000000E+00 0. -1.
         -2    1    3    3    0  502  0.22831026844E+02  0.59454585633E+01  0.18199161947E+03  0.18351445126E+03  0.00000000000E+00 0.  1.
<mgrwt>
<rscale>  0 0.88338555E+02</rscale>
<asrwt>0</asrwt>
<pdfrwt beam="2">  1        2 0.15153838E-02 0.88338555E+02</pdfrwt>
<pdfrwt beam="1">  1       -2 0.30471317E-01 0.88338555E+02</pdfrwt>
<totfact> 0.67837020E+04</totfact>
</mgrwt>
</event>
<event>
 5    1  0.4059427E+001  0.8819684E+02  0.7546771E-02  0.1307278E+00
         -3   -1    0    0    0  501 -0.00000000000E+00  0.00000000000E+00  0.12767314394E+02  0.12767314394E+02  0.00000000000E+00 0.  1.
          3   -1    0    0  501    0  0.00000000000E+00 -0.00000000000E+00 -0.15231634810E+03  0.15231634810E+03  0.00000000000E+00 0. -1.
         23    2    1    2    0    0  0.00000000000E+00  0.00000000000E+00 -0.13954903371E+03  0.16508366249E+03  0.88196841293E+02 0.  0.
          2    1    3    3  502    0  0.41628664579E+02 -0.15239706966E+01 -0.42688696269E+02  0.59645561364E+02  0.00000000000E+00 0.  1.
         -2    1    3    3    0  502 -0.41628664579E+02  0.15239706966E+01 -0.96860337438E+02  0.10543810113E+03  0.00000000000E+00 0. -1.
<mgrwt>
<rscale>  0 0.88196841E+02</rscale>
<asrwt>0</asrwt>
<pdfrwt beam="2">  1        3 0.23433285E-01 0.88196841E+02</pdfrwt>
<pdfrwt beam="1">  1       -3 0.19642022E-02 0.88196841E+02</pdfrwt>
<totfact> 0.33258628E+04</totfact>
</mgrwt>
</event>
<event>
 5    1  0.4059427E+001  0.9134607E+02  0.7546771E-02  0.1299624E+00
         -1   -1    0    0    0  501 -0.00000000000E+00  0.00000000000E+00  0.16166176707E+03  0.16166176707E+03  0.00000000000E+00 0.  1.
          1   -1    0    0  501    0  0.00000000000E+00 -0.00000000000E+00 -0.12903646278E+02  0.12903646278E+02  0.00000000000E+00 0. -1.
         23    2    1    2    0    0  0.00000000000E+00  0.00000000000E+00  0.14875812079E+03  0.17456541335E+03  0.91346072910E+02 0.  0.
          2    1    3    3  502    0 -0.11898526149E+02  0.42396915364E+02  0.51212721590E+02  0.67541218596E+02  0.00000000000E+00 0. -1.
         -2    1    3    3    0  502  0.11898526149E+02 -0.42396915364E+02  0.97545399203E+02  0.10702419475E+03  0.00000000000E+00 0.  1.
<mgrwt>
<rscale>  0 0.91346073E+02</rscale>
<asrwt>0</asrwt>
<pdfrwt beam="2">  1        1 0.19851765E-02 0.91346073E+02</pdfrwt>
<pdfrwt beam="1">  1       -1 0.24871040E-01 0.91346073E+02</pdfrwt>
<totfact> 0.73103516E+04</totfact>
</mgrwt>
</event>
<event>
 5    1  0.4059427E+001  0.9160466E+02  0.7546771E-02  0.1299012E+00
         -3   -1    0    0    0  501 -0.00000000000E+00  0.00000000000E+00  0.86028890429E+01  0.86028890429E+01  0.00000000000E+00 0.  1.
          3   -1    0    0  501    0  0.00000000000E+00 -0.00000000000E+00 -0.24385453928E+03  0.24385453928E+03  0.00000000000E+00 0. -1.
         23    2    1    2    0    0  0.00000000000E+00  0.00000000000E+00 -0.23525165024E+03  0.25245742832E+03  0.91604662415E+02 0.  0.
          2    1    3    3  502    0  0.28026985840E+02  0.18150835180E+02 -0.20402762041E+03  0.20674195183E+03  0.00000000000E+00 0. -1.
         -2    1    3    3    0  502 -0.28026985840E+02 -0.18150835180E+02 -0.31224029825E+02  0.45715476498E+02  0.00000000000E+00 0.  1.
<mgrwt>
<rscale>  0 0.91604662E+02</rscale>
<asrwt>0</asrwt>
<pdfrwt beam="2">  1        3 0.37516087E-01 0.91604662E+02</pdfrwt>
<pdfrwt beam="1">  1       -3 0.13235213E-02 0.91604662E+02</pdfrwt>
<totfact> 0.25669254E+04</totfact>
</mgrwt>
</event>
<event>
 5    1  0.4059427E+001  0.9250270E+02  0.7546771E-02  0.1296902E+00
         -1   -1    0    0    0  501 -0.00000000000E+00  0.00000000000E+00  0.16105718100E+03  0.16105718100E+03  0.00000000000E+00 0.  1.
          1   -1    0    0  501    0  0.00000000000E+00 -0.00000000000E+00 -0.13282159886E+02  0.13282159886E+02  0.00000000000E+00 0. -1.
         23    2    1    2    0    0  0.00000000000E+00  0.00000000000E+00  0.14777502111E+03  0.17433934088E+03  0.92502696798E+02 0.  0.
          2    1    3    3  502    0  0.33203741620E+02 -0.25157587391E+02  0.11175977225E+03  0.11927128470E+03  0.00000000000E+00 0.  1.
         -2    1    3    3    0  502 -0.33203741620E+02  0.25157587391E+02  0.36015248857E+02  0.55068056177E+02  0.00000000000E+00 0. -1.
<mgrwt>
<rscale>  0 0.92502697E+02</rscale>
<asrwt>0</asrwt>
<pdfrwt beam="2">  1        1 0.20434093E-02 0.92502697E+02</pdfrwt>
<pdfrwt beam="1">  1       -1 0.24778027E-01 0.92502697E+02</pdfrwt>
<totfact> 0.70814424E+04</totfact>
</mgrwt>
</event>
<event>
 5    1  0.4059427E+001  0.8603620E+02  0.7546771E-02  0.1312745E+00
          1   -1    0    0  501    0  0.00000000000E+00  0.00000000000E+00  0.43135455175E+01  0.43135455175E+01  0.00000000000E+00 0. -1.
         -1   -1    0    0    0  501 -0.00000000000E+00 -0.00000000000E+00 -0.42901059135E+03  0.42901059135E+03  0.00000000000E+00 0.  1.
         23    2    1    2    0    0  0.00000000000E+00  0.00000000000E+00 -0.42469704584E+03  0.43332413687E+03  0.86036195018E+02 0.  0.
          2    1    3    3  502    0 -0.26913852585E+02 -0.18733032115E+01 -0.43591444979E+02  0.51264791048E+02  0.00000000000E+00 0. -1.
         -2    1    3    3    0  502  0.26913852585E+02  0.18733032115E+01 -0.38110560086E+03  0.38205934582E+03  0.00000000000E+00 0.  1.
<mgrwt>
<rscale>  0 0.86036195E+02</rscale>
<asrwt>0</asrwt>
<pdfrwt beam="1">  1        1 0.66362254E-03 0.86036195E+02</pdfrwt>
<pdfrwt beam="2">  1       -1 0.66001615E-01 0.86036195E+02</pdfrwt>
<totfact> 0.59798191E+04</totfact>
</mgrwt>
</event>
<event>
 5    1  0.4059427E+001  0.8319044E+02  0.7546771E-02  0.1320234E+00
         -1   -1    0    0    0  501 -0.00000000000E+00  0.00000000000E+00  0.43560424463E+01  0.43560424463E+01  0.00000000000E+00 0.  1.
          1   -1    0    0  501    0  0.00000000000E+00 -0.00000000000E+00 -0.39718673006E+03  0.39718673006E+03  0.00000000000E+00 0. -1.
         23    2    1    2    0    0  0.00000000000E+00  0.00000000000E+00 -0.39283068762E+03  0.40154277251E+03  0.83190438279E+02 0.  0.
          2    1    3    3  502    0 -0.35989812453E+02 -0.23785151059E+01 -0.96413583571E+02  0.10293931723E+03  0.00000000000E+00 0.  1.
         -2    1    3    3    0  502  0.35989812453E+02  0.23785151059E+01 -0.29641710404E+03  0.29860345528E+03  0.00000000000E+00 0. -1.
<mgrwt>
<rscale>  0 0.83190438E+02</rscale>
<asrwt>0</asrwt>
<pdfrwt beam="2">  1        1 0.61105666E-01 0.83190438E+02</pdfrwt>
<pdfrwt beam="1">  1       -1 0.67016021E-03 0.83190438E+02</pdfrwt>
<totfact> 0.17166476E+05</totfact>
</mgrwt>
</event>
<event>
 5    1  0.4059427E+001  0.9186403E+02  0.7546771E-02  0.1298399E+00
          1   -1    0    0  501    0  0.00000000000E+00  0.00000000000E+00  0.12789295550E+02  0.12789295550E+02  0.00000000000E+00 0. -1.
         -1   -1    0    0    0  501 -0.00000000000E+00 -0.00000000000E+00 -0.16496218181E+03  0.16496218181E+03  0.00000000000E+00 0.  1.
         23    2    1    2    0    0  0.00000000000E+00  0.00000000000E+00 -0.15217288626E+03  0.17775147736E+03  0.91864032083E+02 0.  0.
          2    1    3    3  502    0  0.42355967655E+02  0.35194345537E+01 -0.42386476897E+02  0.60025226691E+02  0.00000000000E+00 0. -1.
         -2    1    3    3    0  502 -0.42355967655E+02 -0.35194345537E+01 -0.10978640936E+03  0.11772625067E+03  0.00000000000E+00 0.  1.
<mgrwt>
<rscale>  0 0.91864032E+02</rscale>
<asrwt>0</asrwt>
<pdfrwt beam="1">  1        1 0.19675841E-02 0.91864032E+02</pdfrwt>
<pdfrwt beam="2">  1       -1 0.25378796E-01 0.91864032E+02</pdfrwt>
<totfact> 0.71676118E+04</totfact>
</mgrwt>
</event>
<event>
 5    1  0.4059427E+001  0.9066688E+02  0.7546771E-02  0.1301245E+00
          2   -1    0    0  501    0  0.00000000000E+00  0.00000000000E+00  0.76612475350E+02  0.76612475350E+02  0.00000000000E+00 0. -1.
         -2   -1    0    0    0  501 -0.00000000000E+00 -0.00000000000E+00 -0.26824886357E+02  0.26824886357E+02  0.00000000000E+00 0.  1.
         23    2    1    2    0    0  0.00000000000E+00  0.00000000000E+00  0.49787588993E+02  0.10343736171E+03  0.90666883586E+02 0.  0.
          2    1    3    3  502    0  0.21240755528E+02  0.19092989739E+02  0.65057712135E+02  0.71050811823E+02  0.00000000000E+00 0. -1.
         -2    1    3    3    0  502 -0.21240755528E+02 -0.19092989739E+02 -0.15270123142E+02  0.32386549883E+02  0.00000000000E+00 0.  1.
<mgrwt>
<rscale>  0 0.90666884E+02</rscale>
<asrwt>0</asrwt>
<pdfrwt beam="1">  1        2 0.11786535E-01 0.90666884E+02</pdfrwt>
<pdfrwt beam="2">  1       -2 0.41269056E-02 0.90666884E+02</pdfrwt>
<totfact> 0.11523519E+05</totfact>
</mgrwt>
</event>
<event>
 5    1  0.4059427E+001  0.8974537E+02  0.7546771E-02  0.1303469E+00
         -2   -1    0    0    0  501 -0.00000000000E+00  0.00000000000E+00  0.34487603063E+02  0.34487603063E+02  0.00000000000E+00 0.  1.
          2   -1    0    0  501    0  0.00000000000E+00 -0.00000000000E+00 -0.58384972200E+02  0.58384972200E+02  0.00000000000E+00 0. -1.
         23    2    1    2    0    0  0.00000000000E+00  0.00000000000E+00 -0.23897369137E+02  0.92872575264E+02  0.89745367482E+02 0.  0.
          2    1    3    3  502    0 -0.13836884336E+02 -0.33880509557E+02 -0.38819006261E+02  0.53350384657E+02  0.00000000000E+00 0. -1.
         -2    1    3    3    0  502  0.13836884336E+02  0.33880509557E+02  0.14921637124E+02  0.39522190607E+02  0.00000000000E+00 0.  1.
<mgrwt>
<rscale>  0 0.89745367E+02</rscale>
<asrwt>0</asrwt>
<pdfrwt beam="2">  1        2 0.89823034E-02 0.89745367E+02</pdfrwt>
<pdfrwt beam="1">  1       -2 0.53057851E-02 0.89745367E+02</pdfrwt>
<totfact> 0.11010068E+05</totfact>
</mgrwt>
</event>
<event>
 5    1  0.4059427E+001  0.9176679E+02  0.7546771E-02  0.1298629E+00
         -2   -1    0    0    0  501 -0.00000000000E+00  0.00000000000E+00  0.32366885326E+01  0.32366885326E+01  0.00000000000E+00 0.  1.
          2   -1    0    0  501    0  0.00000000000E+00 -0.00000000000E+00 -0.65044439138E+03  0.65044439138E+03  0.00000000000E+00 0. -1.
         23    2    1    2    0    0  0.00000000000E+00  0.00000000000E+00 -0.64720770285E+03  0.65368107991E+03  0.91766789258E+02 0.  0.
          2    1    3    3  502    0  0.23702015140E+02  0.34728928406E+02 -0.19275975023E+03  0.19729218256E+03  0.00000000000E+00 0. -1.
         -2    1    3    3    0  502 -0.23702015140E+02 -0.34728928406E+02 -0.45444795262E+03  0.45638889736E+03  0.00000000000E+00 0.  1.
<mgrwt>
<rscale>  0 0.91766789E+02</rscale>
<asrwt>0</asrwt>
<pdfrwt beam="2">  1        2 0.10006835E+00 0.91766789E+02</pdfrwt>
<pdfrwt beam="1">  1       -2 0.49795218E-03 0.91766789E+02</pdfrwt>
<totfact> 0.22896277E+05</totfact>
</mgrwt>
</event>
<event>
 5    1  0.4059427E+001  0.9483209E+02  0.7546771E-02  0.1291555E+00
          4   -1    0    0  501    0  0.00000000000E+00  0.00000000000E+00  0.26342732353E+03  0.26342732353E+03  0.00000000000E+00 0.  1.
         -4   -1    0    0    0  501 -0.00000000000E+00 -0.00000000000E+00 -0.85347310191E+01  0.85347310191E+01  0.00000000000E+00 0. -1.
         23    2    1    2    0    0  0.00000000000E+00  0.00000000000E+00  0.25489259251E+03  0.27196205454E+03  0.94832090547E+02 0.  0.
          2    1    3    3  502    0 -0.37942053992E+02  0.12331832618E+02  0.53960059924E+02  0.67107090712E+02  0.00000000000E+00 0. -1.
         -2    1    3    3    0  502  0.37942053992E+02 -0.12331832618E+02  0.20093253258E+03  0.20485496383E+03  0.00000000000E+00 0.  1.
<mgrwt>
<rscale>  0 0.94832091E+02</rscale>
<asrwt>0</asrwt>
<pdfrwt beam="1">  1        4 0.40527274E-01 0.94832091E+02</pdfrwt>
<pdfrwt beam="2">  1       -4 0.13130357E-02 0.94832091E+02</pdfrwt>
<totfact> 0.16844800E+04</totfact>
</mgrwt>
</event>
<event>
 5    1  0.4059427E+001  0.9202571E+02  0.7546771E-02  0.1298019E+00
         -1   -1    0    0    0  501 -0.00000000000E+00  0.00000000000E+00  0.13513651773E+01  0.13513651773E+01  0.00000000000E+00 0.  1.
          1   -1    0    0  501    0  0.00000000000E+00 -0.00000000000E+00 -0.15666991331E+04  0.15666991331E+04  0.00000000000E+00 0. -1.
         23    2    1    2    0    0  0.00000000000E+00  0.00000000000E+00 -0.15653477680E+04  0.15680504983E+04  0.92025706233E+02 0.  0.
          2    1    3    3  502    0 -0.36044183523E+02  0.28378854964E+02 -0.72209437549E+03  0.72355015699E+03  0.00000000000E+00 0. -1.
         -2    1    3    3    0  502  0.36044183523E+02 -0.28378854964E+02 -0.84325339248E+03  0.84450034132E+03  0.00000000000E+00 0.  1.
<mgrwt>
<rscale>  0 0.92025706E+02</rscale>
<asrwt>0</asrwt>
<pdfrwt beam="2">  1        1 0.24103176E+00 0.92025706E+02</pdfrwt>
<pdfrwt beam="1">  1       -1 0.20790137E-03 0.92025706E+02</pdfrwt>
<totfact> 0.10386950E+05</totfact>
</mgrwt>
</event>
<event>
 5    1  0.4059427E+001  0.8929239E+02  0.7546771E-02  0.1304574E+00
          1   -1    0    0  501    0  0.00000000000E+00  0.00000000000E+00  0.49862992066E+03  0.49862992066E+03  0.00000000000E+00 0. -1.
         -1   -1    0    0    0  501 -0.00000000000E+00 -0.00000000000E+00 -0.39975193375E+01  0.39975193375E+01  0.00000000000E+00 0.  1.
         23    2    1    2    0    0  0.00000000000E+00  0.00000000000E+00  0.49463240132E+03  0.50262744000E+03  0.89292390495E+02 0.  0.
          2    1    3    3  502    0 -0.33341518182E+02 -0.27864738336E+02  0.30504639509E+03  0.30812562963E+03  0.00000000000E+00 0. -1.
         -2    1    3    3    0  502  0.33341518182E+02  0.27864738336E+02  0.18958600623E+03  0.19450181036E+03  0.00000000000E+00 0.  1.
<mgrwt>
<rscale>  0 0.89292390E+02</rscale>
<asrwt>0</asrwt>
<pdfrwt beam="1">  1        1 0.76712246E-01 0.89292390E+02</pdfrwt>
<pdfrwt beam="2">  1       -1 0.61500337E-03 0.89292390E+02</pdfrwt>
<totfact> 0.14713098E+05</totfact>
</mgrwt>
</event>
<event>
 5    1  0.4059427E+001  0.8944779E+02  0.7546771E-02  0.1304194E+00
         -2   -1    0    0    0  501 -0.00000000000E+00  0.00000000000E+00  0.15860168059E+01  0.15860168059E+01  0.00000000000E+00 0.  1.
          2   -1    0    0  501    0  0.00000000000E+00 -0.00000000000E+00 -0.12611637992E+04  0.12611637992E+04  0.00000000000E+00 0. -1.
         23    2    1    2    0    0  0.00000000000E+00  0.00000000000E+00 -0.12595777824E+04  0.12627498160E+04  0.89447794395E+02 0.  0.
          2    1    3    3  502    0 -0.14337959317E+02 -0.35959902001E+02 -0.94594272513E+03  0.94673456198E+03  0.00000000000E+00 0. -1.
         -2    1    3    3    0  502  0.14337959317E+02  0.35959902001E+02 -0.31363505728E+03  0.31601525403E+03  0.00000000000E+00 0.  1.
<mgrwt>
<rscale>  0 0.89447794E+02</rscale>
<asrwt>0</asrwt>
<pdfrwt beam="2">  1        2 0.19402508E+00 0.89447794E+02</pdfrwt>
<pdfrwt beam="1">  1       -2 0.24400274E-03 0.89447794E+02</pdfrwt>
<totfact> 0.25978154E+05</totfact>
</mgrwt>
</event>
<event>
 5    1  0.4059427E+001  0.8825053E+02  0.7546771E-02  0.1307144E+00
          1   -1    0    0  501    0  0.00000000000E+00  0.00000000000E+00  0.34880469172E+01  0.34880469172E+01  0.00000000000E+00 0. -1.
         -1   -1    0    0    0  501 -0.00000000000E+00 -0.00000000000E+00 -0.55820323543E+03  0.55820323543E+03  0.00000000000E+00 0.  1.
         23    2    1    2    0    0  0.00000000000E+00  0.00000000000E+00 -0.55471518851E+03  0.56169128234E+03  0.88250531432E+02 0.  0.
          2    1    3    3  502    0  0.41862262570E+01 -0.43062818608E+02 -0.22219760913E+03  0.22637073208E+03  0.00000000000E+00 0. -1.
         -2    1    3    3    0  502 -0.41862262570E+01  0.43062818608E+02 -0.33251757937E+03  0.33532055026E+03  0.00000000000E+00 0.  1.
<mgrwt>
<rscale>  0 0.88250531E+02</rscale>
<asrwt>0</asrwt>
<pdfrwt beam="1">  1        1 0.53662254E-03 0.88250531E+02</pdfrwt>
<pdfrwt beam="2">  1       -1 0.85877431E-01 0.88250531E+02</pdfrwt>
<totfact> 0.47703758E+04</totfact>
</mgrwt>
</event>
<event>
 5    1  0.4059427E+001  0.8741599E+02  0.7546771E-02  0.1309233E+00
         -1   -1    0    0    0  501 -0.00000000000E+00  0.00000000000E+00  0.88450538005E+01  0.88450538005E+01  0.00000000000E+00 0.  1.
          1   -1    0    0  501    0  0.00000000000E+00 -0.00000000000E+00 -0.21598387387E+03  0.21598387387E+03  0.00000000000E+00 0. -1.
         23    2    1    2    0    0  0.00000000000E+00  0.00000000000E+00 -0.20713882007E+03  0.22482892767E+03  0.87415993603E+02 0.  0.
          2    1    3    3  502    0  0.21631052343E+02  0.37597751969E+02 -0.11739479373E+03  0.12515203144E+03  0.00000000000E+00 0. -1.
         -2    1    3    3    0  502 -0.21631052343E+02 -0.37597751969E+02 -0.89744026342E+02  0.99676896233E+02  0.00000000000E+00 0.  1.
<mgrwt>
<rscale>  0 0.87415994E+02</rscale>
<asrwt>0</asrwt>
<pdfrwt beam="2">  1        1 0.33228290E-01 0.87415994E+02</pdfrwt>
<pdfrwt beam="1">  1       -1 0.13607774E-02 0.87415994E+02</pdfrwt>
<totfact> 0.13449943E+05</totfact>
</mgrwt>
</event>
<event>
 4    1  0.4059427E+001  0.1762597E+03  0.7546771E-02  0.1171473E+00
          2   -1    0    0  501    0  0.00000000000E+00  0.00000000000E+00  0.68330748500E+03  0.68330748500E+03  0.00000000000E+00 0. -1.
         -2   -1    0    0    0  501 -0.00000000000E+00 -0.00000000000E+00 -0.11366583372E+02  0.11366583372E+02  0.00000000000E+00 0.  1.
          2    1    1    2  502    0  0.47185429359E+02  0.53397359020E+02  0.54034830447E+03  0.54502663498E+03  0.00000000000E+00 0. -1.
         -2    1    1    2    0  502 -0.47185429359E+02 -0.53397359020E+02  0.13159259716E+03  0.14964743340E+03  0.00000000000E+00 0.  1.
<mgrwt>
<rscale>  0 0.17625971E+03</rscale>
<asrwt>0</asrwt>
<pdfrwt beam="1">  1        2 0.10512420E+00 0.17625971E+03</pdfrwt>
<pdfrwt beam="2">  1       -2 0.17487057E-02 0.17625971E+03</pdfrwt>
<totfact> 0.39041505E+04</totfact>
</mgrwt>
</event>
<event>
 5    1  0.4059427E+001  0.8923510E+02  0.7546771E-02  0.1304715E+00
         -2   -1    0    0    0  501 -0.00000000000E+00  0.00000000000E+00  0.12102242728E+04  0.12102242728E+04  0.00000000000E+00 0. -1.
          2   -1    0    0  501    0  0.00000000000E+00 -0.00000000000E+00 -0.16449228800E+01  0.16449228800E+01  0.00000000000E+00 0.  1.
         23    2    1    2    0    0  0.00000000000E+00  0.00000000000E+00  0.12085793499E+04  0.12118691957E+04  0.89235096149E+02 0.  0.
          2    1    3    3  502    0 -0.25028080095E+02 -0.54718511542E+01  0.11003788552E+04  0.11006770511E+04  0.00000000000E+00 0. -1.
         -2    1    3    3    0  502  0.25028080095E+02  0.54718511542E+01  0.10820049470E+03  0.11119214451E+03  0.00000000000E+00 0.  1.
<mgrwt>
<rscale>  0 0.89235096E+02</rscale>
<asrwt>0</asrwt>
<pdfrwt beam="2">  1        2 0.25306603E-03 0.89235096E+02</pdfrwt>
<pdfrwt beam="1">  1       -2 0.18618764E+00 0.89235096E+02</pdfrwt>
<totfact> 0.15534106E+04</totfact>
</mgrwt>
</event>
<event>
 5    1  0.4059427E+001  0.9127248E+02  0.7546771E-02  0.1299799E+00
          2   -1    0    0  501    0  0.00000000000E+00  0.00000000000E+00  0.68644817267E+03  0.68644817267E+03  0.00000000000E+00 0. -1.
         -2   -1    0    0    0  501 -0.00000000000E+00 -0.00000000000E+00 -0.30339749044E+01  0.30339749044E+01  0.00000000000E+00 0.  1.
         23    2    1    2    0    0  0.00000000000E+00  0.00000000000E+00  0.68341419776E+03  0.68948214757E+03  0.91272482799E+02 0.  0.
          2    1    3    3  502    0 -0.67256855306E+00  0.38166812065E+02  0.15277758078E+03  0.15747427435E+03  0.00000000000E+00 0.  1.
         -2    1    3    3    0  502  0.67256855306E+00 -0.38166812065E+02  0.53063661698E+03  0.53200787323E+03  0.00000000000E+00 0. -1.
<mgrwt>
<rscale>  0 0.91272483E+02</rscale>
<asrwt>0</asrwt>
<pdfrwt beam="1">  1        2 0.10560729E+00 0.91272483E+02</pdfrwt>
<pdfrwt beam="2">  1       -2 0.46676592E-03 0.91272483E+02</pdfrwt>
<totfact> 0.23539683E+05</totfact>
</mgrwt>
</event>
<event>
 5    1  0.4059427E+001  0.9036374E+02  0.7546771E-02  0.1301973E+00
          1   -1    0    0  501    0  0.00000000000E+00  0.00000000000E+00  0.82993475848E+01  0.82993475848E+01  0.00000000000E+00 0. -1.
         -1   -1    0    0    0  501 -0.00000000000E+00 -0.00000000000E+00 -0.24597131401E+03  0.24597131401E+03  0.00000000000E+00 0.  1.
         23    2    1    2    0    0  0.00000000000E+00  0.00000000000E+00 -0.23767196642E+03  0.25427066159E+03  0.90363741198E+02 0.  0.
          2    1    3    3  502    0 -0.34401300800E+02  0.15982990318E+02 -0.49767627409E+02  0.62575731831E+02  0.00000000000E+00 0. -1.
         -2    1    3    3    0  502  0.34401300800E+02 -0.15982990318E+02 -0.18790433901E+03  0.19169492976E+03  0.00000000000E+00 0.  1.
<mgrwt>
<rscale>  0 0.90363741E+02</rscale>
<asrwt>0</asrwt>
<pdfrwt beam="1">  1        1 0.12768228E-02 0.90363741E+02</pdfrwt>
<pdfrwt beam="2">  1       -1 0.37841737E-01 0.90363741E+02</pdfrwt>
<totfact> 0.66659903E+04</totfact>
</mgrwt>
</event>
<event>
 5    1  0.4059427E+001  0.9059499E+02  0.7546771E-02  0.1301417E+00
          4   -1    0    0  501    0  0.00000000000E+00  0.00000000000E+00  0.26238921200E+01  0.26238921200E+01  0.00000000000E+00 0. -1.
         -4   -1    0    0    0  501 -0.00000000000E+00 -0.00000000000E+00 -0.78199221682E+03  0.78199221682E+03  0.00000000000E+00 0.  1.
         23    2    1    2    0    0  0.00000000000E+00  0.00000000000E+00 -0.77936832470E+03  0.78461610894E+03  0.90594993583E+02 0.  0.
          2    1    3    3  502    0 -0.20745265454E+02 -0.13519683038E+01 -0.41133265237E+02  0.46088386456E+02  0.00000000000E+00 0. -1.
         -2    1    3    3    0  502  0.20745265454E+02  0.13519683038E+01 -0.73823505946E+03  0.73852772248E+03  0.00000000000E+00 0.  1.
<mgrwt>
<rscale>  0 0.90594994E+02</rscale>
<asrwt>0</asrwt>
<pdfrwt beam="1">  1        4 0.40367547E-03 0.90594994E+02</pdfrwt>
<pdfrwt beam="2">  1       -4 0.12030657E+00 0.90594994E+02</pdfrwt>
<totfact> 0.92247913E+03</totfact>
</mgrwt>
</event>
<event>
 5    1  0.4059427E+001  0.9406516E+02  0.7546771E-02  0.1293296E+00
         -2   -1    0    0    0  501 -0.00000000000E+00  0.00000000000E+00  0.22648038218E+01  0.22648038218E+01  0.00000000000E+00 0.  1.
          2   -1    0    0  501    0  0.00000000000E+00 -0.00000000000E+00 -0.97671316378E+03  0.97671316378E+03  0.00000000000E+00 0. -1.
         23    2    1    2    0    0  0.00000000000E+00  0.00000000000E+00 -0.97444835996E+03  0.97897796760E+03  0.94065162650E+02 0.  0.
          2    1    3    3  502    0 -0.28207475167E+02  0.34625423300E+02 -0.64070562455E+03  0.64226028908E+03  0.00000000000E+00 0. -1.
         -2    1    3    3    0  502  0.28207475167E+02 -0.34625423300E+02 -0.33374273540E+03  0.33671767852E+03  0.00000000000E+00 0.  1.
<mgrwt>
<rscale>  0 0.94065163E+02</rscale>
<asrwt>0</asrwt>
<pdfrwt beam="2">  1        2 0.15026393E+00 0.94065163E+02</pdfrwt>
<pdfrwt beam="1">  1       -2 0.34843050E-03 0.94065163E+02</pdfrwt>
<totfact> 0.22999225E+05</totfact>
</mgrwt>
</event>
<event>
 5    1  0.4059427E+001  0.9179526E+02  0.7546771E-02  0.1298562E+00
          1   -1    0    0  501    0  0.00000000000E+00  0.00000000000E+00  0.11694639474E+02  0.11694639474E+02  0.00000000000E+00 0. -1.
         -1   -1    0    0    0  501 -0.00000000000E+00 -0.00000000000E+00 -0.18013316398E+03  0.18013316398E+03  0.00000000000E+00 0.  1.
         23    2    1    2    0    0  0.00000000000E+00  0.00000000000E+00 -0.16843852451E+03  0.19182780346E+03  0.91795259358E+02 0.  0.
          2    1    3    3  502    0  0.21235059238E+02  0.24721907097E+02 -0.16681937250E+02  0.36611302377E+02  0.00000000000E+00 0. -1.
         -2    1    3    3    0  502 -0.21235059238E+02 -0.24721907097E+02 -0.15175658726E+03  0.15521650108E+03  0.00000000000E+00 0.  1.
<mgrwt>
<rscale>  0 0.91795259E+02</rscale>
<asrwt>0</asrwt>
<pdfrwt beam="1">  1        1 0.17991753E-02 0.91795259E+02</pdfrwt>
<pdfrwt beam="2">  1       -1 0.27712794E-01 0.91795259E+02</pdfrwt>
<totfact> 0.70208140E+04</totfact>
</mgrwt>
</event>
<event>
 5    1  0.4059427E+001  0.8624944E+02  0.7546771E-02  0.1312197E+00
         -1   -1    0    0    0  501 -0.00000000000E+00  0.00000000000E+00  0.15513735834E+01  0.15513735834E+01  0.00000000000E+00 0.  1.
          1   -1    0    0  501    0  0.00000000000E+00 -0.00000000000E+00 -0.11987709643E+04  0.11987709643E+04  0.00000000000E+00 0. -1.
         23    2    1    2    0    0  0.00000000000E+00  0.00000000000E+00 -0.11972195908E+04  0.12003223379E+04  0.86249443049E+02 0.  0.
          2    1    3    3  502    0 -0.34629432470E+02 -0.18764379752E+02 -0.84302509660E+03  0.84394467416E+03  0.00000000000E+00 0. -1.
         -2    1    3    3    0  502  0.34629432470E+02  0.18764379752E+02 -0.35419449416E+03  0.35637766377E+03  0.00000000000E+00 0.  1.
<mgrwt>
<rscale>  0 0.86249443E+02</rscale>
<asrwt>0</asrwt>
<pdfrwt beam="2">  1        1 0.18442566E+00 0.86249443E+02</pdfrwt>
<pdfrwt beam="1">  1       -1 0.23867369E-03 0.86249443E+02</pdfrwt>
<totfact> 0.14746903E+05</totfact>
</mgrwt>
</event>
<event>
 5    1  0.4059427E+001  0.9228435E+02  0.7546771E-02  0.1297412E+00
          2   -1    0    0  501    0  0.00000000000E+00  0.00000000000E+00  0.10154216312E+02  0.10154216312E+02  0.00000000000E+00 0. -1.
         -2   -1    0    0    0  501 -0.00000000000E+00 -0.00000000000E+00 -0.20967648504E+03  0.20967648504E+03  0.00000000000E+00 0.  1.
         23    2    1    2    0    0  0.00000000000E+00  0.00000000000E+00 -0.19952226873E+03  0.21983070135E+03  0.92284351538E+02 0.  0.
          2    1    3    3  502    0  0.44501613358E+02  0.12102324732E+02 -0.96195509952E+02  0.10667912631E+03  0.00000000000E+00 0. -1.
         -2    1    3    3    0  502 -0.44501613358E+02 -0.12102324732E+02 -0.10332675877E+03  0.11315157504E+03  0.00000000000E+00 0.  1.
<mgrwt>
<rscale>  0 0.92284352E+02</rscale>
<asrwt>0</asrwt>
<pdfrwt beam="1">  1        2 0.15621871E-02 0.92284352E+02</pdfrwt>
<pdfrwt beam="2">  1       -2 0.32257920E-01 0.92284352E+02</pdfrwt>
<totfact> 0.59181368E+04</totfact>
</mgrwt>
</event>
<event>
 5    1  0.4059427E+001  0.9196129E+02  0.7546771E-02  0.1298170E+00
          2   -1    0    0  501    0  0.00000000000E+00  0.00000000000E+00  0.67611251626E+03  0.67611251626E+03  0.00000000000E+00 0. -1.
         -2   -1    0    0    0  501 -0.00000000000E+00 -0.00000000000E+00 -0.31270235372E+01  0.31270235372E+01  0.00000000000E+00 0.  1.
         23    2    1    2    0    0  0.00000000000E+00  0.00000000000E+00  0.67298549273E+03  0.67923953980E+03  0.91961290816E+02 0.  0.
          2    1    3    3  502    0 -0.93870035238E+01  0.33269863178E+02  0.11255481527E+03  0.11774373050E+03  0.00000000000E+00 0.  1.
         -2    1    3    3    0  502  0.93870035238E+01 -0.33269863178E+02  0.56043067745E+03  0.56149580930E+03  0.00000000000E+00 0. -1.
<mgrwt>
<rscale>  0 0.91961291E+02</rscale>
<asrwt>0</asrwt>
<pdfrwt beam="1">  1        2 0.10401719E+00 0.91961291E+02</pdfrwt>
<pdfrwt beam="2">  1       -2 0.48108108E-03 0.91961291E+02</pdfrwt>
<totfact> 0.22992092E+05</totfact>
</mgrwt>
</event>
<event>
 5    1  0.4059427E+001  0.8883348E+02  0.7546771E-02  0.1305701E+00
          1   -1    0    0  501    0  0.00000000000E+00  0.00000000000E+00  0.13332133945E+04  0.13332133945E+04  0.00000000000E+00 0. -1.
         -1   -1    0    0    0  501 -0.00000000000E+00 -0.00000000000E+00 -0.14797683644E+01  0.14797683644E+01  0.00000000000E+00 0.  1.
         23    2    1    2    0    0  0.00000000000E+00  0.00000000000E+00  0.13317336262E+04  0.13346931629E+04  0.88833484773E+02 0.  0.
          2    1    3    3  502    0  0.23612268916E+02  0.26064043740E+02  0.10734683297E+04  0.10740442861E+04  0.00000000000E+00 0. -1.
         -2    1    3    3    0  502 -0.23612268916E+02 -0.26064043740E+02  0.25826529644E+03  0.26064887678E+03  0.00000000000E+00 0.  1.
<mgrwt>
<rscale>  0 0.88833485E+02</rscale>
<asrwt>0</asrwt>
<pdfrwt beam="1">  1        1 0.20510879E+00 0.88833485E+02</pdfrwt>
<pdfrwt beam="2">  1       -1 0.22765774E-03 0.88833485E+02</pdfrwt>
<totfact> 0.12880313E+05</totfact>
</mgrwt>
</event>
<event>
 5    1  0.4059427E+001  0.9802642E+02  0.7546771E-02  0.1284502E+00
         -3   -1    0    0    0  501 -0.00000000000E+00  0.00000000000E+00  0.10704090041E+03  0.10704090041E+03  0.00000000000E+00 0.  1.
          3   -1    0    0  501    0  0.00000000000E+00 -0.00000000000E+00 -0.22442776068E+02  0.22442776068E+02  0.00000000000E+00 0. -1.
         23    2    1    2    0    0  0.00000000000E+00  0.00000000000E+00  0.84598124339E+02  0.12948367648E+03  0.98026424152E+02 0.  0.
          2    1    3    3  502    0 -0.27596774080E+02 -0.30659358661E+02  0.73332911349E+01  0.41896961369E+02  0.00000000000E+00 0. -1.
         -2    1    3    3    0  502  0.27596774080E+02  0.30659358661E+02  0.77264833205E+02  0.87586715107E+02  0.00000000000E+00 0.  1.
<mgrwt>
<rscale>  0 0.98026424E+02</rscale>
<asrwt>0</asrwt>
<pdfrwt beam="2">  1        3 0.34527349E-02 0.98026424E+02</pdfrwt>
<pdfrwt beam="1">  1       -3 0.16467830E-01 0.98026424E+02</pdfrwt>
<totfact> 0.26762888E+04</totfact>
</mgrwt>
</event>
<event>
 5    1  0.4059427E+001  0.9013655E+02  0.7546771E-02  0.1302521E+00
         -2   -1    0    0    0  501 -0.00000000000E+00  0.00000000000E+00  0.24735442618E+02  0.24735442618E+02  0.00000000000E+00 0.  1.
          2   -1    0    0  501    0  0.00000000000E+00 -0.00000000000E+00 -0.82114938501E+02  0.82114938501E+02  0.00000000000E+00 0. -1.
         23    2    1    2    0    0  0.00000000000E+00  0.00000000000E+00 -0.57379495882E+02  0.10685038112E+03  0.90136548622E+02 0.  0.
          2    1    3    3  502    0  0.18600235146E+02 -0.38929807791E+02 -0.44129948489E+02  0.61716699812E+02  0.00000000000E+00 0. -1.
         -2    1    3    3    0  502 -0.18600235146E+02  0.38929807791E+02 -0.13249547394E+02  0.45133681307E+02  0.00000000000E+00 0.  1.
<mgrwt>
<rscale>  0 0.90136549E+02</rscale>
<asrwt>0</asrwt>
<pdfrwt beam="2">  1        2 0.12633067E-01 0.90136549E+02</pdfrwt>
<pdfrwt beam="1">  1       -2 0.38054527E-02 0.90136549E+02</pdfrwt>
<totfact> 0.11945854E+05</totfact>
</mgrwt>
</event>
<event>
 5    1  0.4059427E+001  0.9171958E+02  0.7546771E-02  0.1298740E+00
          3   -1    0    0  501    0  0.00000000000E+00  0.00000000000E+00  0.21295139567E+02  0.21295139567E+02  0.00000000000E+00 0. -1.
         -3   -1    0    0    0  501 -0.00000000000E+00 -0.00000000000E+00 -0.98760579701E+02  0.98760579701E+02  0.00000000000E+00 0.  1.
         23    2    1    2    0    0  0.00000000000E+00  0.00000000000E+00 -0.77465440133E+02  0.12005571927E+03  0.91719579774E+02 0.  0.
          2    1    3    3  502    0  0.41066551841E+02  0.64614116652E+01 -0.13388226394E+02  0.43674433331E+02  0.00000000000E+00 0. -1.
         -2    1    3    3    0  502 -0.41066551841E+02 -0.64614116652E+01 -0.64077213739E+02  0.76381285937E+02  0.00000000000E+00 0.  1.
<mgrwt>
<rscale>  0 0.91719580E+02</rscale>
<asrwt>0</asrwt>
<pdfrwt beam="1">  1        3 0.32761753E-02 0.91719580E+02</pdfrwt>
<pdfrwt beam="2">  1       -3 0.15193935E-01 0.91719580E+02</pdfrwt>
<totfact> 0.32711572E+04</totfact>
</mgrwt>
</event>
<event>
 5    1  0.4059427E+001  0.9047481E+02  0.7546771E-02  0.1301706E+00
          2   -1    0    0  501    0  0.00000000000E+00  0.00000000000E+00  0.33064321845E+03  0.33064321845E+03  0.00000000000E+00 0. -1.
         -2   -1    0    0    0  501 -0.00000000000E+00 -0.00000000000E+00 -0.61892177105E+01  0.61892177105E+01  0.00000000000E+00 0.  1.
         23    2    1    2    0    0  0.00000000000E+00  0.00000000000E+00  0.32445400074E+03  0.33683243616E+03  0.90474811158E+02 0.  0.
          2    1    3    3  502    0  0.11773350732E+02  0.31107430728E+02  0.27637865637E+03  0.27837285380E+03  0.00000000000E+00 0. -1.
         -2    1    3    3    0  502 -0.11773350732E+02 -0.31107430728E+02  0.48075344370E+02  0.58459582365E+02  0.00000000000E+00 0.  1.
<mgrwt>
<rscale>  0 0.90474811E+02</rscale>
<asrwt>0</asrwt>
<pdfrwt beam="1">  1        2 0.50868173E-01 0.90474811E+02</pdfrwt>
<pdfrwt beam="2">  1       -2 0.95218760E-03 0.90474811E+02</pdfrwt>
<totfact> 0.19013138E+05</totfact>
</mgrwt>
</event>
<event>
 5    1  0.4059427E+001  0.9159311E+02  0.7546771E-02  0.1299039E+00
         -1   -1    0    0    0  501 -0.00000000000E+00  0.00000000000E+00  0.19428666282E+01  0.19428666282E+01  0.00000000000E+00 0.  1.
          1   -1    0    0  501    0  0.00000000000E+00 -0.00000000000E+00 -0.10794999744E+04  0.10794999744E+04  0.00000000000E+00 0. -1.
         23    2    1    2    0    0  0.00000000000E+00  0.00000000000E+00 -0.10775571078E+04  0.10814428410E+04  0.91593110557E+02 0.  0.
          2    1    3    3  502    0 -0.82022526589E+01 -0.28531283248E+02 -0.95050611784E+03  0.95096960579E+03  0.00000000000E+00 0. -1.
         -2    1    3    3    0  502  0.82022526589E+01  0.28531283248E+02 -0.12705098991E+03  0.13047323523E+03  0.00000000000E+00 0.  1.
<mgrwt>
<rscale>  0 0.91593111E+02</rscale>
<asrwt>0</asrwt>
<pdfrwt beam="2">  1        1 0.16607673E+00 0.91593111E+02</pdfrwt>
<pdfrwt beam="1">  1       -1 0.29890290E-03 0.91593111E+02</pdfrwt>
<totfact> 0.13129404E+05</totfact>
</mgrwt>
</event>
<event>
 5    1  0.4059427E+001  0.1096361E+03  0.7546771E-02  0.1261245E+00
         -1   -1    0    0    0  501 -0.00000000000E+00  0.00000000000E+00  0.24138219308E+02  0.24138219308E+02  0.00000000000E+00 0.  1.
          1   -1    0    0  501    0  0.00000000000E+00 -0.00000000000E+00 -0.12449221533E+03  0.12449221533E+03  0.00000000000E+00 0. -1.
         23    2    1    2    0    0  0.00000000000E+00  0.00000000000E+00 -0.10035399602E+03  0.14863043463E+03  0.10963613265E+03 0.  0.
          2    1    3    3  502    0 -0.70976744559E+01  0.28526722642E+02  0.12549225103E+02  0.31963008902E+02  0.00000000000E+00 0.  1.
         -2    1    3    3    0  502  0.70976744559E+01 -0.28526722642E+02 -0.11290322112E+03  0.11666742573E+03  0.00000000000E+00 0. -1.
<mgrwt>
<rscale>  0 0.10963613E+03</rscale>
<asrwt>0</asrwt>
<pdfrwt beam="2">  1        1 0.19152649E-01 0.10963613E+03</pdfrwt>
<pdfrwt beam="1">  1       -1 0.37135722E-02 0.10963613E+03</pdfrwt>
<totfact> 0.65402468E+04</totfact>
</mgrwt>
</event>
<event>
 5    1  0.4059427E+001  0.9004604E+02  0.7546771E-02  0.1302740E+00
         -1   -1    0    0    0  501 -0.00000000000E+00  0.00000000000E+00  0.61658387809E+03  0.61658387809E+03  0.00000000000E+00 0.  1.
          1   -1    0    0  501    0  0.00000000000E+00 -0.00000000000E+00 -0.32875858836E+01  0.32875858836E+01  0.00000000000E+00 0. -1.
         23    2    1    2    0    0  0.00000000000E+00  0.00000000000E+00  0.61329629221E+03  0.61987146397E+03  0.90046042748E+02 0.  0.
          2    1    3    3  502    0  0.23768937237E+02  0.15791882867E+02  0.54637597280E+03  0.54712069015E+03  0.00000000000E+00 0. -1.
         -2    1    3    3    0  502 -0.23768937237E+02 -0.15791882867E+02  0.66920319410E+02  0.72750773822E+02  0.00000000000E+00 0.  1.
<mgrwt>
<rscale>  0 0.90046043E+02</rscale>
<asrwt>0</asrwt>
<pdfrwt beam="2">  1        1 0.50578294E-03 0.90046043E+02</pdfrwt>
<pdfrwt beam="1">  1       -1 0.94858966E-01 0.90046043E+02</pdfrwt>
<totfact> 0.42140920E+04</totfact>
</mgrwt>
</event>
<event>
 5    1  0.4059427E+001  0.8418743E+02  0.7546771E-02  0.1317571E+00
          1   -1    0    0  501    0  0.00000000000E+00  0.00000000000E+00  0.16558974508E+02  0.16558974508E+02  0.00000000000E+00 0. -1.
         -1   -1    0    0    0  501 -0.00000000000E+00 -0.00000000000E+00 -0.10700427293E+03  0.10700427293E+03  0.00000000000E+00 0.  1.
         23    2    1    2    0    0  0.00000000000E+00  0.00000000000E+00 -0.90445298426E+02  0.12356324744E+03  0.84187434401E+02 0.  0.
          2    1    3    3  502    0  0.16915818769E+02  0.31935809986E+02 -0.76900849082E+02  0.84969297241E+02  0.00000000000E+00 0.  1.
         -2    1    3    3    0  502 -0.16915818769E+02 -0.31935809986E+02 -0.13544449344E+02  0.38593950201E+02  0.00000000000E+00 0. -1.
<mgrwt>
<rscale>  0 0.84187434E+02</rscale>
<asrwt>0</asrwt>
<pdfrwt beam="1">  1        1 0.25475345E-02 0.84187434E+02</pdfrwt>
<pdfrwt beam="2">  1       -1 0.16462196E-01 0.84187434E+02</pdfrwt>
<totfact> 0.98635679E+04</totfact>
</mgrwt>
</event>
<event>
 5    1  0.4059427E+001  0.8751677E+02  0.7546771E-02  0.1308979E+00
          1   -1    0    0  501    0  0.00000000000E+00  0.00000000000E+00  0.41195637585E+03  0.41195637585E+03  0.00000000000E+00 0. -1.
         -1   -1    0    0    0  501 -0.00000000000E+00 -0.00000000000E+00 -0.46480563115E+01  0.46480563115E+01  0.00000000000E+00 0.  1.
         23    2    1    2    0    0  0.00000000000E+00  0.00000000000E+00  0.40730831954E+03  0.41660443216E+03  0.87516773999E+02 0.  0.
          2    1    3    3  502    0  0.10438269914E+02 -0.34076205209E+02  0.32451760805E+03  0.32646871699E+03  0.00000000000E+00 0. -1.
         -2    1    3    3    0  502 -0.10438269914E+02  0.34076205209E+02  0.82790711490E+02  0.90135715171E+02  0.00000000000E+00 0.  1.
<mgrwt>
<rscale>  0 0.87516774E+02</rscale>
<asrwt>0</asrwt>
<pdfrwt beam="1">  1        1 0.63377875E-01 0.87516774E+02</pdfrwt>
<pdfrwt beam="2">  1       -1 0.71508591E-03 0.87516774E+02</pdfrwt>
<totfact> 0.15106633E+05</totfact>
</mgrwt>
</event>
<event>
 5    1  0.4059427E+001  0.9296018E+02  0.7546771E-02  0.1295837E+00
          1   -1    0    0  501    0  0.00000000000E+00  0.00000000000E+00  0.30460520567E+03  0.30460520567E+03  0.00000000000E+00 0. -1.
         -1   -1    0    0    0  501 -0.00000000000E+00 -0.00000000000E+00 -0.70924548206E+01  0.70924548206E+01  0.00000000000E+00 0.  1.
         23    2    1    2    0    0  0.00000000000E+00  0.00000000000E+00  0.29751275085E+03  0.31169766049E+03  0.92960177696E+02 0.  0.
          2    1    3    3  502    0  0.29937338903E+02  0.10506402470E+02  0.26264915729E+03  0.26455851636E+03  0.00000000000E+00 0. -1.
         -2    1    3    3    0  502 -0.29937338903E+02 -0.10506402470E+02  0.34863593559E+02  0.47139144130E+02  0.00000000000E+00 0.  1.
<mgrwt>
<rscale>  0 0.92960178E+02</rscale>
<asrwt>0</asrwt>
<pdfrwt beam="1">  1        1 0.46862329E-01 0.92960178E+02</pdfrwt>
<pdfrwt beam="2">  1       -1 0.10911471E-02 0.92960178E+02</pdfrwt>
<totfact> 0.12202118E+05</totfact>
</mgrwt>
</event>
<event>
 5    1  0.4059427E+001  0.9031728E+02  0.7546771E-02  0.1302085E+00
         -2   -1    0    0    0  501 -0.00000000000E+00  0.00000000000E+00  0.22163766347E+01  0.22163766347E+01  0.00000000000E+00 0.  1.
          2   -1    0    0  501    0  0.00000000000E+00 -0.00000000000E+00 -0.92010663359E+03  0.92010663359E+03  0.00000000000E+00 0. -1.
         23    2    1    2    0    0  0.00000000000E+00  0.00000000000E+00 -0.91789025695E+03  0.92232301022E+03  0.90317281716E+02 0.  0.
          2    1    3    3  502    0  0.42424805520E+02  0.11975957880E+02 -0.55901009996E+03  0.56074555687E+03  0.00000000000E+00 0. -1.
         -2    1    3    3    0  502 -0.42424805520E+02 -0.11975957880E+02 -0.35888015699E+03  0.36157745336E+03  0.00000000000E+00 0.  1.
<mgrwt>
<rscale>  0 0.90317282E+02</rscale>
<asrwt>0</asrwt>
<pdfrwt beam="2">  1        2 0.14155504E+00 0.90317282E+02</pdfrwt>
<pdfrwt beam="1">  1       -2 0.34098061E-03 0.90317282E+02</pdfrwt>
<totfact> 0.25479582E+05</totfact>
</mgrwt>
</event>
<event>
 5    1  0.4059427E+001  0.9140501E+02  0.7546771E-02  0.1299484E+00
         -2   -1    0    0    0  501 -0.00000000000E+00  0.00000000000E+00  0.26105508493E+02  0.26105508493E+02  0.00000000000E+00 0. -1.
          2   -1    0    0  501    0  0.00000000000E+00 -0.00000000000E+00 -0.80010659741E+02  0.80010659741E+02  0.00000000000E+00 0.  1.
         23    2    1    2    0    0  0.00000000000E+00  0.00000000000E+00 -0.53905151248E+02  0.10611616823E+03  0.91405009872E+02 0.  0.
          2    1    3    3  502    0  0.16529701538E+01  0.40618929788E+02 -0.27088578118E+01  0.40742700918E+02  0.00000000000E+00 0. -1.
         -2    1    3    3    0  502 -0.16529701538E+01 -0.40618929788E+02 -0.51196293436E+02  0.65373467317E+02  0.00000000000E+00 0.  1.
<mgrwt>
<rscale>  0 0.91405010E+02</rscale>
<asrwt>0</asrwt>
<pdfrwt beam="2">  1        2 0.12309332E-01 0.91405010E+02</pdfrwt>
<pdfrwt beam="1">  1       -2 0.40162321E-02 0.91405010E+02</pdfrwt>
<totfact> 0.11406407E+05</totfact>
</mgrwt>
</event>
<event>
 5    1  0.4059427E+001  0.9122475E+02  0.7546771E-02  0.1299913E+00
         -2   -1    0    0    0  501 -0.00000000000E+00  0.00000000000E+00  0.85201283004E+01  0.85201283004E+01  0.00000000000E+00 0.  1.
          2   -1    0    0  501    0  0.00000000000E+00 -0.00000000000E+00 -0.24418513653E+03  0.24418513653E+03  0.00000000000E+00 0. -1.
         23    2    1    2    0    0  0.00000000000E+00  0.00000000000E+00 -0.23566500823E+03  0.25270526483E+03  0.91224748665E+02 0.  0.
          2    1    3    3  502    0 -0.61069463303E+01 -0.21921489209E+02 -0.22733685878E+03  0.22847296085E+03  0.00000000000E+00 0. -1.
         -2    1    3    3    0  502  0.61069463303E+01  0.21921489209E+02 -0.83281494501E+01  0.24232303974E+02  0.00000000000E+00 0.  1.
<mgrwt>
<rscale>  0 0.91224749E+02</rscale>
<asrwt>0</asrwt>
<pdfrwt beam="2">  1        2 0.37566940E-01 0.91224749E+02</pdfrwt>
<pdfrwt beam="1">  1       -2 0.13107891E-02 0.91224749E+02</pdfrwt>
<totfact> 0.16617164E+05</totfact>
</mgrwt>
</event>
<event>
 5    1  0.4059427E+001  0.9401698E+02  0.7546771E-02  0.1293406E+00
          1   -1    0    0  501    0  0.00000000000E+00  0.00000000000E+00  0.18677219541E+03  0.18677219541E+03  0.00000000000E+00 0. -1.
         -1   -1    0    0    0  501 -0.00000000000E+00 -0.00000000000E+00 -0.11831515512E+02  0.11831515512E+02  0.00000000000E+00 0.  1.
         23    2    1    2    0    0  0.00000000000E+00  0.00000000000E+00  0.17494067990E+03  0.19860371092E+03  0.94016979894E+02 0.  0.
          2    1    3    3  502    0  0.44801987762E+02  0.38727572294E+01  0.11640220154E+03  0.12478657332E+03  0.00000000000E+00 0. -1.
         -2    1    3    3    0  502 -0.44801987762E+02 -0.38727572294E+01  0.58538478353E+02  0.73817137603E+02  0.00000000000E+00 0.  1.
<mgrwt>
<rscale>  0 0.94016980E+02</rscale>
<asrwt>0</asrwt>
<pdfrwt beam="1">  1        1 0.28734182E-01 0.94016980E+02</pdfrwt>
<pdfrwt beam="2">  1       -1 0.18202333E-02 0.94016980E+02</pdfrwt>
<totfact> 0.10759015E+05</totfact>
</mgrwt>
</event>
<event>
 5    1  0.4059427E+001  0.9226459E+02  0.7546771E-02  0.1297459E+00
          2   -1    0    0  501    0  0.00000000000E+00  0.00000000000E+00  0.35105628746E+01  0.35105628746E+01  0.00000000000E+00 0. -1.
         -2   -1    0    0    0  501 -0.00000000000E+00 -0.00000000000E+00 -0.60622437757E+03  0.60622437757E+03  0.00000000000E+00 0.  1.
         23    2    1    2    0    0  0.00000000000E+00  0.00000000000E+00 -0.60271381469E+03  0.60973494044E+03  0.92264593286E+02 0.  0.
          2    1    3    3  502    0  0.53778658409E+00  0.23738083043E+02 -0.39972106696E+02  0.46492527515E+02  0.00000000000E+00 0. -1.
         -2    1    3    3    0  502 -0.53778658409E+00 -0.23738083043E+02 -0.56274170800E+03  0.56324241293E+03  0.00000000000E+00 0.  1.
<mgrwt>
<rscale>  0 0.92264593E+02</rscale>
<asrwt>0</asrwt>
<pdfrwt beam="1">  1        2 0.54008653E-03 0.92264593E+02</pdfrwt>
<pdfrwt beam="2">  1       -2 0.93265300E-01 0.92264593E+02</pdfrwt>
<totfact> 0.30044883E+04</totfact>
</mgrwt>
</event>
<event>
 5    1  0.4059427E+001  0.9094385E+02  0.7546771E-02  0.1300582E+00
         -2   -1    0    0    0  501 -0.00000000000E+00  0.00000000000E+00  0.10365168492E+03  0.10365168492E+03  0.00000000000E+00 0.  1.
          2   -1    0    0  501    0  0.00000000000E+00 -0.00000000000E+00 -0.19948502444E+02  0.19948502444E+02  0.00000000000E+00 0. -1.
         23    2    1    2    0    0  0.00000000000E+00  0.00000000000E+00  0.83703182475E+02  0.12360018736E+03  0.90943848387E+02 0.  0.
          2    1    3    3  502    0 -0.22509162431E+02 -0.14719266508E+02  0.91683358329E+02  0.95546624192E+02  0.00000000000E+00 0.  1.
         -2    1    3    3    0  502  0.22509162431E+02  0.14719266508E+02 -0.79801758542E+01  0.28053563171E+02  0.00000000000E+00 0. -1.
<mgrwt>
<rscale>  0 0.90943848E+02</rscale>
<asrwt>0</asrwt>
<pdfrwt beam="2">  1        2 0.30690004E-02 0.90943848E+02</pdfrwt>
<pdfrwt beam="1">  1       -2 0.15946413E-01 0.90943848E+02</pdfrwt>
<totfact> 0.79456002E+04</totfact>
</mgrwt>
</event>
<event>
 5    1  0.4059427E+001  0.9004937E+02  0.7546771E-02  0.1302732E+00
          4   -1    0    0  501    0  0.00000000000E+00  0.00000000000E+00  0.15883391674E+01  0.15883391674E+01  0.00000000000E+00 0. -1.
         -4   -1    0    0    0  501 -0.00000000000E+00 -0.00000000000E+00 -0.12763158041E+04  0.12763158041E+04  0.00000000000E+00 0.  1.
         23    2    1    2    0    0  0.00000000000E+00  0.00000000000E+00 -0.12747274649E+04  0.12779041432E+04  0.90049372715E+02 0.  0.
          2    1    3    3  502    0  0.15390431408E+02 -0.39475524291E+02 -0.42119195158E+03  0.42331766143E+03  0.00000000000E+00 0. -1.
         -2    1    3    3    0  502 -0.15390431408E+02  0.39475524291E+02 -0.85353551333E+03  0.85458648182E+03  0.00000000000E+00 0.  1.
<mgrwt>
<rscale>  0 0.90049373E+02</rscale>
<asrwt>0</asrwt>
<pdfrwt beam="1">  1        4 0.24436016E-03 0.90049373E+02</pdfrwt>
<pdfrwt beam="2">  1       -4 0.19635604E+00 0.90049373E+02</pdfrwt>
<totfact> 0.54710129E+03</totfact>
</mgrwt>
</event>
<event>
 5    1  0.4059427E+001  0.9179591E+02  0.7546771E-02  0.1298560E+00
          1   -1    0    0  501    0  0.00000000000E+00  0.00000000000E+00  0.13056525184E+02  0.13056525184E+02  0.00000000000E+00 0. -1.
         -1   -1    0    0    0  501 -0.00000000000E+00 -0.00000000000E+00 -0.16134633097E+03  0.16134633097E+03  0.00000000000E+00 0.  1.
         23    2    1    2    0    0  0.00000000000E+00  0.00000000000E+00 -0.14828980578E+03  0.17440285615E+03  0.91795913497E+02 0.  0.
          2    1    3    3  502    0 -0.34760850506E+02 -0.15495562204E+02 -0.12288730853E+03  0.12864571417E+03  0.00000000000E+00 0. -1.
         -2    1    3    3    0  502  0.34760850506E+02  0.15495562204E+02 -0.25402497253E+02  0.45757141985E+02  0.00000000000E+00 0.  1.
<mgrwt>
<rscale>  0 0.91795913E+02</rscale>
<asrwt>0</asrwt>
<pdfrwt beam="1">  1        1 0.20086962E-02 0.91795913E+02</pdfrwt>
<pdfrwt beam="2">  1       -1 0.24822513E-01 0.91795913E+02</pdfrwt>
<totfact> 0.72210054E+04</totfact>
</mgrwt>
</event>
<event>
 5    1  0.4059427E+001  0.9020984E+02  0.7546771E-02  0.1302344E+00
         -1   -1    0    0    0  501 -0.00000000000E+00  0.00000000000E+00  0.52389043166E+01  0.52389043166E+01  0.00000000000E+00 0.  1.
          1   -1    0    0  501    0  0.00000000000E+00 -0.00000000000E+00 -0.38833573577E+03  0.38833573577E+03  0.00000000000E+00 0. -1.
         23    2    1    2    0    0  0.00000000000E+00  0.00000000000E+00 -0.38309683145E+03  0.39357464008E+03  0.90209838984E+02 0.  0.
          2    1    3    3  502    0  0.11086007245E+02  0.41485829373E+02 -0.25176249928E+03  0.25539837438E+03  0.00000000000E+00 0.  1.
         -2    1    3    3    0  502 -0.11086007245E+02 -0.41485829373E+02 -0.13133433217E+03  0.13817626570E+03  0.00000000000E+00 0. -1.
<mgrwt>
<rscale>  0 0.90209839E+02</rscale>
<asrwt>0</asrwt>
<pdfrwt beam="2">  1        1 0.59743948E-01 0.90209839E+02</pdfrwt>
<pdfrwt beam="1">  1       -1 0.80598543E-03 0.90209839E+02</pdfrwt>
<totfact> 0.13808314E+05</totfact>
</mgrwt>
</event>
<event>
 5    1  0.4059427E+001  0.1011386E+03  0.7546771E-02  0.1277920E+00
         -2   -1    0    0    0  501 -0.00000000000E+00  0.00000000000E+00  0.37783257523E+01  0.37783257523E+01  0.00000000000E+00 0.  1.
          2   -1    0    0  501    0  0.00000000000E+00 -0.00000000000E+00 -0.67682143532E+03  0.67682143532E+03  0.00000000000E+00 0. -1.
         23    2    1    2    0    0  0.00000000000E+00  0.00000000000E+00 -0.67304310957E+03  0.68059976108E+03  0.10113855563E+03 0.  0.
          2    1    3    3  502    0  0.26647077269E+02 -0.27992907940E+02 -0.55598418656E+03  0.55732583407E+03  0.00000000000E+00 0. -1.
         -2    1    3    3    0  502 -0.26647077269E+02  0.27992907940E+02 -0.11705892301E+03  0.12327392700E+03  0.00000000000E+00 0.  1.
<mgrwt>
<rscale>  0 0.10113856E+03</rscale>
<asrwt>0</asrwt>
<pdfrwt beam="2">  1        2 0.10412625E+00 0.10113856E+03</pdfrwt>
<pdfrwt beam="1">  1       -2 0.58128157E-03 0.10113856E+03</pdfrwt>
<totfact> 0.17867206E+05</totfact>
</mgrwt>
</event>
<event>
 5    1  0.4059427E+001  0.9264005E+02  0.7546771E-02  0.1296582E+00
          2   -1    0    0  501    0  0.00000000000E+00  0.00000000000E+00  0.10582027034E+04  0.10582027034E+04  0.00000000000E+00 0. -1.
         -2   -1    0    0    0  501 -0.00000000000E+00 -0.00000000000E+00 -0.20275365375E+01  0.20275365375E+01  0.00000000000E+00 0.  1.
         23    2    1    2    0    0  0.00000000000E+00  0.00000000000E+00  0.10561751668E+04  0.10602302399E+04  0.92640048470E+02 0.  0.
          2    1    3    3  502    0 -0.42597484099E+02 -0.10545693193E+02  0.69775668428E+03  0.69913528573E+03  0.00000000000E+00 0. -1.
         -2    1    3    3    0  502  0.42597484099E+02  0.10545693193E+02  0.35841848255E+03  0.36109495417E+03  0.00000000000E+00 0.  1.
<mgrwt>
<rscale>  0 0.92640048E+02</rscale>
<asrwt>0</asrwt>
<pdfrwt beam="1">  1        2 0.16279997E+00 0.92640048E+02</pdfrwt>
<pdfrwt beam="2">  1       -2 0.31192954E-03 0.92640048E+02</pdfrwt>
<totfact> 0.24004977E+05</totfact>
</mgrwt>
</event>
<event>
 5    1  0.4059427E+001  0.9225011E+02  0.7546771E-02  0.1297492E+00
          2   -1    0    0  501    0  0.00000000000E+00  0.00000000000E+00  0.64302402639E+03  0.64302402639E+03  0.00000000000E+00 0. -1.
         -2   -1    0    0    0  501 -0.00000000000E+00 -0.00000000000E+00 -0.33086176376E+01  0.33086176376E+01  0.00000000000E+00 0.  1.
         23    2    1    2    0    0  0.00000000000E+00  0.00000000000E+00  0.63971540876E+03  0.64633264403E+03  0.92250108620E+02 0.  0.
          2    1    3    3  502    0 -0.13780870237E+02 -0.38635104133E+02  0.17206994800E+03  0.17689163536E+03  0.00000000000E+00 0.  1.
         -2    1    3    3    0  502  0.13780870237E+02  0.38635104133E+02  0.46764546075E+03  0.46944100867E+03  0.00000000000E+00 0. -1.
<mgrwt>
<rscale>  0 0.92250109E+02</rscale>
<asrwt>0</asrwt>
<pdfrwt beam="1">  1        2 0.98926674E-01 0.92250109E+02</pdfrwt>
<pdfrwt beam="2">  1       -2 0.50901861E-03 0.92250109E+02</pdfrwt>
<totfact> 0.22513153E+05</totfact>
</mgrwt>
</event>
<event>
 5    1  0.4059427E+001  0.8204990E+02  0.7546771E-02  0.1323333E+00
          1   -1    0    0  501    0  0.00000000000E+00  0.00000000000E+00  0.14309908634E+04  0.14309908634E+04  0.00000000000E+00 0. -1.
         -1   -1    0    0    0  501 -0.00000000000E+00 -0.00000000000E+00 -0.11761407228E+01  0.11761407228E+01  0.00000000000E+00 0.  1.
         23    2    1    2    0    0  0.00000000000E+00  0.00000000000E+00  0.14298147226E+04  0.14321670041E+04  0.82049902579E+02 0.  0.
          2    1    3    3  502    0  0.37972771779E+02  0.94626144197E+01  0.92980328581E+03  0.93062646791E+03  0.00000000000E+00 0. -1.
         -2    1    3    3    0  502 -0.37972771779E+02 -0.94626144197E+01  0.50001143683E+03  0.50154053617E+03  0.00000000000E+00 0.  1.
<mgrwt>
<rscale>  0 0.82049903E+02</rscale>
<asrwt>0</asrwt>
<pdfrwt beam="1">  1        1 0.22015105E+00 0.82049903E+02</pdfrwt>
<pdfrwt beam="2">  1       -1 0.18094587E-03 0.82049903E+02</pdfrwt>
<totfact> 0.15133748E+05</totfact>
</mgrwt>
</event>
<event>
 5    1  0.4059427E+001  0.9034177E+02  0.7546771E-02  0.1302026E+00
          2   -1    0    0  501    0  0.00000000000E+00  0.00000000000E+00  0.50110573083E+03  0.50110573083E+03  0.00000000000E+00 0. -1.
         -2   -1    0    0    0  501 -0.00000000000E+00 -0.00000000000E+00 -0.40718131449E+01  0.40718131449E+01  0.00000000000E+00 0.  1.
         23    2    1    2    0    0  0.00000000000E+00  0.00000000000E+00  0.49703391769E+03  0.50517754398E+03  0.90341771109E+02 0.  0.
          2    1    3    3  502    0 -0.37513396808E+02 -0.19800668697E+02  0.33534155385E+03  0.33801372629E+03  0.00000000000E+00 0. -1.
         -2    1    3    3    0  502  0.37513396808E+02  0.19800668697E+02  0.16169236383E+03  0.16716381769E+03  0.00000000000E+00 0.  1.
<mgrwt>
<rscale>  0 0.90341771E+02</rscale>
<asrwt>0</asrwt>
<pdfrwt beam="1">  1        2 0.77093141E-01 0.90341771E+02</pdfrwt>
<pdfrwt beam="2">  1       -2 0.62643319E-03 0.90341771E+02</pdfrwt>
<totfact> 0.22096296E+05</totfact>
</mgrwt>
</event>
<event>
 5    1  0.4059427E+001  0.8848309E+02  0.7546771E-02  0.1306567E+00
         -1   -1    0    0    0  501 -0.00000000000E+00  0.00000000000E+00  0.69663654489E+02  0.69663654489E+02  0.00000000000E+00 0.  1.
          1   -1    0    0  501    0  0.00000000000E+00 -0.00000000000E+00 -0.28096636756E+02  0.28096636756E+02  0.00000000000E+00 0. -1.
         23    2    1    2    0    0  0.00000000000E+00  0.00000000000E+00  0.41567017734E+02  0.97760291245E+02  0.88483092063E+02 0.  0.
          2    1    3    3  502    0 -0.41258461914E+02  0.26177310079E+01  0.33773022441E+01  0.41479143742E+02  0.00000000000E+00 0. -1.
         -2    1    3    3    0  502  0.41258461914E+02 -0.26177310079E+01  0.38189715490E+02  0.56281147503E+02  0.00000000000E+00 0.  1.
<mgrwt>
<rscale>  0 0.88483092E+02</rscale>
<asrwt>0</asrwt>
<pdfrwt beam="2">  1        1 0.43225595E-02 0.88483092E+02</pdfrwt>
<pdfrwt beam="1">  1       -1 0.10717485E-01 0.88483092E+02</pdfrwt>
<totfact> 0.93478444E+04</totfact>
</mgrwt>
</event>
<event>
 5    1  0.4059427E+001  0.9026303E+02  0.7546771E-02  0.1302216E+00
          2   -1    0    0  501    0  0.00000000000E+00  0.00000000000E+00  0.25109081357E+01  0.25109081357E+01  0.00000000000E+00 0. -1.
         -2   -1    0    0    0  501 -0.00000000000E+00 -0.00000000000E+00 -0.81120191754E+03  0.81120191754E+03  0.00000000000E+00 0.  1.
         23    2    1    2    0    0  0.00000000000E+00  0.00000000000E+00 -0.80869100941E+03  0.81371282568E+03  0.90263026637E+02 0.  0.
          2    1    3    3  502    0  0.35871624397E+02  0.91349985660E+01 -0.17158767343E+03  0.17553504297E+03  0.00000000000E+00 0. -1.
         -2    1    3    3    0  502 -0.35871624397E+02 -0.91349985660E+01 -0.63710333597E+03  0.63817778271E+03  0.00000000000E+00 0.  1.
<mgrwt>
<rscale>  0 0.90263027E+02</rscale>
<asrwt>0</asrwt>
<pdfrwt beam="1">  1        2 0.38629362E-03 0.90263027E+02</pdfrwt>
<pdfrwt beam="2">  1       -2 0.12480028E+00 0.90263027E+02</pdfrwt>
<totfact> 0.24128578E+04</totfact>
</mgrwt>
</event>
<event>
 5    1  0.4059427E+001  0.9179073E+02  0.7546771E-02  0.1298572E+00
          1   -1    0    0  501    0  0.00000000000E+00  0.00000000000E+00  0.58963574494E+03  0.58963574494E+03  0.00000000000E+00 0. -1.
         -1   -1    0    0    0  501 -0.00000000000E+00 -0.00000000000E+00 -0.35723491270E+01  0.35723491270E+01  0.00000000000E+00 0.  1.
         23    2    1    2    0    0  0.00000000000E+00  0.00000000000E+00  0.58606339582E+03  0.59320809407E+03  0.91790734580E+02 0.  0.
          2    1    3    3  502    0  0.20679469171E+01 -0.39451850591E+02  0.44399424337E+03  0.44574837416E+03  0.00000000000E+00 0. -1.
         -2    1    3    3    0  502 -0.20679469171E+01  0.39451850591E+02  0.14206915244E+03  0.14745971991E+03  0.00000000000E+00 0.  1.
<mgrwt>
<rscale>  0 0.91790735E+02</rscale>
<asrwt>0</asrwt>
<pdfrwt beam="1">  1        1 0.90713114E-01 0.91790735E+02</pdfrwt>
<pdfrwt beam="2">  1       -1 0.54959264E-03 0.91790735E+02</pdfrwt>
<totfact> 0.13894031E+05</totfact>
</mgrwt>
</event>
<event>
 5    1  0.4059427E+001  0.9316521E+02  0.7546771E-02  0.1295363E+00
          1   -1    0    0  501    0  0.00000000000E+00  0.00000000000E+00  0.51736896670E+02  0.51736896670E+02  0.00000000000E+00 0. -1.
         -1   -1    0    0    0  501 -0.00000000000E+00 -0.00000000000E+00 -0.41941806948E+02  0.41941806948E+02  0.00000000000E+00 0.  1.
         23    2    1    2    0    0  0.00000000000E+00  0.00000000000E+00  0.97950897211E+01  0.93678703618E+02  0.93165206643E+02 0.  0.
          2    1    3    3  502    0 -0.21538941515E+02 -0.20816638405E+02 -0.30973730254E+02  0.43088634254E+02  0.00000000000E+00 0.  1.
         -2    1    3    3    0  502  0.21538941515E+02  0.20816638405E+02  0.40768819975E+02  0.50590069364E+02  0.00000000000E+00 0. -1.
<mgrwt>
<rscale>  0 0.93165207E+02</rscale>
<asrwt>0</asrwt>
<pdfrwt beam="1">  1        1 0.79595226E-02 0.93165207E+02</pdfrwt>
<pdfrwt beam="2">  1       -1 0.64525857E-02 0.93165207E+02</pdfrwt>
<totfact> 0.88724255E+04</totfact>
</mgrwt>
</event>
<event>
 5    1  0.4059427E+001  0.6188848E+02  0.7546771E-02  0.1390073E+00
          1   -1    0    0  501    0  0.00000000000E+00  0.00000000000E+00  0.85377356498E+00  0.85377356498E+00  0.00000000000E+00 0. -1.
         -1   -1    0    0    0  501 -0.00000000000E+00 -0.00000000000E+00 -0.11215457098E+04  0.11215457098E+04  0.00000000000E+00 0.  1.
         23    2    1    2    0    0  0.00000000000E+00  0.00000000000E+00 -0.11206919362E+04  0.11223994834E+04  0.61888482900E+02 0.  0.
          2    1    3    3  502    0  0.26862011257E+02 -0.15356306654E+02 -0.56765172043E+03  0.56849437949E+03  0.00000000000E+00 0. -1.
         -2    1    3    3    0  502 -0.26862011257E+02  0.15356306654E+02 -0.55304021580E+03  0.55390510387E+03  0.00000000000E+00 0.  1.
<mgrwt>
<rscale>  0 0.61888483E+02</rscale>
<asrwt>0</asrwt>
<pdfrwt beam="1">  1        1 0.13135095E-03 0.61888483E+02</pdfrwt>
<pdfrwt beam="2">  1       -1 0.17254395E+00 0.61888483E+02</pdfrwt>
<totfact> 0.60258093E+04</totfact>
</mgrwt>
</event>
<event>
 5    1  0.4059427E+001  0.8906351E+02  0.7546771E-02  0.1305136E+00
          2   -1    0    0  501    0  0.00000000000E+00  0.00000000000E+00  0.76396730170E+03  0.76396730170E+03  0.00000000000E+00 0. -1.
         -2   -1    0    0    0  501 -0.00000000000E+00 -0.00000000000E+00 -0.25957615955E+01  0.25957615955E+01  0.00000000000E+00 0.  1.
         23    2    1    2    0    0  0.00000000000E+00  0.00000000000E+00  0.76137154010E+03  0.76656306330E+03  0.89063505028E+02 0.  0.
          2    1    3    3  502    0 -0.17159987971E+01  0.41723388215E+02  0.51382666618E+03  0.51552073542E+03  0.00000000000E+00 0. -1.
         -2    1    3    3    0  502  0.17159987971E+01 -0.41723388215E+02  0.24754487393E+03  0.25104232787E+03  0.00000000000E+00 0.  1.
<mgrwt>
<rscale>  0 0.89063505E+02</rscale>
<asrwt>0</asrwt>
<pdfrwt beam="1">  1        2 0.11753325E+00 0.89063505E+02</pdfrwt>
<pdfrwt beam="2">  1       -2 0.39934855E-03 0.89063505E+02</pdfrwt>
<totfact> 0.25704241E+05</totfact>
</mgrwt>
</event>
<event>
 5    1  0.4059427E+001  0.9094466E+02  0.7546771E-02  0.1300580E+00
          1   -1    0    0  501    0  0.00000000000E+00  0.00000000000E+00  0.49929354567E+03  0.49929354567E+03  0.00000000000E+00 0. -1.
         -1   -1    0    0    0  501 -0.00000000000E+00 -0.00000000000E+00 -0.41413171426E+01  0.41413171426E+01  0.00000000000E+00 0.  1.
         23    2    1    2    0    0  0.00000000000E+00  0.00000000000E+00  0.49515222852E+03  0.50343486281E+03  0.90944662732E+02 0.  0.
          2    1    3    3  502    0  0.23289885719E+01  0.44753145567E+02  0.29026311725E+03  0.29370213731E+03  0.00000000000E+00 0. -1.
         -2    1    3    3    0  502 -0.23289885719E+01 -0.44753145567E+02  0.20488911128E+03  0.20973272550E+03  0.00000000000E+00 0.  1.
<mgrwt>
<rscale>  0 0.90944663E+02</rscale>
<asrwt>0</asrwt>
<pdfrwt beam="1">  1        1 0.76814344E-01 0.90944663E+02</pdfrwt>
<pdfrwt beam="2">  1       -1 0.63712611E-03 0.90944663E+02</pdfrwt>
<totfact> 0.14018576E+05</totfact>
</mgrwt>
</event>
<event>
 5    1  0.4059427E+001  0.9202093E+02  0.7546771E-02  0.1298030E+00
          1   -1    0    0  501    0  0.00000000000E+00  0.00000000000E+00  0.16147218354E+04  0.16147218354E+04  0.00000000000E+00 0. -1.
         -1   -1    0    0    0  501 -0.00000000000E+00 -0.00000000000E+00 -0.13110388216E+01  0.13110388216E+01  0.00000000000E+00 0.  1.
         23    2    1    2    0    0  0.00000000000E+00  0.00000000000E+00  0.16134107966E+04  0.16160328743E+04  0.92020932671E+02 0.  0.
          2    1    3    3  502    0  0.35985371057E+02 -0.31999644394E+01  0.13070644342E+04  0.13075636206E+04  0.00000000000E+00 0. -1.
         -2    1    3    3    0  502 -0.35985371057E+02  0.31999644394E+01  0.30634636241E+03  0.30846925368E+03  0.00000000000E+00 0.  1.
<mgrwt>
<rscale>  0 0.92020933E+02</rscale>
<asrwt>0</asrwt>
<pdfrwt beam="1">  1        1 0.24841715E+00 0.92020933E+02</pdfrwt>
<pdfrwt beam="2">  1       -1 0.20169957E-03 0.92020933E+02</pdfrwt>
<totfact> 0.10099743E+05</totfact>
</mgrwt>
</event>
<event>
 5    1  0.4059427E+001  0.9315813E+02  0.7546771E-02  0.1295379E+00
         -2   -1    0    0    0  501 -0.00000000000E+00  0.00000000000E+00  0.10837505745E+01  0.10837505745E+01  0.00000000000E+00 0.  1.
          2   -1    0    0  501    0  0.00000000000E+00 -0.00000000000E+00 -0.20019454311E+04  0.20019454311E+04  0.00000000000E+00 0. -1.
         23    2    1    2    0    0  0.00000000000E+00  0.00000000000E+00 -0.20008616805E+04  0.20030291816E+04  0.93158134610E+02 0.  0.
          2    1    3    3  502    0  0.91137164274E+01 -0.36042030641E+02 -0.16038203572E+04  0.16042511730E+04  0.00000000000E+00 0. -1.
         -2    1    3    3    0  502 -0.91137164274E+01  0.36042030641E+02 -0.39704132331E+03  0.39877800869E+03  0.00000000000E+00 0.  1.
<mgrwt>
<rscale>  0 0.93158135E+02</rscale>
<asrwt>0</asrwt>
<pdfrwt beam="2">  1        2 0.30798938E+00 0.93158135E+02</pdfrwt>
<pdfrwt beam="1">  1       -2 0.16673206E-03 0.93158135E+02</pdfrwt>
<totfact> 0.18576348E+05</totfact>
</mgrwt>
</event>
<event>
 5    1  0.4059427E+001  0.9438279E+02  0.7546771E-02  0.1292572E+00
         -2   -1    0    0    0  501 -0.00000000000E+00  0.00000000000E+00  0.14591848021E+01  0.14591848021E+01  0.00000000000E+00 0.  1.
          2   -1    0    0  501    0  0.00000000000E+00 -0.00000000000E+00 -0.15262136319E+04  0.15262136319E+04  0.00000000000E+00 0. -1.
         23    2    1    2    0    0  0.00000000000E+00  0.00000000000E+00 -0.15247544471E+04  0.15276728167E+04  0.94382789457E+02 0.  0.
          2    1    3    3  502    0  0.29904792968E+02  0.35873326641E+02 -0.65279536313E+03  0.65446388620E+03  0.00000000000E+00 0. -1.
         -2    1    3    3    0  502 -0.29904792968E+02 -0.35873326641E+02 -0.87195908396E+03  0.87320893050E+03  0.00000000000E+00 0.  1.
<mgrwt>
<rscale>  0 0.94382789E+02</rscale>
<asrwt>0</asrwt>
<pdfrwt beam="2">  1        2 0.23480168E+00 0.94382789E+02</pdfrwt>
<pdfrwt beam="1">  1       -2 0.22449037E-03 0.94382789E+02</pdfrwt>
<totfact> 0.21394350E+05</totfact>
</mgrwt>
</event>
<event>
 5    1  0.4059427E+001  0.9137295E+02  0.7546771E-02  0.1299561E+00
          2   -1    0    0  501    0  0.00000000000E+00  0.00000000000E+00  0.33454219756E+03  0.33454219756E+03  0.00000000000E+00 0. -1.
         -2   -1    0    0    0  501 -0.00000000000E+00 -0.00000000000E+00 -0.62391348296E+01  0.62391348296E+01  0.00000000000E+00 0.  1.
         23    2    1    2    0    0  0.00000000000E+00  0.00000000000E+00  0.32830306273E+03  0.34078133239E+03  0.91372947348E+02 0.  0.
          2    1    3    3  502    0  0.36983176443E+02  0.22843509484E+02  0.21658775567E+03  0.22090685180E+03  0.00000000000E+00 0. -1.
         -2    1    3    3    0  502 -0.36983176443E+02 -0.22843509484E+02  0.11171530706E+03  0.11987448059E+03  0.00000000000E+00 0.  1.
<mgrwt>
<rscale>  0 0.91372947E+02</rscale>
<asrwt>0</asrwt>
<pdfrwt beam="1">  1        2 0.51468016E-01 0.91372947E+02</pdfrwt>
<pdfrwt beam="2">  1       -2 0.95986716E-03 0.91372947E+02</pdfrwt>
<totfact> 0.18599953E+05</totfact>
</mgrwt>
</event>
<event>
 5    1  0.4059427E+001  0.8823760E+02  0.7546771E-02  0.1307177E+00
         -1   -1    0    0    0  501 -0.00000000000E+00  0.00000000000E+00  0.88606905661E+01  0.88606905661E+01  0.00000000000E+00 0.  1.
          1   -1    0    0  501    0  0.00000000000E+00 -0.00000000000E+00 -0.21967456505E+03  0.21967456505E+03  0.00000000000E+00 0. -1.
         23    2    1    2    0    0  0.00000000000E+00  0.00000000000E+00 -0.21081387449E+03  0.22853525562E+03  0.88237596209E+02 0.  0.
          2    1    3    3  502    0  0.25088602847E+02 -0.27801058293E+02 -0.16582286894E+03  0.16999870793E+03  0.00000000000E+00 0. -1.
         -2    1    3    3    0  502 -0.25088602847E+02  0.27801058293E+02 -0.44991005549E+02  0.58536547689E+02  0.00000000000E+00 0.  1.
<mgrwt>
<rscale>  0 0.88237596E+02</rscale>
<asrwt>0</asrwt>
<pdfrwt beam="2">  1        1 0.33796087E-01 0.88237596E+02</pdfrwt>
<pdfrwt beam="1">  1       -1 0.13631832E-02 0.88237596E+02</pdfrwt>
<totfact> 0.13161797E+05</totfact>
</mgrwt>
</event>
<event>
 5    1  0.4059427E+001  0.9202063E+02  0.7546771E-02  0.1298031E+00
         -2   -1    0    0    0  501 -0.00000000000E+00  0.00000000000E+00  0.25830725793E+01  0.25830725793E+01  0.00000000000E+00 0.  1.
          2   -1    0    0  501    0  0.00000000000E+00 -0.00000000000E+00 -0.81954694138E+03  0.81954694138E+03  0.00000000000E+00 0. -1.
         23    2    1    2    0    0  0.00000000000E+00  0.00000000000E+00 -0.81696386880E+03  0.82213001396E+03  0.92020633159E+02 0.  0.
          2    1    3    3  502    0 -0.43550452709E+02  0.13656684639E+02 -0.35653879567E+03  0.35944827136E+03  0.00000000000E+00 0. -1.
         -2    1    3    3    0  502  0.43550452709E+02 -0.13656684639E+02 -0.46042507313E+03  0.46268174260E+03  0.00000000000E+00 0.  1.
<mgrwt>
<rscale>  0 0.92020633E+02</rscale>
<asrwt>0</asrwt>
<pdfrwt beam="2">  1        2 0.12608409E+00 0.92020633E+02</pdfrwt>
<pdfrwt beam="1">  1       -2 0.39739596E-03 0.92020633E+02</pdfrwt>
<totfact> 0.23886761E+05</totfact>
</mgrwt>
</event>
<event>
 5    1  0.4059427E+001  0.9061110E+02  0.7546771E-02  0.1301379E+00
         -2   -1    0    0    0  501 -0.00000000000E+00  0.00000000000E+00  0.13127283237E+03  0.13127283237E+03  0.00000000000E+00 0. -1.
          2   -1    0    0  501    0  0.00000000000E+00 -0.00000000000E+00 -0.15636082314E+02  0.15636082314E+02  0.00000000000E+00 0.  1.
         23    2    1    2    0    0  0.00000000000E+00  0.00000000000E+00  0.11563675006E+03  0.14690891469E+03  0.90611098934E+02 0.  0.
          2    1    3    3  502    0  0.19951808367E+00 -0.37959983220E+02  0.97914083515E+02  0.10501508408E+03  0.00000000000E+00 0. -1.
         -2    1    3    3    0  502 -0.19951808367E+00  0.37959983220E+02  0.17722666545E+02  0.41893830608E+02  0.00000000000E+00 0.  1.
<mgrwt>
<rscale>  0 0.90611099E+02</rscale>
<asrwt>0</asrwt>
<pdfrwt beam="2">  1        2 0.24055512E-02 0.90611099E+02</pdfrwt>
<pdfrwt beam="1">  1       -2 0.20195820E-01 0.90611099E+02</pdfrwt>
<totfact> 0.74362515E+04</totfact>
</mgrwt>
</event>
<event>
 5    1  0.4059427E+001  0.9396558E+02  0.7546771E-02  0.1293523E+00
         -1   -1    0    0    0  501 -0.00000000000E+00  0.00000000000E+00  0.66279423895E+02  0.66279423895E+02  0.00000000000E+00 0.  1.
          1   -1    0    0  501    0  0.00000000000E+00 -0.00000000000E+00 -0.33304189577E+02  0.33304189577E+02  0.00000000000E+00 0. -1.
         23    2    1    2    0    0  0.00000000000E+00  0.00000000000E+00  0.32975234318E+02  0.99583613472E+02  0.93965578771E+02 0.  0.
          2    1    3    3  502    0 -0.55142258057E+01 -0.42949695539E+02 -0.28313502165E+01  0.43394695266E+02  0.00000000000E+00 0. -1.
         -2    1    3    3    0  502  0.55142258057E+01  0.42949695539E+02  0.35806584534E+02  0.56188918206E+02  0.00000000000E+00 0.  1.
<mgrwt>
<rscale>  0 0.93965579E+02</rscale>
<asrwt>0</asrwt>
<pdfrwt beam="2">  1        1 0.51237215E-02 0.93965579E+02</pdfrwt>
<pdfrwt beam="1">  1       -1 0.10196834E-01 0.93965579E+02</pdfrwt>
<totfact> 0.80851804E+04</totfact>
</mgrwt>
</event>
<event>
 5    1  0.4059427E+001  0.9843461E+02  0.7546771E-02  0.1283623E+00
         -2   -1    0    0    0  501 -0.00000000000E+00  0.00000000000E+00  0.29334343781E+01  0.29334343781E+01  0.00000000000E+00 0.  1.
          2   -1    0    0  501    0  0.00000000000E+00 -0.00000000000E+00 -0.82577040635E+03  0.82577040635E+03  0.00000000000E+00 0. -1.
         23    2    1    2    0    0  0.00000000000E+00  0.00000000000E+00 -0.82283697198E+03  0.82870384073E+03  0.98434613798E+02 0.  0.
          2    1    3    3  502    0  0.12227961547E+02 -0.47115645711E+02 -0.47267155110E+03  0.47517133997E+03  0.00000000000E+00 0. -1.
         -2    1    3    3    0  502 -0.12227961547E+02  0.47115645711E+02 -0.35016542088E+03  0.35353250076E+03  0.00000000000E+00 0.  1.
<mgrwt>
<rscale>  0 0.98434614E+02</rscale>
<asrwt>0</asrwt>
<pdfrwt beam="2">  1        2 0.12704156E+00 0.98434614E+02</pdfrwt>
<pdfrwt beam="1">  1       -2 0.45129775E-03 0.98434614E+02</pdfrwt>
<totfact> 0.20010060E+05</totfact>
</mgrwt>
</event>
<event>
 5    1  0.4059427E+001  0.9288089E+02  0.7546771E-02  0.1296021E+00
         -2   -1    0    0    0  501 -0.00000000000E+00  0.00000000000E+00  0.14160261234E+01  0.14160261234E+01  0.00000000000E+00 0.  1.
          2   -1    0    0  501    0  0.00000000000E+00 -0.00000000000E+00 -0.15230757201E+04  0.15230757201E+04  0.00000000000E+00 0. -1.
         23    2    1    2    0    0  0.00000000000E+00  0.00000000000E+00 -0.15216596940E+04  0.15244917462E+04  0.92880891632E+02 0.  0.
          2    1    3    3  502    0  0.24379268596E+02 -0.13420227603E+02 -0.15059899244E+03  0.15314864600E+03  0.00000000000E+00 0.  1.
         -2    1    3    3    0  502 -0.24379268596E+02  0.13420227603E+02 -0.13710607015E+04  0.13713431002E+04  0.00000000000E+00 0. -1.
<mgrwt>
<rscale>  0 0.92880892E+02</rscale>
<asrwt>0</asrwt>
<pdfrwt beam="2">  1        2 0.23431771E+00 0.92880892E+02</pdfrwt>
<pdfrwt beam="1">  1       -2 0.21785169E-03 0.92880892E+02</pdfrwt>
<totfact> 0.22338909E+05</totfact>
</mgrwt>
</event>
<event>
 5    1  0.4059427E+001  0.9154168E+02  0.7546771E-02  0.1299161E+00
         -2   -1    0    0    0  501 -0.00000000000E+00  0.00000000000E+00  0.13025349000E+02  0.13025349000E+02  0.00000000000E+00 0.  1.
          2   -1    0    0  501    0  0.00000000000E+00 -0.00000000000E+00 -0.16083790590E+03  0.16083790590E+03  0.00000000000E+00 0. -1.
         23    2    1    2    0    0  0.00000000000E+00  0.00000000000E+00 -0.14781255690E+03  0.17386325490E+03  0.91541681365E+02 0.  0.
          2    1    3    3  502    0 -0.21702871456E+02 -0.38469042684E+02 -0.51107960778E+02  0.67549282227E+02  0.00000000000E+00 0. -1.
         -2    1    3    3    0  502  0.21702871456E+02  0.38469042684E+02 -0.96704596123E+02  0.10631397267E+03  0.00000000000E+00 0.  1.
<mgrwt>
<rscale>  0 0.91541681E+02</rscale>
<asrwt>0</asrwt>
<pdfrwt beam="2">  1        2 0.24744293E-01 0.91541681E+02</pdfrwt>
<pdfrwt beam="1">  1       -2 0.20038998E-02 0.91541681E+02</pdfrwt>
<totfact> 0.14165237E+05</totfact>
</mgrwt>
</event>
<event>
 5    1  0.4059427E+001  0.9066961E+02  0.7546771E-02  0.1301238E+00
          1   -1    0    0  501    0  0.00000000000E+00  0.00000000000E+00  0.72383285943E+03  0.72383285943E+03  0.00000000000E+00 0. -1.
         -1   -1    0    0    0  501 -0.00000000000E+00 -0.00000000000E+00 -0.28393912126E+01  0.28393912126E+01  0.00000000000E+00 0.  1.
         23    2    1    2    0    0  0.00000000000E+00  0.00000000000E+00  0.72099346821E+03  0.72667225064E+03  0.90669612559E+02 0.  0.
          2    1    3    3  502    0 -0.34433521875E+01 -0.43395861593E+02  0.46193240310E+03  0.46397909706E+03  0.00000000000E+00 0. -1.
         -2    1    3    3    0  502  0.34433521875E+01  0.43395861593E+02  0.25906106511E+03  0.26269315358E+03  0.00000000000E+00 0.  1.
<mgrwt>
<rscale>  0 0.90669613E+02</rscale>
<asrwt>0</asrwt>
<pdfrwt beam="1">  1        1 0.11135875E+00 0.90669613E+02</pdfrwt>
<pdfrwt beam="2">  1       -1 0.43682999E-03 0.90669613E+02</pdfrwt>
<totfact> 0.14420159E+05</totfact>
</mgrwt>
</event>
<event>
 5    1  0.4059427E+001  0.9116481E+02  0.7546771E-02  0.1300055E+00
          4   -1    0    0  501    0  0.00000000000E+00  0.00000000000E+00  0.20008133985E+02  0.20008133985E+02  0.00000000000E+00 0. -1.
         -4   -1    0    0    0  501 -0.00000000000E+00 -0.00000000000E+00 -0.10384554921E+03  0.10384554921E+03  0.00000000000E+00 0.  1.
         23    2    1    2    0    0  0.00000000000E+00  0.00000000000E+00 -0.83837415221E+02  0.12385368319E+03  0.91164810366E+02 0.  0.
          2    1    3    3  502    0  0.31217653179E+00 -0.40401528079E+02 -0.70589816013E+02  0.81334513278E+02  0.00000000000E+00 0.  1.
         -2    1    3    3    0  502 -0.31217653179E+00  0.40401528079E+02 -0.13247599207E+02  0.42519169913E+02  0.00000000000E+00 0. -1.
<mgrwt>
<rscale>  0 0.91164810E+02</rscale>
<asrwt>0</asrwt>
<pdfrwt beam="1">  1        4 0.30781745E-02 0.91164810E+02</pdfrwt>
<pdfrwt beam="2">  1       -4 0.15976238E-01 0.91164810E+02</pdfrwt>
<totfact> 0.25065005E+04</totfact>
</mgrwt>
</event>
<event>
 5    1  0.4059427E+001  0.8582612E+02  0.7546771E-02  0.1313286E+00
          1   -1    0    0  501    0  0.00000000000E+00  0.00000000000E+00  0.93230389805E+03  0.93230389805E+03  0.00000000000E+00 0. -1.
         -1   -1    0    0    0  501 -0.00000000000E+00 -0.00000000000E+00 -0.19752470923E+01  0.19752470923E+01  0.00000000000E+00 0.  1.
         23    2    1    2    0    0  0.00000000000E+00  0.00000000000E+00  0.93032865095E+03  0.93427914514E+03  0.85826116392E+02 0.  0.
          2    1    3    3  502    0  0.34813133806E+02  0.11830248110E+02  0.22429170522E+03  0.22728545507E+03  0.00000000000E+00 0.  1.
         -2    1    3    3    0  502 -0.34813133806E+02 -0.11830248110E+02  0.70603694573E+03  0.70699369007E+03  0.00000000000E+00 0. -1.
<mgrwt>
<rscale>  0 0.85826116E+02</rscale>
<asrwt>0</asrwt>
<pdfrwt beam="1">  1        1 0.14343102E+00 0.85826116E+02</pdfrwt>
<pdfrwt beam="2">  1       -1 0.30388491E-03 0.85826116E+02</pdfrwt>
<totfact> 0.16215240E+05</totfact>
</mgrwt>
</event>
<event>
 5    1  0.4059427E+001  0.9174112E+02  0.7546771E-02  0.1298689E+00
         -1   -1    0    0    0  501 -0.00000000000E+00  0.00000000000E+00  0.37470503985E+01  0.37470503985E+01  0.00000000000E+00 0.  1.
          1   -1    0    0  501    0  0.00000000000E+00 -0.00000000000E+00 -0.56153721207E+03  0.56153721207E+03  0.00000000000E+00 0. -1.
         23    2    1    2    0    0  0.00000000000E+00  0.00000000000E+00 -0.55779016168E+03  0.56528426247E+03  0.91741119119E+02 0.  0.
          2    1    3    3  502    0  0.30653184880E+02  0.21610051015E+02 -0.44162738728E+03  0.44321705884E+03  0.00000000000E+00 0. -1.
         -2    1    3    3    0  502 -0.30653184880E+02 -0.21610051015E+02 -0.11616277439E+03  0.12206720363E+03  0.00000000000E+00 0.  1.
<mgrwt>
<rscale>  0 0.91741119E+02</rscale>
<asrwt>0</asrwt>
<pdfrwt beam="2">  1        1 0.86390334E-01 0.91741119E+02</pdfrwt>
<pdfrwt beam="1">  1       -1 0.57646934E-03 0.91741119E+02</pdfrwt>
<totfact> 0.13862994E+05</totfact>
</mgrwt>
</event>
<event>
 5    1  0.4059427E+001  0.8885560E+02  0.7546771E-02  0.1305647E+00
         -2   -1    0    0    0  501 -0.00000000000E+00  0.00000000000E+00  0.90809849331E+00  0.90809849331E+00  0.00000000000E+00 0.  1.
          2   -1    0    0  501    0  0.00000000000E+00 -0.00000000000E+00 -0.21735849521E+04  0.21735849521E+04  0.00000000000E+00 0. -1.
         23    2    1    2    0    0  0.00000000000E+00  0.00000000000E+00 -0.21726768536E+04  0.21744930506E+04  0.88855595662E+02 0.  0.
          2    1    3    3  502    0 -0.27613547020E+02 -0.33887550146E+02 -0.89216535654E+03  0.89323563377E+03  0.00000000000E+00 0. -1.
         -2    1    3    3    0  502  0.27613547020E+02  0.33887550146E+02 -0.12805114971E+04  0.12812574168E+04  0.00000000000E+00 0.  1.
<mgrwt>
<rscale>  0 0.88855596E+02</rscale>
<asrwt>0</asrwt>
<pdfrwt beam="2">  1        2 0.33439352E+00 0.88855596E+02</pdfrwt>
<pdfrwt beam="1">  1       -2 0.13970920E-03 0.88855596E+02</pdfrwt>
<totfact> 0.19317819E+05</totfact>
</mgrwt>
</event>
<event>
 5    1  0.4059427E+001  0.9027176E+02  0.7546771E-02  0.1302195E+00
         -2   -1    0    0    0  501 -0.00000000000E+00  0.00000000000E+00  0.24911736715E+03  0.24911736715E+03  0.00000000000E+00 0.  1.
          2   -1    0    0  501    0  0.00000000000E+00 -0.00000000000E+00 -0.81778628866E+01  0.81778628866E+01  0.00000000000E+00 0. -1.
         23    2    1    2    0    0  0.00000000000E+00  0.00000000000E+00  0.24093950427E+03  0.25729523004E+03  0.90271760174E+02 0.  0.
          2    1    3    3  502    0 -0.20335065270E+02 -0.37880771067E+02  0.15963111402E+03  0.16531957010E+03  0.00000000000E+00 0.  1.
         -2    1    3    3    0  502  0.20335065270E+02  0.37880771067E+02  0.81308390251E+02  0.91975659939E+02  0.00000000000E+00 0. -1.
<mgrwt>
<rscale>  0 0.90271760E+02</rscale>
<asrwt>0</asrwt>
<pdfrwt beam="2">  1        2 0.12581329E-02 0.90271760E+02</pdfrwt>
<pdfrwt beam="1">  1       -2 0.38325743E-01 0.90271760E+02</pdfrwt>
<totfact> 0.57734425E+04</totfact>
</mgrwt>
</event>
<event>
 5    1  0.4059427E+001  0.9529695E+02  0.7546771E-02  0.1290509E+00
         -3   -1    0    0    0  501 -0.00000000000E+00  0.00000000000E+00  0.15158026958E+04  0.15158026958E+04  0.00000000000E+00 0.  1.
          3   -1    0    0  501    0  0.00000000000E+00 -0.00000000000E+00 -0.14978051659E+01  0.14978051659E+01  0.00000000000E+00 0. -1.
         23    2    1    2    0    0  0.00000000000E+00  0.00000000000E+00  0.15143048907E+04  0.15173005010E+04  0.95296948709E+02 0.  0.
          2    1    3    3  502    0  0.14494365181E+02  0.30792084629E+02  0.12881248466E+04  0.12885743516E+04  0.00000000000E+00 0.  1.
         -2    1    3    3    0  502 -0.14494365181E+02 -0.30792084629E+02  0.22618004402E+03  0.22872614938E+03  0.00000000000E+00 0. -1.
<mgrwt>
<rscale>  0 0.95296949E+02</rscale>
<asrwt>0</asrwt>
<pdfrwt beam="2">  1        3 0.23043278E-03 0.95296949E+02</pdfrwt>
<pdfrwt beam="1">  1       -3 0.23319919E+00 0.95296949E+02</pdfrwt>
<totfact> 0.52952423E+03</totfact>
</mgrwt>
</event>
<event>
 5    1  0.4059427E+001  0.9554132E+02  0.7546771E-02  0.1289962E+00
          1   -1    0    0  501    0  0.00000000000E+00  0.00000000000E+00  0.55228782995E+01  0.55228782995E+01  0.00000000000E+00 0. -1.
         -1   -1    0    0    0  501 -0.00000000000E+00 -0.00000000000E+00 -0.41319683742E+03  0.41319683742E+03  0.00000000000E+00 0.  1.
         23    2    1    2    0    0  0.00000000000E+00  0.00000000000E+00 -0.40767395912E+03  0.41871971572E+03  0.95541317697E+02 0.  0.
          2    1    3    3  502    0 -0.74949051692E+01 -0.21693894628E+02 -0.20225390821E+02  0.30591912355E+02  0.00000000000E+00 0. -1.
         -2    1    3    3    0  502  0.74949051692E+01  0.21693894628E+02 -0.38744856830E+03  0.38812780336E+03  0.00000000000E+00 0.  1.
<mgrwt>
<rscale>  0 0.95541318E+02</rscale>
<asrwt>0</asrwt>
<pdfrwt beam="1">  1        1 0.84967380E-03 0.95541318E+02</pdfrwt>
<pdfrwt beam="2">  1       -1 0.63568728E-01 0.95541318E+02</pdfrwt>
<totfact> 0.46354507E+04</totfact>
</mgrwt>
</event>
<event>
 5    1  0.4059427E+001  0.9023999E+02  0.7546771E-02  0.1302272E+00
          2   -1    0    0  501    0  0.00000000000E+00  0.00000000000E+00  0.10655997157E+03  0.10655997157E+03  0.00000000000E+00 0. -1.
         -2   -1    0    0    0  501 -0.00000000000E+00 -0.00000000000E+00 -0.19104863813E+02  0.19104863813E+02  0.00000000000E+00 0.  1.
         23    2    1    2    0    0  0.00000000000E+00  0.00000000000E+00  0.87455107755E+02  0.12566483538E+03  0.90239985477E+02 0.  0.
          2    1    3    3  502    0  0.32994019670E+02  0.30739689953E+02  0.41624889218E+02  0.61369090549E+02  0.00000000000E+00 0. -1.
         -2    1    3    3    0  502 -0.32994019670E+02 -0.30739689953E+02  0.45830218537E+02  0.64295744832E+02  0.00000000000E+00 0.  1.
<mgrwt>
<rscale>  0 0.90239985E+02</rscale>
<asrwt>0</asrwt>
<pdfrwt beam="1">  1        2 0.16393841E-01 0.90239985E+02</pdfrwt>
<pdfrwt beam="2">  1       -2 0.29392099E-02 0.90239985E+02</pdfrwt>
<totfact> 0.12868832E+05</totfact>
</mgrwt>
</event>
<event>
 5    1  0.4059427E+001  0.9319371E+02  0.7546771E-02  0.1295297E+00
          1   -1    0    0  501    0  0.00000000000E+00  0.00000000000E+00  0.14177633811E+04  0.14177633811E+04  0.00000000000E+00 0. -1.
         -1   -1    0    0    0  501 -0.00000000000E+00 -0.00000000000E+00 -0.15314732809E+01  0.15314732809E+01  0.00000000000E+00 0.  1.
         23    2    1    2    0    0  0.00000000000E+00  0.00000000000E+00  0.14162319079E+04  0.14192948544E+04  0.93193706587E+02 0.  0.
          2    1    3    3  502    0  0.13234239371E+02  0.41830884330E+02  0.46910535683E+03  0.47115263321E+03  0.00000000000E+00 0. -1.
         -2    1    3    3    0  502 -0.13234239371E+02 -0.41830884330E+02  0.94712655102E+03  0.94814222120E+03  0.00000000000E+00 0.  1.
<mgrwt>
<rscale>  0 0.93193707E+02</rscale>
<asrwt>0</asrwt>
<pdfrwt beam="1">  1        1 0.21811639E+00 0.93193707E+02</pdfrwt>
<pdfrwt beam="2">  1       -1 0.23561241E-03 0.93193707E+02</pdfrwt>
<totfact> 0.10890125E+05</totfact>
</mgrwt>
</event>
<event>
 5    1  0.4059427E+001  0.8899045E+02  0.7546771E-02  0.1305315E+00
         -1   -1    0    0    0  501 -0.00000000000E+00  0.00000000000E+00  0.89330911432E+01  0.89330911432E+01  0.00000000000E+00 0.  1.
          1   -1    0    0  501    0  0.00000000000E+00 -0.00000000000E+00 -0.22162822091E+03  0.22162822091E+03  0.00000000000E+00 0. -1.
         23    2    1    2    0    0  0.00000000000E+00  0.00000000000E+00 -0.21269512977E+03  0.23056131206E+03  0.88990451113E+02 0.  0.
          2    1    3    3  502    0  0.14925783052E+02 -0.33812968395E+02 -0.17053225418E+03  0.17449167759E+03  0.00000000000E+00 0. -1.
         -2    1    3    3    0  502 -0.14925783052E+02  0.33812968395E+02 -0.42162875585E+02  0.56069634465E+02  0.00000000000E+00 0.  1.
<mgrwt>
<rscale>  0 0.88990451E+02</rscale>
<asrwt>0</asrwt>
<pdfrwt beam="2">  1        1 0.34096651E-01 0.88990451E+02</pdfrwt>
<pdfrwt beam="1">  1       -1 0.13743217E-02 0.88990451E+02</pdfrwt>
<totfact> 0.12889021E+05</totfact>
</mgrwt>
</event>
<event>
 5    1  0.4059427E+001  0.8735162E+02  0.7546771E-02  0.1309395E+00
         -2   -1    0    0    0  501 -0.00000000000E+00  0.00000000000E+00  0.80226411483E+02  0.80226411483E+02  0.00000000000E+00 0.  1.
          2   -1    0    0  501    0  0.00000000000E+00 -0.00000000000E+00 -0.23777413372E+02  0.23777413372E+02  0.00000000000E+00 0. -1.
         23    2    1    2    0    0  0.00000000000E+00  0.00000000000E+00  0.56448998111E+02  0.10400382486E+03  0.87351623893E+02 0.  0.
          2    1    3    3  502    0  0.36076218253E+02  0.21344362978E+02  0.13617927115E+02  0.44074065995E+02  0.00000000000E+00 0. -1.
         -2    1    3    3    0  502 -0.36076218253E+02 -0.21344362978E+02  0.42831070997E+02  0.59929758861E+02  0.00000000000E+00 0.  1.
<mgrwt>
<rscale>  0 0.87351624E+02</rscale>
<asrwt>0</asrwt>
<pdfrwt beam="2">  1        2 0.36580636E-02 0.87351624E+02</pdfrwt>
<pdfrwt beam="1">  1       -2 0.12342525E-01 0.87351624E+02</pdfrwt>
<totfact> 0.94453350E+04</totfact>
</mgrwt>
</event>
<event>
 5    1  0.4059427E+001  0.8891958E+02  0.7546771E-02  0.1305489E+00
          2   -1    0    0  501    0  0.00000000000E+00  0.00000000000E+00  0.14012171626E+04  0.14012171626E+04  0.00000000000E+00 0. -1.
         -2   -1    0    0    0  501 -0.00000000000E+00 -0.00000000000E+00 -0.14106826514E+01  0.14106826514E+01  0.00000000000E+00 0.  1.
         23    2    1    2    0    0  0.00000000000E+00  0.00000000000E+00  0.13998064799E+04  0.14026278453E+04  0.88919575844E+02 0.  0.
          2    1    3    3  502    0  0.26676146660E+02  0.45619745191E+00  0.12609049863E+04  0.12611872222E+04  0.00000000000E+00 0. -1.
         -2    1    3    3    0  502 -0.26676146660E+02 -0.45619745191E+00  0.13890149366E+03  0.14144062309E+03  0.00000000000E+00 0.  1.
<mgrwt>
<rscale>  0 0.88919576E+02</rscale>
<asrwt>0</asrwt>
<pdfrwt beam="1">  1        2 0.21557076E+00 0.88919576E+02</pdfrwt>
<pdfrwt beam="2">  1       -2 0.21702922E-03 0.88919576E+02</pdfrwt>
<totfact> 0.25779784E+05</totfact>
</mgrwt>
</event>
<event>
 5    1  0.4059427E+001  0.9053883E+02  0.7546771E-02  0.1301552E+00
         -2   -1    0    0    0  501 -0.00000000000E+00  0.00000000000E+00  0.14195152889E+03  0.14195152889E+03  0.00000000000E+00 0.  1.
          2   -1    0    0  501    0  0.00000000000E+00 -0.00000000000E+00 -0.14436758192E+02  0.14436758192E+02  0.00000000000E+00 0. -1.
         23    2    1    2    0    0  0.00000000000E+00  0.00000000000E+00  0.12751477070E+03  0.15638828708E+03  0.90538829186E+02 0.  0.
          2    1    3    3  502    0  0.81431329763E+01  0.39994452173E+02  0.29933346606E+02  0.50614939082E+02  0.00000000000E+00 0. -1.
         -2    1    3    3    0  502 -0.81431329763E+01 -0.39994452173E+02  0.97581424095E+02  0.10577334800E+03  0.00000000000E+00 0.  1.
<mgrwt>
<rscale>  0 0.90538829E+02</rscale>
<asrwt>0</asrwt>
<pdfrwt beam="2">  1        2 0.22210398E-02 0.90538829E+02</pdfrwt>
<pdfrwt beam="1">  1       -2 0.21838696E-01 0.90538829E+02</pdfrwt>
<totfact> 0.72526501E+04</totfact>
</mgrwt>
</event>
<event>
 5    1  0.4059427E+001  0.8719371E+02  0.7546771E-02  0.1309793E+00
          3   -1    0    0  501    0  0.00000000000E+00  0.00000000000E+00  0.32876782925E+01  0.32876782925E+01  0.00000000000E+00 0. -1.
         -3   -1    0    0    0  501 -0.00000000000E+00 -0.00000000000E+00 -0.57812406565E+03  0.57812406565E+03  0.00000000000E+00 0.  1.
         23    2    1    2    0    0  0.00000000000E+00  0.00000000000E+00 -0.57483638736E+03  0.58141174394E+03  0.87193714017E+02 0.  0.
          2    1    3    3  502    0 -0.19606843166E+02  0.64637219918E+01 -0.31372330983E+02  0.37555707319E+02  0.00000000000E+00 0. -1.
         -2    1    3    3    0  502  0.19606843166E+02 -0.64637219918E+01 -0.54346405638E+03  0.54385603662E+03  0.00000000000E+00 0.  1.
<mgrwt>
<rscale>  0 0.87193714E+02</rscale>
<asrwt>0</asrwt>
<pdfrwt beam="1">  1        3 0.50579640E-03 0.87193714E+02</pdfrwt>
<pdfrwt beam="2">  1       -3 0.88942210E-01 0.87193714E+02</pdfrwt>
<totfact> 0.18099223E+04</totfact>
</mgrwt>
</event>
<event>
 5    1  0.4059427E+001  0.9058353E+02  0.7546771E-02  0.1301445E+00
          2   -1    0    0  501    0  0.00000000000E+00  0.00000000000E+00  0.10577201739E+04  0.10577201739E+04  0.00000000000E+00 0. -1.
         -2   -1    0    0    0  501 -0.00000000000E+00 -0.00000000000E+00 -0.19394014357E+01  0.19394014357E+01  0.00000000000E+00 0.  1.
         23    2    1    2    0    0  0.00000000000E+00  0.00000000000E+00  0.10557807725E+04  0.10596595753E+04  0.90583531039E+02 0.  0.
          2    1    3    3  502    0  0.24642293188E+02  0.24822079675E+02  0.86449751736E+03  0.86520479412E+03  0.00000000000E+00 0. -1.
         -2    1    3    3    0  502 -0.24642293188E+02 -0.24822079675E+02  0.19128325510E+03  0.19445478121E+03  0.00000000000E+00 0.  1.
<mgrwt>
<rscale>  0 0.90583531E+02</rscale>
<asrwt>0</asrwt>
<pdfrwt beam="1">  1        2 0.16272572E+00 0.90583531E+02</pdfrwt>
<pdfrwt beam="2">  1       -2 0.29837030E-03 0.90583531E+02</pdfrwt>
<totfact> 0.25467132E+05</totfact>
</mgrwt>
</event>
<event>
 5    1  0.4059427E+001  0.8902116E+02  0.7546771E-02  0.1305240E+00
          1   -1    0    0  501    0  0.00000000000E+00  0.00000000000E+00  0.66474591867E+03  0.66474591867E+03  0.00000000000E+00 0. -1.
         -1   -1    0    0    0  501 -0.00000000000E+00 -0.00000000000E+00 -0.29803742939E+01  0.29803742939E+01  0.00000000000E+00 0.  1.
         23    2    1    2    0    0  0.00000000000E+00  0.00000000000E+00  0.66176554437E+03  0.66772629296E+03  0.89021158113E+02 0.  0.
          2    1    3    3  502    0 -0.30663999302E+02  0.27806601505E+02  0.20815794457E+03  0.21223387530E+03  0.00000000000E+00 0. -1.
         -2    1    3    3    0  502  0.30663999302E+02 -0.27806601505E+02  0.45360759981E+03  0.45549241766E+03  0.00000000000E+00 0.  1.
<mgrwt>
<rscale>  0 0.89021158E+02</rscale>
<asrwt>0</asrwt>
<pdfrwt beam="1">  1        1 0.10226848E+00 0.89021158E+02</pdfrwt>
<pdfrwt beam="2">  1       -1 0.45851965E-03 0.89021158E+02</pdfrwt>
<totfact> 0.15142481E+05</totfact>
</mgrwt>
</event>
<event>
 5    1  0.4059427E+001  0.9229664E+02  0.7546771E-02  0.1297383E+00
          4   -1    0    0  501    0  0.00000000000E+00  0.00000000000E+00  0.78562420757E+02  0.78562420757E+02  0.00000000000E+00 0. -1.
         -4   -1    0    0    0  501 -0.00000000000E+00 -0.00000000000E+00 -0.27107967794E+02  0.27107967794E+02  0.00000000000E+00 0.  1.
         23    2    1    2    0    0  0.00000000000E+00  0.00000000000E+00  0.51454452963E+02  0.10567038855E+03  0.92296642879E+02 0.  0.
          2    1    3    3  502    0  0.65641683646E+01 -0.36749091581E+02  0.56789336306E+02  0.67960376371E+02  0.00000000000E+00 0. -1.
         -2    1    3    3    0  502 -0.65641683646E+01  0.36749091581E+02 -0.53348833431E+01  0.37710012180E+02  0.00000000000E+00 0.  1.
<mgrwt>
<rscale>  0 0.92296643E+02</rscale>
<asrwt>0</asrwt>
<pdfrwt beam="1">  1        4 0.12086526E-01 0.92296643E+02</pdfrwt>
<pdfrwt beam="2">  1       -4 0.41704566E-02 0.92296643E+02</pdfrwt>
<totfact> 0.25260558E+04</totfact>
</mgrwt>
</event>
<event>
 5    1  0.4059427E+001  0.9286133E+02  0.7546771E-02  0.1296067E+00
          2   -1    0    0  501    0  0.00000000000E+00  0.00000000000E+00  0.12534836161E+03  0.12534836161E+03  0.00000000000E+00 0. -1.
         -2   -1    0    0    0  501 -0.00000000000E+00 -0.00000000000E+00 -0.17198524216E+02  0.17198524216E+02  0.00000000000E+00 0.  1.
         23    2    1    2    0    0  0.00000000000E+00  0.00000000000E+00  0.10814983739E+03  0.14254688582E+03  0.92861333881E+02 0.  0.
          2    1    3    3  502    0  0.40010843864E+02 -0.33295359865E+01  0.89873328764E+02  0.98433574860E+02  0.00000000000E+00 0. -1.
         -2    1    3    3    0  502 -0.40010843864E+02  0.33295359865E+01  0.18276508629E+02  0.44113310964E+02  0.00000000000E+00 0.  1.
<mgrwt>
<rscale>  0 0.92861334E+02</rscale>
<asrwt>0</asrwt>
<pdfrwt beam="1">  1        2 0.19284363E-01 0.92861334E+02</pdfrwt>
<pdfrwt beam="2">  1       -2 0.26459269E-02 0.92861334E+02</pdfrwt>
<totfact> 0.12527114E+05</totfact>
</mgrwt>
</event>
<event>
 5    1  0.4059427E+001  0.9137392E+02  0.7546771E-02  0.1299558E+00
         -2   -1    0    0    0  501 -0.00000000000E+00  0.00000000000E+00  0.45713535620E+01  0.45713535620E+01  0.00000000000E+00 0. -1.
          2   -1    0    0  501    0  0.00000000000E+00 -0.00000000000E+00 -0.45660401781E+03  0.45660401781E+03  0.00000000000E+00 0.  1.
         23    2    1    2    0    0  0.00000000000E+00  0.00000000000E+00 -0.45203266425E+03  0.46117537138E+03  0.91373921953E+02 0.  0.
          2    1    3    3  502    0  0.31198772164E+02  0.31806911618E+02 -0.17497911931E+03  0.18056227515E+03  0.00000000000E+00 0. -1.
         -2    1    3    3    0  502 -0.31198772164E+02 -0.31806911618E+02 -0.27705354494E+03  0.28061309623E+03  0.00000000000E+00 0.  1.
<mgrwt>
<rscale>  0 0.91373922E+02</rscale>
<asrwt>0</asrwt>
<pdfrwt beam="2">  1        2 0.70246776E-01 0.91373922E+02</pdfrwt>
<pdfrwt beam="1">  1       -2 0.70328513E-03 0.91373922E+02</pdfrwt>
<totfact> 0.20788471E+05</totfact>
</mgrwt>
</event>
<event>
 5    1  0.4059427E+001  0.9053163E+02  0.7546771E-02  0.1301569E+00
          1   -1    0    0  501    0  0.00000000000E+00  0.00000000000E+00  0.28397349025E+01  0.28397349025E+01  0.00000000000E+00 0. -1.
         -1   -1    0    0    0  501 -0.00000000000E+00 -0.00000000000E+00 -0.72154419261E+03  0.72154419261E+03  0.00000000000E+00 0.  1.
         23    2    1    2    0    0  0.00000000000E+00  0.00000000000E+00 -0.71870445770E+03  0.72438392751E+03  0.90531634856E+02 0.  0.
          2    1    3    3  502    0 -0.19697083733E+02  0.34142687227E+02 -0.53742637292E+03  0.53886993283E+03  0.00000000000E+00 0. -1.
         -2    1    3    3    0  502  0.19697083733E+02 -0.34142687227E+02 -0.18127808478E+03  0.18551399468E+03  0.00000000000E+00 0.  1.
<mgrwt>
<rscale>  0 0.90531635E+02</rscale>
<asrwt>0</asrwt>
<pdfrwt beam="1">  1        1 0.43688180E-03 0.90531635E+02</pdfrwt>
<pdfrwt beam="2">  1       -1 0.11100692E+00 0.90531635E+02</pdfrwt>
<totfact> 0.36572417E+04</totfact>
</mgrwt>
</event>
<event>
 5    1  0.4059427E+001  0.9213791E+02  0.7546771E-02  0.1297755E+00
          3   -1    0    0  501    0  0.00000000000E+00  0.00000000000E+00  0.13132232938E+03  0.13132232938E+03  0.00000000000E+00 0. -1.
         -3   -1    0    0    0  501 -0.00000000000E+00 -0.00000000000E+00 -0.16161370013E+02  0.16161370013E+02  0.00000000000E+00 0.  1.
         23    2    1    2    0    0  0.00000000000E+00  0.00000000000E+00  0.11516095936E+03  0.14748369939E+03  0.92137913064E+02 0.  0.
          2    1    3    3  502    0  0.24980028258E+02 -0.18420912412E+02  0.11207471231E+03  0.11629304780E+03  0.00000000000E+00 0. -1.
         -2    1    3    3    0  502 -0.24980028258E+02  0.18420912412E+02  0.30862470502E+01  0.31190651591E+02  0.00000000000E+00 0.  1.
<mgrwt>
<rscale>  0 0.92137913E+02</rscale>
<asrwt>0</asrwt>
<pdfrwt beam="1">  1        3 0.20203435E-01 0.92137913E+02</pdfrwt>
<pdfrwt beam="2">  1       -3 0.24863647E-02 0.92137913E+02</pdfrwt>
<totfact> 0.30578774E+04</totfact>
</mgrwt>
</event>
<event>
 5    1  0.4059427E+001  0.8596440E+02  0.7546771E-02  0.1312930E+00
          3   -1    0    0  501    0  0.00000000000E+00  0.00000000000E+00  0.77327958146E+01  0.77327958146E+01  0.00000000000E+00 0. -1.
         -3   -1    0    0    0  501 -0.00000000000E+00 -0.00000000000E+00 -0.23891351724E+03  0.23891351724E+03  0.00000000000E+00 0.  1.
         23    2    1    2    0    0  0.00000000000E+00  0.00000000000E+00 -0.23118072143E+03  0.24664631306E+03  0.85964398356E+02 0.  0.
          2    1    3    3  502    0 -0.14282736757E+02  0.37056936036E+02 -0.68422740139E+02  0.79113111718E+02  0.00000000000E+00 0. -1.
         -2    1    3    3    0  502  0.14282736757E+02 -0.37056936036E+02 -0.16275798129E+03  0.16753320134E+03  0.00000000000E+00 0.  1.
<mgrwt>
<rscale>  0 0.85964398E+02</rscale>
<asrwt>0</asrwt>
<pdfrwt beam="1">  1        3 0.11896610E-02 0.85964398E+02</pdfrwt>
<pdfrwt beam="2">  1       -3 0.36755923E-01 0.85964398E+02</pdfrwt>
<totfact> 0.30731481E+04</totfact>
</mgrwt>
</event>
<event>
 5    1  0.4059427E+001  0.8768579E+02  0.7546771E-02  0.1308555E+00
         -1   -1    0    0    0  501 -0.00000000000E+00  0.00000000000E+00  0.63224291284E+01  0.63224291284E+01  0.00000000000E+00 0.  1.
          1   -1    0    0  501    0  0.00000000000E+00 -0.00000000000E+00 -0.30402863603E+03  0.30402863603E+03  0.00000000000E+00 0. -1.
         23    2    1    2    0    0  0.00000000000E+00  0.00000000000E+00 -0.29770620690E+03  0.31035106516E+03  0.87685791421E+02 0.  0.
          2    1    3    3  502    0  0.21007299477E+02  0.38199389066E+02 -0.13236581039E+03  0.13935999324E+03  0.00000000000E+00 0.  1.
         -2    1    3    3    0  502 -0.21007299477E+02 -0.38199389066E+02 -0.16534039651E+03  0.17099107192E+03  0.00000000000E+00 0. -1.
<mgrwt>
<rscale>  0 0.87685791E+02</rscale>
<asrwt>0</asrwt>
<pdfrwt beam="2">  1        1 0.46773643E-01 0.87685791E+02</pdfrwt>
<pdfrwt beam="1">  1       -1 0.97268126E-03 0.87685791E+02</pdfrwt>
<totfact> 0.14248900E+05</totfact>
</mgrwt>
</event>
<event>
 5    1  0.4059427E+001  0.9222754E+02  0.7546771E-02  0.1297545E+00
          1   -1    0    0  501    0  0.00000000000E+00  0.00000000000E+00  0.10769133992E+04  0.10769133992E+04  0.00000000000E+00 0. -1.
         -1   -1    0    0    0  501 -0.00000000000E+00 -0.00000000000E+00 -0.19746060896E+01  0.19746060896E+01  0.00000000000E+00 0.  1.
         23    2    1    2    0    0  0.00000000000E+00  0.00000000000E+00  0.10749387931E+04  0.10788880053E+04  0.92227539402E+02 0.  0.
          2    1    3    3  502    0 -0.30780530391E+02 -0.35345885107E-01  0.93914878190E+03  0.93965306196E+03  0.00000000000E+00 0. -1.
         -2    1    3    3    0  502  0.30780530391E+02  0.35345885107E-01  0.13579001123E+03  0.13923494335E+03  0.00000000000E+00 0.  1.
<mgrwt>
<rscale>  0 0.92227539E+02</rscale>
<asrwt>0</asrwt>
<pdfrwt beam="1">  1        1 0.16567852E+00 0.92227539E+02</pdfrwt>
<pdfrwt beam="2">  1       -1 0.30378641E-03 0.92227539E+02</pdfrwt>
<totfact> 0.12902463E+05</totfact>
</mgrwt>
</event>
<event>
 5    1  0.4059427E+001  0.9139724E+02  0.7546771E-02  0.1299503E+00
         -3   -1    0    0    0  501 -0.00000000000E+00  0.00000000000E+00  0.75191118701E+01  0.75191118701E+01  0.00000000000E+00 0.  1.
          3   -1    0    0  501    0  0.00000000000E+00 -0.00000000000E+00 -0.27774074891E+03  0.27774074891E+03  0.00000000000E+00 0. -1.
         23    2    1    2    0    0  0.00000000000E+00  0.00000000000E+00 -0.27022163704E+03  0.28525986078E+03  0.91397237637E+02 0.  0.
          2    1    3    3  502    0 -0.26799926482E+02 -0.14984433422E+02 -0.24074951847E+03  0.24269960846E+03  0.00000000000E+00 0. -1.
         -2    1    3    3    0  502  0.26799926482E+02  0.14984433422E+02 -0.29472118573E+02  0.42560252321E+02  0.00000000000E+00 0.  1.
<mgrwt>
<rscale>  0 0.91397238E+02</rscale>
<asrwt>0</asrwt>
<pdfrwt beam="2">  1        3 0.42729348E-01 0.91397238E+02</pdfrwt>
<pdfrwt beam="1">  1       -3 0.11567864E-02 0.91397238E+02</pdfrwt>
<totfact> 0.24453604E+04</totfact>
</mgrwt>
</event>
<event>
 5    1  0.4059427E+001  0.9110862E+02  0.7546771E-02  0.1300189E+00
         -3   -1    0    0    0  501 -0.00000000000E+00  0.00000000000E+00  0.14468586041E+03  0.14468586041E+03  0.00000000000E+00 0.  1.
          3   -1    0    0  501    0  0.00000000000E+00 -0.00000000000E+00 -0.14342764288E+02  0.14342764288E+02  0.00000000000E+00 0. -1.
         23    2    1    2    0    0  0.00000000000E+00  0.00000000000E+00  0.13034309612E+03  0.15902862470E+03  0.91108620703E+02 0.  0.
          2    1    3    3  502    0  0.41819087468E+02  0.93800349824E+01  0.92120713886E+02  0.10160239692E+03  0.00000000000E+00 0. -1.
         -2    1    3    3    0  502 -0.41819087468E+02 -0.93800349824E+01  0.38222382233E+02  0.57426227775E+02  0.00000000000E+00 0.  1.
<mgrwt>
<rscale>  0 0.91108621E+02</rscale>
<asrwt>0</asrwt>
<pdfrwt beam="2">  1        3 0.22065792E-02 0.91108621E+02</pdfrwt>
<pdfrwt beam="1">  1       -3 0.22259362E-01 0.91108621E+02</pdfrwt>
<totfact> 0.30826911E+04</totfact>
</mgrwt>
</event>
<event>
 5    1  0.4059427E+001  0.9169782E+02  0.7546771E-02  0.1298792E+00
          2   -1    0    0  501    0  0.00000000000E+00  0.00000000000E+00  0.13131160045E+02  0.13131160045E+02  0.00000000000E+00 0. -1.
         -2   -1    0    0    0  501 -0.00000000000E+00 -0.00000000000E+00 -0.16008657245E+03  0.16008657245E+03  0.00000000000E+00 0.  1.
         23    2    1    2    0    0  0.00000000000E+00  0.00000000000E+00 -0.14695541241E+03  0.17321773250E+03  0.91697816853E+02 0.  0.
          2    1    3    3  502    0  0.32960713220E+02 -0.69689598513E+01 -0.14731519070E+02  0.36769452967E+02  0.00000000000E+00 0. -1.
         -2    1    3    3    0  502 -0.32960713220E+02  0.69689598513E+01 -0.13222389334E+03  0.13644827953E+03  0.00000000000E+00 0.  1.
<mgrwt>
<rscale>  0 0.91697817E+02</rscale>
<asrwt>0</asrwt>
<pdfrwt beam="1">  1        2 0.20201784E-02 0.91697817E+02</pdfrwt>
<pdfrwt beam="2">  1       -2 0.24628705E-01 0.91697817E+02</pdfrwt>
<totfact> 0.67211389E+04</totfact>
</mgrwt>
</event>
<event>
 5    1  0.4059427E+001  0.9182791E+02  0.7546771E-02  0.1298485E+00
         -3   -1    0    0    0  501 -0.00000000000E+00  0.00000000000E+00  0.34813190762E+02  0.34813190762E+02  0.00000000000E+00 0.  1.
          3   -1    0    0  501    0  0.00000000000E+00 -0.00000000000E+00 -0.60554387666E+02  0.60554387666E+02  0.00000000000E+00 0. -1.
         23    2    1    2    0    0  0.00000000000E+00  0.00000000000E+00 -0.25741196904E+02  0.95367578428E+02  0.91827914041E+02 0.  0.
          2    1    3    3  502    0 -0.41555680478E+02 -0.71656503871E+01 -0.31733029255E+02  0.52775053493E+02  0.00000000000E+00 0. -1.
         -2    1    3    3    0  502  0.41555680478E+02  0.71656503871E+01  0.59918323510E+01  0.42592524935E+02  0.00000000000E+00 0.  1.
<mgrwt>
<rscale>  0 0.91827914E+02</rscale>
<asrwt>0</asrwt>
<pdfrwt beam="2">  1        3 0.93160595E-02 0.91827914E+02</pdfrwt>
<pdfrwt beam="1">  1       -3 0.53558756E-02 0.91827914E+02</pdfrwt>
<totfact> 0.34345207E+04</totfact>
</mgrwt>
</event>
<event>
 5    1  0.4059427E+001  0.9048615E+02  0.7546771E-02  0.1301679E+00
         -1   -1    0    0    0  501 -0.00000000000E+00  0.00000000000E+00  0.51494689798E+03  0.51494689798E+03  0.00000000000E+00 0.  1.
          1   -1    0    0  501    0  0.00000000000E+00 -0.00000000000E+00 -0.39750425351E+01  0.39750425351E+01  0.00000000000E+00 0. -1.
         23    2    1    2    0    0  0.00000000000E+00  0.00000000000E+00  0.51097185544E+03  0.51892194051E+03  0.90486149720E+02 0.  0.
          2    1    3    3  502    0  0.38800588048E+02 -0.11999579905E+02  0.14115419450E+03  0.14688084346E+03  0.00000000000E+00 0. -1.
         -2    1    3    3    0  502 -0.38800588048E+02  0.11999579905E+02  0.36981766094E+03  0.37204109705E+03  0.00000000000E+00 0.  1.
<mgrwt>
<rscale>  0 0.90486150E+02</rscale>
<asrwt>0</asrwt>
<pdfrwt beam="2">  1        1 0.61154541E-03 0.90486150E+02</pdfrwt>
<pdfrwt beam="1">  1       -1 0.79222547E-01 0.90486150E+02</pdfrwt>
<totfact> 0.47114039E+04</totfact>
</mgrwt>
</event>
<event>
 5    1  0.4059427E+001  0.9288191E+02  0.7546771E-02  0.1296019E+00
         -1   -1    0    0    0  501 -0.00000000000E+00  0.00000000000E+00  0.22700543993E+01  0.22700543993E+01  0.00000000000E+00 0.  1.
          1   -1    0    0  501    0  0.00000000000E+00 -0.00000000000E+00 -0.95009271309E+03  0.95009271309E+03  0.00000000000E+00 0. -1.
         23    2    1    2    0    0  0.00000000000E+00  0.00000000000E+00 -0.94782265869E+03  0.95236276749E+03  0.92881906594E+02 0.  0.
          2    1    3    3  502    0 -0.22883182461E+02 -0.35867628018E+01 -0.88663870083E+03  0.88694119913E+03  0.00000000000E+00 0. -1.
         -2    1    3    3    0  502  0.22883182461E+02  0.35867628018E+01 -0.61183957863E+02  0.65421568361E+02  0.00000000000E+00 0.  1.
<mgrwt>
<rscale>  0 0.92881907E+02</rscale>
<asrwt>0</asrwt>
<pdfrwt beam="2">  1        1 0.14616801E+00 0.92881907E+02</pdfrwt>
<pdfrwt beam="1">  1       -1 0.34923938E-03 0.92881907E+02</pdfrwt>
<totfact> 0.13112235E+05</totfact>
</mgrwt>
</event>
<event>
 5    1  0.4059427E+001  0.9226598E+02  0.7546771E-02  0.1297455E+00
         -2   -1    0    0    0  501 -0.00000000000E+00  0.00000000000E+00  0.43768239205E+01  0.43768239205E+01  0.00000000000E+00 0. -1.
          2   -1    0    0  501    0  0.00000000000E+00 -0.00000000000E+00 -0.48625501579E+03  0.48625501579E+03  0.00000000000E+00 0.  1.
         23    2    1    2    0    0  0.00000000000E+00  0.00000000000E+00 -0.48187819187E+03  0.49063183971E+03  0.92265976060E+02 0.  0.
          2    1    3    3  502    0 -0.62371745998E+01  0.44228749045E+02 -0.30230315500E+03  0.30558514707E+03  0.00000000000E+00 0.  1.
         -2    1    3    3    0  502  0.62371745998E+01 -0.44228749045E+02 -0.17957503687E+03  0.18504669264E+03  0.00000000000E+00 0. -1.
<mgrwt>
<rscale>  0 0.92265976E+02</rscale>
<asrwt>0</asrwt>
<pdfrwt beam="2">  1        2 0.74808432E-01 0.92265976E+02</pdfrwt>
<pdfrwt beam="1">  1       -2 0.67335782E-03 0.92265976E+02</pdfrwt>
<totfact> 0.20692226E+05</totfact>
</mgrwt>
</event>
<event>
 5    1  0.4059427E+001  0.9270921E+02  0.7546771E-02  0.1296420E+00
          2   -1    0    0  501    0  0.00000000000E+00  0.00000000000E+00  0.73833938564E+03  0.73833938564E+03  0.00000000000E+00 0. -1.
         -2   -1    0    0    0  501 -0.00000000000E+00 -0.00000000000E+00 -0.29102465245E+01  0.29102465245E+01  0.00000000000E+00 0.  1.
         23    2    1    2    0    0  0.00000000000E+00  0.00000000000E+00  0.73542913912E+03  0.74124963217E+03  0.92709214882E+02 0.  0.
          2    1    3    3  502    0  0.34615868065E+02 -0.83122391758E+01  0.60508554545E+03  0.60613189073E+03  0.00000000000E+00 0. -1.
         -2    1    3    3    0  502 -0.34615868065E+02  0.83122391758E+01  0.13034359367E+03  0.13511774144E+03  0.00000000000E+00 0.  1.
<mgrwt>
<rscale>  0 0.92709215E+02</rscale>
<asrwt>0</asrwt>
<pdfrwt beam="1">  1        2 0.11359053E+00 0.92709215E+02</pdfrwt>
<pdfrwt beam="2">  1       -2 0.44773082E-03 0.92709215E+02</pdfrwt>
<totfact> 0.22964561E+05</totfact>
</mgrwt>
</event>
<event>
 5    1  0.4059427E+001  0.7568962E+02  0.7546771E-02  0.1341749E+00
          1   -1    0    0  501    0  0.00000000000E+00  0.00000000000E+00  0.14870642478E+03  0.14870642478E+03  0.00000000000E+00 0. -1.
         -1   -1    0    0    0  501 -0.00000000000E+00 -0.00000000000E+00 -0.96312567146E+01  0.96312567146E+01  0.00000000000E+00 0.  1.
         23    2    1    2    0    0  0.00000000000E+00  0.00000000000E+00  0.13907516806E+03  0.15833768149E+03  0.75689622860E+02 0.  0.
          2    1    3    3  502    0  0.42973158553E+01  0.31354926272E+02  0.26126483035E+02  0.41038901555E+02  0.00000000000E+00 0.  1.
         -2    1    3    3    0  502 -0.42973158553E+01 -0.31354926272E+02  0.11294868503E+03  0.11729877994E+03  0.00000000000E+00 0. -1.
<mgrwt>
<rscale>  0 0.75689623E+02</rscale>
<asrwt>0</asrwt>
<pdfrwt beam="1">  1        1 0.22877910E-01 0.75689623E+02</pdfrwt>
<pdfrwt beam="2">  1       -1 0.14817319E-02 0.75689623E+02</pdfrwt>
<totfact> 0.18397516E+05</totfact>
</mgrwt>
</event>
<event>
 5    1  0.4059427E+001  0.9113112E+02  0.7546771E-02  0.1300135E+00
          1   -1    0    0  501    0  0.00000000000E+00  0.00000000000E+00  0.90127300829E+02  0.90127300829E+02  0.00000000000E+00 0. -1.
         -1   -1    0    0    0  501 -0.00000000000E+00 -0.00000000000E+00 -0.23036528167E+02  0.23036528167E+02  0.00000000000E+00 0.  1.
         23    2    1    2    0    0  0.00000000000E+00  0.00000000000E+00  0.67090772663E+02  0.11316382900E+03  0.91131116621E+02 0.  0.
          2    1    3    3  502    0  0.23757601143E+02 -0.38685338137E+02  0.28697536331E+02  0.53707798226E+02  0.00000000000E+00 0. -1.
         -2    1    3    3    0  502 -0.23757601143E+02  0.38685338137E+02  0.38393236331E+02  0.59456030769E+02  0.00000000000E+00 0.  1.
<mgrwt>
<rscale>  0 0.91131117E+02</rscale>
<asrwt>0</asrwt>
<pdfrwt beam="1">  1        1 0.13865738E-01 0.91131117E+02</pdfrwt>
<pdfrwt beam="2">  1       -1 0.35440813E-02 0.91131117E+02</pdfrwt>
<totfact> 0.10282499E+05</totfact>
</mgrwt>
</event>
<event>
 5    1  0.4059427E+001  0.9587356E+02  0.7546771E-02  0.1289221E+00
         -2   -1    0    0    0  501 -0.00000000000E+00  0.00000000000E+00  0.42803811906E+01  0.42803811906E+01  0.00000000000E+00 0.  1.
          2   -1    0    0  501    0  0.00000000000E+00 -0.00000000000E+00 -0.53685288517E+03  0.53685288517E+03  0.00000000000E+00 0. -1.
         23    2    1    2    0    0  0.00000000000E+00  0.00000000000E+00 -0.53257250398E+03  0.54113326636E+03  0.95873562400E+02 0.  0.
          2    1    3    3  502    0  0.45011385589E+02 -0.68627912648E+01 -0.35091450182E+03  0.35385605876E+03  0.00000000000E+00 0. -1.
         -2    1    3    3    0  502 -0.45011385589E+02  0.68627912648E+01 -0.18165800216E+03  0.18727720759E+03  0.00000000000E+00 0.  1.
<mgrwt>
<rscale>  0 0.95873562E+02</rscale>
<asrwt>0</asrwt>
<pdfrwt beam="2">  1        2 0.82592685E-01 0.95873562E+02</pdfrwt>
<pdfrwt beam="1">  1       -2 0.65852071E-03 0.95873562E+02</pdfrwt>
<totfact> 0.19293242E+05</totfact>
</mgrwt>
</event>
<event>
 5    1  0.4059427E+001  0.8969611E+02  0.7546771E-02  0.1303589E+00
         -1   -1    0    0    0  501 -0.00000000000E+00  0.00000000000E+00  0.11786897718E+03  0.11786897718E+03  0.00000000000E+00 0.  1.
          1   -1    0    0  501    0  0.00000000000E+00 -0.00000000000E+00 -0.17064269777E+02  0.17064269777E+02  0.00000000000E+00 0. -1.
         23    2    1    2    0    0  0.00000000000E+00  0.00000000000E+00  0.10080470740E+03  0.13493324695E+03  0.89696109725E+02 0.  0.
          2    1    3    3  502    0  0.35431297173E+02  0.23745374269E+02  0.71254038625E+02  0.83044311298E+02  0.00000000000E+00 0. -1.
         -2    1    3    3    0  502 -0.35431297173E+02 -0.23745374269E+02  0.29550668775E+02  0.51888935657E+02  0.00000000000E+00 0.  1.
<mgrwt>
<rscale>  0 0.89696110E+02</rscale>
<asrwt>0</asrwt>
<pdfrwt beam="2">  1        1 0.26252723E-02 0.89696110E+02</pdfrwt>
<pdfrwt beam="1">  1       -1 0.18133688E-01 0.89696110E+02</pdfrwt>
<totfact> 0.82220170E+04</totfact>
</mgrwt>
</event>
<event>
 5    1  0.4059427E+001  0.9295342E+02  0.7546771E-02  0.1295853E+00
          2   -1    0    0  501    0  0.00000000000E+00  0.00000000000E+00  0.10681379779E+03  0.10681379779E+03  0.00000000000E+00 0. -1.
         -2   -1    0    0    0  501 -0.00000000000E+00 -0.00000000000E+00 -0.20222897073E+02  0.20222897073E+02  0.00000000000E+00 0.  1.
         23    2    1    2    0    0  0.00000000000E+00  0.00000000000E+00  0.86590900715E+02  0.12703669486E+03  0.92953417121E+02 0.  0.
          2    1    3    3  502    0 -0.23538188691E+02 -0.37522012684E+02  0.24058055348E+02  0.50405731716E+02  0.00000000000E+00 0. -1.
         -2    1    3    3    0  502  0.23538188691E+02  0.37522012684E+02  0.62532845368E+02  0.76630963145E+02  0.00000000000E+00 0.  1.
<mgrwt>
<rscale>  0 0.92953417E+02</rscale>
<asrwt>0</asrwt>
<pdfrwt beam="1">  1        2 0.16432892E-01 0.92953417E+02</pdfrwt>
<pdfrwt beam="2">  1       -2 0.31112150E-02 0.92953417E+02</pdfrwt>
<totfact> 0.11871144E+05</totfact>
</mgrwt>
</event>
<event>
 5    1  0.4059427E+001  0.9012848E+02  0.7546771E-02  0.1302541E+00
          1   -1    0    0  501    0  0.00000000000E+00  0.00000000000E+00  0.16650043792E+04  0.16650043792E+04  0.00000000000E+00 0. -1.
         -1   -1    0    0    0  501 -0.00000000000E+00 -0.00000000000E+00 -0.12196879027E+01  0.12196879027E+01  0.00000000000E+00 0.  1.
         23    2    1    2    0    0  0.00000000000E+00  0.00000000000E+00  0.16637846913E+04  0.16662240671E+04  0.90128479387E+02 0.  0.
          2    1    3    3  502    0 -0.19741691313E+02  0.19853553910E+02  0.14846996922E+04  0.14849636609E+04  0.00000000000E+00 0. -1.
         -2    1    3    3    0  502  0.19741691313E+02 -0.19853553910E+02  0.17908499905E+03  0.18126040622E+03  0.00000000000E+00 0.  1.
<mgrwt>
<rscale>  0 0.90128479E+02</rscale>
<asrwt>0</asrwt>
<pdfrwt beam="1">  1        1 0.25615270E+00 0.90128479E+02</pdfrwt>
<pdfrwt beam="2">  1       -1 0.18764563E-03 0.90128479E+02</pdfrwt>
<totfact> 0.10350062E+05</totfact>
</mgrwt>
</event>
<event>
 5    1  0.4059427E+001  0.9061055E+02  0.7546771E-02  0.1301380E+00
          2   -1    0    0  501    0  0.00000000000E+00  0.00000000000E+00  0.10989129018E+04  0.10989129018E+04  0.00000000000E+00 0. -1.
         -2   -1    0    0    0  501 -0.00000000000E+00 -0.00000000000E+00 -0.18678167031E+01  0.18678167031E+01  0.00000000000E+00 0.  1.
         23    2    1    2    0    0  0.00000000000E+00  0.00000000000E+00  0.10970450851E+04  0.11007807185E+04  0.90610548466E+02 0.  0.
          2    1    3    3  502    0  0.44345980554E+02  0.95602051930E+00  0.43646116044E+03  0.43870927109E+03  0.00000000000E+00 0. -1.
         -2    1    3    3    0  502 -0.44345980554E+02 -0.95602051930E+00  0.66058392469E+03  0.66207144745E+03  0.00000000000E+00 0.  1.
<mgrwt>
<rscale>  0 0.90610548E+02</rscale>
<asrwt>0</asrwt>
<pdfrwt beam="1">  1        2 0.16906301E+00 0.90610548E+02</pdfrwt>
<pdfrwt beam="2">  1       -2 0.28735729E-03 0.90610548E+02</pdfrwt>
<totfact> 0.25433377E+05</totfact>
</mgrwt>
</event>
<event>
 5    1  0.4059427E+001  0.8998578E+02  0.7546771E-02  0.1302886E+00
         -2   -1    0    0    0  501 -0.00000000000E+00  0.00000000000E+00  0.32830753566E+01  0.32830753566E+01  0.00000000000E+00 0.  1.
          2   -1    0    0  501    0  0.00000000000E+00 -0.00000000000E+00 -0.61660488024E+03  0.61660488024E+03  0.00000000000E+00 0. -1.
         23    2    1    2    0    0  0.00000000000E+00  0.00000000000E+00 -0.61332180488E+03  0.61988795560E+03  0.89985783035E+02 0.  0.
          2    1    3    3  502    0 -0.14183052470E+02 -0.15638346203E+02 -0.58036501456E+03  0.58074888461E+03  0.00000000000E+00 0. -1.
         -2    1    3    3    0  502  0.14183052470E+02  0.15638346203E+02 -0.32956790321E+02  0.39139070985E+02  0.00000000000E+00 0.  1.
<mgrwt>
<rscale>  0 0.89985783E+02</rscale>
<asrwt>0</asrwt>
<pdfrwt beam="2">  1        2 0.94862279E-01 0.89985783E+02</pdfrwt>
<pdfrwt beam="1">  1       -2 0.50508857E-03 0.89985783E+02</pdfrwt>
<totfact> 0.23769907E+05</totfact>
</mgrwt>
</event>
<event>
 5    1  0.4059427E+001  0.9082452E+02  0.7546771E-02  0.1300867E+00
         -1   -1    0    0    0  501 -0.00000000000E+00  0.00000000000E+00  0.22731737827E+02  0.22731737827E+02  0.00000000000E+00 0.  1.
          1   -1    0    0  501    0  0.00000000000E+00 -0.00000000000E+00 -0.90722200817E+02  0.90722200817E+02  0.00000000000E+00 0. -1.
         23    2    1    2    0    0  0.00000000000E+00  0.00000000000E+00 -0.67990462989E+02  0.11345393864E+03  0.90824518366E+02 0.  0.
          2    1    3    3  502    0  0.30802984034E+02 -0.30759317472E+02 -0.50153038510E+02  0.66409989524E+02  0.00000000000E+00 0. -1.
         -2    1    3    3    0  502 -0.30802984034E+02  0.30759317472E+02 -0.17837424479E+02  0.47043949120E+02  0.00000000000E+00 0.  1.
<mgrwt>
<rscale>  0 0.90824518E+02</rscale>
<asrwt>0</asrwt>
<pdfrwt beam="2">  1        1 0.13957262E-01 0.90824518E+02</pdfrwt>
<pdfrwt beam="1">  1       -1 0.34971904E-02 0.90824518E+02</pdfrwt>
<totfact> 0.10388699E+05</totfact>
</mgrwt>
</event>
<event>
 5    1  0.4059427E+001  0.9065073E+02  0.7546771E-02  0.1301283E+00
          3   -1    0    0  501    0  0.00000000000E+00  0.00000000000E+00  0.67565843156E+03  0.67565843156E+03  0.00000000000E+00 0. -1.
         -3   -1    0    0    0  501 -0.00000000000E+00 -0.00000000000E+00 -0.30405727702E+01  0.30405727702E+01  0.00000000000E+00 0.  1.
         23    2    1    2    0    0  0.00000000000E+00  0.00000000000E+00  0.67261785879E+03  0.67869900433E+03  0.90650728159E+02 0.  0.
          2    1    3    3  502    0  0.16910974698E+02 -0.38854751519E+02  0.21588371405E+03  0.22000329719E+03  0.00000000000E+00 0. -1.
         -2    1    3    3    0  502 -0.16910974698E+02  0.38854751519E+02  0.45673414474E+03  0.45869570715E+03  0.00000000000E+00 0.  1.
<mgrwt>
<rscale>  0 0.90650728E+02</rscale>
<asrwt>0</asrwt>
<pdfrwt beam="1">  1        3 0.10394733E+00 0.90650728E+02</pdfrwt>
<pdfrwt beam="2">  1       -3 0.46778096E-03 0.90650728E+02</pdfrwt>
<totfact> 0.14499387E+04</totfact>
</mgrwt>
</event>
<event>
 5    1  0.4059427E+001  0.9025838E+02  0.7546771E-02  0.1302227E+00
         -1   -1    0    0    0  501 -0.00000000000E+00  0.00000000000E+00  0.10927268652E+04  0.10927268652E+04  0.00000000000E+00 0.  1.
          1   -1    0    0  501    0  0.00000000000E+00 -0.00000000000E+00 -0.18638179289E+01  0.18638179289E+01  0.00000000000E+00 0. -1.
         23    2    1    2    0    0  0.00000000000E+00  0.00000000000E+00  0.10908630472E+04  0.10945906831E+04  0.90258382940E+02 0.  0.
          2    1    3    3  502    0 -0.10942213706E+02  0.41303918091E+02  0.36931477118E+03  0.37177835588E+03  0.00000000000E+00 0. -1.
         -2    1    3    3    0  502  0.10942213706E+02 -0.41303918091E+02  0.72154827605E+03  0.72281232720E+03  0.00000000000E+00 0.  1.
<mgrwt>
<rscale>  0 0.90258383E+02</rscale>
<asrwt>0</asrwt>
<pdfrwt beam="2">  1        1 0.28674209E-03 0.90258383E+02</pdfrwt>
<pdfrwt beam="1">  1       -1 0.16811131E+00 0.90258383E+02</pdfrwt>
<totfact> 0.23532734E+04</totfact>
</mgrwt>
</event>
<event>
 5    1  0.4059427E+001  0.9029153E+02  0.7546771E-02  0.1302147E+00
          1   -1    0    0  501    0  0.00000000000E+00  0.00000000000E+00  0.13772307507E+04  0.13772307507E+04  0.00000000000E+00 0. -1.
         -1   -1    0    0    0  501 -0.00000000000E+00 -0.00000000000E+00 -0.14798827425E+01  0.14798827425E+01  0.00000000000E+00 0.  1.
         23    2    1    2    0    0  0.00000000000E+00  0.00000000000E+00  0.13757508679E+04  0.13787106334E+04  0.90291528293E+02 0.  0.
          2    1    3    3  502    0  0.58658510549E+01  0.31342242453E+02  0.11758791432E+04  0.11763113974E+04  0.00000000000E+00 0. -1.
         -2    1    3    3    0  502 -0.58658510549E+01 -0.31342242453E+02  0.19987172474E+03  0.20239923597E+03  0.00000000000E+00 0.  1.
<mgrwt>
<rscale>  0 0.90291528E+02</rscale>
<asrwt>0</asrwt>
<pdfrwt beam="1">  1        1 0.21188063E+00 0.90291528E+02</pdfrwt>
<pdfrwt beam="2">  1       -1 0.22767537E-03 0.90291528E+02</pdfrwt>
<totfact> 0.12082460E+05</totfact>
</mgrwt>
</event>
<event>
 5    1  0.4059427E+001  0.9091793E+02  0.7546771E-02  0.1300644E+00
         -1   -1    0    0    0  501 -0.00000000000E+00  0.00000000000E+00  0.84259593212E+02  0.84259593212E+02  0.00000000000E+00 0.  1.
          1   -1    0    0  501    0  0.00000000000E+00 -0.00000000000E+00 -0.24525604838E+02  0.24525604838E+02  0.00000000000E+00 0. -1.
         23    2    1    2    0    0  0.00000000000E+00  0.00000000000E+00  0.59733988374E+02  0.10878519805E+03  0.90917929738E+02 0.  0.
          2    1    3    3  502    0 -0.41730895998E+02  0.12891335252E+02  0.44948059938E+02  0.62673617237E+02  0.00000000000E+00 0. -1.
         -2    1    3    3    0  502  0.41730895998E+02 -0.12891335252E+02  0.14785928435E+02  0.46111580813E+02  0.00000000000E+00 0.  1.
<mgrwt>
<rscale>  0 0.90917930E+02</rscale>
<asrwt>0</asrwt>
<pdfrwt beam="2">  1        1 0.37731700E-02 0.90917930E+02</pdfrwt>
<pdfrwt beam="1">  1       -1 0.12963014E-01 0.90917930E+02</pdfrwt>
<totfact> 0.84518111E+04</totfact>
</mgrwt>
</event>
<event>
 5    1  0.4059427E+001  0.9154930E+02  0.7546771E-02  0.1299143E+00
          3   -1    0    0  501    0  0.00000000000E+00  0.00000000000E+00  0.36991280484E+02  0.36991280484E+02  0.00000000000E+00 0. -1.
         -3   -1    0    0    0  501 -0.00000000000E+00 -0.00000000000E+00 -0.56643575903E+02  0.56643575903E+02  0.00000000000E+00 0.  1.
         23    2    1    2    0    0  0.00000000000E+00  0.00000000000E+00 -0.19652295419E+02  0.93634856387E+02  0.91549296095E+02 0.  0.
          2    1    3    3  502    0 -0.56160267725E+01  0.43010576299E+02  0.51312634445E+01  0.43678132914E+02  0.00000000000E+00 0. -1.
         -2    1    3    3    0  502  0.56160267725E+01 -0.43010576299E+02 -0.24783558863E+02  0.49956723474E+02  0.00000000000E+00 0.  1.
<mgrwt>
<rscale>  0 0.91549296E+02</rscale>
<asrwt>0</asrwt>
<pdfrwt beam="1">  1        3 0.56909663E-02 0.91549296E+02</pdfrwt>
<pdfrwt beam="2">  1       -3 0.87143962E-02 0.91549296E+02</pdfrwt>
<totfact> 0.34762458E+04</totfact>
</mgrwt>
</event>
<event>
 5    1  0.4059427E+001  0.9131536E+02  0.7546771E-02  0.1299697E+00
         -2   -1    0    0    0  501 -0.00000000000E+00  0.00000000000E+00  0.16351145901E+01  0.16351145901E+01  0.00000000000E+00 0.  1.
          2   -1    0    0  501    0  0.00000000000E+00 -0.00000000000E+00 -0.12749097582E+04  0.12749097582E+04  0.00000000000E+00 0. -1.
         23    2    1    2    0    0  0.00000000000E+00  0.00000000000E+00 -0.12732746436E+04  0.12765448728E+04  0.91315355699E+02 0.  0.
          2    1    3    3  502    0  0.17560076767E+02 -0.18436033496E+02 -0.11664555952E+04  0.11667334311E+04  0.00000000000E+00 0. -1.
         -2    1    3    3    0  502 -0.17560076767E+02  0.18436033496E+02 -0.10681904840E+03  0.10981144170E+03  0.00000000000E+00 0.  1.
<mgrwt>
<rscale>  0 0.91315356E+02</rscale>
<asrwt>0</asrwt>
<pdfrwt beam="2">  1        2 0.19614000E+00 0.91315356E+02</pdfrwt>
<pdfrwt beam="1">  1       -2 0.25155605E-03 0.91315356E+02</pdfrwt>
<totfact> 0.24559006E+05</totfact>
</mgrwt>
</event>
<event>
 5    1  0.4059427E+001  0.9054438E+02  0.7546771E-02  0.1301539E+00
          1   -1    0    0  501    0  0.00000000000E+00  0.00000000000E+00  0.76530799387E+01  0.76530799387E+01  0.00000000000E+00 0. -1.
         -1   -1    0    0    0  501 -0.00000000000E+00 -0.00000000000E+00 -0.26780995351E+03  0.26780995351E+03  0.00000000000E+00 0.  1.
         23    2    1    2    0    0  0.00000000000E+00  0.00000000000E+00 -0.26015687357E+03  0.27546303345E+03  0.90544375477E+02 0.  0.
          2    1    3    3  502    0 -0.16466758547E+02 -0.11657639288E+02 -0.67802496673E+01  0.21284418629E+02  0.00000000000E+00 0. -1.
         -2    1    3    3    0  502  0.16466758547E+02  0.11657639288E+02 -0.25337662391E+03  0.25417861482E+03  0.00000000000E+00 0.  1.
<mgrwt>
<rscale>  0 0.90544375E+02</rscale>
<asrwt>0</asrwt>
<pdfrwt beam="1">  1        1 0.11773972E-02 0.90544375E+02</pdfrwt>
<pdfrwt beam="2">  1       -1 0.41201523E-01 0.90544375E+02</pdfrwt>
<totfact> 0.64387975E+04</totfact>
</mgrwt>
</event>
<event>
 5    1  0.4059427E+001  0.7436492E+02  0.7546771E-02  0.1345849E+00
         -1   -1    0    0    0  501 -0.00000000000E+00  0.00000000000E+00  0.83171829827E+01  0.83171829827E+01  0.00000000000E+00 0.  1.
          1   -1    0    0  501    0  0.00000000000E+00 -0.00000000000E+00 -0.16622638553E+03  0.16622638553E+03  0.00000000000E+00 0. -1.
         23    2    1    2    0    0  0.00000000000E+00  0.00000000000E+00 -0.15790920255E+03  0.17454356851E+03  0.74364918208E+02 0.  0.
          2    1    3    3  502    0 -0.27154400838E+02  0.15191889862E+02 -0.12673340556E+03  0.13049716888E+03  0.00000000000E+00 0. -1.
         -2    1    3    3    0  502  0.27154400838E+02 -0.15191889862E+02 -0.31175796994E+02  0.44046399633E+02  0.00000000000E+00 0.  1.
<mgrwt>
<rscale>  0 0.74364918E+02</rscale>
<asrwt>0</asrwt>
<pdfrwt beam="2">  1        1 0.25573290E-01 0.74364918E+02</pdfrwt>
<pdfrwt beam="1">  1       -1 0.12795666E-02 0.74364918E+02</pdfrwt>
<totfact> 0.19653141E+05</totfact>
</mgrwt>
</event>
<event>
 5    1  0.4059427E+001  0.8879408E+02  0.7546771E-02  0.1305799E+00
          1   -1    0    0  501    0  0.00000000000E+00  0.00000000000E+00  0.44845924043E+01  0.44845924043E+01  0.00000000000E+00 0. -1.
         -1   -1    0    0    0  501 -0.00000000000E+00 -0.00000000000E+00 -0.43952644829E+03  0.43952644829E+03  0.00000000000E+00 0.  1.
         23    2    1    2    0    0  0.00000000000E+00  0.00000000000E+00 -0.43504185588E+03  0.44401104069E+03  0.88794075737E+02 0.  0.
          2    1    3    3  502    0  0.50620595191E+01 -0.38445710850E+02 -0.10941386738E+03  0.11608226180E+03  0.00000000000E+00 0. -1.
         -2    1    3    3    0  502 -0.50620595191E+01  0.38445710850E+02 -0.32562798850E+03  0.32792877889E+03  0.00000000000E+00 0.  1.
<mgrwt>
<rscale>  0 0.88794076E+02</rscale>
<asrwt>0</asrwt>
<pdfrwt beam="1">  1        1 0.68993733E-03 0.88794076E+02</pdfrwt>
<pdfrwt beam="2">  1       -1 0.67619450E-01 0.88794076E+02</pdfrwt>
<totfact> 0.54348878E+04</totfact>
</mgrwt>
</event>
<event>
 5    1  0.4059427E+001  0.9289335E+02  0.7546771E-02  0.1295993E+00
         -3   -1    0    0    0  501 -0.00000000000E+00  0.00000000000E+00  0.24847520895E+02  0.24847520895E+02  0.00000000000E+00 0.  1.
          3   -1    0    0  501    0  0.00000000000E+00 -0.00000000000E+00 -0.86821279273E+02  0.86821279273E+02  0.00000000000E+00 0. -1.
         23    2    1    2    0    0  0.00000000000E+00  0.00000000000E+00 -0.61973758379E+02  0.11166880017E+03  0.92893348543E+02 0.  0.
          2    1    3    3  502    0 -0.12448543437E+02 -0.23660441153E+02 -0.76643816407E+02  0.81173008462E+02  0.00000000000E+00 0. -1.
         -2    1    3    3    0  502  0.12448543437E+02  0.23660441153E+02  0.14670058029E+02  0.30495791707E+02  0.00000000000E+00 0.  1.
<mgrwt>
<rscale>  0 0.92893349E+02</rscale>
<asrwt>0</asrwt>
<pdfrwt beam="2">  1        3 0.13357120E-01 0.92893349E+02</pdfrwt>
<pdfrwt beam="1">  1       -3 0.38226954E-02 0.92893349E+02</pdfrwt>
<totfact> 0.32149824E+04</totfact>
</mgrwt>
</event>
<event>
 5    1  0.4059427E+001  0.9015717E+02  0.7546771E-02  0.1302472E+00
          2   -1    0    0  501    0  0.00000000000E+00  0.00000000000E+00  0.14434584582E+04  0.14434584582E+04  0.00000000000E+00 0.  1.
         -2   -1    0    0    0  501 -0.00000000000E+00 -0.00000000000E+00 -0.14077847177E+01  0.14077847177E+01  0.00000000000E+00 0. -1.
         23    2    1    2    0    0  0.00000000000E+00  0.00000000000E+00  0.14420506735E+04  0.14448662429E+04  0.90157168503E+02 0.  0.
          2    1    3    3  502    0 -0.12718321064E+02  0.38336655652E+02  0.40025381199E+03  0.40228667498E+03  0.00000000000E+00 0. -1.
         -2    1    3    3    0  502  0.12718321064E+02 -0.38336655652E+02  0.10417968615E+04  0.10425795679E+04  0.00000000000E+00 0.  1.
<mgrwt>
<rscale>  0 0.90157169E+02</rscale>
<asrwt>0</asrwt>
<pdfrwt beam="1">  1        2 0.22206935E+00 0.90157169E+02</pdfrwt>
<pdfrwt beam="2">  1       -2 0.21658342E-03 0.90157169E+02</pdfrwt>
<totfact> 0.24635889E+05</totfact>
</mgrwt>
</event>
<event>
 5    1  0.4059427E+001  0.9109430E+02  0.7546771E-02  0.1300223E+00
         -2   -1    0    0    0  501 -0.00000000000E+00  0.00000000000E+00  0.50872665569E+01  0.50872665569E+01  0.00000000000E+00 0.  1.
          2   -1    0    0  501    0  0.00000000000E+00 -0.00000000000E+00 -0.40779129300E+03  0.40779129300E+03  0.00000000000E+00 0. -1.
         23    2    1    2    0    0  0.00000000000E+00  0.00000000000E+00 -0.40270402644E+03  0.41287855955E+03  0.91094302941E+02 0.  0.
          2    1    3    3  502    0 -0.14167835370E+02  0.37443659704E+02 -0.29979946181E+03  0.30246069581E+03  0.00000000000E+00 0. -1.
         -2    1    3    3    0  502  0.14167835370E+02 -0.37443659704E+02 -0.10290456463E+03  0.11041786374E+03  0.00000000000E+00 0.  1.
<mgrwt>
<rscale>  0 0.91094303E+02</rscale>
<asrwt>0</asrwt>
<pdfrwt beam="2">  1        2 0.62737145E-01 0.91094303E+02</pdfrwt>
<pdfrwt beam="1">  1       -2 0.78265611E-03 0.91094303E+02</pdfrwt>
<totfact> 0.20148645E+05</totfact>
</mgrwt>
</event>
<event>
 5    1  0.4059427E+001  0.9050771E+02  0.7546771E-02  0.1301627E+00
         -1   -1    0    0    0  501 -0.00000000000E+00  0.00000000000E+00  0.12809470177E+01  0.12809470177E+01  0.00000000000E+00 0.  1.
          1   -1    0    0  501    0  0.00000000000E+00 -0.00000000000E+00 -0.15987479642E+04  0.15987479642E+04  0.00000000000E+00 0. -1.
         23    2    1    2    0    0  0.00000000000E+00  0.00000000000E+00 -0.15974670171E+04  0.16000289112E+04  0.90507710981E+02 0.  0.
          2    1    3    3  502    0  0.32274120107E+02  0.10291921512E+02 -0.13291933435E+04  0.13296249422E+04  0.00000000000E+00 0. -1.
         -2    1    3    3    0  502 -0.32274120107E+02 -0.10291921512E+02 -0.26827367361E+03  0.27040396896E+03  0.00000000000E+00 0.  1.
<mgrwt>
<rscale>  0 0.90507711E+02</rscale>
<asrwt>0</asrwt>
<pdfrwt beam="2">  1        1 0.24596153E+00 0.90507711E+02</pdfrwt>
<pdfrwt beam="1">  1       -1 0.19706853E-03 0.90507711E+02</pdfrwt>
<totfact> 0.10653808E+05</totfact>
</mgrwt>
</event>
<event>
 5    1  0.4059427E+001  0.9096369E+02  0.7546771E-02  0.1300535E+00
         -1   -1    0    0    0  501 -0.00000000000E+00  0.00000000000E+00  0.28996011927E+01  0.28996011927E+01  0.00000000000E+00 0.  1.
          1   -1    0    0  501    0  0.00000000000E+00 -0.00000000000E+00 -0.71340777377E+03  0.71340777377E+03  0.00000000000E+00 0. -1.
         23    2    1    2    0    0  0.00000000000E+00  0.00000000000E+00 -0.71050817258E+03  0.71630737496E+03  0.90963685759E+02 0.  0.
          2    1    3    3  502    0 -0.24714356750E+02 -0.89164309539E+01 -0.64760375053E+03  0.64813649787E+03  0.00000000000E+00 0. -1.
         -2    1    3    3    0  502  0.24714356750E+02  0.89164309539E+01 -0.62904422048E+02  0.68170877094E+02  0.00000000000E+00 0.  1.
<mgrwt>
<rscale>  0 0.90963686E+02</rscale>
<asrwt>0</asrwt>
<pdfrwt beam="2">  1        1 0.10975523E+00 0.90963686E+02</pdfrwt>
<pdfrwt beam="1">  1       -1 0.44609172E-03 0.90963686E+02</pdfrwt>
<totfact> 0.14301994E+05</totfact>
</mgrwt>
</event>
<event>
 5    1  0.4059427E+001  0.9370787E+02  0.7546771E-02  0.1294113E+00
          2   -1    0    0  501    0  0.00000000000E+00  0.00000000000E+00  0.38515423552E+02  0.38515423552E+02  0.00000000000E+00 0. -1.
         -2   -1    0    0    0  501 -0.00000000000E+00 -0.00000000000E+00 -0.56997715796E+02  0.56997715796E+02  0.00000000000E+00 0.  1.
         23    2    1    2    0    0  0.00000000000E+00  0.00000000000E+00 -0.18482292244E+02  0.95513139348E+02  0.93707868728E+02 0.  0.
          2    1    3    3  502    0 -0.33029091163E+02  0.29152112774E+02 -0.25502322515E+02  0.50903192394E+02  0.00000000000E+00 0. -1.
         -2    1    3    3    0  502  0.33029091163E+02 -0.29152112774E+02  0.70200302710E+01  0.44609946954E+02  0.00000000000E+00 0.  1.
<mgrwt>
<rscale>  0 0.93707869E+02</rscale>
<asrwt>0</asrwt>
<pdfrwt beam="1">  1        2 0.59254498E-02 0.93707869E+02</pdfrwt>
<pdfrwt beam="2">  1       -2 0.87688793E-02 0.93707869E+02</pdfrwt>
<totfact> 0.87208932E+04</totfact>
</mgrwt>
</event>
<event>
 5    1  0.4059427E+001  0.9143312E+02  0.7546771E-02  0.1299418E+00
          2   -1    0    0  501    0  0.00000000000E+00  0.00000000000E+00  0.36795803967E+04  0.36795803967E+04  0.00000000000E+00 0. -1.
         -2   -1    0    0    0  501 -0.00000000000E+00 -0.00000000000E+00 -0.56800065353E+00  0.56800065353E+00  0.00000000000E+00 0.  1.
         23    2    1    2    0    0  0.00000000000E+00  0.00000000000E+00  0.36790123960E+04  0.36801483973E+04  0.91433124633E+02 0.  0.
          2    1    3    3  502    0 -0.11612523253E+02  0.43630116616E+02  0.15504749847E+04  0.15511322045E+04  0.00000000000E+00 0. -1.
         -2    1    3    3    0  502  0.11612523253E+02 -0.43630116616E+02  0.21285374113E+04  0.21290161928E+04  0.00000000000E+00 0.  1.
<mgrwt>
<rscale>  0 0.91433125E+02</rscale>
<asrwt>0</asrwt>
<pdfrwt beam="1">  1        2 0.56607021E+00 0.91433125E+02</pdfrwt>
<pdfrwt beam="2">  1       -2 0.87387662E-04 0.91433125E+02</pdfrwt>
<totfact> 0.51154882E+04</totfact>
</mgrwt>
</event>
<event>
 5    1  0.4059427E+001  0.9115011E+02  0.7546771E-02  0.1300090E+00
          4   -1    0    0  501    0  0.00000000000E+00  0.00000000000E+00  0.86992661220E+02  0.86992661220E+02  0.00000000000E+00 0. -1.
         -4   -1    0    0    0  501 -0.00000000000E+00 -0.00000000000E+00 -0.23876559154E+02  0.23876559154E+02  0.00000000000E+00 0.  1.
         23    2    1    2    0    0  0.00000000000E+00  0.00000000000E+00  0.63116102065E+02  0.11086922037E+03  0.91150105246E+02 0.  0.
          2    1    3    3  502    0  0.35617671180E+02  0.28394392664E+02  0.33372549235E+02  0.56467575453E+02  0.00000000000E+00 0. -1.
         -2    1    3    3    0  502 -0.35617671180E+02 -0.28394392664E+02  0.29743552831E+02  0.54401644921E+02  0.00000000000E+00 0.  1.
<mgrwt>
<rscale>  0 0.91150105E+02</rscale>
<asrwt>0</asrwt>
<pdfrwt beam="1">  1        4 0.13383486E-01 0.91150105E+02</pdfrwt>
<pdfrwt beam="2">  1       -4 0.36733168E-02 0.91150105E+02</pdfrwt>
<totfact> 0.25821774E+04</totfact>
</mgrwt>
</event>
<event>
 5    1  0.4059427E+001  0.9675988E+02  0.7546771E-02  0.1287261E+00
         -2   -1    0    0    0  501 -0.00000000000E+00  0.00000000000E+00  0.28952592516E+02  0.28952592516E+02  0.00000000000E+00 0.  1.
          2   -1    0    0  501    0  0.00000000000E+00 -0.00000000000E+00 -0.80843151661E+02  0.80843151661E+02  0.00000000000E+00 0. -1.
         23    2    1    2    0    0  0.00000000000E+00  0.00000000000E+00 -0.51890559145E+02  0.10979574418E+03  0.96759884823E+02 0.  0.
          2    1    3    3  502    0  0.41089473410E+02 -0.22621252957E+02 -0.12492559790E+02  0.48539983112E+02  0.00000000000E+00 0.  1.
         -2    1    3    3    0  502 -0.41089473410E+02  0.22621252957E+02 -0.39397999355E+02  0.61255761065E+02  0.00000000000E+00 0. -1.
<mgrwt>
<rscale>  0 0.96759885E+02</rscale>
<asrwt>0</asrwt>
<pdfrwt beam="2">  1        2 0.12437408E-01 0.96759885E+02</pdfrwt>
<pdfrwt beam="1">  1       -2 0.44542450E-02 0.96759885E+02</pdfrwt>
<totfact> 0.97577648E+04</totfact>
</mgrwt>
</event>
<event>
 5    1  0.4059427E+001  0.8503972E+02  0.7546771E-02  0.1315329E+00
          1   -1    0    0  501    0  0.00000000000E+00  0.00000000000E+00  0.35116639352E+04  0.35116639352E+04  0.00000000000E+00 0. -1.
         -1   -1    0    0    0  501 -0.00000000000E+00 -0.00000000000E+00 -0.51483809500E+00  0.51483809500E+00  0.00000000000E+00 0.  1.
         23    2    1    2    0    0  0.00000000000E+00  0.00000000000E+00  0.35111490971E+04  0.35121787733E+04  0.85039717089E+02 0.  0.
          2    1    3    3  502    0 -0.23425509843E+02 -0.34886669312E+02  0.14875853259E+04  0.14881787312E+04  0.00000000000E+00 0. -1.
         -2    1    3    3    0  502  0.23425509843E+02  0.34886669312E+02  0.20235637712E+04  0.20240000420E+04  0.00000000000E+00 0.  1.
<mgrwt>
<rscale>  0 0.85039717E+02</rscale>
<asrwt>0</asrwt>
<pdfrwt beam="1">  1        1 0.54023681E+00 0.85039717E+02</pdfrwt>
<pdfrwt beam="2">  1       -1 0.79208673E-04 0.85039717E+02</pdfrwt>
<totfact> 0.20510555E+04</totfact>
</mgrwt>
</event>
<event>
 5    1  0.4059427E+001  0.8968864E+02  0.7546771E-02  0.1303607E+00
         -2   -1    0    0    0  501 -0.00000000000E+00  0.00000000000E+00  0.13088998008E+01  0.13088998008E+01  0.00000000000E+00 0.  1.
          2   -1    0    0  501    0  0.00000000000E+00 -0.00000000000E+00 -0.15364146862E+04  0.15364146862E+04  0.00000000000E+00 0. -1.
         23    2    1    2    0    0  0.00000000000E+00  0.00000000000E+00 -0.15351057864E+04  0.15377235860E+04  0.89688636443E+02 0.  0.
          2    1    3    3  502    0 -0.12732788991E+02 -0.16368763907E+02 -0.14492638421E+04  0.14494122065E+04  0.00000000000E+00 0. -1.
         -2    1    3    3    0  502  0.12732788991E+02  0.16368763907E+02 -0.85841944290E+02  0.88311379486E+02  0.00000000000E+00 0.  1.
<mgrwt>
<rscale>  0 0.89688636E+02</rscale>
<asrwt>0</asrwt>
<pdfrwt beam="2">  1        2 0.23637123E+00 0.89688636E+02</pdfrwt>
<pdfrwt beam="1">  1       -2 0.20136942E-03 0.89688636E+02</pdfrwt>
<totfact> 0.24408875E+05</totfact>
</mgrwt>
</event>
<event>
 5    1  0.4059427E+001  0.9039229E+02  0.7546771E-02  0.1301904E+00
          1   -1    0    0  501    0  0.00000000000E+00  0.00000000000E+00  0.87210812178E+03  0.87210812178E+03  0.00000000000E+00 0. -1.
         -1   -1    0    0    0  501 -0.00000000000E+00 -0.00000000000E+00 -0.23422456479E+01  0.23422456479E+01  0.00000000000E+00 0.  1.
         23    2    1    2    0    0  0.00000000000E+00  0.00000000000E+00  0.86976587613E+03  0.87445036743E+03  0.90392288448E+02 0.  0.
          2    1    3    3  502    0 -0.34750953856E+01  0.44738926616E+02  0.48701790246E+03  0.48908085748E+03  0.00000000000E+00 0. -1.
         -2    1    3    3    0  502  0.34750953856E+01 -0.44738926616E+02  0.38274797367E+03  0.38536950994E+03  0.00000000000E+00 0.  1.
<mgrwt>
<rscale>  0 0.90392288E+02</rscale>
<asrwt>0</asrwt>
<pdfrwt beam="1">  1        1 0.13417022E+00 0.90392288E+02</pdfrwt>
<pdfrwt beam="2">  1       -1 0.36034618E-03 0.90392288E+02</pdfrwt>
<totfact> 0.14311172E+05</totfact>
</mgrwt>
</event>
<event>
 5    1  0.4059427E+001  0.9569138E+02  0.7546771E-02  0.1289626E+00
         -1   -1    0    0    0  501 -0.00000000000E+00  0.00000000000E+00  0.13546024339E+03  0.13546024339E+03  0.00000000000E+00 0.  1.
          1   -1    0    0  501    0  0.00000000000E+00 -0.00000000000E+00 -0.16899496285E+02  0.16899496285E+02  0.00000000000E+00 0. -1.
         23    2    1    2    0    0  0.00000000000E+00  0.00000000000E+00  0.11856074711E+03  0.15235973968E+03  0.95691376413E+02 0.  0.
          2    1    3    3  502    0  0.36505020523E+02 -0.17760888895E+02  0.18964574361E+02  0.44807597329E+02  0.00000000000E+00 0. -1.
         -2    1    3    3    0  502 -0.36505020523E+02  0.17760888895E+02  0.99596172748E+02  0.10755214235E+03  0.00000000000E+00 0.  1.
<mgrwt>
<rscale>  0 0.95691376E+02</rscale>
<asrwt>0</asrwt>
<pdfrwt beam="2">  1        1 0.25999226E-02 0.95691376E+02</pdfrwt>
<pdfrwt beam="1">  1       -1 0.20840037E-01 0.95691376E+02</pdfrwt>
<totfact> 0.67514058E+04</totfact>
</mgrwt>
</event>
<event>
 5    1  0.4059427E+001  0.9022631E+02  0.7546771E-02  0.1302305E+00
         -2   -1    0    0    0  501 -0.00000000000E+00  0.00000000000E+00  0.11688839407E+03  0.11688839407E+03  0.00000000000E+00 0. -1.
          2   -1    0    0  501    0  0.00000000000E+00 -0.00000000000E+00 -0.17411452144E+02  0.17411452144E+02  0.00000000000E+00 0.  1.
         23    2    1    2    0    0  0.00000000000E+00  0.00000000000E+00  0.99476941926E+02  0.13429984621E+03  0.90226308347E+02 0.  0.
          2    1    3    3  502    0  0.12082177445E+02 -0.25810470295E+02  0.10179343808E+03  0.10570744262E+03  0.00000000000E+00 0. -1.
         -2    1    3    3    0  502 -0.12082177445E+02  0.25810470295E+02 -0.23164961589E+01  0.28592403591E+02  0.00000000000E+00 0.  1.
<mgrwt>
<rscale>  0 0.90226308E+02</rscale>
<asrwt>0</asrwt>
<pdfrwt beam="2">  1        2 0.26786850E-02 0.90226308E+02</pdfrwt>
<pdfrwt beam="1">  1       -2 0.17982829E-01 0.90226308E+02</pdfrwt>
<totfact> 0.78079065E+04</totfact>
</mgrwt>
</event>
<event>
 5    1  0.4059427E+001  0.9468039E+02  0.7546771E-02  0.1291898E+00
         -2   -1    0    0    0  501 -0.00000000000E+00  0.00000000000E+00  0.58845503044E+01  0.58845503044E+01  0.00000000000E+00 0. -1.
          2   -1    0    0  501    0  0.00000000000E+00 -0.00000000000E+00 -0.38084375272E+03  0.38084375272E+03  0.00000000000E+00 0.  1.
         23    2    1    2    0    0  0.00000000000E+00  0.00000000000E+00 -0.37495920242E+03  0.38672830303E+03  0.94680393345E+02 0.  0.
          2    1    3    3  502    0 -0.20388213939E+01 -0.43323226514E+02 -0.10997659472E+03  0.11821975357E+03  0.00000000000E+00 0. -1.
         -2    1    3    3    0  502  0.20388213939E+01  0.43323226514E+02 -0.26498260770E+03  0.26850854946E+03  0.00000000000E+00 0.  1.
<mgrwt>
<rscale>  0 0.94680393E+02</rscale>
<asrwt>0</asrwt>
<pdfrwt beam="2">  1        2 0.58591353E-01 0.94680393E+02</pdfrwt>
<pdfrwt beam="1">  1       -2 0.90531533E-03 0.94680393E+02</pdfrwt>
<totfact> 0.17738951E+05</totfact>
</mgrwt>
</event>
<event>
 5    1  0.4059427E+001  0.8993207E+02  0.7546771E-02  0.1303016E+00
          1   -1    0    0  501    0  0.00000000000E+00  0.00000000000E+00  0.43177548502E+03  0.43177548502E+03  0.00000000000E+00 0. -1.
         -1   -1    0    0    0  501 -0.00000000000E+00 -0.00000000000E+00 -0.46828608315E+01  0.46828608315E+01  0.00000000000E+00 0.  1.
         23    2    1    2    0    0  0.00000000000E+00  0.00000000000E+00  0.42709262419E+03  0.43645834585E+03  0.89932074518E+02 0.  0.
          2    1    3    3  502    0 -0.42817822639E+01  0.32698450566E+02  0.36190048256E+03  0.36339989214E+03  0.00000000000E+00 0. -1.
         -2    1    3    3    0  502  0.42817822639E+01 -0.32698450566E+02  0.65192141623E+02  0.73058453708E+02  0.00000000000E+00 0.  1.
<mgrwt>
<rscale>  0 0.89932075E+02</rscale>
<asrwt>0</asrwt>
<pdfrwt beam="1">  1        1 0.66426966E-01 0.89932075E+02</pdfrwt>
<pdfrwt beam="2">  1       -1 0.72044047E-03 0.89932075E+02</pdfrwt>
<totfact> 0.14159193E+05</totfact>
</mgrwt>
</event>
<event>
 5    1  0.4059427E+001  0.9028585E+02  0.7546771E-02  0.1302161E+00
          2   -1    0    0  501    0  0.00000000000E+00  0.00000000000E+00  0.31324959220E+02  0.31324959220E+02  0.00000000000E+00 0. -1.
         -2   -1    0    0    0  501 -0.00000000000E+00 -0.00000000000E+00 -0.65056228140E+02  0.65056228140E+02  0.00000000000E+00 0.  1.
         23    2    1    2    0    0  0.00000000000E+00  0.00000000000E+00 -0.33731268920E+02  0.96381187361E+02  0.90285850354E+02 0.  0.
          2    1    3    3  502    0 -0.18930189494E+02 -0.25984023542E+02  0.16965592301E+02  0.36350417822E+02  0.00000000000E+00 0. -1.
         -2    1    3    3    0  502  0.18930189494E+02  0.25984023542E+02 -0.50696861221E+02  0.60030769538E+02  0.00000000000E+00 0.  1.
<mgrwt>
<rscale>  0 0.90285850E+02</rscale>
<asrwt>0</asrwt>
<pdfrwt beam="1">  1        2 0.48192245E-02 0.90285850E+02</pdfrwt>
<pdfrwt beam="2">  1       -2 0.10008650E-01 0.90285850E+02</pdfrwt>
<totfact> 0.92119844E+04</totfact>
</mgrwt>
</event>
<event>
 5    1  0.4059427E+001  0.9356922E+02  0.7546771E-02  0.1294431E+00
          1   -1    0    0  501    0  0.00000000000E+00  0.00000000000E+00  0.11651725505E+03  0.11651725505E+03  0.00000000000E+00 0. -1.
         -1   -1    0    0    0  501 -0.00000000000E+00 -0.00000000000E+00 -0.18785198122E+02  0.18785198122E+02  0.00000000000E+00 0.  1.
         23    2    1    2    0    0  0.00000000000E+00  0.00000000000E+00  0.97732056932E+02  0.13530245318E+03  0.93569219741E+02 0.  0.
          2    1    3    3  502    0  0.66212247612E+01 -0.31201259762E+02  0.98357774867E+02  0.10340024712E+03  0.00000000000E+00 0. -1.
         -2    1    3    3    0  502 -0.66212247612E+01  0.31201259762E+02 -0.62571793529E+00  0.31902206053E+02  0.00000000000E+00 0.  1.
<mgrwt>
<rscale>  0 0.93569220E+02</rscale>
<asrwt>0</asrwt>
<pdfrwt beam="1">  1        1 0.17925731E-01 0.93569220E+02</pdfrwt>
<pdfrwt beam="2">  1       -1 0.28900306E-02 0.93569220E+02</pdfrwt>
<totfact> 0.99896879E+04</totfact>
</mgrwt>
</event>
<event>
 5    1  0.4059427E+001  0.9060006E+02  0.7546771E-02  0.1301405E+00
         -1   -1    0    0    0  501 -0.00000000000E+00  0.00000000000E+00  0.15419755282E+02  0.15419755282E+02  0.00000000000E+00 0.  1.
          1   -1    0    0  501    0  0.00000000000E+00 -0.00000000000E+00 -0.13308204694E+03  0.13308204694E+03  0.00000000000E+00 0. -1.
         23    2    1    2    0    0  0.00000000000E+00  0.00000000000E+00 -0.11766229166E+03  0.14850180222E+03  0.90600057311E+02 0.  0.
          2    1    3    3  502    0  0.16966741919E+02  0.28444638947E+02 -0.10948742752E+03  0.11438734458E+03  0.00000000000E+00 0. -1.
         -2    1    3    3    0  502 -0.16966741919E+02 -0.28444638947E+02 -0.81748641367E+01  0.34114457636E+02  0.00000000000E+00 0.  1.
<mgrwt>
<rscale>  0 0.90600057E+02</rscale>
<asrwt>0</asrwt>
<pdfrwt beam="2">  1        1 0.20474162E-01 0.90600057E+02</pdfrwt>
<pdfrwt beam="1">  1       -1 0.23722699E-02 0.90600057E+02</pdfrwt>
<totfact> 0.11162313E+05</totfact>
</mgrwt>
</event>
<event>
 5    1  0.4059427E+001  0.8995785E+02  0.7546771E-02  0.1302954E+00
         -1   -1    0    0    0  501 -0.00000000000E+00  0.00000000000E+00  0.73510558375E+00  0.73510558375E+00  0.00000000000E+00 0.  1.
          1   -1    0    0  501    0  0.00000000000E+00 -0.00000000000E+00 -0.27521264389E+04  0.27521264389E+04  0.00000000000E+00 0. -1.
         23    2    1    2    0    0  0.00000000000E+00  0.00000000000E+00 -0.27513913334E+04  0.27528615445E+04  0.89957845960E+02 0.  0.
          2    1    3    3  502    0  0.43421617179E+02 -0.13905989298E+01 -0.17322189514E+04  0.17327636499E+04  0.00000000000E+00 0. -1.
         -2    1    3    3    0  502 -0.43421617179E+02  0.13905989298E+01 -0.10191723819E+04  0.10200978947E+04  0.00000000000E+00 0.  1.
<mgrwt>
<rscale>  0 0.89957846E+02</rscale>
<asrwt>0</asrwt>
<pdfrwt beam="2">  1        1 0.42340161E+00 0.89957846E+02</pdfrwt>
<pdfrwt beam="1">  1       -1 0.11309382E-03 0.89957846E+02</pdfrwt>
<totfact> 0.42407927E+04</totfact>
</mgrwt>
</event>
<event>
 5    1  0.4059427E+001  0.9194113E+02  0.7546771E-02  0.1298218E+00
          2   -1    0    0  501    0  0.00000000000E+00  0.00000000000E+00  0.64681771605E+01  0.64681771605E+01  0.00000000000E+00 0. -1.
         -2   -1    0    0    0  501 -0.00000000000E+00 -0.00000000000E+00 -0.32672157221E+03  0.32672157221E+03  0.00000000000E+00 0.  1.
         23    2    1    2    0    0  0.00000000000E+00  0.00000000000E+00 -0.32025339505E+03  0.33318974937E+03  0.91941133584E+02 0.  0.
          2    1    3    3  502    0 -0.31032982940E+02  0.21811636253E+02 -0.66008718001E+02  0.76131099810E+02  0.00000000000E+00 0. -1.
         -2    1    3    3    0  502  0.31032982940E+02 -0.21811636253E+02 -0.25424467705E+03  0.25705864956E+03  0.00000000000E+00 0.  1.
<mgrwt>
<rscale>  0 0.91941134E+02</rscale>
<asrwt>0</asrwt>
<pdfrwt beam="1">  1        2 0.99510397E-03 0.91941134E+02</pdfrwt>
<pdfrwt beam="2">  1       -2 0.50264868E-01 0.91941134E+02</pdfrwt>
<totfact> 0.47511163E+04</totfact>
</mgrwt>
</event>
<event>
 5    1  0.4059427E+001  0.9089617E+02  0.7546771E-02  0.1300696E+00
          3   -1    0    0  501    0  0.00000000000E+00  0.00000000000E+00  0.25447248574E+01  0.25447248574E+01  0.00000000000E+00 0. -1.
         -3   -1    0    0    0  501 -0.00000000000E+00 -0.00000000000E+00 -0.81169025806E+03  0.81169025806E+03  0.00000000000E+00 0.  1.
         23    2    1    2    0    0  0.00000000000E+00  0.00000000000E+00 -0.80914553321E+03  0.81423498292E+03  0.90896168812E+02 0.  0.
          2    1    3    3  502    0 -0.18911491885E+02  0.30250765117E+02 -0.15235297135E+03  0.15647421894E+03  0.00000000000E+00 0. -1.
         -2    1    3    3    0  502  0.18911491885E+02 -0.30250765117E+02 -0.65679256186E+03  0.65776076398E+03  0.00000000000E+00 0.  1.
<mgrwt>
<rscale>  0 0.90896169E+02</rscale>
<asrwt>0</asrwt>
<pdfrwt beam="1">  1        3 0.39149573E-03 0.90896169E+02</pdfrwt>
<pdfrwt beam="2">  1       -3 0.12487555E+00 0.90896169E+02</pdfrwt>
<totfact> 0.12279099E+04</totfact>
</mgrwt>
</event>
<event>
 5    1  0.4059427E+001  0.9047729E+02  0.7546771E-02  0.1301700E+00
          1   -1    0    0  501    0  0.00000000000E+00  0.00000000000E+00  0.19505786704E+02  0.19505786704E+02  0.00000000000E+00 0. -1.
         -1   -1    0    0    0  501 -0.00000000000E+00 -0.00000000000E+00 -0.10491937497E+03  0.10491937497E+03  0.00000000000E+00 0.  1.
         23    2    1    2    0    0  0.00000000000E+00  0.00000000000E+00 -0.85413588263E+02  0.12442516167E+03  0.90477288847E+02 0.  0.
          2    1    3    3  502    0  0.10125563786E+02 -0.42934656898E+02 -0.28911925237E+02  0.52742878437E+02  0.00000000000E+00 0. -1.
         -2    1    3    3    0  502 -0.10125563786E+02  0.42934656898E+02 -0.56501663026E+02  0.71682283234E+02  0.00000000000E+00 0.  1.
<mgrwt>
<rscale>  0 0.90477289E+02</rscale>
<asrwt>0</asrwt>
<pdfrwt beam="1">  1        1 0.30008903E-02 0.90477289E+02</pdfrwt>
<pdfrwt beam="2">  1       -1 0.16141442E-01 0.90477289E+02</pdfrwt>
<totfact> 0.82254678E+04</totfact>
</mgrwt>
</event>
<event>
 5    1  0.4059427E+001  0.8888021E+02  0.7546771E-02  0.1305586E+00
         -4   -1    0    0    0  501 -0.00000000000E+00  0.00000000000E+00  0.52737403500E+03  0.52737403500E+03  0.00000000000E+00 0.  1.
          4   -1    0    0  501    0  0.00000000000E+00 -0.00000000000E+00 -0.37448242972E+01  0.37448242972E+01  0.00000000000E+00 0. -1.
         23    2    1    2    0    0  0.00000000000E+00  0.00000000000E+00  0.52362921070E+03  0.53111885929E+03  0.88880213770E+02 0.  0.
          2    1    3    3  502    0 -0.43682011989E+02 -0.12021851108E+01  0.21350409899E+03  0.21793018080E+03  0.00000000000E+00 0.  1.
         -2    1    3    3    0  502  0.43682011989E+02  0.12021851108E+01  0.31012511171E+03  0.31318867849E+03  0.00000000000E+00 0. -1.
<mgrwt>
<rscale>  0 0.88880214E+02</rscale>
<asrwt>0</asrwt>
<pdfrwt beam="2">  1        4 0.57612723E-03 0.88880214E+02</pdfrwt>
<pdfrwt beam="1">  1       -4 0.81134408E-01 0.88880214E+02</pdfrwt>
<totfact> 0.13381211E+04</totfact>
</mgrwt>
</event>
<event>
 5    1  0.4059427E+001  0.8538765E+02  0.7546771E-02  0.1314422E+00
          2   -1    0    0  501    0  0.00000000000E+00  0.00000000000E+00  0.21718595093E+02  0.21718595093E+02  0.00000000000E+00 0.  1.
         -2   -1    0    0    0  501 -0.00000000000E+00 -0.00000000000E+00 -0.83926364548E+02  0.83926364548E+02  0.00000000000E+00 0. -1.
         23    2    1    2    0    0  0.00000000000E+00  0.00000000000E+00 -0.62207769455E+02  0.10564495964E+03  0.85387650845E+02 0.  0.
          2    1    3    3  502    0  0.38215241095E+02 -0.77671445602E+01 -0.52605863486E+02  0.65483662540E+02  0.00000000000E+00 0. -1.
         -2    1    3    3    0  502 -0.38215241095E+02  0.77671445602E+01 -0.96019059698E+01  0.40161297101E+02  0.00000000000E+00 0.  1.
<mgrwt>
<rscale>  0 0.85387651E+02</rscale>
<asrwt>0</asrwt>
<pdfrwt beam="1">  1        2 0.33413224E-02 0.85387651E+02</pdfrwt>
<pdfrwt beam="2">  1       -2 0.12911748E-01 0.85387651E+02</pdfrwt>
<totfact> 0.98685467E+04</totfact>
</mgrwt>
</event>
<event>
 5    1  0.4059427E+001  0.9256863E+02  0.7546771E-02  0.1296748E+00
         -1   -1    0    0    0  501 -0.00000000000E+00  0.00000000000E+00  0.30203815298E+01  0.30203815298E+01  0.00000000000E+00 0.  1.
          1   -1    0    0  501    0  0.00000000000E+00 -0.00000000000E+00 -0.70926073749E+03  0.70926073749E+03  0.00000000000E+00 0. -1.
         23    2    1    2    0    0  0.00000000000E+00  0.00000000000E+00 -0.70624035596E+03  0.71228111902E+03  0.92568634673E+02 0.  0.
          2    1    3    3  502    0  0.39084902301E+02 -0.21858595187E+02 -0.44312108952E+03  0.44537818508E+03  0.00000000000E+00 0. -1.
         -2    1    3    3    0  502 -0.39084902301E+02  0.21858595187E+02 -0.26311926644E+03  0.26690293393E+03  0.00000000000E+00 0.  1.
<mgrwt>
<rscale>  0 0.92568635E+02</rscale>
<asrwt>0</asrwt>
<pdfrwt beam="2">  1        1 0.10911724E+00 0.92568635E+02</pdfrwt>
<pdfrwt beam="1">  1       -1 0.46467320E-03 0.92568635E+02</pdfrwt>
<totfact> 0.13656406E+05</totfact>
</mgrwt>
</event>
<event>
 5    1  0.4059427E+001  0.9235069E+02  0.7546771E-02  0.1297257E+00
         -2   -1    0    0    0  501 -0.00000000000E+00  0.00000000000E+00  0.39660141577E+03  0.39660141577E+03  0.00000000000E+00 0.  1.
          2   -1    0    0  501    0  0.00000000000E+00 -0.00000000000E+00 -0.53760833330E+01  0.53760833330E+01  0.00000000000E+00 0. -1.
         23    2    1    2    0    0  0.00000000000E+00  0.00000000000E+00  0.39122533244E+03  0.40197749911E+03  0.92350685134E+02 0.  0.
          2    1    3    3  502    0 -0.37456861330E+02  0.80343315113E+00  0.78129271163E+02  0.86647821542E+02  0.00000000000E+00 0. -1.
         -2    1    3    3    0  502  0.37456861330E+02 -0.80343315113E+00  0.31309606128E+03  0.31532967756E+03  0.00000000000E+00 0.  1.
<mgrwt>
<rscale>  0 0.92350685E+02</rscale>
<asrwt>0</asrwt>
<pdfrwt beam="2">  1        2 0.82709005E-03 0.92350685E+02</pdfrwt>
<pdfrwt beam="1">  1       -2 0.61015580E-01 0.92350685E+02</pdfrwt>
<totfact> 0.41541008E+04</totfact>
</mgrwt>
</event>
<event>
 5    1  0.4059427E+001  0.8773614E+02  0.7546771E-02  0.1308428E+00
          1   -1    0    0  501    0  0.00000000000E+00  0.00000000000E+00  0.93220495050E+02  0.93220495050E+02  0.00000000000E+00 0. -1.
         -1   -1    0    0    0  501 -0.00000000000E+00 -0.00000000000E+00 -0.20643610949E+02  0.20643610949E+02  0.00000000000E+00 0.  1.
         23    2    1    2    0    0  0.00000000000E+00  0.00000000000E+00  0.72576884102E+02  0.11386410600E+03  0.87736141522E+02 0.  0.
          2    1    3    3  502    0 -0.37037382550E+02  0.23049511350E+02  0.30290414550E+02  0.53108915383E+02  0.00000000000E+00 0. -1.
         -2    1    3    3    0  502  0.37037382550E+02 -0.23049511350E+02  0.42286469552E+02  0.60755190616E+02  0.00000000000E+00 0.  1.
<mgrwt>
<rscale>  0 0.87736142E+02</rscale>
<asrwt>0</asrwt>
<pdfrwt beam="1">  1        1 0.14341614E-01 0.87736142E+02</pdfrwt>
<pdfrwt beam="2">  1       -1 0.31759402E-02 0.87736142E+02</pdfrwt>
<totfact> 0.11464955E+05</totfact>
</mgrwt>
</event>
<event>
 5    1  0.4059427E+001  0.9249168E+02  0.7546771E-02  0.1296927E+00
         -1   -1    0    0    0  501 -0.00000000000E+00  0.00000000000E+00  0.70752923687E+00  0.70752923687E+00  0.00000000000E+00 0.  1.
          1   -1    0    0  501    0  0.00000000000E+00 -0.00000000000E+00 -0.30227411431E+04  0.30227411431E+04  0.00000000000E+00 0. -1.
         23    2    1    2    0    0  0.00000000000E+00  0.00000000000E+00 -0.30220336139E+04  0.30234486723E+04  0.92491680366E+02 0.  0.
          2    1    3    3  502    0 -0.40154868252E+02 -0.10570216751E+02 -0.84546719860E+03  0.84648622366E+03  0.00000000000E+00 0. -1.
         -2    1    3    3    0  502  0.40154868252E+02  0.10570216751E+02 -0.21765664153E+04  0.21769624487E+04  0.00000000000E+00 0.  1.
<mgrwt>
<rscale>  0 0.92491680E+02</rscale>
<asrwt>0</asrwt>
<pdfrwt beam="2">  1        1 0.46504093E+00 0.92491680E+02</pdfrwt>
<pdfrwt beam="1">  1       -1 0.10884976E-03 0.92491680E+02</pdfrwt>
<totfact> 0.29503588E+04</totfact>
</mgrwt>
</event>
<event>
 5    1  0.4059427E+001  0.9365616E+02  0.7546771E-02  0.1294232E+00
         -4   -1    0    0    0  501 -0.00000000000E+00  0.00000000000E+00  0.47265103058E+02  0.47265103058E+02  0.00000000000E+00 0.  1.
          4   -1    0    0  501    0  0.00000000000E+00 -0.00000000000E+00 -0.46395101740E+02  0.46395101740E+02  0.00000000000E+00 0. -1.
         23    2    1    2    0    0  0.00000000000E+00  0.00000000000E+00  0.87000131808E+00  0.93660204799E+02  0.93656164029E+02 0.  0.
          2    1    3    3  502    0  0.96242725912E+01  0.26439763119E+02 -0.36998974260E+02  0.46482381533E+02  0.00000000000E+00 0. -1.
         -2    1    3    3    0  502 -0.96242725912E+01 -0.26439763119E+02  0.37868975578E+02  0.47177823265E+02  0.00000000000E+00 0.  1.
<mgrwt>
<rscale>  0 0.93656164E+02</rscale>
<asrwt>0</asrwt>
<pdfrwt beam="2">  1        4 0.71377080E-02 0.93656164E+02</pdfrwt>
<pdfrwt beam="1">  1       -4 0.72715543E-02 0.93656164E+02</pdfrwt>
<totfact> 0.24964417E+04</totfact>
</mgrwt>
</event>
<event>
 5    1  0.4059427E+001  0.9027380E+02  0.7546771E-02  0.1302190E+00
         -4   -1    0    0    0  501 -0.00000000000E+00  0.00000000000E+00  0.38171426990E+02  0.38171426990E+02  0.00000000000E+00 0.  1.
          4   -1    0    0  501    0  0.00000000000E+00 -0.00000000000E+00 -0.53373422743E+02  0.53373422743E+02  0.00000000000E+00 0. -1.
         23    2    1    2    0    0  0.00000000000E+00  0.00000000000E+00 -0.15201995752E+02  0.91544849733E+02  0.90273799288E+02 0.  0.
          2    1    3    3  502    0 -0.20446478516E+02  0.40218290352E+02 -0.62517200379E+01  0.45548362934E+02  0.00000000000E+00 0. -1.
         -2    1    3    3    0  502  0.20446478516E+02 -0.40218290352E+02 -0.89502757146E+01  0.45996486799E+02  0.00000000000E+00 0.  1.
<mgrwt>
<rscale>  0 0.90273799E+02</rscale>
<asrwt>0</asrwt>
<pdfrwt beam="2">  1        4 0.82112958E-02 0.90273799E+02</pdfrwt>
<pdfrwt beam="1">  1       -4 0.58725272E-02 0.90273799E+02</pdfrwt>
<totfact> 0.27730398E+04</totfact>
</mgrwt>
</event>
<event>
 5    1  0.4059427E+001  0.9478125E+02  0.7546771E-02  0.1291670E+00
         -1   -1    0    0    0  501 -0.00000000000E+00  0.00000000000E+00  0.16768216075E+01  0.16768216075E+01  0.00000000000E+00 0.  1.
          1   -1    0    0  501    0  0.00000000000E+00 -0.00000000000E+00 -0.13393621033E+04  0.13393621033E+04  0.00000000000E+00 0. -1.
         23    2    1    2    0    0  0.00000000000E+00  0.00000000000E+00 -0.13376852817E+04  0.13410389249E+04  0.94781249520E+02 0.  0.
          2    1    3    3  502    0 -0.21836497252E+02 -0.38450466046E+02 -0.91003693568E+03  0.91111058344E+03  0.00000000000E+00 0. -1.
         -2    1    3    3    0  502  0.21836497252E+02  0.38450466046E+02 -0.42764834605E+03  0.42992834151E+03  0.00000000000E+00 0.  1.
<mgrwt>
<rscale>  0 0.94781250E+02</rscale>
<asrwt>0</asrwt>
<pdfrwt beam="2">  1        1 0.20605572E+00 0.94781250E+02</pdfrwt>
<pdfrwt beam="1">  1       -1 0.25797254E-03 0.94781250E+02</pdfrwt>
<totfact> 0.10818442E+05</totfact>
</mgrwt>
</event>
<event>
 5    1  0.4059427E+001  0.9229107E+02  0.7546771E-02  0.1297397E+00
         -2   -1    0    0    0  501 -0.00000000000E+00  0.00000000000E+00  0.40392366080E+01  0.40392366080E+01  0.00000000000E+00 0.  1.
          2   -1    0    0  501    0  0.00000000000E+00 -0.00000000000E+00 -0.52718139432E+03  0.52718139432E+03  0.00000000000E+00 0. -1.
         23    2    1    2    0    0  0.00000000000E+00  0.00000000000E+00 -0.52314215771E+03  0.53122063092E+03  0.92291069709E+02 0.  0.
          2    1    3    3  502    0 -0.29240110434E+02 -0.35588801693E+02 -0.24543032445E+03  0.24971501962E+03  0.00000000000E+00 0. -1.
         -2    1    3    3    0  502  0.29240110434E+02  0.35588801693E+02 -0.27771183325E+03  0.28150561130E+03  0.00000000000E+00 0.  1.
<mgrwt>
<rscale>  0 0.92291070E+02</rscale>
<asrwt>0</asrwt>
<pdfrwt beam="2">  1        2 0.81104817E-01 0.92291070E+02</pdfrwt>
<pdfrwt beam="1">  1       -2 0.62142111E-03 0.92291070E+02</pdfrwt>
<totfact> 0.21223907E+05</totfact>
</mgrwt>
</event>
<event>
 5    1  0.4059427E+001  0.9103569E+02  0.7546771E-02  0.1300363E+00
          1   -1    0    0  501    0  0.00000000000E+00  0.00000000000E+00  0.12558705290E+04  0.12558705290E+04  0.00000000000E+00 0. -1.
         -1   -1    0    0    0  501 -0.00000000000E+00 -0.00000000000E+00 -0.16497515188E+01  0.16497515188E+01  0.00000000000E+00 0.  1.
         23    2    1    2    0    0  0.00000000000E+00  0.00000000000E+00  0.12542207775E+04  0.12575202805E+04  0.91035692179E+02 0.  0.
          2    1    3    3  502    0 -0.18894704620E+02 -0.30584541281E+02  0.10127640947E+04  0.10134019615E+04  0.00000000000E+00 0. -1.
         -2    1    3    3    0  502  0.18894704620E+02  0.30584541281E+02  0.24145668274E+03  0.24411831899E+03  0.00000000000E+00 0.  1.
<mgrwt>
<rscale>  0 0.91035692E+02</rscale>
<asrwt>0</asrwt>
<pdfrwt beam="1">  1        1 0.19321009E+00 0.91035692E+02</pdfrwt>
<pdfrwt beam="2">  1       -1 0.25380893E-03 0.91035692E+02</pdfrwt>
<totfact> 0.12494563E+05</totfact>
</mgrwt>
</event>
<event>
 5    1  0.4059427E+001  0.9266239E+02  0.7546771E-02  0.1296529E+00
          3   -1    0    0  501    0  0.00000000000E+00  0.00000000000E+00  0.37468511096E+02  0.37468511096E+02  0.00000000000E+00 0. -1.
         -3   -1    0    0    0  501 -0.00000000000E+00 -0.00000000000E+00 -0.57290235410E+02  0.57290235410E+02  0.00000000000E+00 0.  1.
         23    2    1    2    0    0  0.00000000000E+00  0.00000000000E+00 -0.19821724314E+02  0.94758746506E+02  0.92662394123E+02 0.  0.
          2    1    3    3  502    0  0.79754249187E+01 -0.35084440679E+02  0.19939490226E+02  0.41135248278E+02  0.00000000000E+00 0. -1.
         -2    1    3    3    0  502 -0.79754249187E+01  0.35084440679E+02 -0.39761214541E+02  0.53623498228E+02  0.00000000000E+00 0.  1.
<mgrwt>
<rscale>  0 0.92662394E+02</rscale>
<asrwt>0</asrwt>
<pdfrwt beam="1">  1        3 0.57643863E-02 0.92662394E+02</pdfrwt>
<pdfrwt beam="2">  1       -3 0.88138824E-02 0.92662394E+02</pdfrwt>
<totfact> 0.33552272E+04</totfact>
</mgrwt>
</event>
<event>
 5    1  0.4059427E+001  0.8677366E+02  0.7546771E-02  0.1310858E+00
          1   -1    0    0  501    0  0.00000000000E+00  0.00000000000E+00  0.90262443216E+02  0.90262443216E+02  0.00000000000E+00 0. -1.
         -1   -1    0    0    0  501 -0.00000000000E+00 -0.00000000000E+00 -0.20854931180E+02  0.20854931180E+02  0.00000000000E+00 0.  1.
         23    2    1    2    0    0  0.00000000000E+00  0.00000000000E+00  0.69407512036E+02  0.11111737440E+03  0.86773660552E+02 0.  0.
          2    1    3    3  502    0  0.24168008877E+02 -0.12321013124E+01  0.80817630231E+02  0.84362907032E+02  0.00000000000E+00 0. -1.
         -2    1    3    3    0  502 -0.24168008877E+02  0.12321013124E+01 -0.11410118195E+02  0.26754467364E+02  0.00000000000E+00 0.  1.
<mgrwt>
<rscale>  0 0.86773661E+02</rscale>
<asrwt>0</asrwt>
<pdfrwt beam="1">  1        1 0.13886530E-01 0.86773661E+02</pdfrwt>
<pdfrwt beam="2">  1       -1 0.32084510E-02 0.86773661E+02</pdfrwt>
<totfact> 0.11752981E+05</totfact>
</mgrwt>
</event>
<event>
 5    1  0.4059427E+001  0.9174295E+02  0.7546771E-02  0.1298685E+00
         -1   -1    0    0    0  501 -0.00000000000E+00  0.00000000000E+00  0.12990914018E+03  0.12990914018E+03  0.00000000000E+00 0.  1.
          1   -1    0    0  501    0  0.00000000000E+00 -0.00000000000E+00 -0.16197413127E+02  0.16197413127E+02  0.00000000000E+00 0. -1.
         23    2    1    2    0    0  0.00000000000E+00  0.00000000000E+00  0.11371172706E+03  0.14610655331E+03  0.91742945505E+02 0.  0.
          2    1    3    3  502    0 -0.45063996112E+02 -0.74355001273E+01  0.50072659708E+02  0.67774048558E+02  0.00000000000E+00 0. -1.
         -2    1    3    3    0  502  0.45063996112E+02  0.74355001273E+01  0.63639067347E+02  0.78332504751E+02  0.00000000000E+00 0.  1.
<mgrwt>
<rscale>  0 0.91742946E+02</rscale>
<asrwt>0</asrwt>
<pdfrwt beam="2">  1        1 0.24919098E-02 0.91742946E+02</pdfrwt>
<pdfrwt beam="1">  1       -1 0.19986021E-01 0.91742946E+02</pdfrwt>
<totfact> 0.76007111E+04</totfact>
</mgrwt>
</event>
<event>
 5    1  0.4059427E+001  0.8143782E+02  0.7546771E-02  0.1325020E+00
         -2   -1    0    0    0  501 -0.00000000000E+00  0.00000000000E+00  0.17821186900E+01  0.17821186900E+01  0.00000000000E+00 0.  1.
          2   -1    0    0  501    0  0.00000000000E+00 -0.00000000000E+00 -0.93036993446E+03  0.93036993446E+03  0.00000000000E+00 0. -1.
         23    2    1    2    0    0  0.00000000000E+00  0.00000000000E+00 -0.92858781577E+03  0.93215205315E+03  0.81437820422E+02 0.  0.
          2    1    3    3  502    0  0.24590612254E+02  0.11771465792E+02 -0.81048441779E+03  0.81094281987E+03  0.00000000000E+00 0. -1.
         -2    1    3    3    0  502 -0.24590612254E+02 -0.11771465792E+02 -0.11810339798E+03  0.12120923328E+03  0.00000000000E+00 0.  1.
<mgrwt>
<rscale>  0 0.81437820E+02</rscale>
<asrwt>0</asrwt>
<pdfrwt beam="2">  1        2 0.14313386E+00 0.81437820E+02</pdfrwt>
<pdfrwt beam="1">  1       -2 0.27417206E-03 0.81437820E+02</pdfrwt>
<totfact> 0.33441332E+05</totfact>
</mgrwt>
</event>
<event>
 5    1  0.4059427E+001  0.8840341E+02  0.7546771E-02  0.1306765E+00
         -2   -1    0    0    0  501 -0.00000000000E+00  0.00000000000E+00  0.53576897271E+02  0.53576897271E+02  0.00000000000E+00 0.  1.
          2   -1    0    0  501    0  0.00000000000E+00 -0.00000000000E+00 -0.36467034067E+02  0.36467034067E+02  0.00000000000E+00 0. -1.
         23    2    1    2    0    0  0.00000000000E+00  0.00000000000E+00  0.17109863204E+02  0.90043931338E+02  0.88403405771E+02 0.  0.
          2    1    3    3  502    0 -0.11910233309E+02  0.40764468359E+02  0.21037765422E+02  0.47393914293E+02  0.00000000000E+00 0.  1.
         -2    1    3    3    0  502  0.11910233309E+02 -0.40764468359E+02 -0.39279022187E+01  0.42650017044E+02  0.00000000000E+00 0. -1.
<mgrwt>
<rscale>  0 0.88403406E+02</rscale>
<asrwt>0</asrwt>
<pdfrwt beam="2">  1        2 0.56103130E-02 0.88403406E+02</pdfrwt>
<pdfrwt beam="1">  1       -2 0.82425995E-02 0.88403406E+02</pdfrwt>
<totfact> 0.10187223E+05</totfact>
</mgrwt>
</event>
<event>
 5    1  0.4059427E+001  0.9845437E+02  0.7546771E-02  0.1283580E+00
         -2   -1    0    0    0  501 -0.00000000000E+00  0.00000000000E+00  0.19944518776E+01  0.19944518776E+01  0.00000000000E+00 0.  1.
          2   -1    0    0  501    0  0.00000000000E+00 -0.00000000000E+00 -0.12150283823E+04  0.12150283823E+04  0.00000000000E+00 0. -1.
         23    2    1    2    0    0  0.00000000000E+00  0.00000000000E+00 -0.12130339305E+04  0.12170228342E+04  0.98454367876E+02 0.  0.
          2    1    3    3  502    0 -0.43487795760E+02  0.19870895349E+02 -0.75134715879E+03  0.75286691645E+03  0.00000000000E+00 0. -1.
         -2    1    3    3    0  502  0.43487795760E+02 -0.19870895349E+02 -0.46168677168E+03  0.46415591777E+03  0.00000000000E+00 0.  1.
<mgrwt>
<rscale>  0 0.98454368E+02</rscale>
<asrwt>0</asrwt>
<pdfrwt beam="2">  1        2 0.18692708E+00 0.98454368E+02</pdfrwt>
<pdfrwt beam="1">  1       -2 0.30683934E-03 0.98454368E+02</pdfrwt>
<totfact> 0.20271741E+05</totfact>
</mgrwt>
</event>
<event>
 5    1  0.4059427E+001  0.9326836E+02  0.7546771E-02  0.1295124E+00
         -2   -1    0    0    0  501 -0.00000000000E+00  0.00000000000E+00  0.30806013257E+01  0.30806013257E+01  0.00000000000E+00 0.  1.
          2   -1    0    0  501    0  0.00000000000E+00 -0.00000000000E+00 -0.70594874672E+03  0.70594874672E+03  0.00000000000E+00 0. -1.
         23    2    1    2    0    0  0.00000000000E+00  0.00000000000E+00 -0.70286814539E+03  0.70902934804E+03  0.93268357871E+02 0.  0.
          2    1    3    3  502    0  0.17608892343E+01  0.35883866639E+02 -0.57745806787E+03  0.57857460432E+03  0.00000000000E+00 0. -1.
         -2    1    3    3    0  502 -0.17608892343E+01 -0.35883866639E+02 -0.12541007753E+03  0.13045474373E+03  0.00000000000E+00 0.  1.
<mgrwt>
<rscale>  0 0.93268358E+02</rscale>
<asrwt>0</asrwt>
<pdfrwt beam="2">  1        2 0.10860739E+00 0.93268358E+02</pdfrwt>
<pdfrwt beam="1">  1       -2 0.47393917E-03 0.93268358E+02</pdfrwt>
<totfact> 0.22379230E+05</totfact>
</mgrwt>
</event>
<event>
 5    1  0.4059427E+001  0.9178744E+02  0.7546771E-02  0.1298580E+00
          3   -1    0    0  501    0  0.00000000000E+00  0.00000000000E+00  0.53901430363E+02  0.53901430363E+02  0.00000000000E+00 0. -1.
         -3   -1    0    0    0  501 -0.00000000000E+00 -0.00000000000E+00 -0.39075651047E+02  0.39075651047E+02  0.00000000000E+00 0.  1.
         23    2    1    2    0    0  0.00000000000E+00  0.00000000000E+00  0.14825779315E+02  0.92977081410E+02  0.91787438874E+02 0.  0.
          2    1    3    3  502    0  0.38775643690E+02 -0.10934687550E+02 -0.14851877865E+02  0.42938283751E+02  0.00000000000E+00 0.  1.
         -2    1    3    3    0  502 -0.38775643690E+02  0.10934687550E+02  0.29677657180E+02  0.50038797658E+02  0.00000000000E+00 0. -1.
<mgrwt>
<rscale>  0 0.91787439E+02</rscale>
<asrwt>0</asrwt>
<pdfrwt beam="1">  1        3 0.82925277E-02 0.91787439E+02</pdfrwt>
<pdfrwt beam="2">  1       -3 0.60116386E-02 0.91787439E+02</pdfrwt>
<totfact> 0.34565392E+04</totfact>
</mgrwt>
</event>
<event>
 5    1  0.4059427E+001  0.9075705E+02  0.7546771E-02  0.1301029E+00
          1   -1    0    0  501    0  0.00000000000E+00  0.00000000000E+00  0.83625458768E+03  0.83625458768E+03  0.00000000000E+00 0. -1.
         -1   -1    0    0    0  501 -0.00000000000E+00 -0.00000000000E+00 -0.24624203684E+01  0.24624203684E+01  0.00000000000E+00 0.  1.
         23    2    1    2    0    0  0.00000000000E+00  0.00000000000E+00  0.83379216731E+03  0.83871700804E+03  0.90757045563E+02 0.  0.
          2    1    3    3  502    0  0.62967372135E+01 -0.19671305083E+02  0.79029680636E+03  0.79056666467E+03  0.00000000000E+00 0. -1.
         -2    1    3    3    0  502 -0.62967372135E+01  0.19671305083E+02  0.43495360948E+02  0.48150343375E+02  0.00000000000E+00 0.  1.
<mgrwt>
<rscale>  0 0.90757046E+02</rscale>
<asrwt>0</asrwt>
<pdfrwt beam="1">  1        1 0.12865432E+00 0.90757046E+02</pdfrwt>
<pdfrwt beam="2">  1       -1 0.37883457E-03 0.90757046E+02</pdfrwt>
<totfact> 0.14238684E+05</totfact>
</mgrwt>
</event>
<event>
 5    1  0.4059427E+001  0.8768931E+02  0.7546771E-02  0.1308546E+00
          2   -1    0    0  501    0  0.00000000000E+00  0.00000000000E+00  0.10916928594E+04  0.10916928594E+04  0.00000000000E+00 0.  1.
         -2   -1    0    0    0  501 -0.00000000000E+00 -0.00000000000E+00 -0.17608923742E+01  0.17608923742E+01  0.00000000000E+00 0. -1.
         23    2    1    2    0    0  0.00000000000E+00  0.00000000000E+00  0.10899319671E+04  0.10934537518E+04  0.87689306785E+02 0.  0.
          2    1    3    3  502    0 -0.39439781590E+02 -0.52422532155E+01  0.77468363704E+03  0.77570465712E+03  0.00000000000E+00 0.  1.
         -2    1    3    3    0  502  0.39439781590E+02  0.52422532155E+01  0.31524833004E+03  0.31774909470E+03  0.00000000000E+00 0. -1.
<mgrwt>
<rscale>  0 0.87689307E+02</rscale>
<asrwt>0</asrwt>
<pdfrwt beam="1">  1        2 0.16795221E+00 0.87689307E+02</pdfrwt>
<pdfrwt beam="2">  1       -2 0.27090739E-03 0.87689307E+02</pdfrwt>
<totfact> 0.27724797E+05</totfact>
</mgrwt>
</event>
<event>
 5    1  0.4059427E+001  0.8834240E+02  0.7546771E-02  0.1306916E+00
         -2   -1    0    0    0  501 -0.00000000000E+00  0.00000000000E+00  0.37970701956E+01  0.37970701956E+01  0.00000000000E+00 0.  1.
          2   -1    0    0  501    0  0.00000000000E+00 -0.00000000000E+00 -0.51384224178E+03  0.51384224178E+03  0.00000000000E+00 0. -1.
         23    2    1    2    0    0  0.00000000000E+00  0.00000000000E+00 -0.51004517159E+03  0.51763931198E+03  0.88342403443E+02 0.  0.
          2    1    3    3  502    0 -0.93881641380E+01  0.29010339711E+02 -0.44228342212E+03  0.44333324138E+03  0.00000000000E+00 0. -1.
         -2    1    3    3    0  502  0.93881641380E+01 -0.29010339711E+02 -0.67761749470E+02  0.74306070595E+02  0.00000000000E+00 0.  1.
<mgrwt>
<rscale>  0 0.88342403E+02</rscale>
<asrwt>0</asrwt>
<pdfrwt beam="2">  1        2 0.79052641E-01 0.88342403E+02</pdfrwt>
<pdfrwt beam="1">  1       -2 0.58416473E-03 0.88342403E+02</pdfrwt>
<totfact> 0.23630784E+05</totfact>
</mgrwt>
</event>
<event>
 5    1  0.4059427E+001  0.7573071E+02  0.7546771E-02  0.1341623E+00
         -2   -1    0    0    0  501 -0.00000000000E+00  0.00000000000E+00  0.26211984506E+01  0.26211984506E+01  0.00000000000E+00 0.  1.
          2   -1    0    0  501    0  0.00000000000E+00 -0.00000000000E+00 -0.54699596482E+03  0.54699596482E+03  0.00000000000E+00 0. -1.
         23    2    1    2    0    0  0.00000000000E+00  0.00000000000E+00 -0.54437476637E+03  0.54961716327E+03  0.75730706467E+02 0.  0.
          2    1    3    3  502    0 -0.22973333055E+02  0.30060867498E+02 -0.28332522816E+03  0.28584019084E+03  0.00000000000E+00 0. -1.
         -2    1    3    3    0  502  0.22973333055E+02 -0.30060867498E+02 -0.26104953820E+03  0.26377697243E+03  0.00000000000E+00 0.  1.
<mgrwt>
<rscale>  0 0.75730706E+02</rscale>
<asrwt>0</asrwt>
<pdfrwt beam="2">  1        2 0.84153280E-01 0.75730706E+02</pdfrwt>
<pdfrwt beam="1">  1       -2 0.40326104E-03 0.75730706E+02</pdfrwt>
<totfact> 0.36044370E+05</totfact>
</mgrwt>
</event>
<event>
 5    1  0.4059427E+001  0.9094076E+02  0.7546771E-02  0.1300589E+00
          4   -1    0    0  501    0  0.00000000000E+00  0.00000000000E+00  0.50426695930E+03  0.50426695930E+03  0.00000000000E+00 0. -1.
         -4   -1    0    0    0  501 -0.00000000000E+00 -0.00000000000E+00 -0.41001212543E+01  0.41001212543E+01  0.00000000000E+00 0.  1.
         23    2    1    2    0    0  0.00000000000E+00  0.00000000000E+00  0.50016683805E+03  0.50836708055E+03  0.90940764845E+02 0.  0.
          2    1    3    3  502    0 -0.21963483792E+02  0.39157101614E+02  0.29034854462E+03  0.29379916710E+03  0.00000000000E+00 0. -1.
         -2    1    3    3    0  502  0.21963483792E+02 -0.39157101614E+02  0.20981829343E+03  0.21456791346E+03  0.00000000000E+00 0.  1.
<mgrwt>
<rscale>  0 0.90940765E+02</rscale>
<asrwt>0</asrwt>
<pdfrwt beam="1">  1        4 0.77579483E-01 0.90940765E+02</pdfrwt>
<pdfrwt beam="2">  1       -4 0.63078828E-03 0.90940765E+02</pdfrwt>
<totfact> 0.13005641E+04</totfact>
</mgrwt>
</event>
<event>
 5    1  0.4059427E+001  0.9033935E+02  0.7546771E-02  0.1302032E+00
          2   -1    0    0  501    0  0.00000000000E+00  0.00000000000E+00  0.12787967696E+03  0.12787967696E+03  0.00000000000E+00 0. -1.
         -2   -1    0    0    0  501 -0.00000000000E+00 -0.00000000000E+00 -0.15954838680E+02  0.15954838680E+02  0.00000000000E+00 0.  1.
         23    2    1    2    0    0  0.00000000000E+00  0.00000000000E+00  0.11192483828E+03  0.14383451564E+03  0.90339351699E+02 0.  0.
          2    1    3    3  502    0 -0.35852068163E+02 -0.26096132242E+02  0.69651339630E+02  0.82569292245E+02  0.00000000000E+00 0. -1.
         -2    1    3    3    0  502  0.35852068163E+02  0.26096132242E+02  0.42273498654E+02  0.61265223398E+02  0.00000000000E+00 0.  1.
<mgrwt>
<rscale>  0 0.90339352E+02</rscale>
<asrwt>0</asrwt>
<pdfrwt beam="1">  1        2 0.19673796E-01 0.90339352E+02</pdfrwt>
<pdfrwt beam="2">  1       -2 0.24545907E-02 0.90339352E+02</pdfrwt>
<totfact> 0.13594031E+05</totfact>
</mgrwt>
</event>
<event>
 5    1  0.4059427E+001  0.9896764E+02  0.7546771E-02  0.1282482E+00
         -3   -1    0    0    0  501 -0.00000000000E+00  0.00000000000E+00  0.32050876445E+01  0.32050876445E+01  0.00000000000E+00 0.  1.
          3   -1    0    0  501    0  0.00000000000E+00 -0.00000000000E+00 -0.76398796474E+03  0.76398796474E+03  0.00000000000E+00 0. -1.
         23    2    1    2    0    0  0.00000000000E+00  0.00000000000E+00 -0.76078287710E+03  0.76719305239E+03  0.98967638880E+02 0.  0.
          2    1    3    3  502    0  0.92595727857E+00  0.34869797414E+02 -0.65247174169E+03  0.65340350004E+03  0.00000000000E+00 0. -1.
         -2    1    3    3    0  502 -0.92595727857E+00 -0.34869797414E+02 -0.10831113541E+03  0.11378955234E+03  0.00000000000E+00 0.  1.
<mgrwt>
<rscale>  0 0.98967639E+02</rscale>
<asrwt>0</asrwt>
<pdfrwt beam="2">  1        3 0.11753665E+00 0.98967639E+02</pdfrwt>
<pdfrwt beam="1">  1       -3 0.49309026E-03 0.98967639E+02</pdfrwt>
<totfact> 0.10345530E+04</totfact>
</mgrwt>
</event>
<event>
 5    1  0.4059427E+001  0.9327779E+02  0.7546771E-02  0.1295103E+00
         -1   -1    0    0    0  501 -0.00000000000E+00  0.00000000000E+00  0.15535234465E+01  0.15535234465E+01  0.00000000000E+00 0.  1.
          1   -1    0    0  501    0  0.00000000000E+00 -0.00000000000E+00 -0.14001632425E+04  0.14001632425E+04  0.00000000000E+00 0. -1.
         23    2    1    2    0    0  0.00000000000E+00  0.00000000000E+00 -0.13986097191E+04  0.14017167660E+04  0.93277787844E+02 0.  0.
          2    1    3    3  502    0 -0.41289992982E+01 -0.38469389012E+02 -0.10906635466E+04  0.10913495839E+04  0.00000000000E+00 0. -1.
         -2    1    3    3    0  502  0.41289992982E+01  0.38469389012E+02 -0.30794617251E+03  0.31036718205E+03  0.00000000000E+00 0.  1.
<mgrwt>
<rscale>  0 0.93277788E+02</rscale>
<asrwt>0</asrwt>
<pdfrwt beam="2">  1        1 0.21541049E+00 0.93277788E+02</pdfrwt>
<pdfrwt beam="1">  1       -1 0.23900277E-03 0.93277788E+02</pdfrwt>
<totfact> 0.10960560E+05</totfact>
</mgrwt>
</event>
<event>
 5    1  0.4059427E+001  0.9061751E+02  0.7546771E-02  0.1301363E+00
          1   -1    0    0  501    0  0.00000000000E+00  0.00000000000E+00  0.12235171402E+04  0.12235171402E+04  0.00000000000E+00 0. -1.
         -1   -1    0    0    0  501 -0.00000000000E+00 -0.00000000000E+00 -0.16778539722E+01  0.16778539722E+01  0.00000000000E+00 0.  1.
         23    2    1    2    0    0  0.00000000000E+00  0.00000000000E+00  0.12218392862E+04  0.12251949942E+04  0.90617505896E+02 0.  0.
          2    1    3    3  502    0  0.23889853904E+02 -0.71916983521E+01  0.11222805750E+04  0.11225578536E+04  0.00000000000E+00 0. -1.
         -2    1    3    3    0  502 -0.23889853904E+02  0.71916983521E+01  0.99558711252E+02  0.10263714060E+03  0.00000000000E+00 0.  1.
<mgrwt>
<rscale>  0 0.90617506E+02</rscale>
<asrwt>0</asrwt>
<pdfrwt beam="1">  1        1 0.18823269E+00 0.90617506E+02</pdfrwt>
<pdfrwt beam="2">  1       -1 0.25813236E-03 0.90617506E+02</pdfrwt>
<totfact> 0.12818310E+05</totfact>
</mgrwt>
</event>
<event>
 5    1  0.4059427E+001  0.8777805E+02  0.7546771E-02  0.1308323E+00
          1   -1    0    0  501    0  0.00000000000E+00  0.00000000000E+00  0.10866525384E+02  0.10866525384E+02  0.00000000000E+00 0. -1.
         -1   -1    0    0    0  501 -0.00000000000E+00 -0.00000000000E+00 -0.17726424516E+03  0.17726424516E+03  0.00000000000E+00 0.  1.
         23    2    1    2    0    0  0.00000000000E+00  0.00000000000E+00 -0.16639771977E+03  0.18813077054E+03  0.87778047817E+02 0.  0.
          2    1    3    3  502    0 -0.29896320223E+02  0.98272463324E+01 -0.17631999126E+02  0.36072872446E+02  0.00000000000E+00 0. -1.
         -2    1    3    3    0  502  0.29896320223E+02 -0.98272463324E+01 -0.14876572065E+03  0.15205789809E+03  0.00000000000E+00 0.  1.
<mgrwt>
<rscale>  0 0.87778048E+02</rscale>
<asrwt>0</asrwt>
<pdfrwt beam="1">  1        1 0.16717732E-02 0.87778048E+02</pdfrwt>
<pdfrwt beam="2">  1       -1 0.27271422E-01 0.87778048E+02</pdfrwt>
<totfact> 0.79198952E+04</totfact>
</mgrwt>
</event>
<event>
 5    1  0.4059427E+001  0.9137749E+02  0.7546771E-02  0.1299550E+00
          1   -1    0    0  501    0  0.00000000000E+00  0.00000000000E+00  0.13205654851E+04  0.13205654851E+04  0.00000000000E+00 0. -1.
         -1   -1    0    0    0  501 -0.00000000000E+00 -0.00000000000E+00 -0.15807331317E+01  0.15807331317E+01  0.00000000000E+00 0.  1.
         23    2    1    2    0    0  0.00000000000E+00  0.00000000000E+00  0.13189847520E+04  0.13221462183E+04  0.91377494274E+02 0.  0.
          2    1    3    3  502    0  0.36945418577E+02 -0.25098989462E+02  0.79868018866E+03  0.79992810113E+03  0.00000000000E+00 0. -1.
         -2    1    3    3    0  502 -0.36945418577E+02  0.25098989462E+02  0.52030456336E+03  0.52221811715E+03  0.00000000000E+00 0.  1.
<mgrwt>
<rscale>  0 0.91377494E+02</rscale>
<asrwt>0</asrwt>
<pdfrwt beam="1">  1        1 0.20316304E+00 0.91377494E+02</pdfrwt>
<pdfrwt beam="2">  1       -1 0.24319077E-03 0.91377494E+02</pdfrwt>
<totfact> 0.12023709E+05</totfact>
</mgrwt>
</event>
<event>
 5    1  0.4059427E+001  0.9244897E+02  0.7546771E-02  0.1297027E+00
         -2   -1    0    0    0  501 -0.00000000000E+00  0.00000000000E+00  0.76559338240E+02  0.76559338240E+02  0.00000000000E+00 0.  1.
          2   -1    0    0  501    0  0.00000000000E+00 -0.00000000000E+00 -0.27909107651E+02  0.27909107651E+02  0.00000000000E+00 0. -1.
         23    2    1    2    0    0  0.00000000000E+00  0.00000000000E+00  0.48650230589E+02  0.10446844589E+03  0.92448965655E+02 0.  0.
          2    1    3    3  502    0  0.36001504742E+02  0.74131660436E+01 -0.73482869117E+01  0.37484139246E+02  0.00000000000E+00 0. -1.
         -2    1    3    3    0  502 -0.36001504742E+02 -0.74131660436E+01  0.55998517500E+02  0.66984306645E+02  0.00000000000E+00 0.  1.
<mgrwt>
<rscale>  0 0.92448966E+02</rscale>
<asrwt>0</asrwt>
<pdfrwt beam="2">  1        2 0.42937089E-02 0.92448966E+02</pdfrwt>
<pdfrwt beam="1">  1       -2 0.11778360E-01 0.92448966E+02</pdfrwt>
<totfact> 0.83235504E+04</totfact>
</mgrwt>
</event>
<event>
 5    1  0.4059427E+001  0.9572457E+02  0.7546771E-02  0.1289552E+00
         -2   -1    0    0    0  501 -0.00000000000E+00  0.00000000000E+00  0.34046007357E+01  0.34046007357E+01  0.00000000000E+00 0. -1.
          2   -1    0    0  501    0  0.00000000000E+00 -0.00000000000E+00 -0.67285380535E+03  0.67285380535E+03  0.00000000000E+00 0.  1.
         23    2    1    2    0    0  0.00000000000E+00  0.00000000000E+00 -0.66944920461E+03  0.67625840609E+03  0.95724574916E+02 0.  0.
          2    1    3    3  502    0  0.44545976417E+02 -0.30768242780E+00 -0.45837774926E+03  0.46053729458E+03  0.00000000000E+00 0.  1.
         -2    1    3    3    0  502 -0.44545976417E+02  0.30768242780E+00 -0.21107145535E+03  0.21572111150E+03  0.00000000000E+00 0. -1.
<mgrwt>
<rscale>  0 0.95724575E+02</rscale>
<asrwt>0</asrwt>
<pdfrwt beam="2">  1        2 0.10351599E+00 0.95724575E+02</pdfrwt>
<pdfrwt beam="1">  1       -2 0.52378463E-03 0.95724575E+02</pdfrwt>
<totfact> 0.20651794E+05</totfact>
</mgrwt>
</event>
<event>
 5    1  0.4059427E+001  0.9088688E+02  0.7546771E-02  0.1300718E+00
         -2   -1    0    0    0  501 -0.00000000000E+00  0.00000000000E+00  0.18197089291E+01  0.18197089291E+01  0.00000000000E+00 0.  1.
          2   -1    0    0  501    0  0.00000000000E+00 -0.00000000000E+00 -0.11348552371E+04  0.11348552371E+04  0.00000000000E+00 0. -1.
         23    2    1    2    0    0  0.00000000000E+00  0.00000000000E+00 -0.11330355282E+04  0.11366749460E+04  0.90886879321E+02 0.  0.
          2    1    3    3  502    0 -0.46136030156E+01 -0.19710003134E+02 -0.10753542696E+04  0.10755447804E+04  0.00000000000E+00 0. -1.
         -2    1    3    3    0  502  0.46136030156E+01  0.19710003134E+02 -0.57681258580E+02  0.61130165611E+02  0.00000000000E+00 0.  1.
<mgrwt>
<rscale>  0 0.90886879E+02</rscale>
<asrwt>0</asrwt>
<pdfrwt beam="2">  1        2 0.17459262E+00 0.90886879E+02</pdfrwt>
<pdfrwt beam="1">  1       -2 0.27995601E-03 0.90886879E+02</pdfrwt>
<totfact> 0.25194891E+05</totfact>
</mgrwt>
</event>
<event>
 5    1  0.4059427E+001  0.8805851E+02  0.7546771E-02  0.1307623E+00
          1   -1    0    0  501    0  0.00000000000E+00  0.00000000000E+00  0.75275819340E+03  0.75275819340E+03  0.00000000000E+00 0. -1.
         -1   -1    0    0    0  501 -0.00000000000E+00 -0.00000000000E+00 -0.25752962968E+01  0.25752962968E+01  0.00000000000E+00 0.  1.
         23    2    1    2    0    0  0.00000000000E+00  0.00000000000E+00  0.75018289710E+03  0.75533348969E+03  0.88058512088E+02 0.  0.
          2    1    3    3  502    0  0.27554079791E+02 -0.21475529138E+02  0.60495753208E+03  0.60596537961E+03  0.00000000000E+00 0. -1.
         -2    1    3    3    0  502 -0.27554079791E+02  0.21475529138E+02  0.14522536502E+03  0.14936811008E+03  0.00000000000E+00 0.  1.
<mgrwt>
<rscale>  0 0.88058512E+02</rscale>
<asrwt>0</asrwt>
<pdfrwt beam="1">  1        1 0.11580878E+00 0.88058512E+02</pdfrwt>
<pdfrwt beam="2">  1       -1 0.39620003E-03 0.88058512E+02</pdfrwt>
<totfact> 0.15553181E+05</totfact>
</mgrwt>
</event>
<event>
 5    1  0.4059427E+001  0.9154273E+02  0.7546771E-02  0.1299158E+00
          1   -1    0    0  501    0  0.00000000000E+00  0.00000000000E+00  0.41131545681E+02  0.41131545681E+02  0.00000000000E+00 0. -1.
         -1   -1    0    0    0  501 -0.00000000000E+00 -0.00000000000E+00 -0.50934577702E+02  0.50934577702E+02  0.00000000000E+00 0.  1.
         23    2    1    2    0    0  0.00000000000E+00  0.00000000000E+00 -0.98030320204E+01  0.92066123383E+02  0.91542731213E+02 0.  0.
          2    1    3    3  502    0  0.31751923719E+01  0.37568102904E+02  0.21200169590E+02  0.43253802065E+02  0.00000000000E+00 0. -1.
         -2    1    3    3    0  502 -0.31751923719E+01 -0.37568102904E+02 -0.31003201610E+02  0.48812321318E+02  0.00000000000E+00 0.  1.
<mgrwt>
<rscale>  0 0.91542731E+02</rscale>
<asrwt>0</asrwt>
<pdfrwt beam="1">  1        1 0.63279301E-02 0.91542731E+02</pdfrwt>
<pdfrwt beam="2">  1       -1 0.78360889E-02 0.91542731E+02</pdfrwt>
<totfact> 0.90024091E+04</totfact>
</mgrwt>
</event>
<event>
 5    1  0.4059427E+001  0.9360962E+02  0.7546771E-02  0.1294339E+00
          4   -1    0    0  501    0  0.00000000000E+00  0.00000000000E+00  0.31546382413E+01  0.31546382413E+01  0.00000000000E+00 0. -1.
         -4   -1    0    0    0  501 -0.00000000000E+00 -0.00000000000E+00 -0.69443473140E+03  0.69443473140E+03  0.00000000000E+00 0.  1.
         23    2    1    2    0    0  0.00000000000E+00  0.00000000000E+00 -0.69128009316E+03  0.69758936965E+03  0.93609622577E+02 0.  0.
          2    1    3    3  502    0 -0.29966400825E+02  0.35653365543E+02 -0.31105172447E+03  0.31451919329E+03  0.00000000000E+00 0. -1.
         -2    1    3    3    0  502  0.29966400825E+02 -0.35653365543E+02 -0.38022836869E+03  0.38307017635E+03  0.00000000000E+00 0.  1.
<mgrwt>
<rscale>  0 0.93609623E+02</rscale>
<asrwt>0</asrwt>
<pdfrwt beam="1">  1        4 0.48532893E-03 0.93609623E+02</pdfrwt>
<pdfrwt beam="2">  1       -4 0.10683612E+00 0.93609623E+02</pdfrwt>
<totfact> 0.93971255E+03</totfact>
</mgrwt>
</event>
<event>
 5    1  0.4059427E+001  0.9260174E+02  0.7546771E-02  0.1296671E+00
          2   -1    0    0  501    0  0.00000000000E+00  0.00000000000E+00  0.28472739647E+03  0.28472739647E+03  0.00000000000E+00 0. -1.
         -2   -1    0    0    0  501 -0.00000000000E+00 -0.00000000000E+00 -0.75292030615E+01  0.75292030615E+01  0.00000000000E+00 0.  1.
         23    2    1    2    0    0  0.00000000000E+00  0.00000000000E+00  0.27719819340E+03  0.29225659953E+03  0.92601736164E+02 0.  0.
          2    1    3    3  502    0 -0.25825878278E+02 -0.36129154788E+02  0.17992764257E+03  0.18532740860E+03  0.00000000000E+00 0. -1.
         -2    1    3    3    0  502  0.25825878278E+02  0.36129154788E+02  0.97270550830E+02  0.10692919093E+03  0.00000000000E+00 0.  1.
<mgrwt>
<rscale>  0 0.92601736E+02</rscale>
<asrwt>0</asrwt>
<pdfrwt beam="1">  1        2 0.43804206E-01 0.92601736E+02</pdfrwt>
<pdfrwt beam="2">  1       -2 0.11583392E-02 0.92601736E+02</pdfrwt>
<totfact> 0.16903536E+05</totfact>
</mgrwt>
</event>
<event>
 5    1  0.4059427E+001  0.9157869E+02  0.7546771E-02  0.1299073E+00
          1   -1    0    0  501    0  0.00000000000E+00  0.00000000000E+00  0.66836937328E+02  0.66836937328E+02  0.00000000000E+00 0. -1.
         -1   -1    0    0    0  501 -0.00000000000E+00 -0.00000000000E+00 -0.31369838715E+02  0.31369838715E+02  0.00000000000E+00 0.  1.
         23    2    1    2    0    0  0.00000000000E+00  0.00000000000E+00  0.35467098612E+02  0.98206776043E+02  0.91578686258E+02 0.  0.
          2    1    3    3  502    0  0.12106868406E+02  0.43179113185E+02  0.27658205249E+02  0.52687649365E+02  0.00000000000E+00 0.  1.
         -2    1    3    3    0  502 -0.12106868406E+02 -0.43179113185E+02  0.78088933631E+01  0.45519126678E+02  0.00000000000E+00 0. -1.
<mgrwt>
<rscale>  0 0.91578686E+02</rscale>
<asrwt>0</asrwt>
<pdfrwt beam="1">  1        1 0.10282606E-01 0.91578686E+02</pdfrwt>
<pdfrwt beam="2">  1       -1 0.48261290E-02 0.91578686E+02</pdfrwt>
<totfact> 0.96783228E+04</totfact>
</mgrwt>
</event>
<event>
 5    1  0.4059427E+001  0.9080012E+02  0.7546771E-02  0.1300926E+00
         -1   -1    0    0    0  501 -0.00000000000E+00  0.00000000000E+00  0.47973269352E+01  0.47973269352E+01  0.00000000000E+00 0.  1.
          1   -1    0    0  501    0  0.00000000000E+00 -0.00000000000E+00 -0.42964869431E+03  0.42964869431E+03  0.00000000000E+00 0. -1.
         23    2    1    2    0    0  0.00000000000E+00  0.00000000000E+00 -0.42485136737E+03  0.43444602124E+03  0.90800115724E+02 0.  0.
          2    1    3    3  502    0  0.41707759518E+02  0.37977447278E+00 -0.29821416566E+03  0.30111687106E+03  0.00000000000E+00 0. -1.
         -2    1    3    3    0  502 -0.41707759518E+02 -0.37977447278E+00 -0.12663720171E+03  0.13332915019E+03  0.00000000000E+00 0.  1.
<mgrwt>
<rscale>  0 0.90800116E+02</rscale>
<asrwt>0</asrwt>
<pdfrwt beam="2">  1        1 0.66099822E-01 0.90800116E+02</pdfrwt>
<pdfrwt beam="1">  1       -1 0.73805004E-03 0.90800116E+02</pdfrwt>
<totfact> 0.13793038E+05</totfact>
</mgrwt>
</event>
<event>
 5    1  0.4059427E+001  0.9580494E+02  0.7546771E-02  0.1289373E+00
         -3   -1    0    0    0  501 -0.00000000000E+00  0.00000000000E+00  0.20438972838E+02  0.20438972838E+02  0.00000000000E+00 0.  1.
          3   -1    0    0  501    0  0.00000000000E+00 -0.00000000000E+00 -0.11226819434E+03  0.11226819434E+03  0.00000000000E+00 0. -1.
         23    2    1    2    0    0  0.00000000000E+00  0.00000000000E+00 -0.91829221500E+02  0.13270716718E+03  0.95804938800E+02 0.  0.
          2    1    3    3  502    0 -0.22544024580E+02 -0.27067115936E+02 -0.90880422571E+02  0.97468523207E+02  0.00000000000E+00 0. -1.
         -2    1    3    3    0  502  0.22544024580E+02  0.27067115936E+02 -0.94879892861E+00  0.35238643969E+02  0.00000000000E+00 0.  1.
<mgrwt>
<rscale>  0 0.95804939E+02</rscale>
<asrwt>0</asrwt>
<pdfrwt beam="2">  1        3 0.17272030E-01 0.95804939E+02</pdfrwt>
<pdfrwt beam="1">  1       -3 0.31444574E-02 0.95804939E+02</pdfrwt>
<totfact> 0.28310549E+04</totfact>
</mgrwt>
</event>
<event>
 5    1  0.4059427E+001  0.9067294E+02  0.7546771E-02  0.1301230E+00
          1   -1    0    0  501    0  0.00000000000E+00  0.00000000000E+00  0.72483871402E+03  0.72483871402E+03  0.00000000000E+00 0. -1.
         -1   -1    0    0    0  501 -0.00000000000E+00 -0.00000000000E+00 -0.28356588413E+01  0.28356588413E+01  0.00000000000E+00 0.  1.
         23    2    1    2    0    0  0.00000000000E+00  0.00000000000E+00  0.72200305518E+03  0.72767437286E+03  0.90672935497E+02 0.  0.
          2    1    3    3  502    0  0.19353912685E+02  0.18958734348E+02  0.65272712953E+03  0.65328914974E+03  0.00000000000E+00 0. -1.
         -2    1    3    3    0  502 -0.19353912685E+02 -0.18958734348E+02  0.69275925652E+02  0.74385223124E+02  0.00000000000E+00 0.  1.
<mgrwt>
<rscale>  0 0.90672935E+02</rscale>
<asrwt>0</asrwt>
<pdfrwt beam="1">  1        1 0.11151350E+00 0.90672935E+02</pdfrwt>
<pdfrwt beam="2">  1       -1 0.43625578E-03 0.90672935E+02</pdfrwt>
<totfact> 0.14418221E+05</totfact>
</mgrwt>
</event>
<event>
 5    1  0.4059427E+001  0.9093021E+02  0.7546771E-02  0.1300615E+00
          1   -1    0    0  501    0  0.00000000000E+00  0.00000000000E+00  0.42844568046E+01  0.42844568046E+01  0.00000000000E+00 0. -1.
         -1   -1    0    0    0  501 -0.00000000000E+00 -0.00000000000E+00 -0.48245923924E+03  0.48245923924E+03  0.00000000000E+00 0.  1.
         23    2    1    2    0    0  0.00000000000E+00  0.00000000000E+00 -0.47817478244E+03  0.48674369605E+03  0.90930209952E+02 0.  0.
          2    1    3    3  502    0  0.22878273040E+01 -0.41205160814E+02 -0.13696317936E+03  0.14304548903E+03  0.00000000000E+00 0. -1.
         -2    1    3    3    0  502 -0.22878273040E+01  0.41205160814E+02 -0.34121160308E+03  0.34369820702E+03  0.00000000000E+00 0.  1.
<mgrwt>
<rscale>  0 0.90930210E+02</rscale>
<asrwt>0</asrwt>
<pdfrwt beam="1">  1        1 0.65914734E-03 0.90930210E+02</pdfrwt>
<pdfrwt beam="2">  1       -1 0.74224482E-01 0.90930210E+02</pdfrwt>
<totfact> 0.48416104E+04</totfact>
</mgrwt>
</event>
<event>
 5    1  0.4059427E+001  0.9170225E+02  0.7546771E-02  0.1298781E+00
          2   -1    0    0  501    0  0.00000000000E+00  0.00000000000E+00  0.68954063174E+03  0.68954063174E+03  0.00000000000E+00 0. -1.
         -2   -1    0    0    0  501 -0.00000000000E+00 -0.00000000000E+00 -0.30488787765E+01  0.30488787765E+01  0.00000000000E+00 0.  1.
         23    2    1    2    0    0  0.00000000000E+00  0.00000000000E+00  0.68649175296E+03  0.69258951051E+03  0.91702252920E+02 0.  0.
          2    1    3    3  502    0  0.30634657313E+02 -0.32694872422E+02  0.26967539827E+03  0.27337201273E+03  0.00000000000E+00 0. -1.
         -2    1    3    3    0  502 -0.30634657313E+02  0.32694872422E+02  0.41681635469E+03  0.41921749778E+03  0.00000000000E+00 0.  1.
<mgrwt>
<rscale>  0 0.91702253E+02</rscale>
<asrwt>0</asrwt>
<pdfrwt beam="1">  1        2 0.10608305E+00 0.91702253E+02</pdfrwt>
<pdfrwt beam="2">  1       -2 0.46905882E-03 0.91702253E+02</pdfrwt>
<totfact> 0.23274617E+05</totfact>
</mgrwt>
</event>
<event>
 5    1  0.4059427E+001  0.9290771E+02  0.7546771E-02  0.1295959E+00
         -1   -1    0    0    0  501 -0.00000000000E+00  0.00000000000E+00  0.14078852281E+03  0.14078852281E+03  0.00000000000E+00 0.  1.
          1   -1    0    0  501    0  0.00000000000E+00 -0.00000000000E+00 -0.15327675112E+02  0.15327675112E+02  0.00000000000E+00 0. -1.
         23    2    1    2    0    0  0.00000000000E+00  0.00000000000E+00  0.12546084770E+03  0.15611619792E+03  0.92907711995E+02 0.  0.
          2    1    3    3  502    0 -0.10595664440E+02  0.27239054859E+02  0.20582646003E+01  0.29299670096E+02  0.00000000000E+00 0. -1.
         -2    1    3    3    0  502  0.10595664440E+02 -0.27239054859E+02  0.12340258310E+03  0.12681652782E+03  0.00000000000E+00 0.  1.
<mgrwt>
<rscale>  0 0.92907712E+02</rscale>
<asrwt>0</asrwt>
<pdfrwt beam="2">  1        1 0.23581040E-02 0.92907712E+02</pdfrwt>
<pdfrwt beam="1">  1       -1 0.21659772E-01 0.92907712E+02</pdfrwt>
<totfact> 0.72268208E+04</totfact>
</mgrwt>
</event>
<event>
 5    1  0.4059427E+001  0.8955403E+02  0.7546771E-02  0.1303935E+00
         -1   -1    0    0    0  501 -0.00000000000E+00  0.00000000000E+00  0.85669218951E+01  0.85669218951E+01  0.00000000000E+00 0.  1.
          1   -1    0    0  501    0  0.00000000000E+00 -0.00000000000E+00 -0.23403749611E+03  0.23403749611E+03  0.00000000000E+00 0. -1.
         23    2    1    2    0    0  0.00000000000E+00  0.00000000000E+00 -0.22547057422E+03  0.24260441801E+03  0.89554027262E+02 0.  0.
          2    1    3    3  502    0  0.23116665392E+02  0.16741929551E+01 -0.21652318168E+03  0.21776012341E+03  0.00000000000E+00 0. -1.
         -2    1    3    3    0  502 -0.23116665392E+02 -0.16741929551E+01 -0.89473925329E+01  0.24844294597E+02  0.00000000000E+00 0.  1.
<mgrwt>
<rscale>  0 0.89554027E+02</rscale>
<asrwt>0</asrwt>
<pdfrwt beam="2">  1        1 0.36005772E-01 0.89554027E+02</pdfrwt>
<pdfrwt beam="1">  1       -1 0.13179879E-02 0.89554027E+02</pdfrwt>
<totfact> 0.12808613E+05</totfact>
</mgrwt>
</event>
<event>
 5    1  0.4059427E+001  0.9250590E+02  0.7546771E-02  0.1296894E+00
         -2   -1    0    0    0  501 -0.00000000000E+00  0.00000000000E+00  0.45828167309E+01  0.45828167309E+01  0.00000000000E+00 0.  1.
          2   -1    0    0  501    0  0.00000000000E+00 -0.00000000000E+00 -0.46681667210E+03  0.46681667210E+03  0.00000000000E+00 0. -1.
         23    2    1    2    0    0  0.00000000000E+00  0.00000000000E+00 -0.46223385537E+03  0.47139948883E+03  0.92505897221E+02 0.  0.
          2    1    3    3  502    0 -0.31287258212E+02 -0.31407178003E+02 -0.29834243939E+03  0.30161816009E+03  0.00000000000E+00 0.  1.
         -2    1    3    3    0  502  0.31287258212E+02  0.31407178003E+02 -0.16389141598E+03  0.16978132874E+03  0.00000000000E+00 0. -1.
<mgrwt>
<rscale>  0 0.92505897E+02</rscale>
<asrwt>0</asrwt>
<pdfrwt beam="2">  1        2 0.71817966E-01 0.92505897E+02</pdfrwt>
<pdfrwt beam="1">  1       -2 0.70504857E-03 0.92505897E+02</pdfrwt>
<totfact> 0.20271913E+05</totfact>
</mgrwt>
</event>
<event>
 5    1  0.4059427E+001  0.9046958E+02  0.7546771E-02  0.1301719E+00
         -2   -1    0    0    0  501 -0.00000000000E+00  0.00000000000E+00  0.40721198442E+02  0.40721198442E+02  0.00000000000E+00 0.  1.
          2   -1    0    0  501    0  0.00000000000E+00 -0.00000000000E+00 -0.50248677570E+02  0.50248677570E+02  0.00000000000E+00 0. -1.
         23    2    1    2    0    0  0.00000000000E+00  0.00000000000E+00 -0.95274791271E+01  0.90969876012E+02  0.90469583193E+02 0.  0.
          2    1    3    3  502    0  0.24205824349E+02 -0.18759590784E+02  0.28712136119E+02  0.41978934472E+02  0.00000000000E+00 0.  1.
         -2    1    3    3    0  502 -0.24205824349E+02  0.18759590784E+02 -0.38239615247E+02  0.48990941541E+02  0.00000000000E+00 0. -1.
<mgrwt>
<rscale>  0 0.90469583E+02</rscale>
<asrwt>0</asrwt>
<pdfrwt beam="2">  1        2 0.77305658E-02 0.90469583E+02</pdfrwt>
<pdfrwt beam="1">  1       -2 0.62647998E-02 0.90469583E+02</pdfrwt>
<totfact> 0.10347768E+05</totfact>
</mgrwt>
</event>
<event>
 5    1  0.4059427E+001  0.9044680E+02  0.7546771E-02  0.1301773E+00
          2   -1    0    0  501    0  0.00000000000E+00  0.00000000000E+00  0.15115888360E+03  0.15115888360E+03  0.00000000000E+00 0. -1.
         -2   -1    0    0    0  501 -0.00000000000E+00 -0.00000000000E+00 -0.13529842204E+02  0.13529842204E+02  0.00000000000E+00 0.  1.
         23    2    1    2    0    0  0.00000000000E+00  0.00000000000E+00  0.13762904139E+03  0.16468872580E+03  0.90446798567E+02 0.  0.
          2    1    3    3  502    0 -0.16376968723E+02 -0.19149863014E+02  0.43655416312E+00  0.25201447132E+02  0.00000000000E+00 0.  1.
         -2    1    3    3    0  502  0.16376968723E+02  0.19149863014E+02  0.13719248723E+03  0.13948727867E+03  0.00000000000E+00 0. -1.
<mgrwt>
<rscale>  0 0.90446799E+02</rscale>
<asrwt>0</asrwt>
<pdfrwt beam="1">  1        2 0.23255212E-01 0.90446799E+02</pdfrwt>
<pdfrwt beam="2">  1       -2 0.20815143E-02 0.90446799E+02</pdfrwt>
<totfact> 0.14326468E+05</totfact>
</mgrwt>
</event>
<event>
 5    1  0.4059427E+001  0.9694946E+02  0.7546771E-02  0.1286845E+00
          1   -1    0    0  501    0  0.00000000000E+00  0.00000000000E+00  0.23870547377E+02  0.23870547377E+02  0.00000000000E+00 0. -1.
         -1   -1    0    0    0  501 -0.00000000000E+00 -0.00000000000E+00 -0.98439280067E+02  0.98439280067E+02  0.00000000000E+00 0.  1.
         23    2    1    2    0    0  0.00000000000E+00  0.00000000000E+00 -0.74568732691E+02  0.12230982744E+03  0.96949461032E+02 0.  0.
          2    1    3    3  502    0  0.18509087623E+02  0.81427896195E+01  0.18295621359E+02  0.27269417089E+02  0.00000000000E+00 0. -1.
         -2    1    3    3    0  502 -0.18509087623E+02 -0.81427896195E+01 -0.92864354050E+02  0.95040410356E+02  0.00000000000E+00 0.  1.
<mgrwt>
<rscale>  0 0.96949461E+02</rscale>
<asrwt>0</asrwt>
<pdfrwt beam="1">  1        1 0.36723919E-02 0.96949461E+02</pdfrwt>
<pdfrwt beam="2">  1       -1 0.15144504E-01 0.96949461E+02</pdfrwt>
<totfact> 0.69660506E+04</totfact>
</mgrwt>
</event>
<event>
 5    1  0.4059427E+001  0.9347455E+02  0.7546771E-02  0.1294649E+00
         -2   -1    0    0    0  501 -0.00000000000E+00  0.00000000000E+00  0.11452672646E+01  0.11452672646E+01  0.00000000000E+00 0.  1.
          2   -1    0    0  501    0  0.00000000000E+00 -0.00000000000E+00 -0.19073040902E+04  0.19073040902E+04  0.00000000000E+00 0. -1.
         23    2    1    2    0    0  0.00000000000E+00  0.00000000000E+00 -0.19061588229E+04  0.19084493574E+04  0.93474551361E+02 0.  0.
          2    1    3    3  502    0 -0.22000279829E+02 -0.22840957063E+02 -0.25214090077E+03  0.25412743943E+03  0.00000000000E+00 0. -1.
         -2    1    3    3    0  502  0.22000279829E+02  0.22840957063E+02 -0.16540179221E+04  0.16543219180E+04  0.00000000000E+00 0.  1.
<mgrwt>
<rscale>  0 0.93474551E+02</rscale>
<asrwt>0</asrwt>
<pdfrwt beam="2">  1        2 0.29343376E+00 0.93474551E+02</pdfrwt>
<pdfrwt beam="1">  1       -2 0.17619355E-03 0.93474551E+02</pdfrwt>
<totfact> 0.19209213E+05</totfact>
</mgrwt>
</event>
<event>
 5    1  0.4059427E+001  0.9089779E+02  0.7546771E-02  0.1300692E+00
          2   -1    0    0  501    0  0.00000000000E+00  0.00000000000E+00  0.56173358864E+03  0.56173358864E+03  0.00000000000E+00 0. -1.
         -2   -1    0    0    0  501 -0.00000000000E+00 -0.00000000000E+00 -0.36771918174E+01  0.36771918174E+01  0.00000000000E+00 0.  1.
         23    2    1    2    0    0  0.00000000000E+00  0.00000000000E+00  0.55805639682E+03  0.56541078045E+03  0.90897792177E+02 0.  0.
          2    1    3    3  502    0  0.43037281129E+02  0.10253123375E+02  0.34375153637E+03  0.34658686193E+03  0.00000000000E+00 0. -1.
         -2    1    3    3    0  502 -0.43037281129E+02 -0.10253123375E+02  0.21430486045E+03  0.21882391852E+03  0.00000000000E+00 0.  1.
<mgrwt>
<rscale>  0 0.90897792E+02</rscale>
<asrwt>0</asrwt>
<pdfrwt beam="1">  1        2 0.86420484E-01 0.90897792E+02</pdfrwt>
<pdfrwt beam="2">  1       -2 0.56572226E-03 0.90897792E+02</pdfrwt>
<totfact> 0.22532013E+05</totfact>
</mgrwt>
</event>
<event>
 5    1  0.4059427E+001  0.9004739E+02  0.7546771E-02  0.1302737E+00
          1   -1    0    0  501    0  0.00000000000E+00  0.00000000000E+00  0.13556432210E+04  0.13556432210E+04  0.00000000000E+00 0. -1.
         -1   -1    0    0    0  501 -0.00000000000E+00 -0.00000000000E+00 -0.14953295114E+01  0.14953295114E+01  0.00000000000E+00 0.  1.
         23    2    1    2    0    0  0.00000000000E+00  0.00000000000E+00  0.13541478915E+04  0.13571385505E+04  0.90047394528E+02 0.  0.
          2    1    3    3  502    0 -0.18760507046E+02 -0.35240997786E+02  0.99077913514E+03  0.99158316806E+03  0.00000000000E+00 0. -1.
         -2    1    3    3    0  502  0.18760507046E+02  0.35240997786E+02  0.36336875638E+03  0.36555538248E+03  0.00000000000E+00 0.  1.
<mgrwt>
<rscale>  0 0.90047395E+02</rscale>
<asrwt>0</asrwt>
<pdfrwt beam="1">  1        1 0.20855951E+00 0.90047395E+02</pdfrwt>
<pdfrwt beam="2">  1       -1 0.23005178E-03 0.90047395E+02</pdfrwt>
<totfact> 0.12296311E+05</totfact>
</mgrwt>
</event>
<event>
 5    1  0.4059427E+001  0.9401420E+02  0.7546771E-02  0.1293412E+00
         -1   -1    0    0    0  501 -0.00000000000E+00  0.00000000000E+00  0.13137025728E+04  0.13137025728E+04  0.00000000000E+00 0.  1.
          1   -1    0    0  501    0  0.00000000000E+00 -0.00000000000E+00 -0.16820148743E+01  0.16820148743E+01  0.00000000000E+00 0. -1.
         23    2    1    2    0    0  0.00000000000E+00  0.00000000000E+00  0.13120205580E+04  0.13153845877E+04  0.94014196120E+02 0.  0.
          2    1    3    3  502    0 -0.25243028264E+02  0.21915799668E+02  0.19362781476E+03  0.19649234947E+03  0.00000000000E+00 0. -1.
         -2    1    3    3    0  502  0.25243028264E+02 -0.21915799668E+02  0.11183927432E+04  0.11188922383E+04  0.00000000000E+00 0.  1.
<mgrwt>
<rscale>  0 0.94014196E+02</rscale>
<asrwt>0</asrwt>
<pdfrwt beam="2">  1        1 0.25877257E-03 0.94014196E+02</pdfrwt>
<pdfrwt beam="1">  1       -1 0.20210727E+00 0.94014196E+02</pdfrwt>
<totfact> 0.16101428E+04</totfact>
</mgrwt>
</event>
<event>
 5    1  0.4059427E+001  0.8983138E+02  0.7546771E-02  0.1303261E+00
         -2   -1    0    0    0  501 -0.00000000000E+00  0.00000000000E+00  0.62616664569E+01  0.62616664569E+01  0.00000000000E+00 0.  1.
          2   -1    0    0  501    0  0.00000000000E+00 -0.00000000000E+00 -0.32218568751E+03  0.32218568751E+03  0.00000000000E+00 0. -1.
         23    2    1    2    0    0  0.00000000000E+00  0.00000000000E+00 -0.31592402105E+03  0.32844735397E+03  0.89831382320E+02 0.  0.
          2    1    3    3  502    0  0.27243796309E+02  0.29769887171E+02 -0.23007007577E+03  0.23358234176E+03  0.00000000000E+00 0. -1.
         -2    1    3    3    0  502 -0.27243796309E+02 -0.29769887171E+02 -0.85853945285E+02  0.94865012204E+02  0.00000000000E+00 0.  1.
<mgrwt>
<rscale>  0 0.89831382E+02</rscale>
<asrwt>0</asrwt>
<pdfrwt beam="2">  1        2 0.49567016E-01 0.89831382E+02</pdfrwt>
<pdfrwt beam="1">  1       -2 0.96333356E-03 0.89831382E+02</pdfrwt>
<totfact> 0.19192946E+05</totfact>
</mgrwt>
</event>
<event>
 5    1  0.4059427E+001  0.9337460E+02  0.7546771E-02  0.1294879E+00
          2   -1    0    0  501    0  0.00000000000E+00  0.00000000000E+00  0.55762370437E+01  0.55762370437E+01  0.00000000000E+00 0. -1.
         -2   -1    0    0    0  501 -0.00000000000E+00 -0.00000000000E+00 -0.39089158404E+03  0.39089158404E+03  0.00000000000E+00 0.  1.
         23    2    1    2    0    0  0.00000000000E+00  0.00000000000E+00 -0.38531534700E+03  0.39646782108E+03  0.93374603207E+02 0.  0.
          2    1    3    3  502    0  0.76178536288E+01  0.35012098635E+02 -0.31974166810E+03  0.32174308550E+03  0.00000000000E+00 0.  1.
         -2    1    3    3    0  502 -0.76178536288E+01 -0.35012098635E+02 -0.65573678894E+02  0.74724735586E+02  0.00000000000E+00 0. -1.
<mgrwt>
<rscale>  0 0.93374603E+02</rscale>
<asrwt>0</asrwt>
<pdfrwt beam="1">  1        2 0.85788253E-03 0.93374603E+02</pdfrwt>
<pdfrwt beam="2">  1       -2 0.60137173E-01 0.93374603E+02</pdfrwt>
<totfact> 0.40766341E+04</totfact>
</mgrwt>
</event>
<event>
 5    1  0.4059427E+001  0.1005763E+03  0.7546771E-02  0.1279089E+00
          1   -1    0    0  501    0  0.00000000000E+00  0.00000000000E+00  0.12347160109E+04  0.12347160109E+04  0.00000000000E+00 0. -1.
         -1   -1    0    0    0  501 -0.00000000000E+00 -0.00000000000E+00 -0.20481635532E+01  0.20481635532E+01  0.00000000000E+00 0.  1.
         23    2    1    2    0    0  0.00000000000E+00  0.00000000000E+00  0.12326678474E+04  0.12367641745E+04  0.10057634577E+03 0.  0.
          2    1    3    3  502    0 -0.29176063908E+02 -0.26924703436E+02  0.99588761802E+03  0.99667864935E+03  0.00000000000E+00 0. -1.
         -2    1    3    3    0  502  0.29176063908E+02  0.26924703436E+02  0.23678022934E+03  0.24008552511E+03  0.00000000000E+00 0.  1.
<mgrwt>
<rscale>  0 0.10057635E+03</rscale>
<asrwt>0</asrwt>
<pdfrwt beam="1">  1        1 0.18995572E+00 0.10057635E+03</pdfrwt>
<pdfrwt beam="2">  1       -1 0.31510307E-03 0.10057635E+03</pdfrwt>
<totfact> 0.96730952E+04</totfact>
</mgrwt>
</event>
<event>
 5    1  0.4059427E+001  0.8982291E+02  0.7546771E-02  0.1303281E+00
          2   -1    0    0  501    0  0.00000000000E+00  0.00000000000E+00  0.27549287023E+03  0.27549287023E+03  0.00000000000E+00 0. -1.
         -2   -1    0    0    0  501 -0.00000000000E+00 -0.00000000000E+00 -0.73215646407E+01  0.73215646407E+01  0.00000000000E+00 0.  1.
         23    2    1    2    0    0  0.00000000000E+00  0.00000000000E+00  0.26817130559E+03  0.28281443487E+03  0.89822911497E+02 0.  0.
          2    1    3    3  502    0  0.23899431041E+02 -0.19532362225E+02  0.23680570313E+03  0.23880878755E+03  0.00000000000E+00 0. -1.
         -2    1    3    3    0  502 -0.23899431041E+02  0.19532362225E+02  0.31365602463E+02  0.44005647320E+02  0.00000000000E+00 0.  1.
<mgrwt>
<rscale>  0 0.89822911E+02</rscale>
<asrwt>0</asrwt>
<pdfrwt beam="1">  1        2 0.42383510E-01 0.89822911E+02</pdfrwt>
<pdfrwt beam="2">  1       -2 0.11263948E-02 0.89822911E+02</pdfrwt>
<totfact> 0.18112971E+05</totfact>
</mgrwt>
</event>
<event>
 5    1  0.4059427E+001  0.8870563E+02  0.7546771E-02  0.1306017E+00
          1   -1    0    0  501    0  0.00000000000E+00  0.00000000000E+00  0.27935663265E+03  0.27935663265E+03  0.00000000000E+00 0. -1.
         -1   -1    0    0    0  501 -0.00000000000E+00 -0.00000000000E+00 -0.70417955145E+01  0.70417955145E+01  0.00000000000E+00 0.  1.
         23    2    1    2    0    0  0.00000000000E+00  0.00000000000E+00  0.27231483714E+03  0.28639842816E+03  0.88705631901E+02 0.  0.
          2    1    3    3  502    0  0.99728816569E+01  0.43217055795E+02  0.13616267173E+03  0.14320420892E+03  0.00000000000E+00 0. -1.
         -2    1    3    3    0  502 -0.99728816569E+01 -0.43217055795E+02  0.13615216541E+03  0.14319421925E+03  0.00000000000E+00 0.  1.
<mgrwt>
<rscale>  0 0.88705632E+02</rscale>
<asrwt>0</asrwt>
<pdfrwt beam="1">  1        1 0.42977935E-01 0.88705632E+02</pdfrwt>
<pdfrwt beam="2">  1       -1 0.10833534E-02 0.88705632E+02</pdfrwt>
<totfact> 0.13596646E+05</totfact>
</mgrwt>
</event>
<event>
 5    1  0.4059427E+001  0.8767451E+02  0.7546771E-02  0.1308583E+00
         -4   -1    0    0    0  501 -0.00000000000E+00  0.00000000000E+00  0.71123542178E+03  0.71123542178E+03  0.00000000000E+00 0.  1.
          4   -1    0    0  501    0  0.00000000000E+00 -0.00000000000E+00 -0.27019252734E+01  0.27019252734E+01  0.00000000000E+00 0. -1.
         23    2    1    2    0    0  0.00000000000E+00  0.00000000000E+00  0.70853349651E+03  0.71393734705E+03  0.87674510811E+02 0.  0.
          2    1    3    3  502    0  0.88444949891E+01  0.22264031285E+02  0.55316916975E+02  0.60281618129E+02  0.00000000000E+00 0. -1.
         -2    1    3    3    0  502 -0.88444949891E+01 -0.22264031285E+02  0.65321657953E+03  0.65365572892E+03  0.00000000000E+00 0.  1.
<mgrwt>
<rscale>  0 0.87674511E+02</rscale>
<asrwt>0</asrwt>
<pdfrwt beam="2">  1        4 0.41568138E-03 0.87674511E+02</pdfrwt>
<pdfrwt beam="1">  1       -4 0.10942068E+00 0.87674511E+02</pdfrwt>
<totfact> 0.10936046E+04</totfact>
</mgrwt>
</event>
<event>
 5    1  0.4059427E+001  0.9310133E+02  0.7546771E-02  0.1295511E+00
          2   -1    0    0  501    0  0.00000000000E+00  0.00000000000E+00  0.12833529938E+04  0.12833529938E+04  0.00000000000E+00 0. -1.
         -2   -1    0    0    0  501 -0.00000000000E+00 -0.00000000000E+00 -0.16885178476E+01  0.16885178476E+01  0.00000000000E+00 0.  1.
         23    2    1    2    0    0  0.00000000000E+00  0.00000000000E+00  0.12816644760E+04  0.12850415117E+04  0.93101330493E+02 0.  0.
          2    1    3    3  502    0  0.46172136953E+02 -0.92818421973E+00  0.56007023534E+03  0.56197099237E+03  0.00000000000E+00 0. -1.
         -2    1    3    3    0  502 -0.46172136953E+02  0.92818421973E+00  0.72159424065E+03  0.72307051931E+03  0.00000000000E+00 0.  1.
<mgrwt>
<rscale>  0 0.93101330E+02</rscale>
<asrwt>0</asrwt>
<pdfrwt beam="1">  1        2 0.19743814E+00 0.93101330E+02</pdfrwt>
<pdfrwt beam="2">  1       -2 0.25977300E-03 0.93101330E+02</pdfrwt>
<totfact> 0.23309618E+05</totfact>
</mgrwt>
</event>
<event>
 5    1  0.4059427E+001  0.9036324E+02  0.7546771E-02  0.1301974E+00
         -1   -1    0    0    0  501 -0.00000000000E+00  0.00000000000E+00  0.13683890675E+01  0.13683890675E+01  0.00000000000E+00 0.  1.
          1   -1    0    0  501    0  0.00000000000E+00 -0.00000000000E+00 -0.14918115957E+04  0.14918115957E+04  0.00000000000E+00 0. -1.
         23    2    1    2    0    0  0.00000000000E+00  0.00000000000E+00 -0.14904432066E+04  0.14931799848E+04  0.90363237620E+02 0.  0.
          2    1    3    3  502    0  0.27803581157E+02 -0.13952264049E+02 -0.12866693755E+04  0.12870453709E+04  0.00000000000E+00 0. -1.
         -2    1    3    3    0  502 -0.27803581157E+02  0.13952264049E+02 -0.20377383114E+03  0.20613461392E+03  0.00000000000E+00 0.  1.
<mgrwt>
<rscale>  0 0.90363238E+02</rscale>
<asrwt>0</asrwt>
<pdfrwt beam="2">  1        1 0.22951164E+00 0.90363238E+02</pdfrwt>
<pdfrwt beam="1">  1       -1 0.21051941E-03 0.90363238E+02</pdfrwt>
<totfact> 0.11366807E+05</totfact>
</mgrwt>
</event>
<event>
 5    1  0.4059427E+001  0.9349164E+02  0.7546771E-02  0.1294610E+00
         -2   -1    0    0    0  501 -0.00000000000E+00  0.00000000000E+00  0.93817051521E+01  0.93817051521E+01  0.00000000000E+00 0.  1.
          2   -1    0    0  501    0  0.00000000000E+00 -0.00000000000E+00 -0.23291838997E+03  0.23291838997E+03  0.00000000000E+00 0. -1.
         23    2    1    2    0    0  0.00000000000E+00  0.00000000000E+00 -0.22353668482E+03  0.24230009512E+03  0.93491639395E+02 0.  0.
          2    1    3    3  502    0  0.35820041212E+02 -0.10809834796E+02 -0.18439282669E+03  0.18815058441E+03  0.00000000000E+00 0. -1.
         -2    1    3    3    0  502 -0.35820041212E+02  0.10809834796E+02 -0.39143858130E+02  0.54149510709E+02  0.00000000000E+00 0.  1.
<mgrwt>
<rscale>  0 0.93491639E+02</rscale>
<asrwt>0</asrwt>
<pdfrwt beam="2">  1        2 0.35833599E-01 0.93491639E+02</pdfrwt>
<pdfrwt beam="1">  1       -2 0.14433392E-02 0.93491639E+02</pdfrwt>
<totfact> 0.15287303E+05</totfact>
</mgrwt>
</event>
<event>
 5    1  0.4059427E+001  0.9140514E+02  0.7546771E-02  0.1299484E+00
          2   -1    0    0  501    0  0.00000000000E+00  0.00000000000E+00  0.22402081673E+03  0.22402081673E+03  0.00000000000E+00 0. -1.
         -2   -1    0    0    0  501 -0.00000000000E+00 -0.00000000000E+00 -0.93237976546E+01  0.93237976546E+01  0.00000000000E+00 0.  1.
         23    2    1    2    0    0  0.00000000000E+00  0.00000000000E+00  0.21469701908E+03  0.23334461439E+03  0.91405136959E+02 0.  0.
          2    1    3    3  502    0 -0.34230542336E+02 -0.29645328143E+02  0.12311627735E+03  0.13118000327E+03  0.00000000000E+00 0. -1.
         -2    1    3    3    0  502  0.34230542336E+02  0.29645328143E+02  0.91580741732E+02  0.10216461112E+03  0.00000000000E+00 0.  1.
<mgrwt>
<rscale>  0 0.91405137E+02</rscale>
<asrwt>0</asrwt>
<pdfrwt beam="1">  1        2 0.34464737E-01 0.91405137E+02</pdfrwt>
<pdfrwt beam="2">  1       -2 0.14344306E-02 0.91405137E+02</pdfrwt>
<totfact> 0.16012713E+05</totfact>
</mgrwt>
</event>
<event>
 5    1  0.4059427E+001  0.8589401E+02  0.7546771E-02  0.1313111E+00
         -1   -1    0    0    0  501 -0.00000000000E+00  0.00000000000E+00  0.29357043860E+01  0.29357043860E+01  0.00000000000E+00 0.  1.
          1   -1    0    0  501    0  0.00000000000E+00 -0.00000000000E+00 -0.62828023698E+03  0.62828023698E+03  0.00000000000E+00 0. -1.
         23    2    1    2    0    0  0.00000000000E+00  0.00000000000E+00 -0.62534453259E+03  0.63121594137E+03  0.85894005550E+02 0.  0.
          2    1    3    3  502    0 -0.40610141794E+02 -0.11097057742E+02 -0.37507924339E+03  0.37743445409E+03  0.00000000000E+00 0. -1.
         -2    1    3    3    0  502  0.40610141794E+02  0.11097057742E+02 -0.25026528920E+03  0.25378148728E+03  0.00000000000E+00 0.  1.
<mgrwt>
<rscale>  0 0.85894006E+02</rscale>
<asrwt>0</asrwt>
<pdfrwt beam="2">  1        1 0.96658476E-01 0.85894006E+02</pdfrwt>
<pdfrwt beam="1">  1       -1 0.45164693E-03 0.85894006E+02</pdfrwt>
<totfact> 0.16611859E+05</totfact>
</mgrwt>
</event>
<event>
 5    1  0.4059427E+001  0.8806315E+02  0.7546771E-02  0.1307611E+00
          1   -1    0    0  501    0  0.00000000000E+00  0.00000000000E+00  0.13356689526E+03  0.13356689526E+03  0.00000000000E+00 0. -1.
         -1   -1    0    0    0  501 -0.00000000000E+00 -0.00000000000E+00 -0.14515419376E+02  0.14515419376E+02  0.00000000000E+00 0.  1.
         23    2    1    2    0    0  0.00000000000E+00  0.00000000000E+00  0.11905147589E+03  0.14808231464E+03  0.88063147785E+02 0.  0.
          2    1    3    3  502    0 -0.98356700518E+01  0.26294993715E+02  0.11656494954E+03  0.11989810074E+03  0.00000000000E+00 0. -1.
         -2    1    3    3    0  502  0.98356700518E+01 -0.26294993715E+02  0.24865263486E+01  0.28184213900E+02  0.00000000000E+00 0.  1.
<mgrwt>
<rscale>  0 0.88063148E+02</rscale>
<asrwt>0</asrwt>
<pdfrwt beam="1">  1        1 0.20548752E-01 0.88063148E+02</pdfrwt>
<pdfrwt beam="2">  1       -1 0.22331415E-02 0.88063148E+02</pdfrwt>
<totfact> 0.12058431E+05</totfact>
</mgrwt>
</event>
<event>
 5    1  0.4059427E+001  0.9138879E+02  0.7546771E-02  0.1299523E+00
         -2   -1    0    0    0  501 -0.00000000000E+00  0.00000000000E+00  0.44524166615E+02  0.44524166615E+02  0.00000000000E+00 0.  1.
          2   -1    0    0  501    0  0.00000000000E+00 -0.00000000000E+00 -0.46895384094E+02  0.46895384094E+02  0.00000000000E+00 0. -1.
         23    2    1    2    0    0  0.00000000000E+00  0.00000000000E+00 -0.23712174791E+01  0.91419550708E+02  0.91388793511E+02 0.  0.
          2    1    3    3  502    0  0.49114863993E+01 -0.42432419414E+02  0.15047760224E+02  0.45288718283E+02  0.00000000000E+00 0. -1.
         -2    1    3    3    0  502 -0.49114863993E+01  0.42432419414E+02 -0.17418977704E+02  0.46130832425E+02  0.00000000000E+00 0.  1.
<mgrwt>
<rscale>  0 0.91388794E+02</rscale>
<asrwt>0</asrwt>
<pdfrwt beam="2">  1        2 0.72146745E-02 0.91388794E+02</pdfrwt>
<pdfrwt beam="1">  1       -2 0.68498718E-02 0.91388794E+02</pdfrwt>
<totfact> 0.98742161E+04</totfact>
</mgrwt>
</event>
<event>
 5    1  0.4059427E+001  0.9123773E+02  0.7546771E-02  0.1299882E+00
          4   -1    0    0  501    0  0.00000000000E+00  0.00000000000E+00  0.20661428540E+03  0.20661428540E+03  0.00000000000E+00 0. -1.
         -4   -1    0    0    0  501 -0.00000000000E+00 -0.00000000000E+00 -0.10072297973E+02  0.10072297973E+02  0.00000000000E+00 0.  1.
         23    2    1    2    0    0  0.00000000000E+00  0.00000000000E+00  0.19654198743E+03  0.21668658338E+03  0.91237725707E+02 0.  0.
          2    1    3    3  502    0  0.27757961442E+01 -0.43933752904E+02  0.69850570886E+02  0.82565016451E+02  0.00000000000E+00 0.  1.
         -2    1    3    3    0  502 -0.27757961442E+01  0.43933752904E+02  0.12669141654E+03  0.13412156692E+03  0.00000000000E+00 0. -1.
<mgrwt>
<rscale>  0 0.91237726E+02</rscale>
<asrwt>0</asrwt>
<pdfrwt beam="1">  1        4 0.31786810E-01 0.91237726E+02</pdfrwt>
<pdfrwt beam="2">  1       -4 0.15495845E-02 0.91237726E+02</pdfrwt>
<totfact> 0.20671838E+04</totfact>
</mgrwt>
</event>
<event>
 5    1  0.4059427E+001  0.9222806E+02  0.7546771E-02  0.1297544E+00
          1   -1    0    0  501    0  0.00000000000E+00  0.00000000000E+00  0.18403001160E+01  0.18403001160E+01  0.00000000000E+00 0. -1.
         -1   -1    0    0    0  501 -0.00000000000E+00 -0.00000000000E+00 -0.11555201592E+04  0.11555201592E+04  0.00000000000E+00 0.  1.
         23    2    1    2    0    0  0.00000000000E+00  0.00000000000E+00 -0.11536798591E+04  0.11573604593E+04  0.92228062606E+02 0.  0.
          2    1    3    3  502    0 -0.41842498828E+02  0.16192961755E+02 -0.44315019504E+03  0.44541565092E+03  0.00000000000E+00 0. -1.
         -2    1    3    3    0  502  0.41842498828E+02 -0.16192961755E+02 -0.71052966405E+03  0.71194480841E+03  0.00000000000E+00 0.  1.
<mgrwt>
<rscale>  0 0.92228063E+02</rscale>
<asrwt>0</asrwt>
<pdfrwt beam="1">  1        1 0.28312372E-03 0.92228063E+02</pdfrwt>
<pdfrwt beam="2">  1       -1 0.17777194E+00 0.92228063E+02</pdfrwt>
<totfact> 0.20591746E+04</totfact>
</mgrwt>
</event>
<event>
 5    1  0.4059427E+001  0.9125142E+02  0.7546771E-02  0.1299849E+00
          2   -1    0    0  501    0  0.00000000000E+00  0.00000000000E+00  0.87055248466E+03  0.87055248466E+03  0.00000000000E+00 0. -1.
         -2   -1    0    0    0  501 -0.00000000000E+00 -0.00000000000E+00 -0.23912464435E+01  0.23912464435E+01  0.00000000000E+00 0.  1.
         23    2    1    2    0    0  0.00000000000E+00  0.00000000000E+00  0.86816123822E+03  0.87294373111E+03  0.91251422627E+02 0.  0.
          2    1    3    3  502    0 -0.43599007728E+02  0.92078099187E+01  0.52783497089E+03  0.52971257653E+03  0.00000000000E+00 0. -1.
         -2    1    3    3    0  502  0.43599007728E+02 -0.92078099187E+01  0.34032626733E+03  0.34323115458E+03  0.00000000000E+00 0.  1.
<mgrwt>
<rscale>  0 0.91251423E+02</rscale>
<asrwt>0</asrwt>
<pdfrwt beam="1">  1        2 0.13393090E+00 0.91251423E+02</pdfrwt>
<pdfrwt beam="2">  1       -2 0.36788476E-03 0.91251423E+02</pdfrwt>
<totfact> 0.24640507E+05</totfact>
</mgrwt>
</event>
<event>
 5    1  0.4059427E+001  0.8162192E+02  0.7546771E-02  0.1324511E+00
         -2   -1    0    0    0  501 -0.00000000000E+00  0.00000000000E+00  0.37968764874E+01  0.37968764874E+01  0.00000000000E+00 0.  1.
          2   -1    0    0  501    0  0.00000000000E+00 -0.00000000000E+00 -0.43865906419E+03  0.43865906419E+03  0.00000000000E+00 0. -1.
         23    2    1    2    0    0  0.00000000000E+00  0.00000000000E+00 -0.43486218770E+03  0.44245594068E+03  0.81621915851E+02 0.  0.
          2    1    3    3  502    0  0.37401894401E+02  0.12636634014E+01 -0.30568124639E+03  0.30796350911E+03  0.00000000000E+00 0. -1.
         -2    1    3    3    0  502 -0.37401894401E+02 -0.12636634014E+01 -0.12918094131E+03  0.13449243157E+03  0.00000000000E+00 0.  1.
<mgrwt>
<rscale>  0 0.81621916E+02</rscale>
<asrwt>0</asrwt>
<pdfrwt beam="2">  1        2 0.67486004E-01 0.81621916E+02</pdfrwt>
<pdfrwt beam="1">  1       -2 0.58413489E-03 0.81621916E+02</pdfrwt>
<totfact> 0.27606842E+05</totfact>
</mgrwt>
</event>
<event>
 5    1  0.4059427E+001  0.9143225E+02  0.7546771E-02  0.1299420E+00
         -1   -1    0    0    0  501 -0.00000000000E+00  0.00000000000E+00  0.75828295342E+01  0.75828295342E+01  0.00000000000E+00 0.  1.
          1   -1    0    0  501    0  0.00000000000E+00 -0.00000000000E+00 -0.27561798641E+03  0.27561798641E+03  0.00000000000E+00 0. -1.
         23    2    1    2    0    0  0.00000000000E+00  0.00000000000E+00 -0.26803515687E+03  0.28320081594E+03  0.91432252679E+02 0.  0.
          2    1    3    3  502    0 -0.18299289330E+00  0.45460779102E+02 -0.14895207325E+03  0.15573514712E+03  0.00000000000E+00 0. -1.
         -2    1    3    3    0  502  0.18299289330E+00 -0.45460779102E+02 -0.11908308362E+03  0.12746566882E+03  0.00000000000E+00 0.  1.
<mgrwt>
<rscale>  0 0.91432253E+02</rscale>
<asrwt>0</asrwt>
<pdfrwt beam="2">  1        1 0.42402774E-01 0.91432253E+02</pdfrwt>
<pdfrwt beam="1">  1       -1 0.11665890E-02 0.91432253E+02</pdfrwt>
<totfact> 0.12510875E+05</totfact>
</mgrwt>
</event>
<event>
 5    1  0.4059427E+001  0.8750936E+02  0.7546771E-02  0.1308998E+00
         -2   -1    0    0    0  501 -0.00000000000E+00  0.00000000000E+00  0.45690894714E+01  0.45690894714E+01  0.00000000000E+00 0.  1.
          2   -1    0    0  501    0  0.00000000000E+00 -0.00000000000E+00 -0.41900513367E+03  0.41900513367E+03  0.00000000000E+00 0. -1.
         23    2    1    2    0    0  0.00000000000E+00  0.00000000000E+00 -0.41443604420E+03  0.42357422314E+03  0.87509358235E+02 0.  0.
          2    1    3    3  502    0  0.41678776264E+02 -0.11651560970E+02 -0.23843446980E+03  0.24233009647E+03  0.00000000000E+00 0. -1.
         -2    1    3    3    0  502 -0.41678776264E+02  0.11651560970E+02 -0.17600157440E+03  0.18124412667E+03  0.00000000000E+00 0.  1.
<mgrwt>
<rscale>  0 0.87509358E+02</rscale>
<asrwt>0</asrwt>
<pdfrwt beam="2">  1        2 0.64462303E-01 0.87509358E+02</pdfrwt>
<pdfrwt beam="1">  1       -2 0.70293711E-03 0.87509358E+02</pdfrwt>
<totfact> 0.22623092E+05</totfact>
</mgrwt>
</event>
<event>
 5    1  0.4059427E+001  0.9155663E+02  0.7546771E-02  0.1299125E+00
         -2   -1    0    0    0  501 -0.00000000000E+00  0.00000000000E+00  0.30805241760E+01  0.30805241760E+01  0.00000000000E+00 0.  1.
          2   -1    0    0  501    0  0.00000000000E+00 -0.00000000000E+00 -0.68029145917E+03  0.68029145917E+03  0.00000000000E+00 0. -1.
         23    2    1    2    0    0  0.00000000000E+00  0.00000000000E+00 -0.67721093500E+03  0.68337198335E+03  0.91556633549E+02 0.  0.
          2    1    3    3  502    0  0.44886470232E+02 -0.30513376675E+01 -0.27547087764E+03  0.27912060171E+03  0.00000000000E+00 0.  1.
         -2    1    3    3    0  502 -0.44886470232E+02  0.30513376675E+01 -0.40174005735E+03  0.40425138163E+03  0.00000000000E+00 0. -1.
<mgrwt>
<rscale>  0 0.91556634E+02</rscale>
<asrwt>0</asrwt>
<pdfrwt beam="2">  1        2 0.10466036E+00 0.91556634E+02</pdfrwt>
<pdfrwt beam="1">  1       -2 0.47392620E-03 0.91556634E+02</pdfrwt>
<totfact> 0.23296529E+05</totfact>
</mgrwt>
</event>
<event>
 5    1  0.4059427E+001  0.9175542E+02  0.7546771E-02  0.1298656E+00
          1   -1    0    0  501    0  0.00000000000E+00  0.00000000000E+00  0.30085542381E+02  0.30085542381E+02  0.00000000000E+00 0. -1.
         -1   -1    0    0    0  501 -0.00000000000E+00 -0.00000000000E+00 -0.69959325205E+02  0.69959325205E+02  0.00000000000E+00 0.  1.
         23    2    1    2    0    0  0.00000000000E+00  0.00000000000E+00 -0.39873782824E+02  0.10004486759E+03  0.91755419315E+02 0.  0.
          2    1    3    3  502    0 -0.20343337798E+02  0.41054986193E+02 -0.17402938488E+02  0.49012504038E+02  0.00000000000E+00 0.  1.
         -2    1    3    3    0  502  0.20343337798E+02 -0.41054986193E+02 -0.22470844336E+02  0.51032363548E+02  0.00000000000E+00 0. -1.
<mgrwt>
<rscale>  0 0.91755419E+02</rscale>
<asrwt>0</asrwt>
<pdfrwt beam="1">  1        1 0.46285450E-02 0.91755419E+02</pdfrwt>
<pdfrwt beam="2">  1       -1 0.10762973E-01 0.91755419E+02</pdfrwt>
<totfact> 0.85161416E+04</totfact>
</mgrwt>
</event>
<event>
 5    1  0.4059427E+001  0.8605927E+02  0.7546771E-02  0.1312685E+00
          4   -1    0    0  501    0  0.00000000000E+00  0.00000000000E+00  0.31658238964E+03  0.31658238964E+03  0.00000000000E+00 0. -1.
         -4   -1    0    0    0  501 -0.00000000000E+00 -0.00000000000E+00 -0.58485553757E+01  0.58485553757E+01  0.00000000000E+00 0.  1.
         23    2    1    2    0    0  0.00000000000E+00  0.00000000000E+00  0.31073383427E+03  0.32243094502E+03  0.86059273453E+02 0.  0.
          2    1    3    3  502    0 -0.13385340228E+02 -0.26987087619E+02  0.27048493491E+03  0.27215725279E+03  0.00000000000E+00 0. -1.
         -2    1    3    3    0  502  0.13385340228E+02  0.26987087619E+02  0.40248899358E+02  0.50273692232E+02  0.00000000000E+00 0.  1.
<mgrwt>
<rscale>  0 0.86059273E+02</rscale>
<asrwt>0</asrwt>
<pdfrwt beam="1">  1        4 0.48704970E-01 0.86059273E+02</pdfrwt>
<pdfrwt beam="2">  1       -4 0.89977800E-03 0.86059273E+02</pdfrwt>
<totfact> 0.19984361E+04</totfact>
</mgrwt>
</event>
<event>
 5    1  0.4059427E+001  0.9143392E+02  0.7546771E-02  0.1299416E+00
         -2   -1    0    0    0  501 -0.00000000000E+00  0.00000000000E+00  0.70604876134E+01  0.70604876134E+01  0.00000000000E+00 0.  1.
          2   -1    0    0  501    0  0.00000000000E+00 -0.00000000000E+00 -0.29601926356E+03  0.29601926356E+03  0.00000000000E+00 0. -1.
         23    2    1    2    0    0  0.00000000000E+00  0.00000000000E+00 -0.28895877595E+03  0.30307975118E+03  0.91433918077E+02 0.  0.
          2    1    3    3  502    0  0.13416480862E+02 -0.43316882432E+02 -0.12524072712E+03  0.13319757503E+03  0.00000000000E+00 0. -1.
         -2    1    3    3    0  502 -0.13416480862E+02  0.43316882432E+02 -0.16371804883E+03  0.16988217615E+03  0.00000000000E+00 0.  1.
<mgrwt>
<rscale>  0 0.91433918E+02</rscale>
<asrwt>0</asrwt>
<pdfrwt beam="2">  1        2 0.45541415E-01 0.91433918E+02</pdfrwt>
<pdfrwt beam="1">  1       -2 0.10862291E-02 0.91433918E+02</pdfrwt>
<totfact> 0.17742900E+05</totfact>
</mgrwt>
</event>
<event>
 5    1  0.4059427E+001  0.8912956E+02  0.7546771E-02  0.1304973E+00
         -2   -1    0    0    0  501 -0.00000000000E+00  0.00000000000E+00  0.34482467567E+03  0.34482467567E+03  0.00000000000E+00 0.  1.
          2   -1    0    0  501    0  0.00000000000E+00 -0.00000000000E+00 -0.57595059895E+01  0.57595059895E+01  0.00000000000E+00 0. -1.
         23    2    1    2    0    0  0.00000000000E+00  0.00000000000E+00  0.33906516969E+03  0.35058418166E+03  0.89129563780E+02 0.  0.
          2    1    3    3  502    0 -0.37386081441E+02  0.29591417225E+01  0.74840471305E+02  0.83711240287E+02  0.00000000000E+00 0. -1.
         -2    1    3    3    0  502  0.37386081441E+02 -0.29591417225E+01  0.26422469838E+03  0.26687294138E+03  0.00000000000E+00 0.  1.
<mgrwt>
<rscale>  0 0.89129564E+02</rscale>
<asrwt>0</asrwt>
<pdfrwt beam="2">  1        2 0.88607811E-03 0.89129564E+02</pdfrwt>
<pdfrwt beam="1">  1       -2 0.53049934E-01 0.89129564E+02</pdfrwt>
<totfact> 0.49819302E+04</totfact>
</mgrwt>
</event>
<event>
 5    1  0.4059427E+001  0.8640877E+02  0.7546771E-02  0.1311789E+00
         -4   -1    0    0    0  501 -0.00000000000E+00  0.00000000000E+00  0.30135501913E+03  0.30135501913E+03  0.00000000000E+00 0.  1.
          4   -1    0    0  501    0  0.00000000000E+00 -0.00000000000E+00 -0.61940862550E+01  0.61940862550E+01  0.00000000000E+00 0. -1.
         23    2    1    2    0    0  0.00000000000E+00  0.00000000000E+00  0.29516093288E+03  0.30754910539E+03  0.86408772284E+02 0.  0.
          2    1    3    3  502    0 -0.36846850382E+02  0.22522212013E+02  0.15219179105E+03  0.15820013173E+03  0.00000000000E+00 0. -1.
         -2    1    3    3    0  502  0.36846850382E+02 -0.22522212013E+02  0.14296914183E+03  0.14934897366E+03  0.00000000000E+00 0.  1.
<mgrwt>
<rscale>  0 0.86408772E+02</rscale>
<asrwt>0</asrwt>
<pdfrwt beam="2">  1        4 0.95293658E-03 0.86408772E+02</pdfrwt>
<pdfrwt beam="1">  1       -4 0.46362299E-01 0.86408772E+02</pdfrwt>
<totfact> 0.20276186E+04</totfact>
</mgrwt>
</event>
<event>
 5    1  0.4059427E+001  0.8935256E+02  0.7546771E-02  0.1304427E+00
         -2   -1    0    0    0  501 -0.00000000000E+00  0.00000000000E+00  0.20041105275E+03  0.20041105275E+03  0.00000000000E+00 0.  1.
          2   -1    0    0  501    0  0.00000000000E+00 -0.00000000000E+00 -0.99593800371E+01  0.99593800371E+01  0.00000000000E+00 0. -1.
         23    2    1    2    0    0  0.00000000000E+00  0.00000000000E+00  0.19045167271E+03  0.21037043279E+03  0.89352556493E+02 0.  0.
          2    1    3    3  502    0  0.11787073770E+02  0.33207965647E+02  0.30565209484E+02  0.46646930460E+02  0.00000000000E+00 0. -1.
         -2    1    3    3    0  502 -0.11787073770E+02 -0.33207965647E+02  0.15988646323E+03  0.16372350233E+03  0.00000000000E+00 0.  1.
<mgrwt>
<rscale>  0 0.89352556E+02</rscale>
<asrwt>0</asrwt>
<pdfrwt beam="2">  1        2 0.15322125E-02 0.89352556E+02</pdfrwt>
<pdfrwt beam="1">  1       -2 0.30832467E-01 0.89352556E+02</pdfrwt>
<totfact> 0.65558397E+04</totfact>
</mgrwt>
</event>
<event>
 5    1  0.4059427E+001  0.8707951E+02  0.7546771E-02  0.1310082E+00
         -2   -1    0    0    0  501 -0.00000000000E+00  0.00000000000E+00  0.94896165090E+00  0.94896165090E+00  0.00000000000E+00 0.  1.
          2   -1    0    0  501    0  0.00000000000E+00 -0.00000000000E+00 -0.19976679836E+04  0.19976679836E+04  0.00000000000E+00 0. -1.
         23    2    1    2    0    0  0.00000000000E+00  0.00000000000E+00 -0.19967190219E+04  0.19986169452E+04  0.87079510968E+02 0.  0.
          2    1    3    3  502    0 -0.24741631025E+01  0.31239913842E+02 -0.30460617646E+03  0.30621393900E+03  0.00000000000E+00 0. -1.
         -2    1    3    3    0  502  0.24741631025E+01 -0.31239913842E+02 -0.16921128455E+04  0.16924030062E+04  0.00000000000E+00 0.  1.
<mgrwt>
<rscale>  0 0.87079511E+02</rscale>
<asrwt>0</asrwt>
<pdfrwt beam="2">  1        2 0.30733014E+00 0.87079511E+02</pdfrwt>
<pdfrwt beam="1">  1       -2 0.14599571E-03 0.87079511E+02</pdfrwt>
<totfact> 0.22244073E+05</totfact>
</mgrwt>
</event>
<event>
 5    1  0.4059427E+001  0.8955694E+02  0.7546771E-02  0.1303928E+00
          1   -1    0    0  501    0  0.00000000000E+00  0.00000000000E+00  0.23443784382E+01  0.23443784382E+01  0.00000000000E+00 0. -1.
         -1   -1    0    0    0  501 -0.00000000000E+00 -0.00000000000E+00 -0.85528480973E+03  0.85528480973E+03  0.00000000000E+00 0.  1.
         23    2    1    2    0    0  0.00000000000E+00  0.00000000000E+00 -0.85294043129E+03  0.85762918817E+03  0.89556937563E+02 0.  0.
          2    1    3    3  502    0 -0.25444101119E+02  0.23819012796E+02 -0.15724620596E+03  0.16106246285E+03  0.00000000000E+00 0. -1.
         -2    1    3    3    0  502  0.25444101119E+02 -0.23819012796E+02 -0.69569422534E+03  0.69656672532E+03  0.00000000000E+00 0.  1.
<mgrwt>
<rscale>  0 0.89556938E+02</rscale>
<asrwt>0</asrwt>
<pdfrwt beam="1">  1        1 0.36067368E-03 0.89556938E+02</pdfrwt>
<pdfrwt beam="2">  1       -1 0.13158225E+00 0.89556938E+02</pdfrwt>
<totfact> 0.32016372E+04</totfact>
</mgrwt>
</event>
<event>
 5    1  0.4059427E+001  0.9220048E+02  0.7546771E-02  0.1297609E+00
         -3   -1    0    0    0  501 -0.00000000000E+00  0.00000000000E+00  0.30161116505E+03  0.30161116505E+03  0.00000000000E+00 0.  1.
          3   -1    0    0  501    0  0.00000000000E+00 -0.00000000000E+00 -0.70462647392E+01  0.70462647392E+01  0.00000000000E+00 0. -1.
         23    2    1    2    0    0  0.00000000000E+00  0.00000000000E+00  0.29456490031E+03  0.30865742979E+03  0.92200479766E+02 0.  0.
          2    1    3    3  502    0 -0.28127643579E+02  0.14938391542E+02  0.25886169835E+03  0.26081353253E+03  0.00000000000E+00 0.  1.
         -2    1    3    3    0  502  0.28127643579E+02 -0.14938391542E+02  0.35703201958E+02  0.47843897262E+02  0.00000000000E+00 0. -1.
<mgrwt>
<rscale>  0 0.92200480E+02</rscale>
<asrwt>0</asrwt>
<pdfrwt beam="2">  1        3 0.10840410E-02 0.92200480E+02</pdfrwt>
<pdfrwt beam="1">  1       -3 0.46401708E-01 0.92200480E+02</pdfrwt>
<totfact> 0.22991252E+04</totfact>
</mgrwt>
</event>
<event>
 5    1  0.4059427E+001  0.8968768E+02  0.7546771E-02  0.1303610E+00
          2   -1    0    0  501    0  0.00000000000E+00  0.00000000000E+00  0.86543294245E+02  0.86543294245E+02  0.00000000000E+00 0. -1.
         -2   -1    0    0    0  501 -0.00000000000E+00 -0.00000000000E+00 -0.23236579073E+02  0.23236579073E+02  0.00000000000E+00 0.  1.
         23    2    1    2    0    0  0.00000000000E+00  0.00000000000E+00  0.63306715172E+02  0.10977987332E+03  0.89687682544E+02 0.  0.
          2    1    3    3  502    0 -0.20328297371E+02 -0.35739072062E+02  0.53564725327E+02  0.67525556238E+02  0.00000000000E+00 0. -1.
         -2    1    3    3    0  502  0.20328297371E+02  0.35739072062E+02  0.97419898452E+01  0.42254317081E+02  0.00000000000E+00 0.  1.
<mgrwt>
<rscale>  0 0.89687683E+02</rscale>
<asrwt>0</asrwt>
<pdfrwt beam="1">  1        2 0.13314353E-01 0.89687683E+02</pdfrwt>
<pdfrwt beam="2">  1       -2 0.35748584E-02 0.89687683E+02</pdfrwt>
<totfact> 0.12296842E+05</totfact>
</mgrwt>
</event>
<event>
 5    1  0.4059427E+001  0.9071781E+02  0.7546771E-02  0.1301123E+00
          3   -1    0    0  501    0  0.00000000000E+00  0.00000000000E+00  0.89084778573E+01  0.89084778573E+01  0.00000000000E+00 0. -1.
         -3   -1    0    0    0  501 -0.00000000000E+00 -0.00000000000E+00 -0.23095194476E+03  0.23095194476E+03  0.00000000000E+00 0.  1.
         23    2    1    2    0    0  0.00000000000E+00  0.00000000000E+00 -0.22204346690E+03  0.23986042261E+03  0.90717810511E+02 0.  0.
          2    1    3    3  502    0 -0.40031565316E+02 -0.11567802218E+02 -0.63643437588E+02  0.76071199661E+02  0.00000000000E+00 0. -1.
         -2    1    3    3    0  502  0.40031565316E+02  0.11567802218E+02 -0.15840002931E+03  0.16378922295E+03  0.00000000000E+00 0.  1.
<mgrwt>
<rscale>  0 0.90717811E+02</rscale>
<asrwt>0</asrwt>
<pdfrwt beam="1">  1        3 0.13705351E-02 0.90717811E+02</pdfrwt>
<pdfrwt beam="2">  1       -3 0.35531066E-01 0.90717811E+02</pdfrwt>
<totfact> 0.26920100E+04</totfact>
</mgrwt>
</event>
<event>
 5    1  0.4059427E+001  0.9120491E+02  0.7546771E-02  0.1299960E+00
         -2   -1    0    0    0  501 -0.00000000000E+00  0.00000000000E+00  0.91415561181E+02  0.91415561181E+02  0.00000000000E+00 0.  1.
          2   -1    0    0  501    0  0.00000000000E+00 -0.00000000000E+00 -0.22748686073E+02  0.22748686073E+02  0.00000000000E+00 0. -1.
         23    2    1    2    0    0  0.00000000000E+00  0.00000000000E+00  0.68666875108E+02  0.11416424725E+03  0.91204910031E+02 0.  0.
          2    1    3    3  502    0  0.39466326638E+02 -0.71343745080E+01  0.71649457334E+01  0.40740970598E+02  0.00000000000E+00 0. -1.
         -2    1    3    3    0  502 -0.39466326638E+02  0.71343745080E+01  0.61501929375E+02  0.73423276655E+02  0.00000000000E+00 0.  1.
<mgrwt>
<rscale>  0 0.91204910E+02</rscale>
<asrwt>0</asrwt>
<pdfrwt beam="2">  1        2 0.34997979E-02 0.91204910E+02</pdfrwt>
<pdfrwt beam="1">  1       -2 0.14063932E-01 0.91204910E+02</pdfrwt>
<totfact> 0.81873061E+04</totfact>
</mgrwt>
</event>
<event>
 5    1  0.4059427E+001  0.9150573E+02  0.7546771E-02  0.1299246E+00
          2   -1    0    0  501    0  0.00000000000E+00  0.00000000000E+00  0.40504062905E+02  0.40504062905E+02  0.00000000000E+00 0. -1.
         -2   -1    0    0    0  501 -0.00000000000E+00 -0.00000000000E+00 -0.51681847405E+02  0.51681847405E+02  0.00000000000E+00 0.  1.
         23    2    1    2    0    0  0.00000000000E+00  0.00000000000E+00 -0.11177784501E+02  0.92185910310E+02  0.91505733118E+02 0.  0.
          2    1    3    3  502    0  0.11583959545E+02 -0.38920037566E+02  0.15647821695E+02  0.43517947638E+02  0.00000000000E+00 0.  1.
         -2    1    3    3    0  502 -0.11583959545E+02  0.38920037566E+02 -0.26825606196E+02  0.48667962672E+02  0.00000000000E+00 0. -1.
<mgrwt>
<rscale>  0 0.91505733E+02</rscale>
<asrwt>0</asrwt>
<pdfrwt beam="1">  1        2 0.62313943E-02 0.91505733E+02</pdfrwt>
<pdfrwt beam="2">  1       -2 0.79510534E-02 0.91505733E+02</pdfrwt>
<totfact> 0.94704720E+04</totfact>
</mgrwt>
</event>
<event>
 5    1  0.4059427E+001  0.9002758E+02  0.7546771E-02  0.1302785E+00
          1   -1    0    0  501    0  0.00000000000E+00  0.00000000000E+00  0.38802505828E+03  0.38802505828E+03  0.00000000000E+00 0. -1.
         -1   -1    0    0    0  501 -0.00000000000E+00 -0.00000000000E+00 -0.52219339824E+01  0.52219339824E+01  0.00000000000E+00 0.  1.
         23    2    1    2    0    0  0.00000000000E+00  0.00000000000E+00  0.38280312430E+03  0.39324699226E+03  0.90027578838E+02 0.  0.
          2    1    3    3  502    0 -0.44945562069E+02 -0.24738626844E+01  0.19198255836E+03  0.19718906222E+03  0.00000000000E+00 0. -1.
         -2    1    3    3    0  502  0.44945562069E+02  0.24738626844E+01  0.19082056594E+03  0.19605793004E+03  0.00000000000E+00 0.  1.
<mgrwt>
<rscale>  0 0.90027579E+02</rscale>
<asrwt>0</asrwt>
<pdfrwt beam="1">  1        1 0.59696140E-01 0.90027579E+02</pdfrwt>
<pdfrwt beam="2">  1       -1 0.80337476E-03 0.90027579E+02</pdfrwt>
<totfact> 0.13880701E+05</totfact>
</mgrwt>
</event>
<event>
 5    1  0.4059427E+001  0.9177356E+02  0.7546771E-02  0.1298613E+00
          3   -1    0    0  501    0  0.00000000000E+00  0.00000000000E+00  0.12949793154E+02  0.12949793154E+02  0.00000000000E+00 0. -1.
         -3   -1    0    0    0  501 -0.00000000000E+00 -0.00000000000E+00 -0.16259693578E+03  0.16259693578E+03  0.00000000000E+00 0.  1.
         23    2    1    2    0    0  0.00000000000E+00  0.00000000000E+00 -0.14964714263E+03  0.17554672893E+03  0.91773562334E+02 0.  0.
          2    1    3    3  502    0 -0.12225777128E+02  0.33514489023E+02 -0.19619238046E+02  0.40713696742E+02  0.00000000000E+00 0. -1.
         -2    1    3    3    0  502  0.12225777128E+02 -0.33514489023E+02 -0.13002790458E+03  0.13483303219E+03  0.00000000000E+00 0.  1.
<mgrwt>
<rscale>  0 0.91773562E+02</rscale>
<asrwt>0</asrwt>
<pdfrwt beam="1">  1        3 0.19922759E-02 0.91773562E+02</pdfrwt>
<pdfrwt beam="2">  1       -3 0.25014913E-01 0.91773562E+02</pdfrwt>
<totfact> 0.29291455E+04</totfact>
</mgrwt>
</event>
<event>
 5    1  0.4059427E+001  0.9057986E+02  0.7546771E-02  0.1301454E+00
          2   -1    0    0  501    0  0.00000000000E+00  0.00000000000E+00  0.14965546124E+03  0.14965546124E+03  0.00000000000E+00 0. -1.
         -2   -1    0    0    0  501 -0.00000000000E+00 -0.00000000000E+00 -0.13706001489E+02  0.13706001489E+02  0.00000000000E+00 0.  1.
         23    2    1    2    0    0  0.00000000000E+00  0.00000000000E+00  0.13594945975E+03  0.16336146273E+03  0.90579864753E+02 0.  0.
          2    1    3    3  502    0  0.15546226823E+02 -0.40106000259E+02  0.93543959782E+02  0.10295945239E+03  0.00000000000E+00 0. -1.
         -2    1    3    3    0  502 -0.15546226823E+02  0.40106000259E+02  0.42405499970E+02  0.60402010339E+02  0.00000000000E+00 0.  1.
<mgrwt>
<rscale>  0 0.90579865E+02</rscale>
<asrwt>0</asrwt>
<pdfrwt beam="1">  1        2 0.23023916E-01 0.90579865E+02</pdfrwt>
<pdfrwt beam="2">  1       -2 0.21086157E-02 0.90579865E+02</pdfrwt>
<totfact> 0.14221143E+05</totfact>
</mgrwt>
</event>
<event>
 5    1  0.4059427E+001  0.7967074E+02  0.7546771E-02  0.1329988E+00
         -2   -1    0    0    0  501 -0.00000000000E+00  0.00000000000E+00  0.16662975465E+01  0.16662975465E+01  0.00000000000E+00 0.  1.
          2   -1    0    0  501    0  0.00000000000E+00 -0.00000000000E+00 -0.95232484509E+03  0.95232484509E+03  0.00000000000E+00 0. -1.
         23    2    1    2    0    0  0.00000000000E+00  0.00000000000E+00 -0.95065854755E+03  0.95399114264E+03  0.79670736231E+02 0.  0.
          2    1    3    3  502    0  0.30593144796E+02  0.56604027529E+01 -0.77321335287E+03  0.77383904639E+03  0.00000000000E+00 0. -1.
         -2    1    3    3    0  502 -0.30593144796E+02 -0.56604027529E+01 -0.17744519468E+03  0.18015209625E+03  0.00000000000E+00 0.  1.
<mgrwt>
<rscale>  0 0.79670736E+02</rscale>
<asrwt>0</asrwt>
<pdfrwt beam="2">  1        2 0.14651183E+00 0.79670736E+02</pdfrwt>
<pdfrwt beam="1">  1       -2 0.25635291E-03 0.79670736E+02</pdfrwt>
<totfact> 0.35473754E+05</totfact>
</mgrwt>
</event>
<event>
 5    1  0.4059427E+001  0.8481545E+02  0.7546771E-02  0.1315916E+00
         -3   -1    0    0    0  501 -0.00000000000E+00  0.00000000000E+00  0.70452528765E+01  0.70452528765E+01  0.00000000000E+00 0.  1.
          3   -1    0    0  501    0  0.00000000000E+00 -0.00000000000E+00 -0.25526622736E+03  0.25526622736E+03  0.00000000000E+00 0. -1.
         23    2    1    2    0    0  0.00000000000E+00  0.00000000000E+00 -0.24822097448E+03  0.26231148023E+03  0.84815449597E+02 0.  0.
          2    1    3    3  502    0 -0.32657943464E+02 -0.26478543120E+02 -0.14126347468E+03  0.14738732577E+03  0.00000000000E+00 0. -1.
         -2    1    3    3    0  502  0.32657943464E+02  0.26478543120E+02 -0.10695749980E+03  0.11492415447E+03  0.00000000000E+00 0.  1.
<mgrwt>
<rscale>  0 0.84815450E+02</rscale>
<asrwt>0</asrwt>
<pdfrwt beam="2">  1        3 0.39271723E-01 0.84815450E+02</pdfrwt>
<pdfrwt beam="1">  1       -3 0.10838852E-02 0.84815450E+02</pdfrwt>
<totfact> 0.31021484E+04</totfact>
</mgrwt>
</event>
<event>
 5    1  0.4059427E+001  0.9235013E+02  0.7546771E-02  0.1297258E+00
          2   -1    0    0  501    0  0.00000000000E+00  0.00000000000E+00  0.89070413140E+02  0.89070413140E+02  0.00000000000E+00 0. -1.
         -2   -1    0    0    0  501 -0.00000000000E+00 -0.00000000000E+00 -0.23937650651E+02  0.23937650651E+02  0.00000000000E+00 0.  1.
         23    2    1    2    0    0  0.00000000000E+00  0.00000000000E+00  0.65132762489E+02  0.11300806379E+03  0.92350125785E+02 0.  0.
          2    1    3    3  502    0  0.45780210805E+02  0.12229769817E+01  0.39786478313E+02  0.60665370934E+02  0.00000000000E+00 0. -1.
         -2    1    3    3    0  502 -0.45780210805E+02 -0.12229769817E+01  0.25346284176E+02  0.52342692857E+02  0.00000000000E+00 0.  1.
<mgrwt>
<rscale>  0 0.92350126E+02</rscale>
<asrwt>0</asrwt>
<pdfrwt beam="1">  1        2 0.13703140E-01 0.92350126E+02</pdfrwt>
<pdfrwt beam="2">  1       -2 0.36827155E-02 0.92350126E+02</pdfrwt>
<totfact> 0.11436920E+05</totfact>
</mgrwt>
</event>
<event>
 5    1  0.4059427E+001  0.8689112E+02  0.7546771E-02  0.1310560E+00
          3   -1    0    0  501    0  0.00000000000E+00  0.00000000000E+00  0.35797139555E+02  0.35797139555E+02  0.00000000000E+00 0. -1.
         -3   -1    0    0    0  501 -0.00000000000E+00 -0.00000000000E+00 -0.52728138873E+02  0.52728138873E+02  0.00000000000E+00 0.  1.
         23    2    1    2    0    0  0.00000000000E+00  0.00000000000E+00 -0.16930999317E+02  0.88525278428E+02  0.86891116824E+02 0.  0.
          2    1    3    3  502    0  0.23846953957E+02 -0.76863648531E+01 -0.44626103908E+02  0.51178575280E+02  0.00000000000E+00 0.  1.
         -2    1    3    3    0  502 -0.23846953957E+02  0.76863648531E+01  0.27695104591E+02  0.37346703148E+02  0.00000000000E+00 0. -1.
<mgrwt>
<rscale>  0 0.86891117E+02</rscale>
<asrwt>0</asrwt>
<pdfrwt beam="1">  1        3 0.55072523E-02 0.86891117E+02</pdfrwt>
<pdfrwt beam="2">  1       -3 0.81120213E-02 0.86891117E+02</pdfrwt>
<totfact> 0.40505361E+04</totfact>
</mgrwt>
</event>
<event>
 5    1  0.4059427E+001  0.8556799E+02  0.7546771E-02  0.1313954E+00
         -1   -1    0    0    0  501 -0.00000000000E+00  0.00000000000E+00  0.22198372849E+01  0.22198372849E+01  0.00000000000E+00 0.  1.
          1   -1    0    0  501    0  0.00000000000E+00 -0.00000000000E+00 -0.82459654684E+03  0.82459654684E+03  0.00000000000E+00 0. -1.
         23    2    1    2    0    0  0.00000000000E+00  0.00000000000E+00 -0.82237670955E+03  0.82681638412E+03  0.85567988399E+02 0.  0.
          2    1    3    3  502    0  0.32117042312E+02 -0.75424001208E+01 -0.67441055571E+03  0.67521699465E+03  0.00000000000E+00 0. -1.
         -2    1    3    3    0  502 -0.32117042312E+02  0.75424001208E+01 -0.14796615384E+03  0.15159938947E+03  0.00000000000E+00 0.  1.
<mgrwt>
<rscale>  0 0.85567988E+02</rscale>
<asrwt>0</asrwt>
<pdfrwt beam="2">  1        1 0.12686097E+00 0.85567988E+02</pdfrwt>
<pdfrwt beam="1">  1       -1 0.34151353E-03 0.85567988E+02</pdfrwt>
<totfact> 0.16654341E+05</totfact>
</mgrwt>
</event>
<event>
 5    1  0.4059427E+001  0.8830513E+02  0.7546771E-02  0.1307009E+00
          4   -1    0    0  501    0  0.00000000000E+00  0.00000000000E+00  0.10374296834E+02  0.10374296834E+02  0.00000000000E+00 0. -1.
         -4   -1    0    0    0  501 -0.00000000000E+00 -0.00000000000E+00 -0.18791144862E+03  0.18791144862E+03  0.00000000000E+00 0.  1.
         23    2    1    2    0    0  0.00000000000E+00  0.00000000000E+00 -0.17753715178E+03  0.19828574545E+03  0.88305133408E+02 0.  0.
          2    1    3    3  502    0 -0.26360452232E+02  0.44130860312E+01 -0.98541011083E+01  0.28485997944E+02  0.00000000000E+00 0. -1.
         -2    1    3    3    0  502  0.26360452232E+02 -0.44130860312E+01 -0.16768305067E+03  0.16979974751E+03  0.00000000000E+00 0.  1.
<mgrwt>
<rscale>  0 0.88305133E+02</rscale>
<asrwt>0</asrwt>
<pdfrwt beam="1">  1        4 0.15960459E-02 0.88305133E+02</pdfrwt>
<pdfrwt beam="2">  1       -4 0.28909450E-01 0.88305133E+02</pdfrwt>
<totfact> 0.23369932E+04</totfact>
</mgrwt>
</event>
<event>
 5    1  0.4059427E+001  0.8963447E+02  0.7546771E-02  0.1303739E+00
         -1   -1    0    0    0  501 -0.00000000000E+00  0.00000000000E+00  0.55111117054E+01  0.55111117054E+01  0.00000000000E+00 0.  1.
          1   -1    0    0  501    0  0.00000000000E+00 -0.00000000000E+00 -0.36446085825E+03  0.36446085825E+03  0.00000000000E+00 0. -1.
         23    2    1    2    0    0  0.00000000000E+00  0.00000000000E+00 -0.35894974654E+03  0.36997196995E+03  0.89634468862E+02 0.  0.
          2    1    3    3  502    0 -0.31988298998E+02 -0.27384792945E+02 -0.11614584059E+03  0.12354365400E+03  0.00000000000E+00 0. -1.
         -2    1    3    3    0  502  0.31988298998E+02  0.27384792945E+02 -0.24280390596E+03  0.24642831596E+03  0.00000000000E+00 0.  1.
<mgrwt>
<rscale>  0 0.89634469E+02</rscale>
<asrwt>0</asrwt>
<pdfrwt beam="2">  1        1 0.56070897E-01 0.89634469E+02</pdfrwt>
<pdfrwt beam="1">  1       -1 0.84786341E-03 0.89634469E+02</pdfrwt>
<totfact> 0.13892904E+05</totfact>
</mgrwt>
</event>
<event>
 5    1  0.4059427E+001  0.8920334E+02  0.7546771E-02  0.1304792E+00
         -2   -1    0    0    0  501 -0.00000000000E+00  0.00000000000E+00  0.91431181384E+01  0.91431181384E+01  0.00000000000E+00 0. -1.
          2   -1    0    0  501    0  0.00000000000E+00 -0.00000000000E+00 -0.21757445189E+03  0.21757445189E+03  0.00000000000E+00 0.  1.
         23    2    1    2    0    0  0.00000000000E+00  0.00000000000E+00 -0.20843133375E+03  0.22671757003E+03  0.89203338895E+02 0.  0.
          2    1    3    3  502    0  0.37799425397E+02  0.31565758386E+01 -0.44580585708E+02  0.58533658295E+02  0.00000000000E+00 0. -1.
         -2    1    3    3    0  502 -0.37799425397E+02 -0.31565758386E+01 -0.16385074804E+03  0.16818391173E+03  0.00000000000E+00 0.  1.
<mgrwt>
<rscale>  0 0.89203339E+02</rscale>
<asrwt>0</asrwt>
<pdfrwt beam="2">  1        2 0.33472992E-01 0.89203339E+02</pdfrwt>
<pdfrwt beam="1">  1       -2 0.14066336E-02 0.89203339E+02</pdfrwt>
<totfact> 0.16913111E+05</totfact>
</mgrwt>
</event>
<event>
 4    1  0.4059427E+001  0.4924901E+02  0.7546771E-02  0.1449435E+00
          2   -1    0    0  501    0  0.00000000000E+00  0.00000000000E+00  0.16619869755E+04  0.16619869755E+04  0.00000000000E+00 0. -1.
         -2   -1    0    0    0  501 -0.00000000000E+00 -0.00000000000E+00 -0.36484422692E+00  0.36484422692E+00  0.00000000000E+00 0.  1.
          2    1    1    2  502    0  0.11060824735E+02 -0.20495612712E+02  0.11007468799E+04  0.11009932359E+04  0.00000000000E+00 0. -1.
         -2    1    1    2    0  502 -0.11060824735E+02  0.20495612712E+02  0.56087525139E+03  0.56135858380E+03  0.00000000000E+00 0.  1.
<mgrwt>
<rscale>  0 0.49249014E+02</rscale>
<asrwt>0</asrwt>
<pdfrwt beam="1">  1        2 0.25568424E+00 0.49249014E+02</pdfrwt>
<pdfrwt beam="2">  1       -2 0.56131212E-04 0.49249014E+02</pdfrwt>
<totfact> 0.10878413E+06</totfact>
</mgrwt>
</event>
<event>
 5    1  0.4059427E+001  0.9146817E+02  0.7546771E-02  0.1299335E+00
         -3   -1    0    0    0  501 -0.00000000000E+00  0.00000000000E+00  0.68550997307E+02  0.68550997307E+02  0.00000000000E+00 0.  1.
          3   -1    0    0  501    0  0.00000000000E+00 -0.00000000000E+00 -0.30511684485E+02  0.30511684485E+02  0.00000000000E+00 0. -1.
         23    2    1    2    0    0  0.00000000000E+00  0.00000000000E+00  0.38039312823E+02  0.99062681792E+02  0.91468167161E+02 0.  0.
          2    1    3    3  502    0  0.59108319139E+01 -0.38054991687E+02 -0.76959739555E+01  0.39272742982E+02  0.00000000000E+00 0. -1.
         -2    1    3    3    0  502 -0.59108319139E+01  0.38054991687E+02  0.45735286778E+02  0.59789938810E+02  0.00000000000E+00 0.  1.
<mgrwt>
<rscale>  0 0.91468167E+02</rscale>
<asrwt>0</asrwt>
<pdfrwt beam="2">  1        3 0.46941053E-02 0.91468167E+02</pdfrwt>
<pdfrwt beam="1">  1       -3 0.10546307E-01 0.91468167E+02</pdfrwt>
<totfact> 0.34440942E+04</totfact>
</mgrwt>
</event>
<event>
 5    1  0.4059427E+001  0.8980904E+02  0.7546771E-02  0.1303315E+00
         -2   -1    0    0    0  501 -0.00000000000E+00  0.00000000000E+00  0.21384727064E+02  0.21384727064E+02  0.00000000000E+00 0.  1.
          2   -1    0    0  501    0  0.00000000000E+00 -0.00000000000E+00 -0.94292346216E+02  0.94292346216E+02  0.00000000000E+00 0. -1.
         23    2    1    2    0    0  0.00000000000E+00  0.00000000000E+00 -0.72907619152E+02  0.11567707328E+03  0.89809043822E+02 0.  0.
          2    1    3    3  502    0 -0.35923951941E+01 -0.42759140566E+02 -0.19406612868E+02  0.47094224998E+02  0.00000000000E+00 0.  1.
         -2    1    3    3    0  502  0.35923951941E+01  0.42759140566E+02 -0.53501006284E+02  0.68582848283E+02  0.00000000000E+00 0. -1.
<mgrwt>
<rscale>  0 0.89809044E+02</rscale>
<asrwt>0</asrwt>
<pdfrwt beam="2">  1        2 0.14506515E-01 0.89809044E+02</pdfrwt>
<pdfrwt beam="1">  1       -2 0.32899580E-02 0.89809044E+02</pdfrwt>
<totfact> 0.12564131E+05</totfact>
</mgrwt>
</event>
<event>
 5    1  0.4059427E+001  0.9218329E+02  0.7546771E-02  0.1297649E+00
         -2   -1    0    0    0  501 -0.00000000000E+00  0.00000000000E+00  0.20768134760E+01  0.20768134760E+01  0.00000000000E+00 0.  1.
          2   -1    0    0  501    0  0.00000000000E+00 -0.00000000000E+00 -0.10229323169E+04  0.10229323169E+04  0.00000000000E+00 0. -1.
         23    2    1    2    0    0  0.00000000000E+00  0.00000000000E+00 -0.10208555034E+04  0.10250091303E+04  0.92183287438E+02 0.  0.
          2    1    3    3  502    0 -0.24036576489E+02  0.29012317722E+02 -0.80565759348E+03  0.80653805213E+03  0.00000000000E+00 0. -1.
         -2    1    3    3    0  502  0.24036576489E+02 -0.29012317722E+02 -0.21519790990E+03  0.21847107821E+03  0.00000000000E+00 0.  1.
<mgrwt>
<rscale>  0 0.92183287E+02</rscale>
<asrwt>0</asrwt>
<pdfrwt beam="2">  1        2 0.15737389E+00 0.92183287E+02</pdfrwt>
<pdfrwt beam="1">  1       -2 0.31951040E-03 0.92183287E+02</pdfrwt>
<totfact> 0.24308150E+05</totfact>
</mgrwt>
</event>
<event>
 5    1  0.4059427E+001  0.9010392E+02  0.7546771E-02  0.1302600E+00
         -1   -1    0    0    0  501 -0.00000000000E+00  0.00000000000E+00  0.73600207711E+01  0.73600207711E+01  0.00000000000E+00 0.  1.
          1   -1    0    0  501    0  0.00000000000E+00 -0.00000000000E+00 -0.27577082028E+03  0.27577082028E+03  0.00000000000E+00 0. -1.
         23    2    1    2    0    0  0.00000000000E+00  0.00000000000E+00 -0.26841079951E+03  0.28313084105E+03  0.90103917014E+02 0.  0.
          2    1    3    3  502    0 -0.21870436781E+02 -0.16646499301E+01 -0.10550309232E+02  0.24339188345E+02  0.00000000000E+00 0.  1.
         -2    1    3    3    0  502  0.21870436781E+02  0.16646499301E+01 -0.25786049028E+03  0.25879165271E+03  0.00000000000E+00 0. -1.
<mgrwt>
<rscale>  0 0.90103917E+02</rscale>
<asrwt>0</asrwt>
<pdfrwt beam="2">  1        1 0.42426282E-01 0.90103917E+02</pdfrwt>
<pdfrwt beam="1">  1       -1 0.11323108E-02 0.90103917E+02</pdfrwt>
<totfact> 0.13009982E+05</totfact>
</mgrwt>
</event>
<event>
 5    1  0.4059427E+001  0.9011109E+02  0.7546771E-02  0.1302583E+00
          2   -1    0    0  501    0  0.00000000000E+00  0.00000000000E+00  0.14989281991E+04  0.14989281991E+04  0.00000000000E+00 0. -1.
         -2   -1    0    0    0  501 -0.00000000000E+00 -0.00000000000E+00 -0.13543023725E+01  0.13543023725E+01  0.00000000000E+00 0.  1.
         23    2    1    2    0    0  0.00000000000E+00  0.00000000000E+00  0.14975738968E+04  0.15002825015E+04  0.90111087361E+02 0.  0.
          2    1    3    3  502    0 -0.13690422152E+01 -0.27095170998E+02  0.13476927263E+04  0.13479657663E+04  0.00000000000E+00 0. -1.
         -2    1    3    3    0  502  0.13690422152E+01  0.27095170998E+02  0.14988117044E+03  0.15231673520E+03  0.00000000000E+00 0.  1.
<mgrwt>
<rscale>  0 0.90111087E+02</rscale>
<asrwt>0</asrwt>
<pdfrwt beam="1">  1        2 0.23060301E+00 0.90111087E+02</pdfrwt>
<pdfrwt beam="2">  1       -2 0.20835541E-03 0.90111087E+02</pdfrwt>
<totfact> 0.24345368E+05</totfact>
</mgrwt>
</event>
<event>
 5    1  0.4059427E+001  0.9000222E+02  0.7546771E-02  0.1302846E+00
          1   -1    0    0  501    0  0.00000000000E+00  0.00000000000E+00  0.67298931648E+03  0.67298931648E+03  0.00000000000E+00 0. -1.
         -1   -1    0    0    0  501 -0.00000000000E+00 -0.00000000000E+00 -0.30091117583E+01  0.30091117583E+01  0.00000000000E+00 0.  1.
         23    2    1    2    0    0  0.00000000000E+00  0.00000000000E+00  0.66998020472E+03  0.67599842824E+03  0.90002223649E+02 0.  0.
          2    1    3    3  502    0  0.23520296673E+02 -0.81610660243E+01  0.53426934032E+02  0.58942723336E+02  0.00000000000E+00 0.  1.
         -2    1    3    3    0  502 -0.23520296673E+02  0.81610660243E+01  0.61655327069E+03  0.61705570490E+03  0.00000000000E+00 0. -1.
<mgrwt>
<rscale>  0 0.90002224E+02</rscale>
<asrwt>0</asrwt>
<pdfrwt beam="1">  1        1 0.10353670E+00 0.90002224E+02</pdfrwt>
<pdfrwt beam="2">  1       -1 0.46294081E-03 0.90002224E+02</pdfrwt>
<totfact> 0.14712903E+05</totfact>
</mgrwt>
</event>
<event>
 5    1  0.4059427E+001  0.9127734E+02  0.7546771E-02  0.1299788E+00
          2   -1    0    0  501    0  0.00000000000E+00  0.00000000000E+00  0.72890432338E+03  0.72890432338E+03  0.00000000000E+00 0. -1.
         -2   -1    0    0    0  501 -0.00000000000E+00 -0.00000000000E+00 -0.28575605998E+01  0.28575605998E+01  0.00000000000E+00 0.  1.
         23    2    1    2    0    0  0.00000000000E+00  0.00000000000E+00  0.72604676278E+03  0.73176188398E+03  0.91277341668E+02 0.  0.
          2    1    3    3  502    0  0.82627066251E+01 -0.29322713976E+02  0.63545601918E+03  0.63618585821E+03  0.00000000000E+00 0. -1.
         -2    1    3    3    0  502 -0.82627066251E+01  0.29322713976E+02  0.90590743603E+02  0.95576025771E+02  0.00000000000E+00 0.  1.
<mgrwt>
<rscale>  0 0.91277342E+02</rscale>
<asrwt>0</asrwt>
<pdfrwt beam="1">  1        2 0.11213898E+00 0.91277342E+02</pdfrwt>
<pdfrwt beam="2">  1       -2 0.43962529E-03 0.91277342E+02</pdfrwt>
<totfact> 0.23861821E+05</totfact>
</mgrwt>
</event>
<event>
 5    1  0.4059427E+001  0.1012660E+03  0.7546771E-02  0.1277656E+00
         -3   -1    0    0    0  501 -0.00000000000E+00  0.00000000000E+00  0.34968030243E+02  0.34968030243E+02  0.00000000000E+00 0.  1.
          3   -1    0    0  501    0  0.00000000000E+00 -0.00000000000E+00 -0.73315584075E+02  0.73315584075E+02  0.00000000000E+00 0. -1.
         23    2    1    2    0    0  0.00000000000E+00  0.00000000000E+00 -0.38347553832E+02  0.10828361432E+03  0.10126601723E+03 0.  0.
          2    1    3    3  502    0 -0.11376891337E+02  0.18877069398E+02 -0.67916956973E+02  0.71403714540E+02  0.00000000000E+00 0. -1.
         -2    1    3    3    0  502  0.11376891337E+02 -0.18877069398E+02  0.29569403141E+02  0.36879899778E+02  0.00000000000E+00 0.  1.
<mgrwt>
<rscale>  0 0.10126602E+03</rscale>
<asrwt>0</asrwt>
<pdfrwt beam="2">  1        3 0.11279321E-01 0.10126602E+03</pdfrwt>
<pdfrwt beam="1">  1       -3 0.53796970E-02 0.10126602E+03</pdfrwt>
<totfact> 0.25555451E+04</totfact>
</mgrwt>
</event>
<event>
 5    1  0.4059427E+001  0.9166818E+02  0.7546771E-02  0.1298862E+00
         -1   -1    0    0    0  501 -0.00000000000E+00  0.00000000000E+00  0.94149792988E+02  0.94149792988E+02  0.00000000000E+00 0.  1.
          1   -1    0    0  501    0  0.00000000000E+00 -0.00000000000E+00 -0.22312995716E+02  0.22312995716E+02  0.00000000000E+00 0. -1.
         23    2    1    2    0    0  0.00000000000E+00  0.00000000000E+00  0.71836797271E+02  0.11646278870E+03  0.91668182651E+02 0.  0.
          2    1    3    3  502    0 -0.33713558964E+02  0.17281631205E+02  0.31432812963E+01  0.38014984578E+02  0.00000000000E+00 0. -1.
         -2    1    3    3    0  502  0.33713558964E+02 -0.17281631205E+02  0.68693515975E+02  0.78447804126E+02  0.00000000000E+00 0.  1.
<mgrwt>
<rscale>  0 0.91668183E+02</rscale>
<asrwt>0</asrwt>
<pdfrwt beam="2">  1        1 0.34327686E-02 0.91668183E+02</pdfrwt>
<pdfrwt beam="1">  1       -1 0.14484583E-01 0.91668183E+02</pdfrwt>
<totfact> 0.81144710E+04</totfact>
</mgrwt>
</event>
<event>
 5    1  0.4059427E+001  0.9121708E+02  0.7546771E-02  0.1299931E+00
          4   -1    0    0  501    0  0.00000000000E+00  0.00000000000E+00  0.96351070913E+02  0.96351070913E+02  0.00000000000E+00 0. -1.
         -4   -1    0    0    0  501 -0.00000000000E+00 -0.00000000000E+00 -0.21589161856E+02  0.21589161856E+02  0.00000000000E+00 0.  1.
         23    2    1    2    0    0  0.00000000000E+00  0.00000000000E+00  0.74761909057E+02  0.11794023277E+03  0.91217078772E+02 0.  0.
          2    1    3    3  502    0  0.19275142007E+02 -0.31388856370E+02  0.26065820616E+01  0.36926760942E+02  0.00000000000E+00 0.  1.
         -2    1    3    3    0  502 -0.19275142007E+02  0.31388856370E+02  0.72155326995E+02  0.81013471827E+02  0.00000000000E+00 0. -1.
<mgrwt>
<rscale>  0 0.91217079E+02</rscale>
<asrwt>0</asrwt>
<pdfrwt beam="1">  1        4 0.14823241E-01 0.91217079E+02</pdfrwt>
<pdfrwt beam="2">  1       -4 0.33214096E-02 0.91217079E+02</pdfrwt>
<totfact> 0.25359713E+04</totfact>
</mgrwt>
</event>
<event>
 5    1  0.4059427E+001  0.9176966E+02  0.7546771E-02  0.1298622E+00
         -1   -1    0    0    0  501 -0.00000000000E+00  0.00000000000E+00  0.32460563466E+03  0.32460563466E+03  0.00000000000E+00 0.  1.
          1   -1    0    0  501    0  0.00000000000E+00 -0.00000000000E+00 -0.64860789979E+01  0.64860789979E+01  0.00000000000E+00 0. -1.
         23    2    1    2    0    0  0.00000000000E+00  0.00000000000E+00  0.31811955566E+03  0.33109171366E+03  0.91769663605E+02 0.  0.
          2    1    3    3  502    0  0.19332413361E+02 -0.21792578992E+02  0.31158410169E+02  0.42655658824E+02  0.00000000000E+00 0. -1.
         -2    1    3    3    0  502 -0.19332413361E+02  0.21792578992E+02  0.28696114549E+03  0.28843605483E+03  0.00000000000E+00 0.  1.
<mgrwt>
<rscale>  0 0.91769664E+02</rscale>
<asrwt>0</asrwt>
<pdfrwt beam="2">  1        1 0.99785856E-03 0.91769664E+02</pdfrwt>
<pdfrwt beam="1">  1       -1 0.49939316E-01 0.91769664E+02</pdfrwt>
<totfact> 0.57686716E+04</totfact>
</mgrwt>
</event>
<event>
 5    1  0.4059427E+001  0.1136895E+03  0.7546771E-02  0.1253886E+00
          1   -1    0    0  501    0  0.00000000000E+00  0.00000000000E+00  0.15887739735E+02  0.15887739735E+02  0.00000000000E+00 0. -1.
         -1   -1    0    0    0  501 -0.00000000000E+00 -0.00000000000E+00 -0.20338481669E+03  0.20338481669E+03  0.00000000000E+00 0.  1.
         23    2    1    2    0    0  0.00000000000E+00  0.00000000000E+00 -0.18749707695E+03  0.21927255642E+03  0.11368948999E+03 0.  0.
          2    1    3    3  502    0 -0.32089739747E+02  0.17778722119E+02 -0.10000208360E+02  0.38024183416E+02  0.00000000000E+00 0. -1.
         -2    1    3    3    0  502  0.32089739747E+02 -0.17778722119E+02 -0.17749686859E+03  0.18124837301E+03  0.00000000000E+00 0.  1.
<mgrwt>
<rscale>  0 0.11368949E+03</rscale>
<asrwt>0</asrwt>
<pdfrwt beam="1">  1        1 0.24442676E-02 0.11368949E+03</pdfrwt>
<pdfrwt beam="2">  1       -1 0.31289972E-01 0.11368949E+03</pdfrwt>
<totfact> 0.38735626E+04</totfact>
</mgrwt>
</event>
<event>
 5    1  0.4059427E+001  0.8998799E+02  0.7546771E-02  0.1302881E+00
         -3   -1    0    0    0  501 -0.00000000000E+00  0.00000000000E+00  0.24109660170E+03  0.24109660170E+03  0.00000000000E+00 0.  1.
          3   -1    0    0  501    0  0.00000000000E+00 -0.00000000000E+00 -0.83968811553E+01  0.83968811553E+01  0.00000000000E+00 0. -1.
         23    2    1    2    0    0  0.00000000000E+00  0.00000000000E+00  0.23269972055E+03  0.24949348286E+03  0.89987988342E+02 0.  0.
          2    1    3    3  502    0  0.25880227116E+02  0.18131355626E+02  0.27545772913E+02  0.41920183895E+02  0.00000000000E+00 0. -1.
         -2    1    3    3    0  502 -0.25880227116E+02 -0.18131355626E+02  0.20515394764E+03  0.20757329896E+03  0.00000000000E+00 0.  1.
<mgrwt>
<rscale>  0 0.89987988E+02</rscale>
<asrwt>0</asrwt>
<pdfrwt beam="2">  1        3 0.12918281E-02 0.89987988E+02</pdfrwt>
<pdfrwt beam="1">  1       -3 0.37091780E-01 0.89987988E+02</pdfrwt>
<totfact> 0.27058922E+04</totfact>
</mgrwt>
</event>
<event>
 5    1  0.4059427E+001  0.9365251E+02  0.7546771E-02  0.1294240E+00
          2   -1    0    0  501    0  0.00000000000E+00  0.00000000000E+00  0.13966223864E+01  0.13966223864E+01  0.00000000000E+00 0. -1.
         -2   -1    0    0    0  501 -0.00000000000E+00 -0.00000000000E+00 -0.15700007088E+04  0.15700007088E+04  0.00000000000E+00 0.  1.
         23    2    1    2    0    0  0.00000000000E+00  0.00000000000E+00 -0.15686040864E+04  0.15713973311E+04  0.93652509554E+02 0.  0.
          2    1    3    3  502    0  0.30600365793E+02  0.33819747928E+02 -0.96230237783E+03  0.96338259487E+03  0.00000000000E+00 0. -1.
         -2    1    3    3    0  502 -0.30600365793E+02 -0.33819747928E+02 -0.60630170854E+03  0.60801473627E+03  0.00000000000E+00 0.  1.
<mgrwt>
<rscale>  0 0.93652510E+02</rscale>
<asrwt>0</asrwt>
<pdfrwt beam="1">  1        2 0.21486401E-03 0.93652510E+02</pdfrwt>
<pdfrwt beam="2">  1       -2 0.24153966E+00 0.93652510E+02</pdfrwt>
<totfact> 0.91257408E+03</totfact>
</mgrwt>
</event>
<event>
 5    1  0.4059427E+001  0.8955795E+02  0.7546771E-02  0.1303926E+00
         -1   -1    0    0    0  501 -0.00000000000E+00  0.00000000000E+00  0.23582763457E+02  0.23582763457E+02  0.00000000000E+00 0.  1.
          1   -1    0    0  501    0  0.00000000000E+00 -0.00000000000E+00 -0.85026360582E+02  0.85026360582E+02  0.00000000000E+00 0. -1.
         23    2    1    2    0    0  0.00000000000E+00  0.00000000000E+00 -0.61443597124E+02  0.10860912404E+03  0.89557948820E+02 0.  0.
          2    1    3    3  502    0 -0.18034742925E+02  0.25293629414E+02  0.83899674716E+01  0.32177805946E+02  0.00000000000E+00 0.  1.
         -2    1    3    3    0  502  0.18034742925E+02 -0.25293629414E+02 -0.69833564596E+02  0.76431318093E+02  0.00000000000E+00 0. -1.
<mgrwt>
<rscale>  0 0.89557949E+02</rscale>
<asrwt>0</asrwt>
<pdfrwt beam="2">  1        1 0.13080979E-01 0.89557949E+02</pdfrwt>
<pdfrwt beam="1">  1       -1 0.36281175E-02 0.89557949E+02</pdfrwt>
<totfact> 0.10683062E+05</totfact>
</mgrwt>
</event>
<event>
 5    1  0.4059427E+001  0.9943871E+02  0.7546771E-02  0.1281481E+00
         -2   -1    0    0    0  501 -0.00000000000E+00  0.00000000000E+00  0.26880013072E+01  0.26880013072E+01  0.00000000000E+00 0.  1.
          2   -1    0    0  501    0  0.00000000000E+00 -0.00000000000E+00 -0.91964777935E+03  0.91964777935E+03  0.00000000000E+00 0. -1.
         23    2    1    2    0    0  0.00000000000E+00  0.00000000000E+00 -0.91695977805E+03  0.92233578066E+03  0.99438713448E+02 0.  0.
          2    1    3    3  502    0  0.31660359423E+02 -0.22433274506E+02 -0.74682227379E+03  0.74782961883E+03  0.00000000000E+00 0. -1.
         -2    1    3    3    0  502 -0.31660359423E+02  0.22433274506E+02 -0.17013750426E+03  0.17450616183E+03  0.00000000000E+00 0.  1.
<mgrwt>
<rscale>  0 0.99438713E+02</rscale>
<asrwt>0</asrwt>
<pdfrwt beam="2">  1        2 0.14148410E+00 0.99438713E+02</pdfrwt>
<pdfrwt beam="1">  1       -2 0.41353917E-03 0.99438713E+02</pdfrwt>
<totfact> 0.19755946E+05</totfact>
</mgrwt>
</event>
<event>
 5    1  0.4059427E+001  0.9232468E+02  0.7546771E-02  0.1297318E+00
          1   -1    0    0  501    0  0.00000000000E+00  0.00000000000E+00  0.41256532621E+03  0.41256532621E+03  0.00000000000E+00 0. -1.
         -1   -1    0    0    0  501 -0.00000000000E+00 -0.00000000000E+00 -0.51651495067E+01  0.51651495067E+01  0.00000000000E+00 0.  1.
         23    2    1    2    0    0  0.00000000000E+00  0.00000000000E+00  0.40740017670E+03  0.41773047571E+03  0.92324679065E+02 0.  0.
          2    1    3    3  502    0 -0.87681593364E+01 -0.38794027833E+02  0.97675692394E+02  0.10546278063E+03  0.00000000000E+00 0.  1.
         -2    1    3    3    0  502  0.87681593364E+01  0.38794027833E+02  0.30972448430E+03  0.31226769508E+03  0.00000000000E+00 0. -1.
<mgrwt>
<rscale>  0 0.92324679E+02</rscale>
<asrwt>0</asrwt>
<pdfrwt beam="1">  1        1 0.63471563E-01 0.92324679E+02</pdfrwt>
<pdfrwt beam="2">  1       -1 0.79463871E-03 0.92324679E+02</pdfrwt>
<totfact> 0.13113342E+05</totfact>
</mgrwt>
</event>
<event>
 5    1  0.4059427E+001  0.1029334E+03  0.7546771E-02  0.1274246E+00
          1   -1    0    0  501    0  0.00000000000E+00  0.00000000000E+00  0.63264481006E+02  0.63264481006E+02  0.00000000000E+00 0. -1.
         -1   -1    0    0    0  501 -0.00000000000E+00 -0.00000000000E+00 -0.41869042384E+02  0.41869042384E+02  0.00000000000E+00 0.  1.
         23    2    1    2    0    0  0.00000000000E+00  0.00000000000E+00  0.21395438622E+02  0.10513352339E+03  0.10293343940E+03 0.  0.
          2    1    3    3  502    0 -0.29138020873E+02  0.40216705113E+02 -0.30970909128E+01  0.49759417225E+02  0.00000000000E+00 0. -1.
         -2    1    3    3    0  502  0.29138020873E+02 -0.40216705113E+02  0.24492529534E+02  0.55374106164E+02  0.00000000000E+00 0.  1.
<mgrwt>
<rscale>  0 0.10293344E+03</rscale>
<asrwt>0</asrwt>
<pdfrwt beam="1">  1        1 0.97329971E-02 0.10293344E+03</pdfrwt>
<pdfrwt beam="2">  1       -1 0.64413911E-02 0.10293344E+03</pdfrwt>
<totfact> 0.69216675E+04</totfact>
</mgrwt>
</event>
<event>
 5    1  0.4059427E+001  0.9129830E+02  0.7546771E-02  0.1299738E+00
          1   -1    0    0  501    0  0.00000000000E+00  0.00000000000E+00  0.55356133275E+03  0.55356133275E+03  0.00000000000E+00 0. -1.
         -1   -1    0    0    0  501 -0.00000000000E+00 -0.00000000000E+00 -0.37644336419E+01  0.37644336419E+01  0.00000000000E+00 0.  1.
         23    2    1    2    0    0  0.00000000000E+00  0.00000000000E+00  0.54979689911E+03  0.55732576639E+03  0.91298300178E+02 0.  0.
          2    1    3    3  502    0 -0.29699351386E+02  0.33496077600E+02  0.32943212777E+03  0.33245987050E+03  0.00000000000E+00 0. -1.
         -2    1    3    3    0  502  0.29699351386E+02 -0.33496077600E+02  0.22036477134E+03  0.22486589589E+03  0.00000000000E+00 0.  1.
<mgrwt>
<rscale>  0 0.91298300E+02</rscale>
<asrwt>0</asrwt>
<pdfrwt beam="1">  1        1 0.85163218E-01 0.91298300E+02</pdfrwt>
<pdfrwt beam="2">  1       -1 0.57914408E-03 0.91298300E+02</pdfrwt>
<totfact> 0.14024617E+05</totfact>
</mgrwt>
</event>
<event>
 5    1  0.4059427E+001  0.9095407E+02  0.7546771E-02  0.1300558E+00
         -4   -1    0    0    0  501 -0.00000000000E+00  0.00000000000E+00  0.16192929569E+04  0.16192929569E+04  0.00000000000E+00 0.  1.
          4   -1    0    0  501    0  0.00000000000E+00 -0.00000000000E+00 -0.12771999140E+01  0.12771999140E+01  0.00000000000E+00 0. -1.
         23    2    1    2    0    0  0.00000000000E+00  0.00000000000E+00  0.16180157570E+04  0.16205701568E+04  0.90954072481E+02 0.  0.
          2    1    3    3  502    0  0.45869754049E+01 -0.38325779207E+02  0.12374630949E+04  0.12380649486E+04  0.00000000000E+00 0.  1.
         -2    1    3    3    0  502 -0.45869754049E+01  0.38325779207E+02  0.38055266204E+03  0.38250520817E+03  0.00000000000E+00 0. -1.
<mgrwt>
<rscale>  0 0.90954072E+02</rscale>
<asrwt>0</asrwt>
<pdfrwt beam="2">  1        4 0.19649359E-03 0.90954072E+02</pdfrwt>
<pdfrwt beam="1">  1       -4 0.24912035E+00 0.90954072E+02</pdfrwt>
<totfact> 0.36830000E+03</totfact>
</mgrwt>
</event>
<event>
 5    1  0.4059427E+001  0.8565491E+02  0.7546771E-02  0.1313729E+00
         -1   -1    0    0    0  501 -0.00000000000E+00  0.00000000000E+00  0.63919423315E+01  0.63919423315E+01  0.00000000000E+00 0.  1.
          1   -1    0    0  501    0  0.00000000000E+00 -0.00000000000E+00 -0.28695360859E+03  0.28695360859E+03  0.00000000000E+00 0. -1.
         23    2    1    2    0    0  0.00000000000E+00  0.00000000000E+00 -0.28056166626E+03  0.29334555092E+03  0.85654910377E+02 0.  0.
          2    1    3    3  502    0 -0.27907626056E+01 -0.38428029114E+02 -0.20432333852E+03  0.20792433346E+03  0.00000000000E+00 0. -1.
         -2    1    3    3    0  502  0.27907626056E+01  0.38428029114E+02 -0.76238327731E+02  0.85421217463E+02  0.00000000000E+00 0.  1.
<mgrwt>
<rscale>  0 0.85654910E+02</rscale>
<asrwt>0</asrwt>
<pdfrwt beam="2">  1        1 0.44146712E-01 0.85654910E+02</pdfrwt>
<pdfrwt beam="1">  1       -1 0.98337568E-03 0.85654910E+02</pdfrwt>
<totfact> 0.14996458E+05</totfact>
</mgrwt>
</event>
<event>
 5    1  0.4059427E+001  0.9204066E+02  0.7546771E-02  0.1297984E+00
         -1   -1    0    0    0  501 -0.00000000000E+00  0.00000000000E+00  0.15470909739E+03  0.15470909739E+03  0.00000000000E+00 0.  1.
          1   -1    0    0  501    0  0.00000000000E+00 -0.00000000000E+00 -0.13689375323E+02  0.13689375323E+02  0.00000000000E+00 0. -1.
         23    2    1    2    0    0  0.00000000000E+00  0.00000000000E+00  0.14101972207E+03  0.16839847271E+03  0.92040662754E+02 0.  0.
          2    1    3    3  502    0 -0.11075051083E+02 -0.41933645671E+02  0.98663473807E+02  0.10777554667E+03  0.00000000000E+00 0. -1.
         -2    1    3    3    0  502  0.11075051083E+02  0.41933645671E+02  0.42356248261E+02  0.60622926047E+02  0.00000000000E+00 0.  1.
<mgrwt>
<rscale>  0 0.92040663E+02</rscale>
<asrwt>0</asrwt>
<pdfrwt beam="2">  1        1 0.21060579E-02 0.92040663E+02</pdfrwt>
<pdfrwt beam="1">  1       -1 0.23801398E-01 0.92040663E+02</pdfrwt>
<totfact> 0.72445868E+04</totfact>
</mgrwt>
</event>
<event>
 5    1  0.4059427E+001  0.9066254E+02  0.7546771E-02  0.1301255E+00
          1   -1    0    0  501    0  0.00000000000E+00  0.00000000000E+00  0.12443277955E+03  0.12443277955E+03  0.00000000000E+00 0. -1.
         -1   -1    0    0    0  501 -0.00000000000E+00 -0.00000000000E+00 -0.16514331242E+02  0.16514331242E+02  0.00000000000E+00 0.  1.
         23    2    1    2    0    0  0.00000000000E+00  0.00000000000E+00  0.10791844830E+03  0.14094711079E+03  0.90662542183E+02 0.  0.
          2    1    3    3  502    0  0.20112691216E+02 -0.25238125674E+02  0.10345036651E+03  0.10836725366E+03  0.00000000000E+00 0. -1.
         -2    1    3    3    0  502 -0.20112691216E+02  0.25238125674E+02  0.44680817966E+01  0.32579857127E+02  0.00000000000E+00 0.  1.
<mgrwt>
<rscale>  0 0.90662542E+02</rscale>
<asrwt>0</asrwt>
<pdfrwt beam="1">  1        1 0.19143504E-01 0.90662542E+02</pdfrwt>
<pdfrwt beam="2">  1       -1 0.25406664E-02 0.90662542E+02</pdfrwt>
<totfact> 0.11009781E+05</totfact>
</mgrwt>
</event>
<event>
 5    1  0.4059427E+001  0.9135614E+02  0.7546771E-02  0.1299600E+00
          2   -1    0    0  501    0  0.00000000000E+00  0.00000000000E+00  0.57415735807E+03  0.57415735807E+03  0.00000000000E+00 0. -1.
         -2   -1    0    0    0  501 -0.00000000000E+00 -0.00000000000E+00 -0.36339970737E+01  0.36339970737E+01  0.00000000000E+00 0.  1.
         23    2    1    2    0    0  0.00000000000E+00  0.00000000000E+00  0.57052336100E+03  0.57779135514E+03  0.91356141755E+02 0.  0.
          2    1    3    3  502    0 -0.45152289094E+02 -0.31651350088E+01  0.32411496430E+03  0.32726022883E+03  0.00000000000E+00 0. -1.
         -2    1    3    3    0  502  0.45152289094E+02  0.31651350088E+01  0.24640839670E+03  0.25053112632E+03  0.00000000000E+00 0.  1.
<mgrwt>
<rscale>  0 0.91356142E+02</rscale>
<asrwt>0</asrwt>
<pdfrwt beam="1">  1        2 0.88331829E-01 0.91356142E+02</pdfrwt>
<pdfrwt beam="2">  1       -2 0.55907693E-03 0.91356142E+02</pdfrwt>
<totfact> 0.22379922E+05</totfact>
</mgrwt>
</event>
<event>
 5    1  0.4059427E+001  0.9152441E+02  0.7546771E-02  0.1299202E+00
          1   -1    0    0  501    0  0.00000000000E+00  0.00000000000E+00  0.80729849626E+01  0.80729849626E+01  0.00000000000E+00 0. -1.
         -1   -1    0    0    0  501 -0.00000000000E+00 -0.00000000000E+00 -0.25940584083E+03  0.25940584083E+03  0.00000000000E+00 0.  1.
         23    2    1    2    0    0  0.00000000000E+00  0.00000000000E+00 -0.25133285587E+03  0.26747882579E+03  0.91524411000E+02 0.  0.
          2    1    3    3  502    0 -0.27563985478E+02  0.32577905721E+02 -0.77371407419E+02  0.88359650987E+02  0.00000000000E+00 0. -1.
         -2    1    3    3    0  502  0.27563985478E+02 -0.32577905721E+02 -0.17396144845E+03  0.17911917481E+03  0.00000000000E+00 0.  1.
<mgrwt>
<rscale>  0 0.91524411E+02</rscale>
<asrwt>0</asrwt>
<pdfrwt beam="1">  1        1 0.12419978E-02 0.91524411E+02</pdfrwt>
<pdfrwt beam="2">  1       -1 0.39908588E-01 0.91524411E+02</pdfrwt>
<totfact> 0.63313995E+04</totfact>
</mgrwt>
</event>
<event>
 5    1  0.4059427E+001  0.8987644E+02  0.7546771E-02  0.1303151E+00
         -2   -1    0    0    0  501 -0.00000000000E+00  0.00000000000E+00  0.95237381337E+02  0.95237381337E+02  0.00000000000E+00 0.  1.
          2   -1    0    0  501    0  0.00000000000E+00 -0.00000000000E+00 -0.21204317938E+02  0.21204317938E+02  0.00000000000E+00 0. -1.
         23    2    1    2    0    0  0.00000000000E+00  0.00000000000E+00  0.74033063399E+02  0.11644169928E+03  0.89876442152E+02 0.  0.
          2    1    3    3  502    0 -0.25824710712E+02 -0.28314255709E+02  0.66096537315E+01  0.38888305211E+02  0.00000000000E+00 0. -1.
         -2    1    3    3    0  502  0.25824710712E+02  0.28314255709E+02  0.67423409667E+02  0.77553394065E+02  0.00000000000E+00 0.  1.
<mgrwt>
<rscale>  0 0.89876442E+02</rscale>
<asrwt>0</asrwt>
<pdfrwt beam="2">  1        2 0.32622028E-02 0.89876442E+02</pdfrwt>
<pdfrwt beam="1">  1       -2 0.14651905E-01 0.89876442E+02</pdfrwt>
<totfact> 0.83902509E+04</totfact>
</mgrwt>
</event>
<event>
 5    1  0.4059427E+001  0.8056073E+02  0.7546771E-02  0.1327468E+00
         -1   -1    0    0    0  501 -0.00000000000E+00  0.00000000000E+00  0.22436195006E+02  0.22436195006E+02  0.00000000000E+00 0.  1.
          1   -1    0    0  501    0  0.00000000000E+00 -0.00000000000E+00 -0.72316533620E+02  0.72316533620E+02  0.00000000000E+00 0. -1.
         23    2    1    2    0    0  0.00000000000E+00  0.00000000000E+00 -0.49880338614E+02  0.94752728626E+02  0.80560731140E+02 0.  0.
          2    1    3    3  502    0  0.26283539207E+02  0.94095262059E+01 -0.59092414784E+02  0.65355008237E+02  0.00000000000E+00 0. -1.
         -2    1    3    3    0  502 -0.26283539207E+02 -0.94095262059E+01  0.92120761699E+01  0.29397720389E+02  0.00000000000E+00 0.  1.
<mgrwt>
<rscale>  0 0.80560731E+02</rscale>
<asrwt>0</asrwt>
<pdfrwt beam="2">  1        1 0.11125621E-01 0.80560731E+02</pdfrwt>
<pdfrwt beam="1">  1       -1 0.34517223E-02 0.80560731E+02</pdfrwt>
<totfact> 0.13901818E+05</totfact>
</mgrwt>
</event>
<event>
 5    1  0.4059427E+001  0.9123416E+02  0.7546771E-02  0.1299890E+00
         -2   -1    0    0    0  501 -0.00000000000E+00  0.00000000000E+00  0.21957263347E+03  0.21957263347E+03  0.00000000000E+00 0.  1.
          2   -1    0    0  501    0  0.00000000000E+00 -0.00000000000E+00 -0.94771283936E+01  0.94771283936E+01  0.00000000000E+00 0. -1.
         23    2    1    2    0    0  0.00000000000E+00  0.00000000000E+00  0.21009550507E+03  0.22904976186E+03  0.91234161126E+02 0.  0.
          2    1    3    3  502    0 -0.24956812717E+00  0.36807735251E+02  0.37399817573E+02  0.52474927470E+02  0.00000000000E+00 0. -1.
         -2    1    3    3    0  502  0.24956812717E+00 -0.36807735251E+02  0.17269568750E+03  0.17657483439E+03  0.00000000000E+00 0.  1.
<mgrwt>
<rscale>  0 0.91234161E+02</rscale>
<asrwt>0</asrwt>
<pdfrwt beam="2">  1        2 0.14580199E-02 0.91234161E+02</pdfrwt>
<pdfrwt beam="1">  1       -2 0.33780401E-01 0.91234161E+02</pdfrwt>
<totfact> 0.59681963E+04</totfact>
</mgrwt>
</event>
<event>
 5    1  0.4059427E+001  0.8239487E+02  0.7546771E-02  0.1322389E+00
          1   -1    0    0  501    0  0.00000000000E+00  0.00000000000E+00  0.97375600977E+03  0.97375600977E+03  0.00000000000E+00 0. -1.
         -1   -1    0    0    0  501 -0.00000000000E+00 -0.00000000000E+00 -0.17429713370E+01  0.17429713370E+01  0.00000000000E+00 0.  1.
         23    2    1    2    0    0  0.00000000000E+00  0.00000000000E+00  0.97201303843E+03  0.97549898111E+03  0.82394873973E+02 0.  0.
          2    1    3    3  502    0 -0.14855417404E+02  0.28870645546E+02  0.78622861594E+03  0.78689874452E+03  0.00000000000E+00 0. -1.
         -2    1    3    3    0  502  0.14855417404E+02 -0.28870645546E+02  0.18578442249E+03  0.18860023659E+03  0.00000000000E+00 0.  1.
<mgrwt>
<rscale>  0 0.82394874E+02</rscale>
<asrwt>0</asrwt>
<pdfrwt beam="1">  1        1 0.14980818E+00 0.82394874E+02</pdfrwt>
<pdfrwt beam="2">  1       -1 0.26815021E-03 0.82394874E+02</pdfrwt>
<totfact> 0.17873868E+05</totfact>
</mgrwt>
</event>
<event>
 5    1  0.4059427E+001  0.9069241E+02  0.7546771E-02  0.1301184E+00
          1   -1    0    0  501    0  0.00000000000E+00  0.00000000000E+00  0.26507508346E+01  0.26507508346E+01  0.00000000000E+00 0. -1.
         -1   -1    0    0    0  501 -0.00000000000E+00 -0.00000000000E+00 -0.77573426340E+03  0.77573426340E+03  0.00000000000E+00 0.  1.
         23    2    1    2    0    0  0.00000000000E+00  0.00000000000E+00 -0.77308351256E+03  0.77838501423E+03  0.90692408638E+02 0.  0.
          2    1    3    3  502    0  0.28621470426E+02 -0.16276409287E+01 -0.84992262235E+02  0.89696836199E+02  0.00000000000E+00 0. -1.
         -2    1    3    3    0  502 -0.28621470426E+02  0.16276409287E+01 -0.68809125033E+03  0.68868817803E+03  0.00000000000E+00 0.  1.
<mgrwt>
<rscale>  0 0.90692409E+02</rscale>
<asrwt>0</asrwt>
<pdfrwt beam="1">  1        1 0.40780793E-03 0.90692409E+02</pdfrwt>
<pdfrwt beam="2">  1       -1 0.11934370E+00 0.90692409E+02</pdfrwt>
<totfact> 0.34100504E+04</totfact>
</mgrwt>
</event>
<event>
 5    1  0.4059427E+001  0.9338105E+02  0.7546771E-02  0.1294865E+00
          1   -1    0    0  501    0  0.00000000000E+00  0.00000000000E+00  0.44345580243E+03  0.44345580243E+03  0.00000000000E+00 0. -1.
         -1   -1    0    0    0  501 -0.00000000000E+00 -0.00000000000E+00 -0.49159463531E+01  0.49159463531E+01  0.00000000000E+00 0.  1.
         23    2    1    2    0    0  0.00000000000E+00  0.00000000000E+00  0.43853985608E+03  0.44837174879E+03  0.93381045930E+02 0.  0.
          2    1    3    3  502    0  0.40032790740E+01 -0.46352664126E+02  0.20042173020E+03  0.20575097971E+03  0.00000000000E+00 0. -1.
         -2    1    3    3    0  502 -0.40032790740E+01  0.46352664126E+02  0.23811812588E+03  0.24262076908E+03  0.00000000000E+00 0.  1.
<mgrwt>
<rscale>  0 0.93381046E+02</rscale>
<asrwt>0</asrwt>
<pdfrwt beam="1">  1        1 0.68223938E-01 0.93381046E+02</pdfrwt>
<pdfrwt beam="2">  1       -1 0.75629979E-03 0.93381046E+02</pdfrwt>
<totfact> 0.12863830E+05</totfact>
</mgrwt>
</event>
<event>
 5    1  0.4059427E+001  0.9190197E+02  0.7546771E-02  0.1298310E+00
          4   -1    0    0  501    0  0.00000000000E+00  0.00000000000E+00  0.10000030356E+04  0.10000030356E+04  0.00000000000E+00 0. -1.
         -4   -1    0    0    0  501 -0.00000000000E+00 -0.00000000000E+00 -0.21114867093E+01  0.21114867093E+01  0.00000000000E+00 0.  1.
         23    2    1    2    0    0  0.00000000000E+00  0.00000000000E+00  0.99789154886E+03  0.10021145223E+04  0.91901972099E+02 0.  0.
          2    1    3    3  502    0 -0.21488672246E+02  0.55992195552E+01  0.93761040482E+03  0.93787333128E+03  0.00000000000E+00 0. -1.
         -2    1    3    3    0  502  0.21488672246E+02 -0.55992195552E+01  0.60281144040E+02  0.64241191001E+02  0.00000000000E+00 0.  1.
<mgrwt>
<rscale>  0 0.91901972E+02</rscale>
<asrwt>0</asrwt>
<pdfrwt beam="1">  1        4 0.15384624E+00 0.91901972E+02</pdfrwt>
<pdfrwt beam="2">  1       -4 0.32484491E-03 0.91901972E+02</pdfrwt>
<totfact> 0.69553859E+03</totfact>
</mgrwt>
</event>
<event>
 5    1  0.4059427E+001  0.9037977E+02  0.7546771E-02  0.1301935E+00
         -3   -1    0    0    0  501 -0.00000000000E+00  0.00000000000E+00  0.19518977622E+03  0.19518977622E+03  0.00000000000E+00 0.  1.
          3   -1    0    0  501    0  0.00000000000E+00 -0.00000000000E+00 -0.10462258310E+02  0.10462258310E+02  0.00000000000E+00 0. -1.
         23    2    1    2    0    0  0.00000000000E+00  0.00000000000E+00  0.18472751791E+03  0.20565203453E+03  0.90379773363E+02 0.  0.
          2    1    3    3  502    0  0.30493844325E+02 -0.22769416224E+02  0.36916039562E+02  0.53019947509E+02  0.00000000000E+00 0. -1.
         -2    1    3    3    0  502 -0.30493844325E+02  0.22769416224E+02  0.14781147835E+03  0.15263208702E+03  0.00000000000E+00 0.  1.
<mgrwt>
<rscale>  0 0.90379773E+02</rscale>
<asrwt>0</asrwt>
<pdfrwt beam="2">  1        3 0.16095784E-02 0.90379773E+02</pdfrwt>
<pdfrwt beam="1">  1       -3 0.30029194E-01 0.90379773E+02</pdfrwt>
<totfact> 0.28882270E+04</totfact>
</mgrwt>
</event>
<event>
 5    1  0.4059427E+001  0.8279314E+02  0.7546771E-02  0.1321307E+00
         -1   -1    0    0    0  501 -0.00000000000E+00  0.00000000000E+00  0.26694007595E+02  0.26694007595E+02  0.00000000000E+00 0.  1.
          1   -1    0    0  501    0  0.00000000000E+00 -0.00000000000E+00 -0.64197028127E+02  0.64197028127E+02  0.00000000000E+00 0. -1.
         23    2    1    2    0    0  0.00000000000E+00  0.00000000000E+00 -0.37503020532E+02  0.90891035722E+02  0.82793138759E+02 0.  0.
          2    1    3    3  502    0 -0.39033963083E+02 -0.13614987269E+02 -0.21120795307E+02  0.46423120821E+02  0.00000000000E+00 0. -1.
         -2    1    3    3    0  502  0.39033963083E+02  0.13614987269E+02 -0.16382225225E+02  0.44467914901E+02  0.00000000000E+00 0.  1.
<mgrwt>
<rscale>  0 0.82793139E+02</rscale>
<asrwt>0</asrwt>
<pdfrwt beam="2">  1        1 0.98764659E-02 0.82793139E+02</pdfrwt>
<pdfrwt beam="1">  1       -1 0.41067704E-02 0.82793139E+02</pdfrwt>
<totfact> 0.12688519E+05</totfact>
</mgrwt>
</event>
<event>
 5    1  0.4059427E+001  0.9163420E+02  0.7546771E-02  0.1298942E+00
          1   -1    0    0  501    0  0.00000000000E+00  0.00000000000E+00  0.14524879027E+04  0.14524879027E+04  0.00000000000E+00 0. -1.
         -1   -1    0    0    0  501 -0.00000000000E+00 -0.00000000000E+00 -0.14452488295E+01  0.14452488295E+01  0.00000000000E+00 0.  1.
         23    2    1    2    0    0  0.00000000000E+00  0.00000000000E+00  0.14510426539E+04  0.14539331515E+04  0.91634195392E+02 0.  0.
          2    1    3    3  502    0  0.35722953287E+02 -0.81664314512E+01  0.28914745655E+03  0.29146024021E+03  0.00000000000E+00 0. -1.
         -2    1    3    3    0  502 -0.35722953287E+02  0.81664314512E+01  0.11618951973E+04  0.11624729113E+04  0.00000000000E+00 0.  1.
<mgrwt>
<rscale>  0 0.91634195E+02</rscale>
<asrwt>0</asrwt>
<pdfrwt beam="1">  1        1 0.22345851E+00 0.91634195E+02</pdfrwt>
<pdfrwt beam="2">  1       -1 0.22234714E-03 0.91634195E+02</pdfrwt>
<totfact> 0.11186199E+05</totfact>
</mgrwt>
</event>
<event>
 5    1  0.4059427E+001  0.8488648E+02  0.7546771E-02  0.1315730E+00
          2   -1    0    0  501    0  0.00000000000E+00  0.00000000000E+00  0.56837594717E+02  0.56837594717E+02  0.00000000000E+00 0. -1.
         -2   -1    0    0    0  501 -0.00000000000E+00 -0.00000000000E+00 -0.31694315936E+02  0.31694315936E+02  0.00000000000E+00 0.  1.
         23    2    1    2    0    0  0.00000000000E+00  0.00000000000E+00  0.25143278782E+02  0.88531910653E+02  0.84886481468E+02 0.  0.
          2    1    3    3  502    0  0.18318881488E+02 -0.36749703790E+02  0.23770872073E+02  0.47446564752E+02  0.00000000000E+00 0. -1.
         -2    1    3    3    0  502 -0.18318881488E+02  0.36749703790E+02  0.13724067086E+01  0.41085345901E+02  0.00000000000E+00 0.  1.
<mgrwt>
<rscale>  0 0.84886481E+02</rscale>
<asrwt>0</asrwt>
<pdfrwt beam="1">  1        2 0.87442453E-02 0.84886481E+02</pdfrwt>
<pdfrwt beam="2">  1       -2 0.48760486E-02 0.84886481E+02</pdfrwt>
<totfact> 0.12779661E+05</totfact>
</mgrwt>
</event>
<event>
 5    1  0.4059427E+001  0.9132781E+02  0.7546771E-02  0.1299668E+00
         -2   -1    0    0    0  501 -0.00000000000E+00  0.00000000000E+00  0.20890519991E+02  0.20890519991E+02  0.00000000000E+00 0.  1.
          2   -1    0    0  501    0  0.00000000000E+00 -0.00000000000E+00 -0.99815245776E+02  0.99815245776E+02  0.00000000000E+00 0. -1.
         23    2    1    2    0    0  0.00000000000E+00  0.00000000000E+00 -0.78924725785E+02  0.12070576577E+03  0.91327813666E+02 0.  0.
          2    1    3    3  502    0 -0.36443476579E+02  0.21278894605E+01 -0.75719125617E+02  0.84059745913E+02  0.00000000000E+00 0. -1.
         -2    1    3    3    0  502  0.36443476579E+02 -0.21278894605E+01 -0.32056001683E+01  0.36646019854E+02  0.00000000000E+00 0.  1.
<mgrwt>
<rscale>  0 0.91327814E+02</rscale>
<asrwt>0</asrwt>
<pdfrwt beam="2">  1        2 0.15356192E-01 0.91327814E+02</pdfrwt>
<pdfrwt beam="1">  1       -2 0.32139261E-02 0.91327814E+02</pdfrwt>
<totfact> 0.12204933E+05</totfact>
</mgrwt>
</event>
<event>
 5    1  0.4059427E+001  0.9085220E+02  0.7546771E-02  0.1300801E+00
          1   -1    0    0  501    0  0.00000000000E+00  0.00000000000E+00  0.10221544952E+04  0.10221544952E+04  0.00000000000E+00 0. -1.
         -1   -1    0    0    0  501 -0.00000000000E+00 -0.00000000000E+00 -0.20188050019E+01  0.20188050019E+01  0.00000000000E+00 0.  1.
         23    2    1    2    0    0  0.00000000000E+00  0.00000000000E+00  0.10201356902E+04  0.10241733002E+04  0.90852201021E+02 0.  0.
          2    1    3    3  502    0 -0.42619950132E+01 -0.35043464499E+02  0.83234868396E+03  0.83309695756E+03  0.00000000000E+00 0. -1.
         -2    1    3    3    0  502  0.42619950132E+01  0.35043464499E+02  0.18778700624E+03  0.19107634264E+03  0.00000000000E+00 0.  1.
<mgrwt>
<rscale>  0 0.90852201E+02</rscale>
<asrwt>0</asrwt>
<pdfrwt beam="1">  1        1 0.15725412E+00 0.90852201E+02</pdfrwt>
<pdfrwt beam="2">  1       -1 0.31058620E-03 0.90852201E+02</pdfrwt>
<totfact> 0.13647405E+05</totfact>
</mgrwt>
</event>
<event>
 5    1  0.4059427E+001  0.9352097E+02  0.7546771E-02  0.1294542E+00
         -3   -1    0    0    0  501 -0.00000000000E+00  0.00000000000E+00  0.14590495101E+03  0.14590495101E+03  0.00000000000E+00 0.  1.
          3   -1    0    0  501    0  0.00000000000E+00 -0.00000000000E+00 -0.14986078474E+02  0.14986078474E+02  0.00000000000E+00 0. -1.
         23    2    1    2    0    0  0.00000000000E+00  0.00000000000E+00  0.13091887253E+03  0.16089102948E+03  0.93520971885E+02 0.  0.
          2    1    3    3  502    0  0.25277229671E+01  0.46575221414E+02  0.71139904337E+02  0.85067776639E+02  0.00000000000E+00 0. -1.
         -2    1    3    3    0  502 -0.25277229671E+01 -0.46575221414E+02  0.59778968195E+02  0.75823252843E+02  0.00000000000E+00 0.  1.
<mgrwt>
<rscale>  0 0.93520972E+02</rscale>
<asrwt>0</asrwt>
<pdfrwt beam="2">  1        3 0.23055506E-02 0.93520972E+02</pdfrwt>
<pdfrwt beam="1">  1       -3 0.22446914E-01 0.93520972E+02</pdfrwt>
<totfact> 0.28613764E+04</totfact>
</mgrwt>
</event>
<event>
 5    1  0.4059427E+001  0.9287872E+02  0.7546771E-02  0.1296026E+00
         -4   -1    0    0    0  501 -0.00000000000E+00  0.00000000000E+00  0.52622485898E+02  0.52622485898E+02  0.00000000000E+00 0. -1.
          4   -1    0    0  501    0  0.00000000000E+00 -0.00000000000E+00 -0.40982748636E+02  0.40982748636E+02  0.00000000000E+00 0.  1.
         23    2    1    2    0    0  0.00000000000E+00  0.00000000000E+00  0.11639737262E+02  0.93605234533E+02  0.92878719029E+02 0.  0.
          2    1    3    3  502    0  0.18404026734E+02  0.34681464526E+02  0.30815117413E+02  0.49910756785E+02  0.00000000000E+00 0. -1.
         -2    1    3    3    0  502 -0.18404026734E+02 -0.34681464526E+02 -0.19175380151E+02  0.43694477748E+02  0.00000000000E+00 0.  1.
<mgrwt>
<rscale>  0 0.92878719E+02</rscale>
<asrwt>0</asrwt>
<pdfrwt beam="2">  1        4 0.63050382E-02 0.92878719E+02</pdfrwt>
<pdfrwt beam="1">  1       -4 0.80957671E-02 0.92878719E+02</pdfrwt>
<totfact> 0.25542077E+04</totfact>
</mgrwt>
</event>
<event>
 5    1  0.4059427E+001  0.8565814E+02  0.7546771E-02  0.1313720E+00
         -1   -1    0    0    0  501 -0.00000000000E+00  0.00000000000E+00  0.50675839019E+03  0.50675839019E+03  0.00000000000E+00 0.  1.
          1   -1    0    0  501    0  0.00000000000E+00 -0.00000000000E+00 -0.36197312364E+01  0.36197312364E+01  0.00000000000E+00 0. -1.
         23    2    1    2    0    0  0.00000000000E+00  0.00000000000E+00  0.50313865895E+03  0.51037812143E+03  0.85658138534E+02 0.  0.
          2    1    3    3  502    0 -0.39324850205E+02  0.11145328865E+02  0.17534318660E+03  0.18004414815E+03  0.00000000000E+00 0. -1.
         -2    1    3    3    0  502  0.39324850205E+02 -0.11145328865E+02  0.32779547236E+03  0.33033397327E+03  0.00000000000E+00 0.  1.
<mgrwt>
<rscale>  0 0.85658139E+02</rscale>
<asrwt>0</asrwt>
<pdfrwt beam="2">  1        1 0.55688213E-03 0.85658139E+02</pdfrwt>
<pdfrwt beam="1">  1       -1 0.77962773E-01 0.85658139E+02</pdfrwt>
<totfact> 0.54929385E+04</totfact>
</mgrwt>
</event>
<event>
 5    1  0.4059427E+001  0.8991749E+02  0.7546771E-02  0.1303052E+00
          3   -1    0    0  501    0  0.00000000000E+00  0.00000000000E+00  0.45299483759E+03  0.45299483759E+03  0.00000000000E+00 0. -1.
         -3   -1    0    0    0  501 -0.00000000000E+00 -0.00000000000E+00 -0.44620567154E+01  0.44620567154E+01  0.00000000000E+00 0.  1.
         23    2    1    2    0    0  0.00000000000E+00  0.00000000000E+00  0.44853278088E+03  0.45745689431E+03  0.89917487890E+02 0.  0.
          2    1    3    3  502    0 -0.25871205686E+02  0.35252545780E+02  0.17109576251E+03  0.17659507699E+03  0.00000000000E+00 0. -1.
         -2    1    3    3    0  502  0.25871205686E+02 -0.35252545780E+02  0.27743701836E+03  0.28086181731E+03  0.00000000000E+00 0.  1.
<mgrwt>
<rscale>  0 0.89917488E+02</rscale>
<asrwt>0</asrwt>
<pdfrwt beam="1">  1        3 0.69691477E-01 0.89917488E+02</pdfrwt>
<pdfrwt beam="2">  1       -3 0.68647062E-03 0.89917488E+02</pdfrwt>
<totfact> 0.19706810E+04</totfact>
</mgrwt>
</event>
<event>
 5    1  0.4059427E+001  0.8816599E+02  0.7546771E-02  0.1307355E+00
         -4   -1    0    0    0  501 -0.00000000000E+00  0.00000000000E+00  0.87006525510E+02  0.87006525510E+02  0.00000000000E+00 0.  1.
          4   -1    0    0  501    0  0.00000000000E+00 -0.00000000000E+00 -0.22335225166E+02  0.22335225166E+02  0.00000000000E+00 0. -1.
         23    2    1    2    0    0  0.00000000000E+00  0.00000000000E+00  0.64671300344E+02  0.10934175068E+03  0.88165987504E+02 0.  0.
          2    1    3    3  502    0  0.27413868807E+02  0.23282534929E+02  0.72408787104E+00  0.35973892463E+02  0.00000000000E+00 0. -1.
         -2    1    3    3    0  502 -0.27413868807E+02 -0.23282534929E+02  0.63947212473E+02  0.73367858213E+02  0.00000000000E+00 0.  1.
<mgrwt>
<rscale>  0 0.88165988E+02</rscale>
<asrwt>0</asrwt>
<pdfrwt beam="2">  1        4 0.34361885E-02 0.88165988E+02</pdfrwt>
<pdfrwt beam="1">  1       -4 0.13385619E-01 0.88165988E+02</pdfrwt>
<totfact> 0.28343931E+04</totfact>
</mgrwt>
</event>
<event>
 5    1  0.4059427E+001  0.8938543E+02  0.7546771E-02  0.1304347E+00
          1   -1    0    0  501    0  0.00000000000E+00  0.00000000000E+00  0.13497860050E+03  0.13497860050E+03  0.00000000000E+00 0. -1.
         -1   -1    0    0    0  501 -0.00000000000E+00 -0.00000000000E+00 -0.14798187404E+02  0.14798187404E+02  0.00000000000E+00 0.  1.
         23    2    1    2    0    0  0.00000000000E+00  0.00000000000E+00  0.12018041309E+03  0.14977678790E+03  0.89385426681E+02 0.  0.
          2    1    3    3  502    0 -0.27386454666E+02  0.27798478983E+02  0.96596818850E+02  0.10418118230E+03  0.00000000000E+00 0. -1.
         -2    1    3    3    0  502  0.27386454666E+02 -0.27798478983E+02  0.23583594242E+02  0.45595605603E+02  0.00000000000E+00 0.  1.
<mgrwt>
<rscale>  0 0.89385427E+02</rscale>
<asrwt>0</asrwt>
<pdfrwt beam="1">  1        1 0.20765938E-01 0.89385427E+02</pdfrwt>
<pdfrwt beam="2">  1       -1 0.22766443E-02 0.89385427E+02</pdfrwt>
<totfact> 0.11605567E+05</totfact>
</mgrwt>
</event>
<event>
 5    1  0.4059427E+001  0.9231940E+02  0.7546771E-02  0.1297330E+00
         -2   -1    0    0    0  501 -0.00000000000E+00  0.00000000000E+00  0.12726452213E+03  0.12726452213E+03  0.00000000000E+00 0.  1.
          2   -1    0    0  501    0  0.00000000000E+00 -0.00000000000E+00 -0.16742433993E+02  0.16742433993E+02  0.00000000000E+00 0. -1.
         23    2    1    2    0    0  0.00000000000E+00  0.00000000000E+00  0.11052208814E+03  0.14400695613E+03  0.92319399077E+02 0.  0.
          2    1    3    3  502    0  0.14927865853E+02  0.27716949763E+02  0.26016630668E+01  0.31588591830E+02  0.00000000000E+00 0.  1.
         -2    1    3    3    0  502 -0.14927865853E+02 -0.27716949763E+02  0.10792042507E+03  0.11241836430E+03  0.00000000000E+00 0. -1.
<mgrwt>
<rscale>  0 0.92319399E+02</rscale>
<asrwt>0</asrwt>
<pdfrwt beam="2">  1        2 0.25757592E-02 0.92319399E+02</pdfrwt>
<pdfrwt beam="1">  1       -2 0.19579157E-01 0.92319399E+02</pdfrwt>
<totfact> 0.71689928E+04</totfact>
</mgrwt>
</event>
<event>
 5    1  0.4059427E+001  0.9082834E+02  0.7546771E-02  0.1300858E+00
          2   -1    0    0  501    0  0.00000000000E+00  0.00000000000E+00  0.14531759310E+04  0.14531759310E+04  0.00000000000E+00 0. -1.
         -2   -1    0    0    0  501 -0.00000000000E+00 -0.00000000000E+00 -0.14192683983E+01  0.14192683983E+01  0.00000000000E+00 0.  1.
         23    2    1    2    0    0  0.00000000000E+00  0.00000000000E+00  0.14517566626E+04  0.14545951994E+04  0.90828336460E+02 0.  0.
          2    1    3    3  502    0  0.38218362777E+02  0.67380378655E+01  0.34811896970E+03  0.35027540803E+03  0.00000000000E+00 0. -1.
         -2    1    3    3    0  502 -0.38218362777E+02 -0.67380378655E+01  0.11036376929E+04  0.11043197914E+04  0.00000000000E+00 0.  1.
<mgrwt>
<rscale>  0 0.90828336E+02</rscale>
<asrwt>0</asrwt>
<pdfrwt beam="1">  1        2 0.22356434E+00 0.90828336E+02</pdfrwt>
<pdfrwt beam="2">  1       -2 0.21835015E-03 0.90828336E+02</pdfrwt>
<totfact> 0.24106136E+05</totfact>
</mgrwt>
</event>
<event>
 5    1  0.4059427E+001  0.9033160E+02  0.7546771E-02  0.1302051E+00
         -1   -1    0    0    0  501 -0.00000000000E+00  0.00000000000E+00  0.13477412866E+02  0.13477412866E+02  0.00000000000E+00 0.  1.
          1   -1    0    0  501    0  0.00000000000E+00 -0.00000000000E+00 -0.15136061398E+03  0.15136061398E+03  0.00000000000E+00 0. -1.
         23    2    1    2    0    0  0.00000000000E+00  0.00000000000E+00 -0.13788320112E+03  0.16483802685E+03  0.90331599925E+02 0.  0.
          2    1    3    3  502    0  0.17811754164E+02 -0.12048970051E+02 -0.14141926813E+03  0.14304490785E+03  0.00000000000E+00 0. -1.
         -2    1    3    3    0  502 -0.17811754164E+02  0.12048970051E+02  0.35360670080E+01  0.21793118996E+02  0.00000000000E+00 0.  1.
<mgrwt>
<rscale>  0 0.90331600E+02</rscale>
<asrwt>0</asrwt>
<pdfrwt beam="2">  1        1 0.23286248E-01 0.90331600E+02</pdfrwt>
<pdfrwt beam="1">  1       -1 0.20734482E-02 0.90331600E+02</pdfrwt>
<totfact> 0.11517325E+05</totfact>
</mgrwt>
</event>
<event>
 5    1  0.4059427E+001  0.9099230E+02  0.7546771E-02  0.1300466E+00
          2   -1    0    0  501    0  0.00000000000E+00  0.00000000000E+00  0.18494000672E+02  0.18494000672E+02  0.00000000000E+00 0. -1.
         -2   -1    0    0    0  501 -0.00000000000E+00 -0.00000000000E+00 -0.11192277428E+03  0.11192277428E+03  0.00000000000E+00 0.  1.
         23    2    1    2    0    0  0.00000000000E+00  0.00000000000E+00 -0.93428773612E+02  0.13041677496E+03  0.90992304351E+02 0.  0.
          2    1    3    3  502    0  0.38863091235E+02  0.58362585052E+01 -0.13858411497E+02  0.41670821241E+02  0.00000000000E+00 0. -1.
         -2    1    3    3    0  502 -0.38863091235E+02 -0.58362585052E+01 -0.79570362115E+02  0.88745953715E+02  0.00000000000E+00 0.  1.
<mgrwt>
<rscale>  0 0.90992304E+02</rscale>
<asrwt>0</asrwt>
<pdfrwt beam="1">  1        2 0.28452309E-02 0.90992304E+02</pdfrwt>
<pdfrwt beam="2">  1       -2 0.17218888E-01 0.90992304E+02</pdfrwt>
<totfact> 0.77499239E+04</totfact>
</mgrwt>
</event>
<event>
 5    1  0.4059427E+001  0.9226854E+02  0.7546771E-02  0.1297449E+00
          2   -1    0    0  501    0  0.00000000000E+00  0.00000000000E+00  0.24315172230E+02  0.24315172230E+02  0.00000000000E+00 0. -1.
         -2   -1    0    0    0  501 -0.00000000000E+00 -0.00000000000E+00 -0.87532624339E+02  0.87532624339E+02  0.00000000000E+00 0.  1.
         23    2    1    2    0    0  0.00000000000E+00  0.00000000000E+00 -0.63217452109E+02  0.11184779657E+03  0.92268539309E+02 0.  0.
          2    1    3    3  502    0  0.32200471482E+02 -0.81438413853E+01  0.72039416579E+01  0.33986604591E+02  0.00000000000E+00 0. -1.
         -2    1    3    3    0  502 -0.32200471482E+02  0.81438413853E+01 -0.70421393766E+02  0.77861191978E+02  0.00000000000E+00 0.  1.
<mgrwt>
<rscale>  0 0.92268539E+02</rscale>
<asrwt>0</asrwt>
<pdfrwt beam="1">  1        2 0.37407957E-02 0.92268539E+02</pdfrwt>
<pdfrwt beam="2">  1       -2 0.13466558E-01 0.92268539E+02</pdfrwt>
<totfact> 0.80555049E+04</totfact>
</mgrwt>
</event>
<event>
 5    1  0.4059427E+001  0.9142286E+02  0.7546771E-02  0.1299442E+00
         -2   -1    0    0    0  501 -0.00000000000E+00  0.00000000000E+00  0.30645786795E+01  0.30645786795E+01  0.00000000000E+00 0.  1.
          2   -1    0    0  501    0  0.00000000000E+00 -0.00000000000E+00 -0.68183435188E+03  0.68183435188E+03  0.00000000000E+00 0. -1.
         23    2    1    2    0    0  0.00000000000E+00  0.00000000000E+00 -0.67876977320E+03  0.68489893056E+03  0.91422864049E+02 0.  0.
          2    1    3    3  502    0  0.93973736979E+01  0.44093232186E+02 -0.39595043315E+03  0.39850880702E+03  0.00000000000E+00 0. -1.
         -2    1    3    3    0  502 -0.93973736979E+01 -0.44093232186E+02 -0.28281934005E+03  0.28639012354E+03  0.00000000000E+00 0.  1.
<mgrwt>
<rscale>  0 0.91422864E+02</rscale>
<asrwt>0</asrwt>
<pdfrwt beam="2">  1        2 0.10489770E+00 0.91422864E+02</pdfrwt>
<pdfrwt beam="1">  1       -2 0.47147315E-03 0.91422864E+02</pdfrwt>
<totfact> 0.23399507E+05</totfact>
</mgrwt>
</event>
<event>
 5    1  0.4059427E+001  0.9240182E+02  0.7546771E-02  0.1297137E+00
         -2   -1    0    0    0  501 -0.00000000000E+00  0.00000000000E+00  0.38779249059E+01  0.38779249059E+01  0.00000000000E+00 0. -1.
          2   -1    0    0  501    0  0.00000000000E+00 -0.00000000000E+00 -0.55042946724E+03  0.55042946724E+03  0.00000000000E+00 0.  1.
         23    2    1    2    0    0  0.00000000000E+00  0.00000000000E+00 -0.54655154234E+03  0.55430739215E+03  0.92401821193E+02 0.  0.
          2    1    3    3  502    0  0.16876347154E+02 -0.14157267556E+02 -0.29652948666E+02  0.36939635658E+02  0.00000000000E+00 0. -1.
         -2    1    3    3    0  502 -0.16876347154E+02  0.14157267556E+02 -0.51689859367E+03  0.51736775649E+03  0.00000000000E+00 0.  1.
<mgrwt>
<rscale>  0 0.92401821E+02</rscale>
<asrwt>0</asrwt>
<pdfrwt beam="2">  1        2 0.84681461E-01 0.92401821E+02</pdfrwt>
<pdfrwt beam="1">  1       -2 0.59660380E-03 0.92401821E+02</pdfrwt>
<totfact> 0.21442002E+05</totfact>
</mgrwt>
</event>
<event>
 5    1  0.4059427E+001  0.9928197E+02  0.7546771E-02  0.1281813E+00
         -1   -1    0    0    0  501 -0.00000000000E+00  0.00000000000E+00  0.13374519497E+02  0.13374519497E+02  0.00000000000E+00 0.  1.
          1   -1    0    0  501    0  0.00000000000E+00 -0.00000000000E+00 -0.18424793515E+03  0.18424793515E+03  0.00000000000E+00 0. -1.
         23    2    1    2    0    0  0.00000000000E+00  0.00000000000E+00 -0.17087341566E+03  0.19762245465E+03  0.99281974216E+02 0.  0.
          2    1    3    3  502    0  0.54569846564E+01 -0.49338882437E+02 -0.84736907791E+02  0.98206148197E+02  0.00000000000E+00 0. -1.
         -2    1    3    3    0  502 -0.54569846564E+01  0.49338882437E+02 -0.86136507865E+02  0.99416306453E+02  0.00000000000E+00 0.  1.
<mgrwt>
<rscale>  0 0.99281974E+02</rscale>
<asrwt>0</asrwt>
<pdfrwt beam="2">  1        1 0.28345836E-01 0.99281974E+02</pdfrwt>
<pdfrwt beam="1">  1       -1 0.20576184E-02 0.99281974E+02</pdfrwt>
<totfact> 0.92601296E+04</totfact>
</mgrwt>
</event>
<event>
 5    1  0.4059427E+001  0.9153459E+02  0.7546771E-02  0.1299177E+00
          1   -1    0    0  501    0  0.00000000000E+00  0.00000000000E+00  0.38433650062E+02  0.38433650062E+02  0.00000000000E+00 0. -1.
         -1   -1    0    0    0  501 -0.00000000000E+00 -0.00000000000E+00 -0.54500294876E+02  0.54500294876E+02  0.00000000000E+00 0.  1.
         23    2    1    2    0    0  0.00000000000E+00  0.00000000000E+00 -0.16066644814E+02  0.92933944939E+02  0.91534589343E+02 0.  0.
          2    1    3    3  502    0 -0.29724109127E+02  0.26142966246E+02  0.15288875629E+02  0.42434974555E+02  0.00000000000E+00 0. -1.
         -2    1    3    3    0  502  0.29724109127E+02 -0.26142966246E+02 -0.31355520443E+02  0.50498970383E+02  0.00000000000E+00 0.  1.
<mgrwt>
<rscale>  0 0.91534589E+02</rscale>
<asrwt>0</asrwt>
<pdfrwt beam="1">  1        1 0.59128693E-02 0.91534589E+02</pdfrwt>
<pdfrwt beam="2">  1       -1 0.83846607E-02 0.91534589E+02</pdfrwt>
<totfact> 0.89118790E+04</totfact>
</mgrwt>
</event>
<event>
 5    1  0.4059427E+001  0.9244035E+02  0.7546771E-02  0.1297047E+00
         -3   -1    0    0    0  501 -0.00000000000E+00  0.00000000000E+00  0.75831576703E+01  0.75831576703E+01  0.00000000000E+00 0.  1.
          3   -1    0    0  501    0  0.00000000000E+00 -0.00000000000E+00 -0.28171701967E+03  0.28171701967E+03  0.00000000000E+00 0. -1.
         23    2    1    2    0    0  0.00000000000E+00  0.00000000000E+00 -0.27413386200E+03  0.28930017734E+03  0.92440350033E+02 0.  0.
          2    1    3    3  502    0  0.86374197292E+01  0.30970267329E+02 -0.24098347853E+03  0.24311889973E+03  0.00000000000E+00 0. -1.
         -2    1    3    3    0  502 -0.86374197292E+01 -0.30970267329E+02 -0.33150383462E+02  0.46181277610E+02  0.00000000000E+00 0.  1.
<mgrwt>
<rscale>  0 0.92440350E+02</rscale>
<asrwt>0</asrwt>
<pdfrwt beam="2">  1        3 0.43341074E-01 0.92440350E+02</pdfrwt>
<pdfrwt beam="1">  1       -3 0.11666398E-02 0.92440350E+02</pdfrwt>
<totfact> 0.23562205E+04</totfact>
</mgrwt>
</event>
<event>
 5    1  0.4059427E+001  0.7898720E+02  0.7546771E-02  0.1331950E+00
         -4   -1    0    0    0  501 -0.00000000000E+00  0.00000000000E+00  0.14848549275E+02  0.14848549275E+02  0.00000000000E+00 0.  1.
          4   -1    0    0  501    0  0.00000000000E+00 -0.00000000000E+00 -0.10504354585E+03  0.10504354585E+03  0.00000000000E+00 0. -1.
         23    2    1    2    0    0  0.00000000000E+00  0.00000000000E+00 -0.90194996579E+02  0.11989209513E+03  0.78987195585E+02 0.  0.
          2    1    3    3  502    0 -0.22565621445E+02  0.32143315820E+02 -0.51418873025E+02  0.64701626921E+02  0.00000000000E+00 0. -1.
         -2    1    3    3    0  502  0.22565621445E+02 -0.32143315820E+02 -0.38776123555E+02  0.55190468208E+02  0.00000000000E+00 0.  1.
<mgrwt>
<rscale>  0 0.78987196E+02</rscale>
<asrwt>0</asrwt>
<pdfrwt beam="2">  1        4 0.16160545E-01 0.78987196E+02</pdfrwt>
<pdfrwt beam="1">  1       -4 0.22843923E-02 0.78987196E+02</pdfrwt>
<totfact> 0.37090943E+04</totfact>
</mgrwt>
</event>
<event>
 5    1  0.4059427E+001  0.9058912E+02  0.7546771E-02  0.1301431E+00
          2   -1    0    0  501    0  0.00000000000E+00  0.00000000000E+00  0.20012289911E+03  0.20012289911E+03  0.00000000000E+00 0. -1.
         -2   -1    0    0    0  501 -0.00000000000E+00 -0.00000000000E+00 -0.10251687239E+02  0.10251687239E+02  0.00000000000E+00 0.  1.
         23    2    1    2    0    0  0.00000000000E+00  0.00000000000E+00  0.18987121187E+03  0.21037458635E+03  0.90589124536E+02 0.  0.
          2    1    3    3  502    0 -0.14848230807E+02 -0.14769751382E+02  0.18820345338E+03  0.18936513770E+03  0.00000000000E+00 0. -1.
         -2    1    3    3    0  502  0.14848230807E+02  0.14769751382E+02  0.16677584915E+01  0.21009448645E+02  0.00000000000E+00 0.  1.
<mgrwt>
<rscale>  0 0.90589125E+02</rscale>
<asrwt>0</asrwt>
<pdfrwt beam="1">  1        2 0.30788135E-01 0.90589125E+02</pdfrwt>
<pdfrwt beam="2">  1       -2 0.15771828E-02 0.90589125E+02</pdfrwt>
<totfact> 0.15742905E+05</totfact>
</mgrwt>
</event>
<event>
 5    1  0.4059427E+001  0.9067999E+02  0.7546771E-02  0.1301213E+00
         -1   -1    0    0    0  501 -0.00000000000E+00  0.00000000000E+00  0.12975920574E+02  0.12975920574E+02  0.00000000000E+00 0.  1.
          1   -1    0    0  501    0  0.00000000000E+00 -0.00000000000E+00 -0.15842539133E+03  0.15842539133E+03  0.00000000000E+00 0. -1.
         23    2    1    2    0    0  0.00000000000E+00  0.00000000000E+00 -0.14544947075E+03  0.17140131190E+03  0.90679993268E+02 0.  0.
          2    1    3    3  502    0  0.32481411364E+02  0.31433299048E+02 -0.79439769068E+02  0.91398967625E+02  0.00000000000E+00 0. -1.
         -2    1    3    3    0  502 -0.32481411364E+02 -0.31433299048E+02 -0.66009701686E+02  0.80002344277E+02  0.00000000000E+00 0.  1.
<mgrwt>
<rscale>  0 0.90679993E+02</rscale>
<asrwt>0</asrwt>
<pdfrwt beam="2">  1        1 0.24373136E-01 0.90679993E+02</pdfrwt>
<pdfrwt beam="1">  1       -1 0.19962956E-02 0.90679993E+02</pdfrwt>
<totfact> 0.11495033E+05</totfact>
</mgrwt>
</event>
<event>
 5    1  0.4059427E+001  0.9032711E+02  0.7546771E-02  0.1302061E+00
         -1   -1    0    0    0  501 -0.00000000000E+00  0.00000000000E+00  0.51281278082E+01  0.51281278082E+01  0.00000000000E+00 0.  1.
          1   -1    0    0  501    0  0.00000000000E+00 -0.00000000000E+00 -0.39775659234E+03  0.39775659234E+03  0.00000000000E+00 0. -1.
         23    2    1    2    0    0  0.00000000000E+00  0.00000000000E+00 -0.39262846453E+03  0.40288472015E+03  0.90327108712E+02 0.  0.
          2    1    3    3  502    0 -0.41077599341E+02  0.17358804565E+02 -0.22818246039E+03  0.23249931719E+03  0.00000000000E+00 0. -1.
         -2    1    3    3    0  502  0.41077599341E+02 -0.17358804565E+02 -0.16444600414E+03  0.17038540296E+03  0.00000000000E+00 0.  1.
<mgrwt>
<rscale>  0 0.90327109E+02</rscale>
<asrwt>0</asrwt>
<pdfrwt beam="2">  1        1 0.61193321E-01 0.90327109E+02</pdfrwt>
<pdfrwt beam="1">  1       -1 0.78894275E-03 0.90327109E+02</pdfrwt>
<totfact> 0.13815711E+05</totfact>
</mgrwt>
</event>
<event>
 5    1  0.4059427E+001  0.9038731E+02  0.7546771E-02  0.1301916E+00
          2   -1    0    0  501    0  0.00000000000E+00  0.00000000000E+00  0.92688584908E+03  0.92688584908E+03  0.00000000000E+00 0. -1.
         -2   -1    0    0    0  501 -0.00000000000E+00 -0.00000000000E+00 -0.22035792696E+01  0.22035792696E+01  0.00000000000E+00 0.  1.
         23    2    1    2    0    0  0.00000000000E+00  0.00000000000E+00  0.92468226981E+03  0.92908942835E+03  0.90387309781E+02 0.  0.
          2    1    3    3  502    0 -0.12751529856E+02  0.36124806895E+02  0.70879312698E+03  0.70982765517E+03  0.00000000000E+00 0. -1.
         -2    1    3    3    0  502  0.12751529856E+02 -0.36124806895E+02  0.21588914283E+03  0.21926177319E+03  0.00000000000E+00 0.  1.
<mgrwt>
<rscale>  0 0.90387310E+02</rscale>
<asrwt>0</asrwt>
<pdfrwt beam="1">  1        2 0.14259751E+00 0.90387310E+02</pdfrwt>
<pdfrwt beam="2">  1       -2 0.33901293E-03 0.90387310E+02</pdfrwt>
<totfact> 0.25445713E+05</totfact>
</mgrwt>
</event>
<event>
 5    1  0.4059427E+001  0.8957079E+02  0.7546771E-02  0.1303894E+00
          2   -1    0    0  501    0  0.00000000000E+00  0.00000000000E+00  0.24233138811E+03  0.24233138811E+03  0.00000000000E+00 0.  1.
         -2   -1    0    0    0  501 -0.00000000000E+00 -0.00000000000E+00 -0.82768127409E+01  0.82768127409E+01  0.00000000000E+00 0. -1.
         23    2    1    2    0    0  0.00000000000E+00  0.00000000000E+00  0.23405457536E+03  0.25060820085E+03  0.89570788109E+02 0.  0.
          2    1    3    3  502    0  0.40073353245E+02 -0.13779282967E+02  0.15757136349E+03  0.16317008572E+03  0.00000000000E+00 0.  1.
         -2    1    3    3    0  502 -0.40073353245E+02  0.13779282967E+02  0.76483211871E+02  0.87438115131E+02  0.00000000000E+00 0. -1.
<mgrwt>
<rscale>  0 0.89570788E+02</rscale>
<asrwt>0</asrwt>
<pdfrwt beam="1">  1        2 0.37281747E-01 0.89570788E+02</pdfrwt>
<pdfrwt beam="2">  1       -2 0.12733560E-02 0.89570788E+02</pdfrwt>
<totfact> 0.17401888E+05</totfact>
</mgrwt>
</event>
<event>
 5    1  0.4059427E+001  0.8998161E+02  0.7546771E-02  0.1302896E+00
          1   -1    0    0  501    0  0.00000000000E+00  0.00000000000E+00  0.36719053214E+03  0.36719053214E+03  0.00000000000E+00 0. -1.
         -1   -1    0    0    0  501 -0.00000000000E+00 -0.00000000000E+00 -0.55125941867E+01  0.55125941867E+01  0.00000000000E+00 0.  1.
         23    2    1    2    0    0  0.00000000000E+00  0.00000000000E+00  0.36167793796E+03  0.37270312633E+03  0.89981606852E+02 0.  0.
          2    1    3    3  502    0 -0.42205375647E+02 -0.52228339315E+01  0.24165727781E+03  0.24537076363E+03  0.00000000000E+00 0. -1.
         -2    1    3    3    0  502  0.42205375647E+02  0.52228339315E+01  0.12002066015E+03  0.12733236270E+03  0.00000000000E+00 0.  1.
<mgrwt>
<rscale>  0 0.89981607E+02</rscale>
<asrwt>0</asrwt>
<pdfrwt beam="1">  1        1 0.56490832E-01 0.89981607E+02</pdfrwt>
<pdfrwt beam="2">  1       -1 0.84809170E-03 0.89981607E+02</pdfrwt>
<totfact> 0.13768996E+05</totfact>
</mgrwt>
</event>
<event>
 5    1  0.4059427E+001  0.9209894E+02  0.7546771E-02  0.1297847E+00
         -1   -1    0    0    0  501 -0.00000000000E+00  0.00000000000E+00  0.25979228582E+01  0.25979228582E+01  0.00000000000E+00 0.  1.
          1   -1    0    0  501    0  0.00000000000E+00 -0.00000000000E+00 -0.81624969012E+03  0.81624969012E+03  0.00000000000E+00 0. -1.
         23    2    1    2    0    0  0.00000000000E+00  0.00000000000E+00 -0.81365176726E+03  0.81884761298E+03  0.92098940883E+02 0.  0.
          2    1    3    3  502    0 -0.45195784990E+02  0.88106091542E+01 -0.41142787359E+03  0.41399659538E+03  0.00000000000E+00 0. -1.
         -2    1    3    3    0  502  0.45195784990E+02 -0.88106091542E+01 -0.40222389366E+03  0.40485101760E+03  0.00000000000E+00 0.  1.
<mgrwt>
<rscale>  0 0.92098941E+02</rscale>
<asrwt>0</asrwt>
<pdfrwt beam="2">  1        1 0.12557687E+00 0.92098941E+02</pdfrwt>
<pdfrwt beam="1">  1       -1 0.39968047E-03 0.92098941E+02</pdfrwt>
<totfact> 0.13732779E+05</totfact>
</mgrwt>
</event>
<event>
 5    1  0.4059427E+001  0.9096899E+02  0.7546771E-02  0.1300522E+00
         -2   -1    0    0    0  501 -0.00000000000E+00  0.00000000000E+00  0.11442750845E+01  0.11442750845E+01  0.00000000000E+00 0.  1.
          2   -1    0    0  501    0  0.00000000000E+00 -0.00000000000E+00 -0.18079910796E+04  0.18079910796E+04  0.00000000000E+00 0. -1.
         23    2    1    2    0    0  0.00000000000E+00  0.00000000000E+00 -0.18068468045E+04  0.18091353547E+04  0.90968986919E+02 0.  0.
          2    1    3    3  502    0  0.24150995815E+02  0.37721520628E+02 -0.10608423674E+04  0.10617875080E+04  0.00000000000E+00 0. -1.
         -2    1    3    3    0  502 -0.24150995815E+02 -0.37721520628E+02 -0.74600443713E+03  0.74734784668E+03  0.00000000000E+00 0.  1.
<mgrwt>
<rscale>  0 0.90968987E+02</rscale>
<asrwt>0</asrwt>
<pdfrwt beam="2">  1        2 0.27815106E+00 0.90968987E+02</pdfrwt>
<pdfrwt beam="1">  1       -2 0.17604322E-03 0.90968987E+02</pdfrwt>
<totfact> 0.21495865E+05</totfact>
</mgrwt>
</event>
<event>
 5    1  0.4059427E+001  0.9085798E+02  0.7546771E-02  0.1300787E+00
         -2   -1    0    0    0  501 -0.00000000000E+00  0.00000000000E+00  0.36616773794E+01  0.36616773794E+01  0.00000000000E+00 0.  1.
          2   -1    0    0  501    0  0.00000000000E+00 -0.00000000000E+00 -0.56361955037E+03  0.56361955037E+03  0.00000000000E+00 0. -1.
         23    2    1    2    0    0  0.00000000000E+00  0.00000000000E+00 -0.55995787299E+03  0.56728122775E+03  0.90857976164E+02 0.  0.
          2    1    3    3  502    0  0.42707747846E+02 -0.12704266494E+02 -0.33527726721E+03  0.33822506711E+03  0.00000000000E+00 0. -1.
         -2    1    3    3    0  502 -0.42707747846E+02  0.12704266494E+02 -0.22468060578E+03  0.22905616064E+03  0.00000000000E+00 0.  1.
<mgrwt>
<rscale>  0 0.90857976E+02</rscale>
<asrwt>0</asrwt>
<pdfrwt beam="2">  1        2 0.86710683E-01 0.90857976E+02</pdfrwt>
<pdfrwt beam="1">  1       -2 0.56333509E-03 0.90857976E+02</pdfrwt>
<totfact> 0.22580825E+05</totfact>
</mgrwt>
</event>
<event>
 5    1  0.4059427E+001  0.8960239E+02  0.7546771E-02  0.1303817E+00
         -1   -1    0    0    0  501 -0.00000000000E+00  0.00000000000E+00  0.15352558021E+01  0.15352558021E+01  0.00000000000E+00 0.  1.
          1   -1    0    0  501    0  0.00000000000E+00 -0.00000000000E+00 -0.13073697373E+04  0.13073697373E+04  0.00000000000E+00 0. -1.
         23    2    1    2    0    0  0.00000000000E+00  0.00000000000E+00 -0.13058344815E+04  0.13089049931E+04  0.89602387797E+02 0.  0.
          2    1    3    3  502    0  0.28274120917E+02  0.33891870116E+02 -0.76518197572E+03  0.76645387385E+03  0.00000000000E+00 0. -1.
         -2    1    3    3    0  502 -0.28274120917E+02 -0.33891870116E+02 -0.54065250578E+03  0.54245111925E+03  0.00000000000E+00 0.  1.
<mgrwt>
<rscale>  0 0.89602388E+02</rscale>
<asrwt>0</asrwt>
<pdfrwt beam="2">  1        1 0.20113374E+00 0.89602388E+02</pdfrwt>
<pdfrwt beam="1">  1       -1 0.23619327E-03 0.89602388E+02</pdfrwt>
<totfact> 0.12740045E+05</totfact>
</mgrwt>
</event>
<event>
 5    1  0.4059427E+001  0.9640711E+02  0.7546771E-02  0.1288038E+00
          2   -1    0    0  501    0  0.00000000000E+00  0.00000000000E+00  0.25008949131E+02  0.25008949131E+02  0.00000000000E+00 0.  1.
         -2   -1    0    0    0  501 -0.00000000000E+00 -0.00000000000E+00 -0.92910045866E+02  0.92910045866E+02  0.00000000000E+00 0. -1.
         23    2    1    2    0    0  0.00000000000E+00  0.00000000000E+00 -0.67901096735E+02  0.11791899500E+03  0.96407107846E+02 0.  0.
          2    1    3    3  502    0  0.87128866484E+01 -0.41860314258E+02 -0.61174111096E+02  0.74635595877E+02  0.00000000000E+00 0. -1.
         -2    1    3    3    0  502 -0.87128866484E+01  0.41860314258E+02 -0.67269856390E+01  0.43283399119E+02  0.00000000000E+00 0.  1.
<mgrwt>
<rscale>  0 0.96407108E+02</rscale>
<asrwt>0</asrwt>
<pdfrwt beam="1">  1        2 0.38475307E-02 0.96407108E+02</pdfrwt>
<pdfrwt beam="2">  1       -2 0.14293853E-01 0.96407108E+02</pdfrwt>
<totfact> 0.71022167E+04</totfact>
</mgrwt>
</event>
<event>
 5    1  0.4059427E+001  0.9130365E+02  0.7546771E-02  0.1299725E+00
          1   -1    0    0  501    0  0.00000000000E+00  0.00000000000E+00  0.14890524686E+04  0.14890524686E+04  0.00000000000E+00 0. -1.
         -1   -1    0    0    0  501 -0.00000000000E+00 -0.00000000000E+00 -0.13996076098E+01  0.13996076098E+01  0.00000000000E+00 0.  1.
         23    2    1    2    0    0  0.00000000000E+00  0.00000000000E+00  0.14876528610E+04  0.14904520762E+04  0.91303650890E+02 0.  0.
          2    1    3    3  502    0  0.28814420963E+02 -0.35314187010E+02  0.78616387752E+03  0.78748397125E+03  0.00000000000E+00 0. -1.
         -2    1    3    3    0  502 -0.28814420963E+02  0.35314187010E+02  0.70148898345E+03  0.70296810494E+03  0.00000000000E+00 0.  1.
<mgrwt>
<rscale>  0 0.91303651E+02</rscale>
<asrwt>0</asrwt>
<pdfrwt beam="1">  1        1 0.22908373E+00 0.91303651E+02</pdfrwt>
<pdfrwt beam="2">  1       -1 0.21532544E-03 0.91303651E+02</pdfrwt>
<totfact> 0.11076130E+05</totfact>
</mgrwt>
</event>
<event>
 5    1  0.4059427E+001  0.9030072E+02  0.7546771E-02  0.1302125E+00
          2   -1    0    0  501    0  0.00000000000E+00  0.00000000000E+00  0.69904637980E+03  0.69904637980E+03  0.00000000000E+00 0. -1.
         -2   -1    0    0    0  501 -0.00000000000E+00 -0.00000000000E+00 -0.29161945352E+01  0.29161945352E+01  0.00000000000E+00 0.  1.
         23    2    1    2    0    0  0.00000000000E+00  0.00000000000E+00  0.69613018527E+03  0.70196257434E+03  0.90300724972E+02 0.  0.
          2    1    3    3  502    0  0.30981300709E+02  0.18225703291E+02  0.56046223737E+03  0.56161368997E+03  0.00000000000E+00 0. -1.
         -2    1    3    3    0  502 -0.30981300709E+02 -0.18225703291E+02  0.13566794790E+03  0.14034888436E+03  0.00000000000E+00 0.  1.
<mgrwt>
<rscale>  0 0.90300725E+02</rscale>
<asrwt>0</asrwt>
<pdfrwt beam="1">  1        2 0.10754546E+00 0.90300725E+02</pdfrwt>
<pdfrwt beam="2">  1       -2 0.44864587E-03 0.90300725E+02</pdfrwt>
<totfact> 0.24317893E+05</totfact>
</mgrwt>
</event>
<event>
 5    1  0.4059427E+001  0.9252339E+02  0.7546771E-02  0.1296853E+00
         -1   -1    0    0    0  501 -0.00000000000E+00  0.00000000000E+00  0.12376081412E+03  0.12376081412E+03  0.00000000000E+00 0.  1.
          1   -1    0    0  501    0  0.00000000000E+00 -0.00000000000E+00 -0.17292586207E+02  0.17292586207E+02  0.00000000000E+00 0. -1.
         23    2    1    2    0    0  0.00000000000E+00  0.00000000000E+00  0.10646822791E+03  0.14105340032E+03  0.92523392657E+02 0.  0.
          2    1    3    3  502    0 -0.18262699143E+02 -0.42082209648E+02  0.62343783038E+02  0.77402750805E+02  0.00000000000E+00 0.  1.
         -2    1    3    3    0  502  0.18262699143E+02  0.42082209648E+02  0.44124444871E+02  0.63650649517E+02  0.00000000000E+00 0. -1.
<mgrwt>
<rscale>  0 0.92523393E+02</rscale>
<asrwt>0</asrwt>
<pdfrwt beam="2">  1        1 0.26603980E-02 0.92523393E+02</pdfrwt>
<pdfrwt beam="1">  1       -1 0.19040125E-01 0.92523393E+02</pdfrwt>
<totfact> 0.75124585E+04</totfact>
</mgrwt>
</event>
<event>
 5    1  0.4059427E+001  0.1027144E+03  0.7546771E-02  0.1274689E+00
         -1   -1    0    0    0  501 -0.00000000000E+00  0.00000000000E+00  0.14716084945E+03  0.14716084945E+03  0.00000000000E+00 0.  1.
          1   -1    0    0  501    0  0.00000000000E+00 -0.00000000000E+00 -0.17922995125E+02  0.17922995125E+02  0.00000000000E+00 0. -1.
         23    2    1    2    0    0  0.00000000000E+00  0.00000000000E+00  0.12923785433E+03  0.16508384458E+03  0.10271442328E+03 0.  0.
          2    1    3    3  502    0 -0.37203184820E+02  0.35098585325E+02  0.72084341666E+02  0.88386310965E+02  0.00000000000E+00 0. -1.
         -2    1    3    3    0  502  0.37203184820E+02 -0.35098585325E+02  0.57153512661E+02  0.76697533611E+02  0.00000000000E+00 0.  1.
<mgrwt>
<rscale>  0 0.10271442E+03</rscale>
<asrwt>0</asrwt>
<pdfrwt beam="2">  1        1 0.27573840E-02 0.10271442E+03</pdfrwt>
<pdfrwt beam="1">  1       -1 0.22640130E-01 0.10271442E+03</pdfrwt>
<totfact> 0.55089790E+04</totfact>
</mgrwt>
</event>
<event>
 5    1  0.4059427E+001  0.8986006E+02  0.7546771E-02  0.1303191E+00
          1   -1    0    0  501    0  0.00000000000E+00  0.00000000000E+00  0.29780567670E+02  0.29780567670E+02  0.00000000000E+00 0. -1.
         -1   -1    0    0    0  501 -0.00000000000E+00 -0.00000000000E+00 -0.67786073940E+02  0.67786073940E+02  0.00000000000E+00 0.  1.
         23    2    1    2    0    0  0.00000000000E+00  0.00000000000E+00 -0.38005506270E+02  0.97566641610E+02  0.89860063701E+02 0.  0.
          2    1    3    3  502    0  0.49964878606E+01  0.39331626963E+02 -0.41952330251E+02  0.57722957166E+02  0.00000000000E+00 0.  1.
         -2    1    3    3    0  502 -0.49964878606E+01 -0.39331626963E+02  0.39468239816E+01  0.39843684444E+02  0.00000000000E+00 0. -1.
<mgrwt>
<rscale>  0 0.89860064E+02</rscale>
<asrwt>0</asrwt>
<pdfrwt beam="1">  1        1 0.45816259E-02 0.89860064E+02</pdfrwt>
<pdfrwt beam="2">  1       -1 0.10428627E-01 0.89860064E+02</pdfrwt>
<totfact> 0.90268117E+04</totfact>
</mgrwt>
</event>
<event>
 5    1  0.4059427E+001  0.9237424E+02  0.7546771E-02  0.1297202E+00
          2   -1    0    0  501    0  0.00000000000E+00  0.00000000000E+00  0.15060053571E+03  0.15060053571E+03  0.00000000000E+00 0. -1.
         -2   -1    0    0    0  501 -0.00000000000E+00 -0.00000000000E+00 -0.14164956478E+02  0.14164956478E+02  0.00000000000E+00 0.  1.
         23    2    1    2    0    0  0.00000000000E+00  0.00000000000E+00  0.13643557923E+03  0.16476549218E+03  0.92374239566E+02 0.  0.
          2    1    3    3  502    0 -0.30315883759E+02  0.34348845027E+02  0.57763260203E+02  0.73725776985E+02  0.00000000000E+00 0. -1.
         -2    1    3    3    0  502  0.30315883759E+02 -0.34348845027E+02  0.78672319025E+02  0.91039715199E+02  0.00000000000E+00 0.  1.
<mgrwt>
<rscale>  0 0.92374240E+02</rscale>
<asrwt>0</asrwt>
<pdfrwt beam="1">  1        2 0.23169312E-01 0.92374240E+02</pdfrwt>
<pdfrwt beam="2">  1       -2 0.21792242E-02 0.92374240E+02</pdfrwt>
<totfact> 0.13512143E+05</totfact>
</mgrwt>
</event>
<event>
 5    1  0.4059427E+001  0.9187773E+02  0.7546771E-02  0.1298367E+00
         -3   -1    0    0    0  501 -0.00000000000E+00  0.00000000000E+00  0.66718588264E+01  0.66718588264E+01  0.00000000000E+00 0.  1.
          3   -1    0    0  501    0  0.00000000000E+00 -0.00000000000E+00 -0.31631055515E+03  0.31631055515E+03  0.00000000000E+00 0. -1.
         23    2    1    2    0    0  0.00000000000E+00  0.00000000000E+00 -0.30963869633E+03  0.32298241398E+03  0.91877731128E+02 0.  0.
          2    1    3    3  502    0 -0.45588029279E+02 -0.52302909665E+01 -0.14715377861E+03  0.15414233330E+03  0.00000000000E+00 0. -1.
         -2    1    3    3    0  502  0.45588029279E+02  0.52302909665E+01 -0.16248491772E+03  0.16884008068E+03  0.00000000000E+00 0.  1.
<mgrwt>
<rscale>  0 0.91877731E+02</rscale>
<asrwt>0</asrwt>
<pdfrwt beam="2">  1        3 0.48663164E-01 0.91877731E+02</pdfrwt>
<pdfrwt beam="1">  1       -3 0.10264398E-02 0.91877731E+02</pdfrwt>
<totfact> 0.22696750E+04</totfact>
</mgrwt>
</event>
<event>
 5    1  0.4059427E+001  0.9003631E+02  0.7546771E-02  0.1302764E+00
         -2   -1    0    0    0  501 -0.00000000000E+00  0.00000000000E+00  0.16492852077E+03  0.16492852077E+03  0.00000000000E+00 0. -1.
          2   -1    0    0  501    0  0.00000000000E+00 -0.00000000000E+00 -0.12287955429E+02  0.12287955429E+02  0.00000000000E+00 0.  1.
         23    2    1    2    0    0  0.00000000000E+00  0.00000000000E+00  0.15264056534E+03  0.17721647620E+03  0.90036310724E+02 0.  0.
          2    1    3    3  502    0 -0.12425104038E+02  0.32284606466E+02  0.13302429019E+03  0.13744868426E+03  0.00000000000E+00 0. -1.
         -2    1    3    3    0  502  0.12425104038E+02 -0.32284606466E+02  0.19616275159E+02  0.39767791944E+02  0.00000000000E+00 0.  1.
<mgrwt>
<rscale>  0 0.90036311E+02</rscale>
<asrwt>0</asrwt>
<pdfrwt beam="2">  1        2 0.18904548E-02 0.90036311E+02</pdfrwt>
<pdfrwt beam="1">  1       -2 0.25373617E-01 0.90036311E+02</pdfrwt>
<totfact> 0.69609037E+04</totfact>
</mgrwt>
</event>
<event>
 5    1  0.4059427E+001  0.8857932E+02  0.7546771E-02  0.1306329E+00
          1   -1    0    0  501    0  0.00000000000E+00  0.00000000000E+00  0.96458951838E+02  0.96458951838E+02  0.00000000000E+00 0. -1.
         -1   -1    0    0    0  501 -0.00000000000E+00 -0.00000000000E+00 -0.20335843237E+02  0.20335843237E+02  0.00000000000E+00 0.  1.
         23    2    1    2    0    0  0.00000000000E+00  0.00000000000E+00  0.76123108601E+02  0.11679479508E+03  0.88579323172E+02 0.  0.
          2    1    3    3  502    0 -0.15822498697E+02 -0.12846325271E+02  0.89908503377E+02  0.92189579224E+02  0.00000000000E+00 0. -1.
         -2    1    3    3    0  502  0.15822498697E+02  0.12846325271E+02 -0.13785394776E+02  0.24605215852E+02  0.00000000000E+00 0.  1.
<mgrwt>
<rscale>  0 0.88579323E+02</rscale>
<asrwt>0</asrwt>
<pdfrwt beam="1">  1        1 0.14839838E-01 0.88579323E+02</pdfrwt>
<pdfrwt beam="2">  1       -1 0.31285913E-02 0.88579323E+02</pdfrwt>
<totfact> 0.11232731E+05</totfact>
</mgrwt>
</event>
<event>
 5    1  0.4059427E+001  0.9710130E+02  0.7546771E-02  0.1286512E+00
         -2   -1    0    0    0  501 -0.00000000000E+00  0.00000000000E+00  0.18718954336E+02  0.18718954336E+02  0.00000000000E+00 0.  1.
          2   -1    0    0  501    0  0.00000000000E+00 -0.00000000000E+00 -0.12592399844E+03  0.12592399844E+03  0.00000000000E+00 0. -1.
         23    2    1    2    0    0  0.00000000000E+00  0.00000000000E+00 -0.10720504411E+03  0.14464295278E+03  0.97101299202E+02 0.  0.
          2    1    3    3  502    0  0.22411329634E+02  0.64068131033E+01  0.98389129627E+01  0.25300576246E+02  0.00000000000E+00 0.  1.
         -2    1    3    3    0  502 -0.22411329634E+02 -0.64068131033E+01 -0.11704395707E+03  0.11934237653E+03  0.00000000000E+00 0. -1.
<mgrwt>
<rscale>  0 0.97101299E+02</rscale>
<asrwt>0</asrwt>
<pdfrwt beam="2">  1        2 0.19372923E-01 0.97101299E+02</pdfrwt>
<pdfrwt beam="1">  1       -2 0.28798391E-02 0.97101299E+02</pdfrwt>
<totfact> 0.11098024E+05</totfact>
</mgrwt>
</event>
<event>
 5    1  0.4059427E+001  0.9125867E+02  0.7546771E-02  0.1299832E+00
          3   -1    0    0  501    0  0.00000000000E+00  0.00000000000E+00  0.26522701472E+03  0.26522701472E+03  0.00000000000E+00 0. -1.
         -3   -1    0    0    0  501 -0.00000000000E+00 -0.00000000000E+00 -0.78500155214E+01  0.78500155214E+01  0.00000000000E+00 0.  1.
         23    2    1    2    0    0  0.00000000000E+00  0.00000000000E+00  0.25737699919E+03  0.27307703024E+03  0.91258669335E+02 0.  0.
          2    1    3    3  502    0 -0.51517580408E+01  0.41945033977E+02  0.18018021420E+03  0.18506981406E+03  0.00000000000E+00 0. -1.
         -2    1    3    3    0  502  0.51517580408E+01 -0.41945033977E+02  0.77196784997E+02  0.88007216182E+02  0.00000000000E+00 0.  1.
<mgrwt>
<rscale>  0 0.91258669E+02</rscale>
<asrwt>0</asrwt>
<pdfrwt beam="1">  1        3 0.40804149E-01 0.91258669E+02</pdfrwt>
<pdfrwt beam="2">  1       -3 0.12076949E-02 0.91258669E+02</pdfrwt>
<totfact> 0.25051114E+04</totfact>
</mgrwt>
</event>
<event>
 5    1  0.4059427E+001  0.9222278E+02  0.7546771E-02  0.1297556E+00
         -1   -1    0    0    0  501 -0.00000000000E+00  0.00000000000E+00  0.17063590292E+04  0.17063590292E+04  0.00000000000E+00 0.  1.
          1   -1    0    0  501    0  0.00000000000E+00 -0.00000000000E+00 -0.12460803827E+01  0.12460803827E+01  0.00000000000E+00 0. -1.
         23    2    1    2    0    0  0.00000000000E+00  0.00000000000E+00  0.17051129488E+04  0.17076051096E+04  0.92222784867E+02 0.  0.
          2    1    3    3  502    0 -0.23149374593E+01  0.27318160950E+02  0.16605655841E+03  0.16830454968E+03  0.00000000000E+00 0. -1.
         -2    1    3    3    0  502  0.23149374593E+01 -0.27318160950E+02  0.15390563904E+04  0.15393005599E+04  0.00000000000E+00 0.  1.
<mgrwt>
<rscale>  0 0.92222785E+02</rscale>
<asrwt>0</asrwt>
<pdfrwt beam="2">  1        1 0.19170604E-03 0.92222785E+02</pdfrwt>
<pdfrwt beam="1">  1       -1 0.26251490E+00 0.92222785E+02</pdfrwt>
<totfact> 0.10202558E+04</totfact>
</mgrwt>
</event>
<event>
 5    1  0.4059427E+001  0.9100339E+02  0.7546771E-02  0.1300440E+00
          1   -1    0    0  501    0  0.00000000000E+00  0.00000000000E+00  0.16348126328E+02  0.16348126328E+02  0.00000000000E+00 0. -1.
         -1   -1    0    0    0  501 -0.00000000000E+00 -0.00000000000E+00 -0.12664475230E+03  0.12664475230E+03  0.00000000000E+00 0.  1.
         23    2    1    2    0    0  0.00000000000E+00  0.00000000000E+00 -0.11029662597E+03  0.14299287863E+03  0.91003393549E+02 0.  0.
          2    1    3    3  502    0  0.30272219556E+02 -0.68279454468E+01 -0.28600237898E+01  0.31164207867E+02  0.00000000000E+00 0. -1.
         -2    1    3    3    0  502 -0.30272219556E+02  0.68279454468E+01 -0.10743660218E+03  0.11182867076E+03  0.00000000000E+00 0.  1.
<mgrwt>
<rscale>  0 0.91003394E+02</rscale>
<asrwt>0</asrwt>
<pdfrwt beam="1">  1        1 0.25150965E-02 0.91003394E+02</pdfrwt>
<pdfrwt beam="2">  1       -1 0.19483807E-01 0.91003394E+02</pdfrwt>
<totfact> 0.78039606E+04</totfact>
</mgrwt>
</event>
<event>
 5    1  0.4059427E+001  0.1040815E+03  0.7546771E-02  0.1271940E+00
          1   -1    0    0  501    0  0.00000000000E+00  0.00000000000E+00  0.42320642351E+03  0.42320642351E+03  0.00000000000E+00 0. -1.
         -1   -1    0    0    0  501 -0.00000000000E+00 -0.00000000000E+00 -0.63993393117E+01  0.63993393117E+01  0.00000000000E+00 0.  1.
         23    2    1    2    0    0  0.00000000000E+00  0.00000000000E+00  0.41680708420E+03  0.42960576282E+03  0.10408153540E+03 0.  0.
          2    1    3    3  502    0  0.50686510284E+02  0.10682577542E+02  0.18776489096E+03  0.19477909042E+03  0.00000000000E+00 0. -1.
         -2    1    3    3    0  502 -0.50686510284E+02 -0.10682577542E+02  0.22904219324E+03  0.23482667241E+03  0.00000000000E+00 0.  1.
<mgrwt>
<rscale>  0 0.10408154E+03</rscale>
<asrwt>0</asrwt>
<pdfrwt beam="1">  1        1 0.65108659E-01 0.10408154E+03</pdfrwt>
<pdfrwt beam="2">  1       -1 0.98451407E-03 0.10408154E+03</pdfrwt>
<totfact> 0.95559692E+04</totfact>
</mgrwt>
</event>
<event>
 5    1  0.4059427E+001  0.8724808E+02  0.7546771E-02  0.1309656E+00
          3   -1    0    0  501    0  0.00000000000E+00  0.00000000000E+00  0.61698211368E+02  0.61698211368E+02  0.00000000000E+00 0. -1.
         -3   -1    0    0    0  501 -0.00000000000E+00 -0.00000000000E+00 -0.30844601543E+02  0.30844601543E+02  0.00000000000E+00 0.  1.
         23    2    1    2    0    0  0.00000000000E+00  0.00000000000E+00  0.30853609825E+02  0.92542812911E+02  0.87248077241E+02 0.  0.
          2    1    3    3  502    0  0.94044242628E+01  0.39192823953E+02  0.33129018513E+02  0.52173293099E+02  0.00000000000E+00 0. -1.
         -2    1    3    3    0  502 -0.94044242628E+01 -0.39192823953E+02 -0.22754086878E+01  0.40369519812E+02  0.00000000000E+00 0.  1.
<mgrwt>
<rscale>  0 0.87248077E+02</rscale>
<asrwt>0</asrwt>
<pdfrwt beam="1">  1        3 0.94920325E-02 0.87248077E+02</pdfrwt>
<pdfrwt beam="2">  1       -3 0.47453233E-02 0.87248077E+02</pdfrwt>
<totfact> 0.39705368E+04</totfact>
</mgrwt>
</event>
<event>
 5    1  0.4059427E+001  0.9224214E+02  0.7546771E-02  0.1297511E+00
          3   -1    0    0  501    0  0.00000000000E+00  0.00000000000E+00  0.11960796720E+04  0.11960796720E+04  0.00000000000E+00 0. -1.
         -3   -1    0    0    0  501 -0.00000000000E+00 -0.00000000000E+00 -0.17784377215E+01  0.17784377215E+01  0.00000000000E+00 0.  1.
         23    2    1    2    0    0  0.00000000000E+00  0.00000000000E+00  0.11943012343E+04  0.11978581098E+04  0.92242142358E+02 0.  0.
          2    1    3    3  502    0 -0.88566742741E+01  0.19775355383E+02  0.68435006541E+02  0.71783392787E+02  0.00000000000E+00 0.  1.
         -2    1    3    3    0  502  0.88566742741E+01 -0.19775355383E+02  0.11258662278E+04  0.11260747170E+04  0.00000000000E+00 0. -1.
<mgrwt>
<rscale>  0 0.92242142E+02</rscale>
<asrwt>0</asrwt>
<pdfrwt beam="1">  1        3 0.18401161E+00 0.92242142E+02</pdfrwt>
<pdfrwt beam="2">  1       -3 0.27360676E-03 0.92242142E+02</pdfrwt>
<totfact> 0.79610974E+03</totfact>
</mgrwt>
</event>
<event>
 5    1  0.4059427E+001  0.9324931E+02  0.7546771E-02  0.1295168E+00
          1   -1    0    0  501    0  0.00000000000E+00  0.00000000000E+00  0.43387655894E+03  0.43387655894E+03  0.00000000000E+00 0. -1.
         -1   -1    0    0    0  501 -0.00000000000E+00 -0.00000000000E+00 -0.50103155276E+01  0.50103155276E+01  0.00000000000E+00 0.  1.
         23    2    1    2    0    0  0.00000000000E+00  0.00000000000E+00  0.42886624342E+03  0.43888687447E+03  0.93249310139E+02 0.  0.
          2    1    3    3  502    0 -0.22947208496E+02  0.40566685709E+02  0.22043858617E+03  0.22531178539E+03  0.00000000000E+00 0. -1.
         -2    1    3    3    0  502  0.22947208496E+02 -0.40566685709E+02  0.20842765725E+03  0.21357508908E+03  0.00000000000E+00 0.  1.
<mgrwt>
<rscale>  0 0.93249310E+02</rscale>
<asrwt>0</asrwt>
<pdfrwt beam="1">  1        1 0.66750210E-01 0.93249310E+02</pdfrwt>
<pdfrwt beam="2">  1       -1 0.77081811E-03 0.93249310E+02</pdfrwt>
<totfact> 0.12870430E+05</totfact>
</mgrwt>
</event>
<event>
 5    1  0.4059427E+001  0.8978097E+02  0.7546771E-02  0.1303383E+00
         -2   -1    0    0    0  501 -0.00000000000E+00  0.00000000000E+00  0.53212235042E+01  0.53212235042E+01  0.00000000000E+00 0. -1.
          2   -1    0    0  501    0  0.00000000000E+00 -0.00000000000E+00 -0.37870156257E+03  0.37870156257E+03  0.00000000000E+00 0.  1.
         23    2    1    2    0    0  0.00000000000E+00  0.00000000000E+00 -0.37338033907E+03  0.38402278608E+03  0.89780970274E+02 0.  0.
          2    1    3    3  502    0 -0.96417987201E+01  0.19547594276E+02 -0.18831122456E+02  0.28804234020E+02  0.00000000000E+00 0. -1.
         -2    1    3    3    0  502  0.96417987201E+01 -0.19547594276E+02 -0.35454921662E+03  0.35521855206E+03  0.00000000000E+00 0.  1.
<mgrwt>
<rscale>  0 0.89780970E+02</rscale>
<asrwt>0</asrwt>
<pdfrwt beam="2">  1        2 0.58261769E-01 0.89780970E+02</pdfrwt>
<pdfrwt beam="1">  1       -2 0.81864991E-03 0.89780970E+02</pdfrwt>
<totfact> 0.20390952E+05</totfact>
</mgrwt>
</event>
<event>
 5    1  0.4059427E+001  0.9092731E+02  0.7546771E-02  0.1300622E+00
          1   -1    0    0  501    0  0.00000000000E+00  0.00000000000E+00  0.34576471180E+02  0.34576471180E+02  0.00000000000E+00 0.  1.
         -1   -1    0    0    0  501 -0.00000000000E+00 -0.00000000000E+00 -0.59778909785E+02  0.59778909785E+02  0.00000000000E+00 0. -1.
         23    2    1    2    0    0  0.00000000000E+00  0.00000000000E+00 -0.25202438605E+02  0.94355380965E+02  0.90927306159E+02 0.  0.
          2    1    3    3  502    0  0.32187277614E+02 -0.31276868264E+02 -0.20132987984E+02  0.49189435185E+02  0.00000000000E+00 0. -1.
         -2    1    3    3    0  502 -0.32187277614E+02  0.31276868264E+02 -0.50694506204E+01  0.45165945780E+02  0.00000000000E+00 0.  1.
<mgrwt>
<rscale>  0 0.90927306E+02</rscale>
<asrwt>0</asrwt>
<pdfrwt beam="1">  1        1 0.53194571E-02 0.90927306E+02</pdfrwt>
<pdfrwt beam="2">  1       -1 0.91967553E-02 0.90927306E+02</pdfrwt>
<totfact> 0.89350247E+04</totfact>
</mgrwt>
</event>
<event>
 5    1  0.4059427E+001  0.8995344E+02  0.7546771E-02  0.1302964E+00
         -2   -1    0    0    0  501 -0.00000000000E+00  0.00000000000E+00  0.61206701903E+02  0.61206701903E+02  0.00000000000E+00 0.  1.
          2   -1    0    0  501    0  0.00000000000E+00 -0.00000000000E+00 -0.33050387993E+02  0.33050387993E+02  0.00000000000E+00 0. -1.
         23    2    1    2    0    0  0.00000000000E+00  0.00000000000E+00  0.28156313911E+02  0.94257089896E+02  0.89953437859E+02 0.  0.
          2    1    3    3  502    0  0.22777697192E+02  0.20098456741E+01 -0.26505204007E+02  0.35005553966E+02  0.00000000000E+00 0. -1.
         -2    1    3    3    0  502 -0.22777697192E+02 -0.20098456741E+01  0.54661517917E+02  0.59251535930E+02  0.00000000000E+00 0.  1.
<mgrwt>
<rscale>  0 0.89953438E+02</rscale>
<asrwt>0</asrwt>
<pdfrwt beam="2">  1        2 0.50846751E-02 0.89953438E+02</pdfrwt>
<pdfrwt beam="1">  1       -2 0.94164156E-02 0.89953438E+02</pdfrwt>
<totfact> 0.94435771E+04</totfact>
</mgrwt>
</event>
<event>
 5    1  0.4059427E+001  0.9596934E+02  0.7546771E-02  0.1289008E+00
          1   -1    0    0  501    0  0.00000000000E+00  0.00000000000E+00  0.21260051959E+04  0.21260051959E+04  0.00000000000E+00 0. -1.
         -1   -1    0    0    0  501 -0.00000000000E+00 -0.00000000000E+00 -0.10830304897E+01  0.10830304897E+01  0.00000000000E+00 0.  1.
         23    2    1    2    0    0  0.00000000000E+00  0.00000000000E+00  0.21249221654E+04  0.21270882263E+04  0.95969337779E+02 0.  0.
          2    1    3    3  502    0 -0.28634164857E+02  0.34129386139E+02  0.66734143868E+03  0.66882682824E+03  0.00000000000E+00 0.  1.
         -2    1    3    3    0  502  0.28634164857E+02 -0.34129386139E+02  0.14575807267E+04  0.14582613981E+04  0.00000000000E+00 0. -1.
<mgrwt>
<rscale>  0 0.95969338E+02</rscale>
<asrwt>0</asrwt>
<pdfrwt beam="1">  1        1 0.32707438E+00 0.95969338E+02</pdfrwt>
<pdfrwt beam="2">  1       -1 0.16662178E-03 0.95969338E+02</pdfrwt>
<totfact> 0.63088038E+04</totfact>
</mgrwt>
</event>
<event>
 5    1  0.4059427E+001  0.9041997E+02  0.7546771E-02  0.1301838E+00
          1   -1    0    0  501    0  0.00000000000E+00  0.00000000000E+00  0.62092581452E+02  0.62092581452E+02  0.00000000000E+00 0. -1.
         -1   -1    0    0    0  501 -0.00000000000E+00 -0.00000000000E+00 -0.32917667031E+02  0.32917667031E+02  0.00000000000E+00 0.  1.
         23    2    1    2    0    0  0.00000000000E+00  0.00000000000E+00  0.29174914421E+02  0.95010248484E+02  0.90419973930E+02 0.  0.
          2    1    3    3  502    0 -0.50715267239E+01 -0.33031244213E+02  0.46582543780E+02  0.57329895016E+02  0.00000000000E+00 0. -1.
         -2    1    3    3    0  502  0.50715267239E+01  0.33031244213E+02 -0.17407629359E+02  0.37680353468E+02  0.00000000000E+00 0.  1.
<mgrwt>
<rscale>  0 0.90419974E+02</rscale>
<asrwt>0</asrwt>
<pdfrwt beam="1">  1        1 0.95527048E-02 0.90419974E+02</pdfrwt>
<pdfrwt beam="2">  1       -1 0.50642565E-02 0.90419974E+02</pdfrwt>
<totfact> 0.99133514E+04</totfact>
</mgrwt>
</event>
<event>
 5    1  0.4059427E+001  0.9008923E+02  0.7546771E-02  0.1302636E+00
         -2   -1    0    0    0  501 -0.00000000000E+00  0.00000000000E+00  0.48097143284E+01  0.48097143284E+01  0.00000000000E+00 0.  1.
          2   -1    0    0  501    0  0.00000000000E+00 -0.00000000000E+00 -0.42185814002E+03  0.42185814002E+03  0.00000000000E+00 0. -1.
         23    2    1    2    0    0  0.00000000000E+00  0.00000000000E+00 -0.41704842569E+03  0.42666785434E+03  0.90089225562E+02 0.  0.
          2    1    3    3  502    0 -0.36920062084E+02 -0.25716649341E+02 -0.21865993487E+03  0.22324113455E+03  0.00000000000E+00 0. -1.
         -2    1    3    3    0  502  0.36920062084E+02  0.25716649341E+02 -0.19838849081E+03  0.20342671979E+03  0.00000000000E+00 0.  1.
<mgrwt>
<rscale>  0 0.90089226E+02</rscale>
<asrwt>0</asrwt>
<pdfrwt beam="2">  1        2 0.64901245E-01 0.90089226E+02</pdfrwt>
<pdfrwt beam="1">  1       -2 0.73995613E-03 0.90089226E+02</pdfrwt>
<totfact> 0.20999993E+05</totfact>
</mgrwt>
</event>
<event>
 5    1  0.4059427E+001  0.9229596E+02  0.7546771E-02  0.1297385E+00
         -1   -1    0    0    0  501 -0.00000000000E+00  0.00000000000E+00  0.33108999602E+01  0.33108999602E+01  0.00000000000E+00 0.  1.
          1   -1    0    0  501    0  0.00000000000E+00 -0.00000000000E+00 -0.64321971133E+03  0.64321971133E+03  0.00000000000E+00 0. -1.
         23    2    1    2    0    0  0.00000000000E+00  0.00000000000E+00 -0.63990881137E+03  0.64653061129E+03  0.92295961269E+02 0.  0.
          2    1    3    3  502    0 -0.37941807509E+02 -0.27599210713E+01 -0.50294891445E+03  0.50438557520E+03  0.00000000000E+00 0. -1.
         -2    1    3    3    0  502  0.37941807509E+02  0.27599210713E+01 -0.13695989692E+03  0.14214503609E+03  0.00000000000E+00 0.  1.
<mgrwt>
<rscale>  0 0.92295961E+02</rscale>
<asrwt>0</asrwt>
<pdfrwt beam="2">  1        1 0.98956877E-01 0.92295961E+02</pdfrwt>
<pdfrwt beam="1">  1       -1 0.50936923E-03 0.92295961E+02</pdfrwt>
<totfact> 0.13752409E+05</totfact>
</mgrwt>
</event>
<event>
 5    1  0.4059427E+001  0.8659795E+02  0.7546771E-02  0.1311306E+00
          1   -1    0    0  501    0  0.00000000000E+00  0.00000000000E+00  0.83190996636E+03  0.83190996636E+03  0.00000000000E+00 0. -1.
         -1   -1    0    0    0  501 -0.00000000000E+00 -0.00000000000E+00 -0.22536108027E+01  0.22536108027E+01  0.00000000000E+00 0.  1.
         23    2    1    2    0    0  0.00000000000E+00  0.00000000000E+00  0.82965635556E+03  0.83416357716E+03  0.86597951178E+02 0.  0.
          2    1    3    3  502    0  0.15792620311E+02  0.30969034711E+02  0.66347496570E+03  0.66438506763E+03  0.00000000000E+00 0. -1.
         -2    1    3    3    0  502 -0.15792620311E+02 -0.30969034711E+02  0.16618138986E+03  0.16977850954E+03  0.00000000000E+00 0.  1.
<mgrwt>
<rscale>  0 0.86597951E+02</rscale>
<asrwt>0</asrwt>
<pdfrwt beam="1">  1        1 0.12798590E+00 0.86597951E+02</pdfrwt>
<pdfrwt beam="2">  1       -1 0.34671002E-03 0.86597951E+02</pdfrwt>
<totfact> 0.16122865E+05</totfact>
</mgrwt>
</event>
<event>
 5    1  0.4059427E+001  0.9119007E+02  0.7546771E-02  0.1299995E+00
         -2   -1    0    0    0  501 -0.00000000000E+00  0.00000000000E+00  0.83092708915E+00  0.83092708915E+00  0.00000000000E+00 0. -1.
          2   -1    0    0  501    0  0.00000000000E+00 -0.00000000000E+00 -0.25019129155E+04  0.25019129155E+04  0.00000000000E+00 0.  1.
         23    2    1    2    0    0  0.00000000000E+00  0.00000000000E+00 -0.25010819884E+04  0.25027438426E+04  0.91190069989E+02 0.  0.
          2    1    3    3  502    0  0.43145807662E+02  0.13525499253E+02 -0.10895525978E+04  0.10904904232E+04  0.00000000000E+00 0. -1.
         -2    1    3    3    0  502 -0.43145807662E+02 -0.13525499253E+02 -0.14115293906E+04  0.14122534193E+04  0.00000000000E+00 0.  1.
<mgrwt>
<rscale>  0 0.91190070E+02</rscale>
<asrwt>0</asrwt>
<pdfrwt beam="2">  1        2 0.38490458E+00 0.91190070E+02</pdfrwt>
<pdfrwt beam="1">  1       -2 0.12783663E-03 0.91190070E+02</pdfrwt>
<totfact> 0.14830756E+05</totfact>
</mgrwt>
</event>
<event>
 5    1  0.4059427E+001  0.9102825E+02  0.7546771E-02  0.1300381E+00
         -2   -1    0    0    0  501 -0.00000000000E+00  0.00000000000E+00  0.14323723754E+02  0.14323723754E+02  0.00000000000E+00 0. -1.
          2   -1    0    0  501    0  0.00000000000E+00 -0.00000000000E+00 -0.14462271240E+03  0.14462271240E+03  0.00000000000E+00 0.  1.
         23    2    1    2    0    0  0.00000000000E+00  0.00000000000E+00 -0.13029898865E+03  0.15894643615E+03  0.91028254538E+02 0.  0.
          2    1    3    3  502    0  0.26403129342E+02 -0.29185354299E+02 -0.25231387665E+02  0.46749685219E+02  0.00000000000E+00 0. -1.
         -2    1    3    3    0  502 -0.26403129342E+02  0.29185354299E+02 -0.10506760098E+03  0.11219675094E+03  0.00000000000E+00 0.  1.
<mgrwt>
<rscale>  0 0.91028255E+02</rscale>
<asrwt>0</asrwt>
<pdfrwt beam="2">  1        2 0.22249647E-01 0.91028255E+02</pdfrwt>
<pdfrwt beam="1">  1       -2 0.22036499E-02 0.91028255E+02</pdfrwt>
<totfact> 0.13870554E+05</totfact>
</mgrwt>
</event>
<event>
 5    1  0.4059427E+001  0.9140504E+02  0.7546771E-02  0.1299484E+00
          3   -1    0    0  501    0  0.00000000000E+00  0.00000000000E+00  0.48351725110E+01  0.48351725110E+01  0.00000000000E+00 0. -1.
         -3   -1    0    0    0  501 -0.00000000000E+00 -0.00000000000E+00 -0.43198466034E+03  0.43198466034E+03  0.00000000000E+00 0.  1.
         23    2    1    2    0    0  0.00000000000E+00  0.00000000000E+00 -0.42714948783E+03  0.43681983286E+03  0.91405040449E+02 0.  0.
          2    1    3    3  502    0 -0.44281066116E+02  0.84555201448E+01 -0.24946833119E+03  0.25350888920E+03  0.00000000000E+00 0. -1.
         -2    1    3    3    0  502  0.44281066116E+02 -0.84555201448E+01 -0.17768115664E+03  0.18331094365E+03  0.00000000000E+00 0.  1.
<mgrwt>
<rscale>  0 0.91405040E+02</rscale>
<asrwt>0</asrwt>
<pdfrwt beam="1">  1        3 0.74387281E-03 0.91405040E+02</pdfrwt>
<pdfrwt beam="2">  1       -3 0.66459168E-01 0.91405040E+02</pdfrwt>
<totfact> 0.19401927E+04</totfact>
</mgrwt>
</event>
<event>
 5    1  0.4059427E+001  0.7777921E+02  0.7546771E-02  0.1335475E+00
         -1   -1    0    0    0  501 -0.00000000000E+00  0.00000000000E+00  0.73523255835E+02  0.73523255835E+02  0.00000000000E+00 0.  1.
          1   -1    0    0  501    0  0.00000000000E+00 -0.00000000000E+00 -0.20570378859E+02  0.20570378859E+02  0.00000000000E+00 0. -1.
         23    2    1    2    0    0  0.00000000000E+00  0.00000000000E+00  0.52952876976E+02  0.94093634694E+02  0.77779206153E+02 0.  0.
          2    1    3    3  502    0 -0.16972316573E+02 -0.34791646486E+02  0.21968905566E+02  0.44510122521E+02  0.00000000000E+00 0. -1.
         -2    1    3    3    0  502  0.16972316573E+02  0.34791646486E+02  0.30983971410E+02  0.49583512173E+02  0.00000000000E+00 0.  1.
<mgrwt>
<rscale>  0 0.77779206E+02</rscale>
<asrwt>0</asrwt>
<pdfrwt beam="2">  1        1 0.31646737E-02 0.77779206E+02</pdfrwt>
<pdfrwt beam="1">  1       -1 0.11311270E-01 0.77779206E+02</pdfrwt>
<totfact> 0.12869280E+05</totfact>
</mgrwt>
</event>
<event>
 5    1  0.4059427E+001  0.8969648E+02  0.7546771E-02  0.1303588E+00
          2   -1    0    0  501    0  0.00000000000E+00  0.00000000000E+00  0.79910333915E+02  0.79910333915E+02  0.00000000000E+00 0. -1.
         -2   -1    0    0    0  501 -0.00000000000E+00 -0.00000000000E+00 -0.25170271974E+02  0.25170271974E+02  0.00000000000E+00 0.  1.
         23    2    1    2    0    0  0.00000000000E+00  0.00000000000E+00  0.54740061941E+02  0.10508060589E+03  0.89696484618E+02 0.  0.
          2    1    3    3  502    0 -0.61076608156E+01 -0.39815716713E+02  0.50469049610E+02  0.64573367471E+02  0.00000000000E+00 0. -1.
         -2    1    3    3    0  502  0.61076608156E+01  0.39815716713E+02  0.42710123311E+01  0.40507238419E+02  0.00000000000E+00 0.  1.
<mgrwt>
<rscale>  0 0.89696485E+02</rscale>
<asrwt>0</asrwt>
<pdfrwt beam="1">  1        2 0.12293897E-01 0.89696485E+02</pdfrwt>
<pdfrwt beam="2">  1       -2 0.38723496E-02 0.89696485E+02</pdfrwt>
<totfact> 0.12015208E+05</totfact>
</mgrwt>
</event>
<event>
 5    1  0.4059427E+001  0.9128738E+02  0.7546771E-02  0.1299764E+00
         -2   -1    0    0    0  501 -0.00000000000E+00  0.00000000000E+00  0.27521950258E+03  0.27521950258E+03  0.00000000000E+00 0.  1.
          2   -1    0    0  501    0  0.00000000000E+00 -0.00000000000E+00 -0.75697624418E+01  0.75697624418E+01  0.00000000000E+00 0. -1.
         23    2    1    2    0    0  0.00000000000E+00  0.00000000000E+00  0.26764974014E+03  0.28278926502E+03  0.91287375992E+02 0.  0.
          2    1    3    3  502    0 -0.36129805836E+02  0.23732564413E+02  0.88428875171E+02  0.98428976665E+02  0.00000000000E+00 0. -1.
         -2    1    3    3    0  502  0.36129805836E+02 -0.23732564413E+02  0.17922086497E+03  0.18436028836E+03  0.00000000000E+00 0.  1.
<mgrwt>
<rscale>  0 0.91287376E+02</rscale>
<asrwt>0</asrwt>
<pdfrwt beam="2">  1        2 0.11645790E-02 0.91287376E+02</pdfrwt>
<pdfrwt beam="1">  1       -2 0.42341454E-01 0.91287376E+02</pdfrwt>
<totfact> 0.53296706E+04</totfact>
</mgrwt>
</event>
<event>
 5    1  0.4059427E+001  0.9178002E+02  0.7546771E-02  0.1298597E+00
          2   -1    0    0  501    0  0.00000000000E+00  0.00000000000E+00  0.40482960020E+03  0.40482960020E+03  0.00000000000E+00 0. -1.
         -2   -1    0    0    0  501 -0.00000000000E+00 -0.00000000000E+00 -0.52019245446E+01  0.52019245446E+01  0.00000000000E+00 0.  1.
         23    2    1    2    0    0  0.00000000000E+00  0.00000000000E+00  0.39962767565E+03  0.41003152474E+03  0.91780020345E+02 0.  0.
          2    1    3    3  502    0 -0.75931958204E+01 -0.45255611870E+02  0.20163408273E+03  0.20678982167E+03  0.00000000000E+00 0. -1.
         -2    1    3    3    0  502  0.75931958204E+01  0.45255611870E+02  0.19799359292E+03  0.20324170307E+03  0.00000000000E+00 0.  1.
<mgrwt>
<rscale>  0 0.91780020E+02</rscale>
<asrwt>0</asrwt>
<pdfrwt beam="1">  1        2 0.62281452E-01 0.91780020E+02</pdfrwt>
<pdfrwt beam="2">  1       -2 0.80029640E-03 0.91780020E+02</pdfrwt>
<totfact> 0.19700034E+05</totfact>
</mgrwt>
</event>
<event>
 5    1  0.4059427E+001  0.8975707E+02  0.7546771E-02  0.1303441E+00
         -1   -1    0    0    0  501 -0.00000000000E+00  0.00000000000E+00  0.83896981953E+01  0.83896981953E+01  0.00000000000E+00 0.  1.
          1   -1    0    0  501    0  0.00000000000E+00 -0.00000000000E+00 -0.24006621087E+03  0.24006621087E+03  0.00000000000E+00 0. -1.
         23    2    1    2    0    0  0.00000000000E+00  0.00000000000E+00 -0.23167651267E+03  0.24845590907E+03  0.89757073394E+02 0.  0.
          2    1    3    3  502    0 -0.20552654837E+01  0.31479057418E+02 -0.20419757739E+03  0.20661995496E+03  0.00000000000E+00 0. -1.
         -2    1    3    3    0  502  0.20552654837E+01 -0.31479057418E+02 -0.27478935280E+02  0.41835954109E+02  0.00000000000E+00 0.  1.
<mgrwt>
<rscale>  0 0.89757073E+02</rscale>
<asrwt>0</asrwt>
<pdfrwt beam="2">  1        1 0.36933264E-01 0.89757073E+02</pdfrwt>
<pdfrwt beam="1">  1       -1 0.12907228E-02 0.89757073E+02</pdfrwt>
<totfact> 0.12794591E+05</totfact>
</mgrwt>
</event>
<event>
 5    1  0.4059427E+001  0.9098014E+02  0.7546771E-02  0.1300495E+00
          3   -1    0    0  501    0  0.00000000000E+00  0.00000000000E+00  0.48276815759E+02  0.48276815759E+02  0.00000000000E+00 0. -1.
         -3   -1    0    0    0  501 -0.00000000000E+00 -0.00000000000E+00 -0.42864184375E+02  0.42864184375E+02  0.00000000000E+00 0.  1.
         23    2    1    2    0    0  0.00000000000E+00  0.00000000000E+00  0.54126313836E+01  0.91141000134E+02  0.90980136991E+02 0.  0.
          2    1    3    3  502    0 -0.23715840853E+02 -0.18214935665E+02  0.37046969600E+02  0.47609903857E+02  0.00000000000E+00 0. -1.
         -2    1    3    3    0  502  0.23715840853E+02  0.18214935665E+02 -0.31634338217E+02  0.43531096277E+02  0.00000000000E+00 0.  1.
<mgrwt>
<rscale>  0 0.90980137E+02</rscale>
<asrwt>0</asrwt>
<pdfrwt beam="1">  1        3 0.74272024E-02 0.90980137E+02</pdfrwt>
<pdfrwt beam="2">  1       -3 0.65944899E-02 0.90980137E+02</pdfrwt>
<totfact> 0.35550097E+04</totfact>
</mgrwt>
</event>
<event>
 5    1  0.4059427E+001  0.9032249E+02  0.7546771E-02  0.1302073E+00
         -1   -1    0    0    0  501 -0.00000000000E+00  0.00000000000E+00  0.68971619181E+02  0.68971619181E+02  0.00000000000E+00 0.  1.
          1   -1    0    0  501    0  0.00000000000E+00 -0.00000000000E+00 -0.29570682768E+02  0.29570682768E+02  0.00000000000E+00 0. -1.
         23    2    1    2    0    0  0.00000000000E+00  0.00000000000E+00  0.39400936413E+02  0.98542301949E+02  0.90322486033E+02 0.  0.
          2    1    3    3  502    0  0.44983289187E+02 -0.39884396745E+01  0.20099713006E+02  0.49430784134E+02  0.00000000000E+00 0. -1.
         -2    1    3    3    0  502 -0.44983289187E+02  0.39884396745E+01  0.19301223406E+02  0.49111517815E+02  0.00000000000E+00 0.  1.
<mgrwt>
<rscale>  0 0.90322486E+02</rscale>
<asrwt>0</asrwt>
<pdfrwt beam="2">  1        1 0.45493358E-02 0.90322486E+02</pdfrwt>
<pdfrwt beam="1">  1       -1 0.10611018E-01 0.90322486E+02</pdfrwt>
<totfact> 0.88850670E+04</totfact>
</mgrwt>
</event>
<event>
 5    1  0.4059427E+001  0.9105199E+02  0.7546771E-02  0.1300324E+00
          1   -1    0    0  501    0  0.00000000000E+00  0.00000000000E+00  0.16911719959E+04  0.16911719959E+04  0.00000000000E+00 0. -1.
         -1   -1    0    0    0  501 -0.00000000000E+00 -0.00000000000E+00 -0.12255502498E+01  0.12255502498E+01  0.00000000000E+00 0.  1.
         23    2    1    2    0    0  0.00000000000E+00  0.00000000000E+00  0.16899464457E+04  0.16923975462E+04  0.91051990908E+02 0.  0.
          2    1    3    3  502    0  0.33290872514E+02  0.13921866807E+02  0.13609185519E+04  0.13613968582E+04  0.00000000000E+00 0. -1.
         -2    1    3    3    0  502 -0.33290872514E+02 -0.13921866807E+02  0.32902789378E+03  0.33100068799E+03  0.00000000000E+00 0.  1.
<mgrwt>
<rscale>  0 0.91051991E+02</rscale>
<asrwt>0</asrwt>
<pdfrwt beam="1">  1        1 0.26017844E+00 0.91051991E+02</pdfrwt>
<pdfrwt beam="2">  1       -1 0.18854755E-03 0.91051991E+02</pdfrwt>
<totfact> 0.99107963E+04</totfact>
</mgrwt>
</event>
<event>
 5    1  0.4059427E+001  0.9439317E+02  0.7546771E-02  0.1292549E+00
          2   -1    0    0  501    0  0.00000000000E+00  0.00000000000E+00  0.81499052209E+03  0.81499052209E+03  0.00000000000E+00 0. -1.
         -2   -1    0    0    0  501 -0.00000000000E+00 -0.00000000000E+00 -0.27331824828E+01  0.27331824828E+01  0.00000000000E+00 0.  1.
         23    2    1    2    0    0  0.00000000000E+00  0.00000000000E+00  0.81225733960E+03  0.81772370457E+03  0.94393173876E+02 0.  0.
          2    1    3    3  502    0  0.36821372327E+02 -0.96461265288E+01  0.64786336277E+03  0.64898058371E+03  0.00000000000E+00 0. -1.
         -2    1    3    3    0  502 -0.36821372327E+02  0.96461265288E+01  0.16439397684E+03  0.16874312086E+03  0.00000000000E+00 0.  1.
<mgrwt>
<rscale>  0 0.94393174E+02</rscale>
<asrwt>0</asrwt>
<pdfrwt beam="1">  1        2 0.12538296E+00 0.94393174E+02</pdfrwt>
<pdfrwt beam="2">  1       -2 0.42049026E-03 0.94393174E+02</pdfrwt>
<totfact> 0.22312985E+05</totfact>
</mgrwt>
</event>
<event>
 5    1  0.4059427E+001  0.9173481E+02  0.7546771E-02  0.1298704E+00
         -2   -1    0    0    0  501 -0.00000000000E+00  0.00000000000E+00  0.23206243371E+01  0.23206243371E+01  0.00000000000E+00 0.  1.
          2   -1    0    0  501    0  0.00000000000E+00 -0.00000000000E+00 -0.90657448493E+03  0.90657448493E+03  0.00000000000E+00 0. -1.
         23    2    1    2    0    0  0.00000000000E+00  0.00000000000E+00 -0.90425386060E+03  0.90889510927E+03  0.91734809383E+02 0.  0.
          2    1    3    3  502    0 -0.32943368474E+02  0.60643215810E+01 -0.76257294907E+03  0.76330828908E+03  0.00000000000E+00 0. -1.
         -2    1    3    3    0  502  0.32943368474E+02 -0.60643215810E+01 -0.14168091153E+03  0.14558682019E+03  0.00000000000E+00 0.  1.
<mgrwt>
<rscale>  0 0.91734809E+02</rscale>
<asrwt>0</asrwt>
<pdfrwt beam="2">  1        2 0.13947305E+00 0.91734809E+02</pdfrwt>
<pdfrwt beam="1">  1       -2 0.35701900E-03 0.91734809E+02</pdfrwt>
<totfact> 0.24418366E+05</totfact>
</mgrwt>
</event>
<event>
 5    1  0.4059427E+001  0.9167760E+02  0.7546771E-02  0.1298839E+00
         -2   -1    0    0    0  501 -0.00000000000E+00  0.00000000000E+00  0.19960145740E+02  0.19960145740E+02  0.00000000000E+00 0.  1.
          2   -1    0    0  501    0  0.00000000000E+00 -0.00000000000E+00 -0.10526954266E+03  0.10526954266E+03  0.00000000000E+00 0. -1.
         23    2    1    2    0    0  0.00000000000E+00  0.00000000000E+00 -0.85309396923E+02  0.12522968840E+03  0.91677596250E+02 0.  0.
          2    1    3    3  502    0  0.37314094408E+02  0.15536302555E+02 -0.72188832475E+02  0.82734188053E+02  0.00000000000E+00 0. -1.
         -2    1    3    3    0  502 -0.37314094408E+02 -0.15536302555E+02 -0.13120564447E+02  0.42495500350E+02  0.00000000000E+00 0.  1.
<mgrwt>
<rscale>  0 0.91677596E+02</rscale>
<asrwt>0</asrwt>
<pdfrwt beam="2">  1        2 0.16195314E-01 0.91677596E+02</pdfrwt>
<pdfrwt beam="1">  1       -2 0.30707917E-02 0.91677596E+02</pdfrwt>
<totfact> 0.12275992E+05</totfact>
</mgrwt>
</event>
<event>
 5    1  0.4059427E+001  0.9244175E+02  0.7546771E-02  0.1297044E+00
         -2   -1    0    0    0  501 -0.00000000000E+00  0.00000000000E+00  0.21847310410E+01  0.21847310410E+01  0.00000000000E+00 0.  1.
          2   -1    0    0  501    0  0.00000000000E+00 -0.00000000000E+00 -0.97786371803E+03  0.97786371803E+03  0.00000000000E+00 0. -1.
         23    2    1    2    0    0  0.00000000000E+00  0.00000000000E+00 -0.97567898699E+03  0.98004844907E+03  0.92441748547E+02 0.  0.
          2    1    3    3  502    0  0.34383421015E+02  0.30018850757E+02 -0.56503495893E+03  0.56687552060E+03  0.00000000000E+00 0. -1.
         -2    1    3    3    0  502 -0.34383421015E+02 -0.30018850757E+02 -0.41064402805E+03  0.41317292847E+03  0.00000000000E+00 0.  1.
<mgrwt>
<rscale>  0 0.92441749E+02</rscale>
<asrwt>0</asrwt>
<pdfrwt beam="2">  1        2 0.15044083E+00 0.92441749E+02</pdfrwt>
<pdfrwt beam="1">  1       -2 0.33611189E-03 0.92441749E+02</pdfrwt>
<totfact> 0.24082272E+05</totfact>
</mgrwt>
</event>
<event>
 5    1  0.4059427E+001  0.9288143E+02  0.7546771E-02  0.1296020E+00
          2   -1    0    0  501    0  0.00000000000E+00  0.00000000000E+00  0.11272831537E+02  0.11272831537E+02  0.00000000000E+00 0. -1.
         -2   -1    0    0    0  501 -0.00000000000E+00 -0.00000000000E+00 -0.19132192420E+03  0.19132192420E+03  0.00000000000E+00 0.  1.
         23    2    1    2    0    0  0.00000000000E+00  0.00000000000E+00 -0.18004909267E+03  0.20259475574E+03  0.92881425935E+02 0.  0.
          2    1    3    3  502    0 -0.27134049261E+02 -0.81408978867E+01 -0.97565968482E+01  0.29962009775E+02  0.00000000000E+00 0. -1.
         -2    1    3    3    0  502  0.27134049261E+02  0.81408978867E+01 -0.17029249582E+03  0.17263274597E+03  0.00000000000E+00 0.  1.
<mgrwt>
<rscale>  0 0.92881426E+02</rscale>
<asrwt>0</asrwt>
<pdfrwt beam="1">  1        2 0.17342818E-02 0.92881426E+02</pdfrwt>
<pdfrwt beam="2">  1       -2 0.29434142E-01 0.92881426E+02</pdfrwt>
<totfact> 0.60577321E+04</totfact>
</mgrwt>
</event>
<event>
 5    1  0.4059427E+001  0.8866494E+02  0.7546771E-02  0.1306117E+00
          3   -1    0    0  501    0  0.00000000000E+00  0.00000000000E+00  0.55368069496E+02  0.55368069496E+02  0.00000000000E+00 0. -1.
         -3   -1    0    0    0  501 -0.00000000000E+00 -0.00000000000E+00 -0.35496410101E+02  0.35496410101E+02  0.00000000000E+00 0.  1.
         23    2    1    2    0    0  0.00000000000E+00  0.00000000000E+00  0.19871659395E+02  0.90864479597E+02  0.88664935602E+02 0.  0.
          2    1    3    3  502    0  0.23447452619E+02  0.24181394605E+02  0.39475265726E+02  0.51892383675E+02  0.00000000000E+00 0. -1.
         -2    1    3    3    0  502 -0.23447452619E+02 -0.24181394605E+02 -0.19603606331E+02  0.38972095922E+02  0.00000000000E+00 0.  1.
<mgrwt>
<rscale>  0 0.88664936E+02</rscale>
<asrwt>0</asrwt>
<pdfrwt beam="1">  1        3 0.85181646E-02 0.88664936E+02</pdfrwt>
<pdfrwt beam="2">  1       -3 0.54609862E-02 0.88664936E+02</pdfrwt>
<totfact> 0.38150334E+04</totfact>
</mgrwt>
</event>
<event>
 5    1  0.4059427E+001  0.9165714E+02  0.7546771E-02  0.1298888E+00
          1   -1    0    0  501    0  0.00000000000E+00  0.00000000000E+00  0.10741333539E+03  0.10741333539E+03  0.00000000000E+00 0.  1.
         -1   -1    0    0    0  501 -0.00000000000E+00 -0.00000000000E+00 -0.19553047191E+02  0.19553047191E+02  0.00000000000E+00 0. -1.
         23    2    1    2    0    0  0.00000000000E+00  0.00000000000E+00  0.87860288200E+02  0.12696638258E+03  0.91657144094E+02 0.  0.
          2    1    3    3  502    0  0.15031007451E+02  0.35875860351E+02  0.10361504326E+02  0.40253811159E+02  0.00000000000E+00 0. -1.
         -2    1    3    3    0  502 -0.15031007451E+02 -0.35875860351E+02  0.77498783874E+02  0.86712571423E+02  0.00000000000E+00 0.  1.
<mgrwt>
<rscale>  0 0.91657144E+02</rscale>
<asrwt>0</asrwt>
<pdfrwt beam="1">  1        1 0.16525128E-01 0.91657144E+02</pdfrwt>
<pdfrwt beam="2">  1       -1 0.30081612E-02 0.91657144E+02</pdfrwt>
<totfact> 0.10420992E+05</totfact>
</mgrwt>
</event>
<event>
 5    1  0.4059427E+001  0.9509165E+02  0.7546771E-02  0.1290970E+00
          2   -1    0    0  501    0  0.00000000000E+00  0.00000000000E+00  0.20718597427E+03  0.20718597427E+03  0.00000000000E+00 0. -1.
         -2   -1    0    0    0  501 -0.00000000000E+00 -0.00000000000E+00 -0.10910996857E+02  0.10910996857E+02  0.00000000000E+00 0.  1.
         23    2    1    2    0    0  0.00000000000E+00  0.00000000000E+00  0.19627497742E+03  0.21809697113E+03  0.95091650823E+02 0.  0.
          2    1    3    3  502    0 -0.42251590175E+02  0.55732705471E+01  0.14648437605E+03  0.15255795831E+03  0.00000000000E+00 0. -1.
         -2    1    3    3    0  502  0.42251590175E+02 -0.55732705471E+01  0.49790601365E+02  0.65539012819E+02  0.00000000000E+00 0.  1.
<mgrwt>
<rscale>  0 0.95091651E+02</rscale>
<asrwt>0</asrwt>
<pdfrwt beam="1">  1        2 0.31874762E-01 0.95091651E+02</pdfrwt>
<pdfrwt beam="2">  1       -2 0.16786151E-02 0.95091651E+02</pdfrwt>
<totfact> 0.13986873E+05</totfact>
</mgrwt>
</event>
<event>
 5    1  0.4059427E+001  0.9093352E+02  0.7546771E-02  0.1300607E+00
         -2   -1    0    0    0  501 -0.00000000000E+00  0.00000000000E+00  0.84537898914E+01  0.84537898914E+01  0.00000000000E+00 0.  1.
          2   -1    0    0  501    0  0.00000000000E+00 -0.00000000000E+00 -0.24453246369E+03  0.24453246369E+03  0.00000000000E+00 0. -1.
         23    2    1    2    0    0  0.00000000000E+00  0.00000000000E+00 -0.23607867380E+03  0.25298625358E+03  0.90933515707E+02 0.  0.
          2    1    3    3  502    0  0.23094181517E+02 -0.14768978114E+02 -0.21895570996E+03  0.22066505582E+03  0.00000000000E+00 0. -1.
         -2    1    3    3    0  502 -0.23094181517E+02  0.14768978114E+02 -0.17122963843E+02  0.32321197770E+02  0.00000000000E+00 0.  1.
<mgrwt>
<rscale>  0 0.90933516E+02</rscale>
<asrwt>0</asrwt>
<pdfrwt beam="2">  1        2 0.37620377E-01 0.90933516E+02</pdfrwt>
<pdfrwt beam="1">  1       -2 0.13005831E-02 0.90933516E+02</pdfrwt>
<totfact> 0.16768965E+05</totfact>
</mgrwt>
</event>
<event>
 5    1  0.4059427E+001  0.9343526E+02  0.7546771E-02  0.1294740E+00
          3   -1    0    0  501    0  0.00000000000E+00  0.00000000000E+00  0.16816883743E+03  0.16816883743E+03  0.00000000000E+00 0. -1.
         -3   -1    0    0    0  501 -0.00000000000E+00 -0.00000000000E+00 -0.12978249167E+02  0.12978249167E+02  0.00000000000E+00 0.  1.
         23    2    1    2    0    0  0.00000000000E+00  0.00000000000E+00  0.15519058827E+03  0.18114708660E+03  0.93435262601E+02 0.  0.
          2    1    3    3  502    0  0.10864008925E+02  0.44495141155E+02  0.95437304347E+02  0.10585897854E+03  0.00000000000E+00 0. -1.
         -2    1    3    3    0  502 -0.10864008925E+02 -0.44495141155E+02  0.59753283919E+02  0.75288108061E+02  0.00000000000E+00 0.  1.
<mgrwt>
<rscale>  0 0.93435263E+02</rscale>
<asrwt>0</asrwt>
<pdfrwt beam="1">  1        3 0.25872127E-01 0.93435263E+02</pdfrwt>
<pdfrwt beam="2">  1       -3 0.19966538E-02 0.93435263E+02</pdfrwt>
<totfact> 0.27610857E+04</totfact>
</mgrwt>
</event>
<event>
 5    1  0.4059427E+001  0.7827370E+02  0.7546771E-02  0.1334023E+00
         -3   -1    0    0    0  501 -0.00000000000E+00  0.00000000000E+00  0.10057446970E+02  0.10057446970E+02  0.00000000000E+00 0.  1.
          3   -1    0    0  501    0  0.00000000000E+00 -0.00000000000E+00 -0.15229442145E+03  0.15229442145E+03  0.00000000000E+00 0. -1.
         23    2    1    2    0    0  0.00000000000E+00  0.00000000000E+00 -0.14223697448E+03  0.16235186842E+03  0.78273701011E+02 0.  0.
          2    1    3    3  502    0 -0.89297104656E+01 -0.27439314577E+02 -0.12595775077E+03  0.12922078274E+03  0.00000000000E+00 0. -1.
         -2    1    3    3    0  502  0.89297104656E+01  0.27439314577E+02 -0.16279223707E+02  0.33131085675E+02  0.00000000000E+00 0.  1.
<mgrwt>
<rscale>  0 0.78273701E+02</rscale>
<asrwt>0</asrwt>
<pdfrwt beam="2">  1        3 0.23429910E-01 0.78273701E+02</pdfrwt>
<pdfrwt beam="1">  1       -3 0.15472996E-02 0.78273701E+02</pdfrwt>
<totfact> 0.46000365E+04</totfact>
</mgrwt>
</event>
<event>
 5    1  0.4059427E+001  0.9680591E+02  0.7546771E-02  0.1287160E+00
          2   -1    0    0  501    0  0.00000000000E+00  0.00000000000E+00  0.82389865673E+02  0.82389865673E+02  0.00000000000E+00 0. -1.
         -2   -1    0    0    0  501 -0.00000000000E+00 -0.00000000000E+00 -0.28436097413E+02  0.28436097413E+02  0.00000000000E+00 0.  1.
         23    2    1    2    0    0  0.00000000000E+00  0.00000000000E+00  0.53953768260E+02  0.11082596309E+03  0.96805913995E+02 0.  0.
          2    1    3    3  502    0 -0.29584116535E+02 -0.16980628066E+02  0.66291037862E+02  0.74552420360E+02  0.00000000000E+00 0. -1.
         -2    1    3    3    0  502  0.29584116535E+02  0.16980628066E+02 -0.12337269602E+02  0.36273542726E+02  0.00000000000E+00 0.  1.
<mgrwt>
<rscale>  0 0.96805914E+02</rscale>
<asrwt>0</asrwt>
<pdfrwt beam="1">  1        2 0.12675364E-01 0.96805914E+02</pdfrwt>
<pdfrwt beam="2">  1       -2 0.43747842E-02 0.96805914E+02</pdfrwt>
<totfact> 0.97995109E+04</totfact>
</mgrwt>
</event>
<event>
 5    1  0.4059427E+001  0.9181860E+02  0.7546771E-02  0.1298507E+00
         -1   -1    0    0    0  501 -0.00000000000E+00  0.00000000000E+00  0.62395201568E+02  0.62395201568E+02  0.00000000000E+00 0.  1.
          1   -1    0    0  501    0  0.00000000000E+00 -0.00000000000E+00 -0.33779257767E+02  0.33779257767E+02  0.00000000000E+00 0. -1.
         23    2    1    2    0    0  0.00000000000E+00  0.00000000000E+00  0.28615943801E+02  0.96174459335E+02  0.91818595006E+02 0.  0.
          2    1    3    3  502    0  0.39445498899E+02 -0.15065910377E+02  0.33183250257E+02  0.53703418294E+02  0.00000000000E+00 0.  1.
         -2    1    3    3    0  502 -0.39445498899E+02  0.15065910377E+02 -0.45673064564E+01  0.42471041041E+02  0.00000000000E+00 0. -1.
<mgrwt>
<rscale>  0 0.91818595E+02</rscale>
<asrwt>0</asrwt>
<pdfrwt beam="2">  1        1 0.51968089E-02 0.91818595E+02</pdfrwt>
<pdfrwt beam="1">  1       -1 0.95992618E-02 0.91818595E+02</pdfrwt>
<totfact> 0.86581832E+04</totfact>
</mgrwt>
</event>
<event>
 5    1  0.4059427E+001  0.9174866E+02  0.7546771E-02  0.1298671E+00
          1   -1    0    0  501    0  0.00000000000E+00  0.00000000000E+00  0.46288728146E+03  0.46288728146E+03  0.00000000000E+00 0. -1.
         -1   -1    0    0    0  501 -0.00000000000E+00 -0.00000000000E+00 -0.45463638334E+01  0.45463638334E+01  0.00000000000E+00 0.  1.
         23    2    1    2    0    0  0.00000000000E+00  0.00000000000E+00  0.45834091763E+03  0.46743364529E+03  0.91748656565E+02 0.  0.
          2    1    3    3  502    0  0.37639956111E+02 -0.17015891476E+02  0.33082857410E+03  0.33339743895E+03  0.00000000000E+00 0. -1.
         -2    1    3    3    0  502 -0.37639956111E+02  0.17015891476E+02  0.12751234353E+03  0.13403620634E+03  0.00000000000E+00 0.  1.
<mgrwt>
<rscale>  0 0.91748657E+02</rscale>
<asrwt>0</asrwt>
<pdfrwt beam="1">  1        1 0.71213391E-01 0.91748657E+02</pdfrwt>
<pdfrwt beam="2">  1       -1 0.69944096E-03 0.91748657E+02</pdfrwt>
<totfact> 0.13563167E+05</totfact>
</mgrwt>
</event>
<event>
 5    1  0.4059427E+001  0.8980918E+02  0.7546771E-02  0.1303314E+00
          2   -1    0    0  501    0  0.00000000000E+00  0.00000000000E+00  0.98398304621E+03  0.98398304621E+03  0.00000000000E+00 0.  1.
         -2   -1    0    0    0  501 -0.00000000000E+00 -0.00000000000E+00 -0.20492447263E+01  0.20492447263E+01  0.00000000000E+00 0. -1.
         23    2    1    2    0    0  0.00000000000E+00  0.00000000000E+00  0.98193380148E+03  0.98603229093E+03  0.89809176997E+02 0.  0.
          2    1    3    3  502    0  0.11795216490E+02 -0.27103332579E+02  0.11982725257E+03  0.12341915664E+03  0.00000000000E+00 0. -1.
         -2    1    3    3    0  502 -0.11795216490E+02  0.27103332579E+02  0.86210654891E+03  0.86261313429E+03  0.00000000000E+00 0.  1.
<mgrwt>
<rscale>  0 0.89809177E+02</rscale>
<asrwt>0</asrwt>
<pdfrwt beam="1">  1        2 0.15138163E+00 0.89809177E+02</pdfrwt>
<pdfrwt beam="2">  1       -2 0.31526921E-03 0.89809177E+02</pdfrwt>
<totfact> 0.25994961E+05</totfact>
</mgrwt>
</event>
<event>
 5    1  0.4059427E+001  0.8899387E+02  0.7546771E-02  0.1305307E+00
          2   -1    0    0  501    0  0.00000000000E+00  0.00000000000E+00  0.15074917810E+04  0.15074917810E+04  0.00000000000E+00 0.  1.
         -2   -1    0    0    0  501 -0.00000000000E+00 -0.00000000000E+00 -0.13134249643E+01  0.13134249643E+01  0.00000000000E+00 0. -1.
         23    2    1    2    0    0  0.00000000000E+00  0.00000000000E+00  0.15061783560E+04  0.15088052059E+04  0.88993872566E+02 0.  0.
          2    1    3    3  502    0 -0.37052930287E+02 -0.23597025887E+02  0.87325736808E+03  0.87436157862E+03  0.00000000000E+00 0. -1.
         -2    1    3    3    0  502  0.37052930287E+02  0.23597025887E+02  0.63292098792E+03  0.63444362730E+03  0.00000000000E+00 0.  1.
<mgrwt>
<rscale>  0 0.88993873E+02</rscale>
<asrwt>0</asrwt>
<pdfrwt beam="1">  1        2 0.23192043E+00 0.88993873E+02</pdfrwt>
<pdfrwt beam="2">  1       -2 0.20206659E-03 0.88993873E+02</pdfrwt>
<totfact> 0.25103266E+05</totfact>
</mgrwt>
</event>
<event>
 5    1  0.4059427E+001  0.9350224E+02  0.7546771E-02  0.1294585E+00
          2   -1    0    0  501    0  0.00000000000E+00  0.00000000000E+00  0.27925980480E+03  0.27925980480E+03  0.00000000000E+00 0. -1.
         -2   -1    0    0    0  501 -0.00000000000E+00 -0.00000000000E+00 -0.78266447509E+01  0.78266447509E+01  0.00000000000E+00 0.  1.
         23    2    1    2    0    0  0.00000000000E+00  0.00000000000E+00  0.27143316005E+03  0.28708644956E+03  0.93502241372E+02 0.  0.
          2    1    3    3  502    0  0.26725732594E+02 -0.32262937523E+02  0.72010635836E+02  0.83310825190E+02  0.00000000000E+00 0. -1.
         -2    1    3    3    0  502 -0.26725732594E+02  0.32262937523E+02  0.19942252422E+03  0.20377562437E+03  0.00000000000E+00 0.  1.
<mgrwt>
<rscale>  0 0.93502241E+02</rscale>
<asrwt>0</asrwt>
<pdfrwt beam="1">  1        2 0.42963039E-01 0.93502241E+02</pdfrwt>
<pdfrwt beam="2">  1       -2 0.12040994E-02 0.93502241E+02</pdfrwt>
<totfact> 0.16351817E+05</totfact>
</mgrwt>
</event>
<event>
 5    1  0.4059427E+001  0.9340870E+02  0.7546771E-02  0.1294801E+00
          1   -1    0    0  501    0  0.00000000000E+00  0.00000000000E+00  0.10312183117E+02  0.10312183117E+02  0.00000000000E+00 0. -1.
         -1   -1    0    0    0  501 -0.00000000000E+00 -0.00000000000E+00 -0.21152614009E+03  0.21152614009E+03  0.00000000000E+00 0.  1.
         23    2    1    2    0    0  0.00000000000E+00  0.00000000000E+00 -0.20121395697E+03  0.22183832320E+03  0.93408699608E+02 0.  0.
          2    1    3    3  502    0 -0.39023492531E+02  0.24799862528E+02 -0.84955878643E+02  0.96723148557E+02  0.00000000000E+00 0. -1.
         -2    1    3    3    0  502  0.39023492531E+02 -0.24799862528E+02 -0.11625807833E+03  0.12511517465E+03  0.00000000000E+00 0.  1.
<mgrwt>
<rscale>  0 0.93408700E+02</rscale>
<asrwt>0</asrwt>
<pdfrwt beam="1">  1        1 0.15864897E-02 0.93408700E+02</pdfrwt>
<pdfrwt beam="2">  1       -1 0.32542484E-01 0.93408700E+02</pdfrwt>
<totfact> 0.64118692E+04</totfact>
</mgrwt>
</event>
<event>
 5    1  0.4059427E+001  0.8982389E+02  0.7546771E-02  0.1303279E+00
         -3   -1    0    0    0  501 -0.00000000000E+00  0.00000000000E+00  0.69718828972E+01  0.69718828972E+01  0.00000000000E+00 0.  1.
          3   -1    0    0  501    0  0.00000000000E+00 -0.00000000000E+00 -0.28931682005E+03  0.28931682005E+03  0.00000000000E+00 0. -1.
         23    2    1    2    0    0  0.00000000000E+00  0.00000000000E+00 -0.28234493715E+03  0.29628870295E+03  0.89823894139E+02 0.  0.
          2    1    3    3  502    0  0.25058938293E+02 -0.36530258883E+02 -0.16556230125E+03  0.17138636409E+03  0.00000000000E+00 0. -1.
         -2    1    3    3    0  502 -0.25058938293E+02  0.36530258883E+02 -0.11678263591E+03  0.12490233886E+03  0.00000000000E+00 0.  1.
<mgrwt>
<rscale>  0 0.89823894E+02</rscale>
<asrwt>0</asrwt>
<pdfrwt beam="2">  1        3 0.44510282E-01 0.89823894E+02</pdfrwt>
<pdfrwt beam="1">  1       -3 0.10725973E-02 0.89823894E+02</pdfrwt>
<totfact> 0.25163396E+04</totfact>
</mgrwt>
</event>
<event>
 5    1  0.4059427E+001  0.9069590E+02  0.7546771E-02  0.1301175E+00
         -1   -1    0    0    0  501 -0.00000000000E+00  0.00000000000E+00  0.13137570302E+03  0.13137570302E+03  0.00000000000E+00 0.  1.
          1   -1    0    0  501    0  0.00000000000E+00 -0.00000000000E+00 -0.15653097578E+02  0.15653097578E+02  0.00000000000E+00 0. -1.
         23    2    1    2    0    0  0.00000000000E+00  0.00000000000E+00  0.11572260544E+03  0.14702880060E+03  0.90695902855E+02 0.  0.
          2    1    3    3  502    0  0.15939045251E+02  0.27166749747E+02  0.49732920351E+01  0.31887600866E+02  0.00000000000E+00 0. -1.
         -2    1    3    3    0  502 -0.15939045251E+02 -0.27166749747E+02  0.11074931340E+03  0.11514119973E+03  0.00000000000E+00 0.  1.
<mgrwt>
<rscale>  0 0.90695903E+02</rscale>
<asrwt>0</asrwt>
<pdfrwt beam="2">  1        1 0.24081689E-02 0.90695903E+02</pdfrwt>
<pdfrwt beam="1">  1       -1 0.20211646E-01 0.90695903E+02</pdfrwt>
<totfact> 0.78112107E+04</totfact>
</mgrwt>
</event>
<event>
 5    1  0.4059427E+001  0.8989046E+02  0.7546771E-02  0.1303117E+00
          1   -1    0    0  501    0  0.00000000000E+00  0.00000000000E+00  0.90209452915E+02  0.90209452915E+02  0.00000000000E+00 0. -1.
         -1   -1    0    0    0  501 -0.00000000000E+00 -0.00000000000E+00 -0.22393150047E+02  0.22393150047E+02  0.00000000000E+00 0.  1.
         23    2    1    2    0    0  0.00000000000E+00  0.00000000000E+00  0.67816302868E+02  0.11260260296E+03  0.89890462558E+02 0.  0.
          2    1    3    3  502    0 -0.28088305338E+02 -0.33088100719E+02  0.48532629213E+02  0.65109073133E+02  0.00000000000E+00 0. -1.
         -2    1    3    3    0  502  0.28088305338E+02  0.33088100719E+02  0.19283673655E+02  0.47493529828E+02  0.00000000000E+00 0.  1.
<mgrwt>
<rscale>  0 0.89890463E+02</rscale>
<asrwt>0</asrwt>
<pdfrwt beam="1">  1        1 0.13878377E-01 0.89890463E+02</pdfrwt>
<pdfrwt beam="2">  1       -1 0.34451000E-02 0.89890463E+02</pdfrwt>
<totfact> 0.10676077E+05</totfact>
</mgrwt>
</event>
<event>
 5    1  0.4059427E+001  0.9056394E+02  0.7546771E-02  0.1301492E+00
         -1   -1    0    0    0  501 -0.00000000000E+00  0.00000000000E+00  0.54700011324E+03  0.54700011324E+03  0.00000000000E+00 0.  1.
          1   -1    0    0  501    0  0.00000000000E+00 -0.00000000000E+00 -0.37485492682E+01  0.37485492682E+01  0.00000000000E+00 0. -1.
         23    2    1    2    0    0  0.00000000000E+00  0.00000000000E+00  0.54325156397E+03  0.55074866250E+03  0.90563941482E+02 0.  0.
          2    1    3    3  502    0 -0.36659285173E+02 -0.21469128488E+01  0.11050576165E+03  0.11644756667E+03  0.00000000000E+00 0. -1.
         -2    1    3    3    0  502  0.36659285173E+02  0.21469128488E+01  0.43274580232E+03  0.43430109584E+03  0.00000000000E+00 0.  1.
<mgrwt>
<rscale>  0 0.90563941E+02</rscale>
<asrwt>0</asrwt>
<pdfrwt beam="2">  1        1 0.57670032E-03 0.90563941E+02</pdfrwt>
<pdfrwt beam="1">  1       -1 0.84153801E-01 0.90563941E+02</pdfrwt>
<totfact> 0.45193675E+04</totfact>
</mgrwt>
</event>
<event>
 5    1  0.4059427E+001  0.8302001E+02  0.7546771E-02  0.1320693E+00
         -2   -1    0    0    0  501 -0.00000000000E+00  0.00000000000E+00  0.17918271307E+01  0.17918271307E+01  0.00000000000E+00 0.  1.
          2   -1    0    0  501    0  0.00000000000E+00 -0.00000000000E+00 -0.96163325369E+03  0.96163325369E+03  0.00000000000E+00 0. -1.
         23    2    1    2    0    0  0.00000000000E+00  0.00000000000E+00 -0.95984142656E+03  0.96342508082E+03  0.83020010931E+02 0.  0.
          2    1    3    3  502    0  0.24001292278E+02 -0.31601959166E+02 -0.62125793175E+03  0.62252402654E+03  0.00000000000E+00 0. -1.
         -2    1    3    3    0  502 -0.24001292278E+02  0.31601959166E+02 -0.33858349481E+03  0.34090105428E+03  0.00000000000E+00 0.  1.
<mgrwt>
<rscale>  0 0.83020011E+02</rscale>
<asrwt>0</asrwt>
<pdfrwt beam="2">  1        2 0.14794360E+00 0.83020011E+02</pdfrwt>
<pdfrwt beam="1">  1       -2 0.27566568E-03 0.83020011E+02</pdfrwt>
<totfact> 0.31890771E+05</totfact>
</mgrwt>
</event>
<event>
 5    1  0.4059427E+001  0.8954706E+02  0.7546771E-02  0.1303952E+00
         -2   -1    0    0    0  501 -0.00000000000E+00  0.00000000000E+00  0.23928115136E+03  0.23928115136E+03  0.00000000000E+00 0.  1.
          2   -1    0    0  501    0  0.00000000000E+00 -0.00000000000E+00 -0.83778810830E+01  0.83778810830E+01  0.00000000000E+00 0. -1.
         23    2    1    2    0    0  0.00000000000E+00  0.00000000000E+00  0.23090327028E+03  0.24765903244E+03  0.89547060957E+02 0.  0.
          2    1    3    3  502    0  0.27161550494E+01 -0.44555228507E+02  0.12508128514E+03  0.13280765708E+03  0.00000000000E+00 0.  1.
         -2    1    3    3    0  502 -0.27161550494E+01  0.44555228507E+02  0.10582198514E+03  0.11485137537E+03  0.00000000000E+00 0. -1.
<mgrwt>
<rscale>  0 0.89547061E+02</rscale>
<asrwt>0</asrwt>
<pdfrwt beam="2">  1        2 0.12889050E-02 0.89547061E+02</pdfrwt>
<pdfrwt beam="1">  1       -2 0.36812480E-01 0.89547061E+02</pdfrwt>
<totfact> 0.60115798E+04</totfact>
</mgrwt>
</event>
<event>
 5    1  0.4059427E+001  0.8872588E+02  0.7546771E-02  0.1305967E+00
         -1   -1    0    0    0  501 -0.00000000000E+00  0.00000000000E+00  0.14846001148E+01  0.14846001148E+01  0.00000000000E+00 0.  1.
          1   -1    0    0  501    0  0.00000000000E+00 -0.00000000000E+00 -0.13256569010E+04  0.13256569010E+04  0.00000000000E+00 0. -1.
         23    2    1    2    0    0  0.00000000000E+00  0.00000000000E+00 -0.13241723008E+04  0.13271415011E+04  0.88725878691E+02 0.  0.
          2    1    3    3  502    0  0.20576950922E+02 -0.60537130769E+01 -0.12429432810E+04  0.12431283353E+04  0.00000000000E+00 0. -1.
         -2    1    3    3    0  502 -0.20576950922E+02  0.60537130769E+01 -0.81229019863E+02  0.84013165749E+02  0.00000000000E+00 0.  1.
<mgrwt>
<rscale>  0 0.88725879E+02</rscale>
<asrwt>0</asrwt>
<pdfrwt beam="2">  1        1 0.20394799E+00 0.88725879E+02</pdfrwt>
<pdfrwt beam="1">  1       -1 0.22839915E-03 0.88725879E+02</pdfrwt>
<totfact> 0.12966715E+05</totfact>
</mgrwt>
</event>
<event>
 5    1  0.4059427E+001  0.9370152E+02  0.7546771E-02  0.1294128E+00
          2   -1    0    0  501    0  0.00000000000E+00  0.00000000000E+00  0.11716409272E+03  0.11716409272E+03  0.00000000000E+00 0. -1.
         -2   -1    0    0    0  501 -0.00000000000E+00 -0.00000000000E+00 -0.18734355419E+02  0.18734355419E+02  0.00000000000E+00 0.  1.
         23    2    1    2    0    0  0.00000000000E+00  0.00000000000E+00  0.98429737297E+02  0.13589844814E+03  0.93701520912E+02 0.  0.
          2    1    3    3  502    0 -0.11032884231E+02 -0.44658888977E+02  0.36336033867E+02  0.58621227011E+02  0.00000000000E+00 0. -1.
         -2    1    3    3    0  502  0.11032884231E+02  0.44658888977E+02  0.62093703430E+02  0.77277221124E+02  0.00000000000E+00 0.  1.
<mgrwt>
<rscale>  0 0.93701521E+02</rscale>
<asrwt>0</asrwt>
<pdfrwt beam="1">  1        2 0.18025245E-01 0.93701521E+02</pdfrwt>
<pdfrwt beam="2">  1       -2 0.28822086E-02 0.93701521E+02</pdfrwt>
<totfact> 0.11957132E+05</totfact>
</mgrwt>
</event>
<event>
 5    1  0.4059427E+001  0.9016396E+02  0.7546771E-02  0.1302455E+00
         -1   -1    0    0    0  501 -0.00000000000E+00  0.00000000000E+00  0.39431394443E+01  0.39431394443E+01  0.00000000000E+00 0.  1.
          1   -1    0    0  501    0  0.00000000000E+00 -0.00000000000E+00 -0.51542307305E+03  0.51542307305E+03  0.00000000000E+00 0. -1.
         23    2    1    2    0    0  0.00000000000E+00  0.00000000000E+00 -0.51147993361E+03  0.51936621250E+03  0.90163962864E+02 0.  0.
          2    1    3    3  502    0 -0.88436326302E+01 -0.22875701768E+02 -0.37847645349E+02  0.45099355072E+02  0.00000000000E+00 0.  1.
         -2    1    3    3    0  502  0.88436326302E+01  0.22875701768E+02 -0.47363228826E+03  0.47426685742E+03  0.00000000000E+00 0. -1.
<mgrwt>
<rscale>  0 0.90163963E+02</rscale>
<asrwt>0</asrwt>
<pdfrwt beam="2">  1        1 0.79295834E-01 0.90163963E+02</pdfrwt>
<pdfrwt beam="1">  1       -1 0.60663701E-03 0.90163963E+02</pdfrwt>
<totfact> 0.14394222E+05</totfact>
</mgrwt>
</event>
<event>
 5    1  0.4059427E+001  0.9692272E+02  0.7546771E-02  0.1286903E+00
          1   -1    0    0  501    0  0.00000000000E+00  0.00000000000E+00  0.17009310415E+04  0.17009310415E+04  0.00000000000E+00 0. -1.
         -1   -1    0    0    0  501 -0.00000000000E+00 -0.00000000000E+00 -0.13807165438E+01  0.13807165438E+01  0.00000000000E+00 0.  1.
         23    2    1    2    0    0  0.00000000000E+00  0.00000000000E+00  0.16995503249E+04  0.17023117580E+04  0.96922724454E+02 0.  0.
          2    1    3    3  502    0  0.25843460946E+02 -0.59710888491E+01  0.13742775219E+03  0.13996401483E+03  0.00000000000E+00 0.  1.
         -2    1    3    3    0  502 -0.25843460946E+02  0.59710888491E+01  0.15621225727E+04  0.15623477432E+04  0.00000000000E+00 0. -1.
<mgrwt>
<rscale>  0 0.96922724E+02</rscale>
<asrwt>0</asrwt>
<pdfrwt beam="1">  1        1 0.26168002E+00 0.96922724E+02</pdfrwt>
<pdfrwt beam="2">  1       -1 0.21241929E-03 0.96922724E+02</pdfrwt>
<totfact> 0.83430277E+04</totfact>
</mgrwt>
</event>
<event>
 5    1  0.4059427E+001  0.9276653E+02  0.7546771E-02  0.1296287E+00
          2   -1    0    0  501    0  0.00000000000E+00  0.00000000000E+00  0.89193637988E+03  0.89193637988E+03  0.00000000000E+00 0. -1.
         -2   -1    0    0    0  501 -0.00000000000E+00 -0.00000000000E+00 -0.24120638177E+01  0.24120638177E+01  0.00000000000E+00 0.  1.
         23    2    1    2    0    0  0.00000000000E+00  0.00000000000E+00  0.88952431606E+03  0.89434844369E+03  0.92766534258E+02 0.  0.
          2    1    3    3  502    0  0.16665224390E+02 -0.38141536046E+02  0.24744215243E+03  0.25091856304E+03  0.00000000000E+00 0.  1.
         -2    1    3    3    0  502 -0.16665224390E+02  0.38141536046E+02  0.64208216363E+03  0.64342988066E+03  0.00000000000E+00 0. -1.
<mgrwt>
<rscale>  0 0.92766534E+02</rscale>
<asrwt>0</asrwt>
<pdfrwt beam="1">  1        2 0.13722072E+00 0.92766534E+02</pdfrwt>
<pdfrwt beam="2">  1       -2 0.37108745E-03 0.92766534E+02</pdfrwt>
<totfact> 0.23665093E+05</totfact>
</mgrwt>
</event>
<event>
 5    1  0.4059427E+001  0.9074025E+02  0.7546771E-02  0.1301069E+00
          1   -1    0    0  501    0  0.00000000000E+00  0.00000000000E+00  0.12686522761E+04  0.12686522761E+04  0.00000000000E+00 0. -1.
         -1   -1    0    0    0  501 -0.00000000000E+00 -0.00000000000E+00 -0.16225473915E+01  0.16225473915E+01  0.00000000000E+00 0.  1.
         23    2    1    2    0    0  0.00000000000E+00  0.00000000000E+00  0.12670297287E+04  0.12702748235E+04  0.90740254383E+02 0.  0.
          2    1    3    3  502    0  0.45263813682E+02 -0.30968609578E+01  0.63054309308E+03  0.63217323228E+03  0.00000000000E+00 0. -1.
         -2    1    3    3    0  502 -0.45263813682E+02  0.30968609578E+01  0.63648663566E+03  0.63810159125E+03  0.00000000000E+00 0.  1.
<mgrwt>
<rscale>  0 0.90740254E+02</rscale>
<asrwt>0</asrwt>
<pdfrwt beam="1">  1        1 0.19517648E+00 0.90740254E+02</pdfrwt>
<pdfrwt beam="2">  1       -1 0.24962369E-03 0.90740254E+02</pdfrwt>
<totfact> 0.12533940E+05</totfact>
</mgrwt>
</event>
<event>
 5    1  0.4059427E+001  0.9122425E+02  0.7546771E-02  0.1299914E+00
          2   -1    0    0  501    0  0.00000000000E+00  0.00000000000E+00  0.41710046197E+02  0.41710046197E+02  0.00000000000E+00 0. -1.
         -2   -1    0    0    0  501 -0.00000000000E+00 -0.00000000000E+00 -0.49879248607E+02  0.49879248607E+02  0.00000000000E+00 0.  1.
         23    2    1    2    0    0  0.00000000000E+00  0.00000000000E+00 -0.81692024105E+01  0.91589294804E+02  0.91224245980E+02 0.  0.
          2    1    3    3  502    0 -0.32932364398E+02 -0.20869229209E+02 -0.27852109567E+02  0.47914563130E+02  0.00000000000E+00 0.  1.
         -2    1    3    3    0  502  0.32932364398E+02  0.20869229209E+02  0.19682907157E+02  0.43674731674E+02  0.00000000000E+00 0. -1.
<mgrwt>
<rscale>  0 0.91224246E+02</rscale>
<asrwt>0</asrwt>
<pdfrwt beam="1">  1        2 0.64169302E-02 0.91224246E+02</pdfrwt>
<pdfrwt beam="2">  1       -2 0.76737306E-02 0.91224246E+02</pdfrwt>
<totfact> 0.96282698E+04</totfact>
</mgrwt>
</event>
<event>
 5    1  0.4059427E+001  0.8894193E+02  0.7546771E-02  0.1305434E+00
          2   -1    0    0  501    0  0.00000000000E+00  0.00000000000E+00  0.39360003449E+03  0.39360003449E+03  0.00000000000E+00 0. -1.
         -2   -1    0    0    0  501 -0.00000000000E+00 -0.00000000000E+00 -0.50245596645E+01  0.50245596645E+01  0.00000000000E+00 0.  1.
         23    2    1    2    0    0  0.00000000000E+00  0.00000000000E+00  0.38857547482E+03  0.39862459415E+03  0.88941932905E+02 0.  0.
          2    1    3    3  502    0 -0.31422772634E+02 -0.29489287821E+02  0.14505706069E+03  0.15132270019E+03  0.00000000000E+00 0.  1.
         -2    1    3    3    0  502  0.31422772634E+02  0.29489287821E+02  0.24351841413E+03  0.24730189396E+03  0.00000000000E+00 0. -1.
<mgrwt>
<rscale>  0 0.88941933E+02</rscale>
<asrwt>0</asrwt>
<pdfrwt beam="1">  1        2 0.60553827E-01 0.88941933E+02</pdfrwt>
<pdfrwt beam="2">  1       -2 0.77300949E-03 0.88941933E+02</pdfrwt>
<totfact> 0.21197025E+05</totfact>
</mgrwt>
</event>
<event>
 5    1  0.4059427E+001  0.9248940E+02  0.7546771E-02  0.1296933E+00
         -3   -1    0    0    0  501 -0.00000000000E+00  0.00000000000E+00  0.26513796478E+02  0.26513796478E+02  0.00000000000E+00 0.  1.
          3   -1    0    0  501    0  0.00000000000E+00 -0.00000000000E+00 -0.80658845272E+02  0.80658845272E+02  0.00000000000E+00 0. -1.
         23    2    1    2    0    0  0.00000000000E+00  0.00000000000E+00 -0.54145048793E+02  0.10717264175E+03  0.92489398478E+02 0.  0.
          2    1    3    3  502    0 -0.40996893946E+02  0.19596878000E+02 -0.17118731978E+02  0.48557532115E+02  0.00000000000E+00 0. -1.
         -2    1    3    3    0  502  0.40996893946E+02 -0.19596878000E+02 -0.37026316816E+02  0.58615109635E+02  0.00000000000E+00 0.  1.
<mgrwt>
<rscale>  0 0.92489398E+02</rscale>
<asrwt>0</asrwt>
<pdfrwt beam="2">  1        3 0.12409053E-01 0.92489398E+02</pdfrwt>
<pdfrwt beam="1">  1       -3 0.40790457E-02 0.92489398E+02</pdfrwt>
<totfact> 0.32842387E+04</totfact>
</mgrwt>
</event>
<event>
 5    1  0.4059427E+001  0.9206105E+02  0.7546771E-02  0.1297936E+00
         -2   -1    0    0    0  501 -0.00000000000E+00  0.00000000000E+00  0.32684956686E+01  0.32684956686E+01  0.00000000000E+00 0.  1.
          2   -1    0    0  501    0  0.00000000000E+00 -0.00000000000E+00 -0.64825205672E+03  0.64825205672E+03  0.00000000000E+00 0. -1.
         23    2    1    2    0    0  0.00000000000E+00  0.00000000000E+00 -0.64498356105E+03  0.65152055239E+03  0.92061045824E+02 0.  0.
          2    1    3    3  502    0  0.36869769631E+02 -0.80019429270E+01 -0.50911640463E+03  0.51051241362E+03  0.00000000000E+00 0. -1.
         -2    1    3    3    0  502 -0.36869769631E+02  0.80019429270E+01 -0.13586715643E+03  0.14100813877E+03  0.00000000000E+00 0.  1.
<mgrwt>
<rscale>  0 0.92061046E+02</rscale>
<asrwt>0</asrwt>
<pdfrwt beam="2">  1        2 0.99731085E-01 0.92061046E+02</pdfrwt>
<pdfrwt beam="1">  1       -2 0.50284549E-03 0.92061046E+02</pdfrwt>
<totfact> 0.22683531E+05</totfact>
</mgrwt>
</event>
<event>
 5    1  0.4059427E+001  0.1012388E+03  0.7546771E-02  0.1277712E+00
          1   -1    0    0  501    0  0.00000000000E+00  0.00000000000E+00  0.23292381692E+03  0.23292381692E+03  0.00000000000E+00 0. -1.
         -1   -1    0    0    0  501 -0.00000000000E+00 -0.00000000000E+00 -0.11000685826E+02  0.11000685826E+02  0.00000000000E+00 0.  1.
         23    2    1    2    0    0  0.00000000000E+00  0.00000000000E+00  0.22192313110E+03  0.24392450275E+03  0.10123876197E+03 0.  0.
          2    1    3    3  502    0  0.45663812431E+02 -0.52504118315E+01  0.16204826149E+03  0.16844105688E+03  0.00000000000E+00 0. -1.
         -2    1    3    3    0  502 -0.45663812431E+02  0.52504118315E+01  0.59874869603E+02  0.75483445868E+02  0.00000000000E+00 0.  1.
<mgrwt>
<rscale>  0 0.10123876E+03</rscale>
<asrwt>0</asrwt>
<pdfrwt beam="1">  1        1 0.35834430E-01 0.10123876E+03</pdfrwt>
<pdfrwt beam="2">  1       -1 0.16924134E-02 0.10123876E+03</pdfrwt>
<totfact> 0.92028825E+04</totfact>
</mgrwt>
</event>
<event>
 5    1  0.4059427E+001  0.9006417E+02  0.7546771E-02  0.1302696E+00
          2   -1    0    0  501    0  0.00000000000E+00  0.00000000000E+00  0.28529394098E+03  0.28529394098E+03  0.00000000000E+00 0. -1.
         -2   -1    0    0    0  501 -0.00000000000E+00 -0.00000000000E+00 -0.71080682358E+01  0.71080682358E+01  0.00000000000E+00 0.  1.
         23    2    1    2    0    0  0.00000000000E+00  0.00000000000E+00  0.27818587275E+03  0.29240200922E+03  0.90064172672E+02 0.  0.
          2    1    3    3  502    0  0.25672586568E+02 -0.34568319386E+02  0.18189859055E+03  0.18692551364E+03  0.00000000000E+00 0. -1.
         -2    1    3    3    0  502 -0.25672586568E+02  0.34568319386E+02  0.96287282200E+02  0.10547649558E+03  0.00000000000E+00 0.  1.
<mgrwt>
<rscale>  0 0.90064173E+02</rscale>
<asrwt>0</asrwt>
<pdfrwt beam="1">  1        2 0.43891367E-01 0.90064173E+02</pdfrwt>
<pdfrwt beam="2">  1       -2 0.10935492E-02 0.90064173E+02</pdfrwt>
<totfact> 0.18219613E+05</totfact>
</mgrwt>
</event>
<event>
 5    1  0.4059427E+001  0.8459665E+02  0.7546771E-02  0.1316491E+00
         -1   -1    0    0    0  501 -0.00000000000E+00  0.00000000000E+00  0.19343508298E+01  0.19343508298E+01  0.00000000000E+00 0.  1.
          1   -1    0    0  501    0  0.00000000000E+00 -0.00000000000E+00 -0.92493479486E+03  0.92493479486E+03  0.00000000000E+00 0. -1.
         23    2    1    2    0    0  0.00000000000E+00  0.00000000000E+00 -0.92300044403E+03  0.92686914569E+03  0.84596652130E+02 0.  0.
          2    1    3    3  502    0 -0.39332771591E+02 -0.41132610579E+01 -0.62590458112E+03  0.62715271705E+03  0.00000000000E+00 0. -1.
         -2    1    3    3    0  502  0.39332771591E+02  0.41132610579E+01 -0.29709586291E+03  0.29971642864E+03  0.00000000000E+00 0.  1.
<mgrwt>
<rscale>  0 0.84596652E+02</rscale>
<asrwt>0</asrwt>
<pdfrwt beam="2">  1        1 0.14229837E+00 0.84596652E+02</pdfrwt>
<pdfrwt beam="1">  1       -1 0.29759095E-03 0.84596652E+02</pdfrwt>
<totfact> 0.16868020E+05</totfact>
</mgrwt>
</event>
<event>
 5    1  0.4059427E+001  0.9463922E+02  0.7546771E-02  0.1291991E+00
          3   -1    0    0  501    0  0.00000000000E+00  0.00000000000E+00  0.45569473098E+03  0.45569473098E+03  0.00000000000E+00 0. -1.
         -3   -1    0    0    0  501 -0.00000000000E+00 -0.00000000000E+00 -0.49136966167E+01  0.49136966167E+01  0.00000000000E+00 0.  1.
         23    2    1    2    0    0  0.00000000000E+00  0.00000000000E+00  0.45078103436E+03  0.46060842760E+03  0.94639223536E+02 0.  0.
          2    1    3    3  502    0  0.36804841362E+02  0.41008894874E+01  0.36875894475E+03  0.37061377872E+03  0.00000000000E+00 0. -1.
         -2    1    3    3    0  502 -0.36804841362E+02 -0.41008894874E+01  0.82022089610E+02  0.89994648876E+02  0.00000000000E+00 0.  1.
<mgrwt>
<rscale>  0 0.94639224E+02</rscale>
<asrwt>0</asrwt>
<pdfrwt beam="1">  1        3 0.70106848E-01 0.94639224E+02</pdfrwt>
<pdfrwt beam="2">  1       -3 0.75595369E-03 0.94639224E+02</pdfrwt>
<totfact> 0.17109644E+04</totfact>
</mgrwt>
</event>
<event>
 5    1  0.4059427E+001  0.9109911E+02  0.7546771E-02  0.1300212E+00
          2   -1    0    0  501    0  0.00000000000E+00  0.00000000000E+00  0.55716414809E+01  0.55716414809E+01  0.00000000000E+00 0. -1.
         -2   -1    0    0    0  501 -0.00000000000E+00 -0.00000000000E+00 -0.37237890612E+03  0.37237890612E+03  0.00000000000E+00 0.  1.
         23    2    1    2    0    0  0.00000000000E+00  0.00000000000E+00 -0.36680726464E+03  0.37795054760E+03  0.91099105593E+02 0.  0.
          2    1    3    3  502    0 -0.47457124219E+01 -0.42399597234E+02 -0.11721600495E+03  0.12473908549E+03  0.00000000000E+00 0. -1.
         -2    1    3    3    0  502  0.47457124219E+01  0.42399597234E+02 -0.24959125969E+03  0.25321146212E+03  0.00000000000E+00 0.  1.
<mgrwt>
<rscale>  0 0.91099106E+02</rscale>
<asrwt>0</asrwt>
<pdfrwt beam="1">  1        2 0.85717552E-03 0.91099106E+02</pdfrwt>
<pdfrwt beam="2">  1       -2 0.57289069E-01 0.91099106E+02</pdfrwt>
<totfact> 0.44859581E+04</totfact>
</mgrwt>
</event>
<event>
 5    1  0.4059427E+001  0.8821042E+02  0.7546771E-02  0.1307244E+00
         -1   -1    0    0    0  501 -0.00000000000E+00  0.00000000000E+00  0.10738458350E+02  0.10738458350E+02  0.00000000000E+00 0.  1.
          1   -1    0    0  501    0  0.00000000000E+00 -0.00000000000E+00 -0.18114978924E+03  0.18114978924E+03  0.00000000000E+00 0. -1.
         23    2    1    2    0    0  0.00000000000E+00  0.00000000000E+00 -0.17041133089E+03  0.19188824759E+03  0.88210418133E+02 0.  0.
          2    1    3    3  502    0  0.43648407435E+02  0.33212903292E+01 -0.96931374873E+02  0.10635744391E+03  0.00000000000E+00 0. -1.
         -2    1    3    3    0  502 -0.43648407435E+02 -0.33212903292E+01 -0.73479956016E+02  0.85530803675E+02  0.00000000000E+00 0.  1.
<mgrwt>
<rscale>  0 0.88210418E+02</rscale>
<asrwt>0</asrwt>
<pdfrwt beam="2">  1        1 0.27869196E-01 0.88210418E+02</pdfrwt>
<pdfrwt beam="1">  1       -1 0.16520707E-02 0.88210418E+02</pdfrwt>
<totfact> 0.12693539E+05</totfact>
</mgrwt>
</event>
<event>
 5    1  0.4059427E+001  0.9163229E+02  0.7546771E-02  0.1298946E+00
         -1   -1    0    0    0  501 -0.00000000000E+00  0.00000000000E+00  0.53993780571E+02  0.53993780571E+02  0.00000000000E+00 0.  1.
          1   -1    0    0  501    0  0.00000000000E+00 -0.00000000000E+00 -0.38877052756E+02  0.38877052756E+02  0.00000000000E+00 0. -1.
         23    2    1    2    0    0  0.00000000000E+00  0.00000000000E+00  0.15116727815E+02  0.92870833327E+02  0.91632288103E+02 0.  0.
          2    1    3    3  502    0 -0.20892260786E+02  0.19925073725E+02 -0.28498101466E+02  0.40566450558E+02  0.00000000000E+00 0. -1.
         -2    1    3    3    0  502  0.20892260786E+02 -0.19925073725E+02  0.43614829281E+02  0.52304382770E+02  0.00000000000E+00 0.  1.
<mgrwt>
<rscale>  0 0.91632288E+02</rscale>
<asrwt>0</asrwt>
<pdfrwt beam="2">  1        1 0.59810850E-02 0.91632288E+02</pdfrwt>
<pdfrwt beam="1">  1       -1 0.83067355E-02 0.91632288E+02</pdfrwt>
<totfact> 0.89006128E+04</totfact>
</mgrwt>
</event>
<event>
 5    1  0.4059427E+001  0.8941760E+02  0.7546771E-02  0.1304268E+00
         -4   -1    0    0    0  501 -0.00000000000E+00  0.00000000000E+00  0.28806153186E+01  0.28806153186E+01  0.00000000000E+00 0.  1.
          4   -1    0    0  501    0  0.00000000000E+00 -0.00000000000E+00 -0.69390615107E+03  0.69390615107E+03  0.00000000000E+00 0. -1.
         23    2    1    2    0    0  0.00000000000E+00  0.00000000000E+00 -0.69102553575E+03  0.69678676639E+03  0.89417597563E+02 0.  0.
          2    1    3    3  502    0  0.14451839702E+02  0.41892619521E+02 -0.39163321823E+03  0.39413249658E+03  0.00000000000E+00 0. -1.
         -2    1    3    3    0  502 -0.14451839702E+02 -0.41892619521E+02 -0.29939231752E+03  0.30265426981E+03  0.00000000000E+00 0.  1.
<mgrwt>
<rscale>  0 0.89417598E+02</rscale>
<asrwt>0</asrwt>
<pdfrwt beam="2">  1        4 0.10675482E+00 0.89417598E+02</pdfrwt>
<pdfrwt beam="1">  1       -4 0.44317147E-03 0.89417598E+02</pdfrwt>
<totfact> 0.10609962E+04</totfact>
</mgrwt>
</event>
<event>
 5    1  0.4059427E+001  0.9143354E+02  0.7546771E-02  0.1299417E+00
          4   -1    0    0  501    0  0.00000000000E+00  0.00000000000E+00  0.94372815171E+02  0.94372815171E+02  0.00000000000E+00 0. -1.
         -4   -1    0    0    0  501 -0.00000000000E+00 -0.00000000000E+00 -0.22146454777E+02  0.22146454777E+02  0.00000000000E+00 0.  1.
         23    2    1    2    0    0  0.00000000000E+00  0.00000000000E+00  0.72226360394E+02  0.11651926995E+03  0.91433544903E+02 0.  0.
          2    1    3    3  502    0 -0.65433650712E+01  0.20841563613E+02  0.87291664574E+02  0.89983449058E+02  0.00000000000E+00 0. -1.
         -2    1    3    3    0  502  0.65433650712E+01 -0.20841563613E+02 -0.15065304180E+02  0.26535820890E+02  0.00000000000E+00 0.  1.
<mgrwt>
<rscale>  0 0.91433545E+02</rscale>
<asrwt>0</asrwt>
<pdfrwt beam="1">  1        4 0.14518894E-01 0.91433545E+02</pdfrwt>
<pdfrwt beam="2">  1       -4 0.34071469E-02 0.91433545E+02</pdfrwt>
<totfact> 0.25278352E+04</totfact>
</mgrwt>
</event>
<event>
 5    1  0.4059427E+001  0.9077307E+02  0.7546771E-02  0.1300990E+00
         -3   -1    0    0    0  501 -0.00000000000E+00  0.00000000000E+00  0.40860423784E+03  0.40860423784E+03  0.00000000000E+00 0.  1.
          3   -1    0    0  501    0  0.00000000000E+00 -0.00000000000E+00 -0.50414008687E+01  0.50414008687E+01  0.00000000000E+00 0. -1.
         23    2    1    2    0    0  0.00000000000E+00  0.00000000000E+00  0.40356283697E+03  0.41364563871E+03  0.90773074413E+02 0.  0.
          2    1    3    3  502    0  0.43934755130E+02 -0.58706814396E+01  0.15731695759E+03  0.16344220004E+03  0.00000000000E+00 0. -1.
         -2    1    3    3    0  502 -0.43934755130E+02  0.58706814396E+01  0.24624587938E+03  0.25020343867E+03  0.00000000000E+00 0.  1.
<mgrwt>
<rscale>  0 0.90773074E+02</rscale>
<asrwt>0</asrwt>
<pdfrwt beam="2">  1        3 0.77560046E-03 0.90773074E+02</pdfrwt>
<pdfrwt beam="1">  1       -3 0.62862164E-01 0.90773074E+02</pdfrwt>
<totfact> 0.20434716E+04</totfact>
</mgrwt>
</event>
<event>
 5    1  0.4059427E+001  0.9097153E+02  0.7546771E-02  0.1300516E+00
         -2   -1    0    0    0  501 -0.00000000000E+00  0.00000000000E+00  0.15894096776E+01  0.15894096776E+01  0.00000000000E+00 0.  1.
          2   -1    0    0  501    0  0.00000000000E+00 -0.00000000000E+00 -0.13017128692E+04  0.13017128692E+04  0.00000000000E+00 0. -1.
         23    2    1    2    0    0  0.00000000000E+00  0.00000000000E+00 -0.13001234595E+04  0.13033022789E+04  0.90971534709E+02 0.  0.
          2    1    3    3  502    0 -0.82210364986E+01  0.39033555587E+02 -0.96320313361E+03  0.96402877577E+03  0.00000000000E+00 0. -1.
         -2    1    3    3    0  502  0.82210364986E+01 -0.39033555587E+02 -0.33692032592E+03  0.33927350313E+03  0.00000000000E+00 0.  1.
<mgrwt>
<rscale>  0 0.90971535E+02</rscale>
<asrwt>0</asrwt>
<pdfrwt beam="2">  1        2 0.20026452E+00 0.90971535E+02</pdfrwt>
<pdfrwt beam="1">  1       -2 0.24452334E-03 0.90971535E+02</pdfrwt>
<totfact> 0.24709286E+05</totfact>
</mgrwt>
</event>
<event>
 5    1  0.4059427E+001  0.8960136E+02  0.7546771E-02  0.1303820E+00
          1   -1    0    0  501    0  0.00000000000E+00  0.00000000000E+00  0.43733418826E+01  0.43733418826E+01  0.00000000000E+00 0. -1.
         -1   -1    0    0    0  501 -0.00000000000E+00 -0.00000000000E+00 -0.45893982673E+03  0.45893982673E+03  0.00000000000E+00 0.  1.
         23    2    1    2    0    0  0.00000000000E+00  0.00000000000E+00 -0.45456648485E+03  0.46331316862E+03  0.89601356370E+02 0.  0.
          2    1    3    3  502    0 -0.71016826971E+01  0.41307186147E+02 -0.14546263696E+03  0.15138063376E+03  0.00000000000E+00 0. -1.
         -2    1    3    3    0  502  0.71016826971E+01 -0.41307186147E+02 -0.30910384789E+03  0.31193253486E+03  0.00000000000E+00 0.  1.
<mgrwt>
<rscale>  0 0.89601356E+02</rscale>
<asrwt>0</asrwt>
<pdfrwt beam="1">  1        1 0.67282195E-03 0.89601356E+02</pdfrwt>
<pdfrwt beam="2">  1       -1 0.70606114E-01 0.89601356E+02</pdfrwt>
<totfact> 0.51808885E+04</totfact>
</mgrwt>
</event>
<event>
 5    1  0.4059427E+001  0.9122791E+02  0.7546771E-02  0.1299905E+00
          1   -1    0    0  501    0  0.00000000000E+00  0.00000000000E+00  0.27727786295E+02  0.27727786295E+02  0.00000000000E+00 0. -1.
         -1   -1    0    0    0  501 -0.00000000000E+00 -0.00000000000E+00 -0.75037821075E+02  0.75037821075E+02  0.00000000000E+00 0.  1.
         23    2    1    2    0    0  0.00000000000E+00  0.00000000000E+00 -0.47310034780E+02  0.10276560737E+03  0.91227905091E+02 0.  0.
          2    1    3    3  502    0 -0.23978459217E+02  0.37846223637E+02 -0.14008745407E+02  0.46941965211E+02  0.00000000000E+00 0. -1.
         -2    1    3    3    0  502  0.23978459217E+02 -0.37846223637E+02 -0.33301289373E+02  0.55823642159E+02  0.00000000000E+00 0.  1.
<mgrwt>
<rscale>  0 0.91227905E+02</rscale>
<asrwt>0</asrwt>
<pdfrwt beam="1">  1        1 0.42658134E-02 0.91227905E+02</pdfrwt>
<pdfrwt beam="2">  1       -1 0.11544280E-01 0.91227905E+02</pdfrwt>
<totfact> 0.85439262E+04</totfact>
</mgrwt>
</event>
<event>
 5    1  0.4059427E+001  0.9193131E+02  0.7546771E-02  0.1298241E+00
          1   -1    0    0  501    0  0.00000000000E+00  0.00000000000E+00  0.17839014137E+03  0.17839014137E+03  0.00000000000E+00 0. -1.
         -1   -1    0    0    0  501 -0.00000000000E+00 -0.00000000000E+00 -0.11843936073E+02  0.11843936073E+02  0.00000000000E+00 0.  1.
         23    2    1    2    0    0  0.00000000000E+00  0.00000000000E+00  0.16654620530E+03  0.19023407745E+03  0.91931309800E+02 0.  0.
          2    1    3    3  502    0 -0.44996188708E+02 -0.79639012802E+01  0.72976204835E+02  0.86102306554E+02  0.00000000000E+00 0. -1.
         -2    1    3    3    0  502  0.44996188708E+02  0.79639012802E+01  0.93570000466E+02  0.10413177089E+03  0.00000000000E+00 0.  1.
<mgrwt>
<rscale>  0 0.91931310E+02</rscale>
<asrwt>0</asrwt>
<pdfrwt beam="1">  1        1 0.27444635E-01 0.91931310E+02</pdfrwt>
<pdfrwt beam="2">  1       -1 0.18221441E-02 0.91931310E+02</pdfrwt>
<totfact> 0.11328673E+05</totfact>
</mgrwt>
</event>
<event>
 5    1  0.4059427E+001  0.9057488E+02  0.7546771E-02  0.1301465E+00
          2   -1    0    0  501    0  0.00000000000E+00  0.00000000000E+00  0.85116713963E+03  0.85116713963E+03  0.00000000000E+00 0. -1.
         -2   -1    0    0    0  501 -0.00000000000E+00 -0.00000000000E+00 -0.24095761412E+01  0.24095761412E+01  0.00000000000E+00 0.  1.
         23    2    1    2    0    0  0.00000000000E+00  0.00000000000E+00  0.84875756349E+03  0.85357671578E+03  0.90574875807E+02 0.  0.
          2    1    3    3  502    0 -0.36985106418E+02 -0.13396424005E+02  0.21289685555E+03  0.21650042350E+03  0.00000000000E+00 0.  1.
         -2    1    3    3    0  502  0.36985106418E+02  0.13396424005E+02  0.63586070794E+03  0.63707629227E+03  0.00000000000E+00 0. -1.
<mgrwt>
<rscale>  0 0.90574876E+02</rscale>
<asrwt>0</asrwt>
<pdfrwt beam="1">  1        2 0.13094855E+00 0.90574876E+02</pdfrwt>
<pdfrwt beam="2">  1       -2 0.37070470E-03 0.90574876E+02</pdfrwt>
<totfact> 0.25050286E+05</totfact>
</mgrwt>
</event>
<event>
 5    1  0.4059427E+001  0.9120929E+02  0.7546771E-02  0.1299949E+00
          1   -1    0    0  501    0  0.00000000000E+00  0.00000000000E+00  0.29943561052E+02  0.29943561052E+02  0.00000000000E+00 0. -1.
         -1   -1    0    0    0  501 -0.00000000000E+00 -0.00000000000E+00 -0.69456785490E+02  0.69456785490E+02  0.00000000000E+00 0.  1.
         23    2    1    2    0    0  0.00000000000E+00  0.00000000000E+00 -0.39513224439E+02  0.99400346542E+02  0.91209286737E+02 0.  0.
          2    1    3    3  502    0  0.12738094200E+02  0.29663281606E+02  0.15348210768E+02  0.35745445769E+02  0.00000000000E+00 0. -1.
         -2    1    3    3    0  502 -0.12738094200E+02 -0.29663281606E+02 -0.54861435207E+02  0.63654900773E+02  0.00000000000E+00 0.  1.
<mgrwt>
<rscale>  0 0.91209287E+02</rscale>
<asrwt>0</asrwt>
<pdfrwt beam="1">  1        1 0.46067017E-02 0.91209287E+02</pdfrwt>
<pdfrwt beam="2">  1       -1 0.10685659E-01 0.91209287E+02</pdfrwt>
<totfact> 0.86569662E+04</totfact>
</mgrwt>
</event>
<event>
 5    1  0.4059427E+001  0.9076837E+02  0.7546771E-02  0.1301002E+00
          1   -1    0    0  501    0  0.00000000000E+00  0.00000000000E+00  0.11327800102E+04  0.11327800102E+04  0.00000000000E+00 0. -1.
         -1   -1    0    0    0  501 -0.00000000000E+00 -0.00000000000E+00 -0.18182915535E+01  0.18182915535E+01  0.00000000000E+00 0.  1.
         23    2    1    2    0    0  0.00000000000E+00  0.00000000000E+00  0.11309617187E+04  0.11345983018E+04  0.90768371684E+02 0.  0.
          2    1    3    3  502    0  0.44405777439E+02  0.92253721545E+01  0.58618612937E+03  0.58793805696E+03  0.00000000000E+00 0. -1.
         -2    1    3    3    0  502 -0.44405777439E+02 -0.92253721545E+01  0.54477558930E+03  0.54666024481E+03  0.00000000000E+00 0.  1.
<mgrwt>
<rscale>  0 0.90768372E+02</rscale>
<asrwt>0</asrwt>
<pdfrwt beam="1">  1        1 0.17427328E+00 0.90768372E+02</pdfrwt>
<pdfrwt beam="2">  1       -1 0.27973807E-03 0.90768372E+02</pdfrwt>
<totfact> 0.13208703E+05</totfact>
</mgrwt>
</event>
<event>
 5    1  0.4059427E+001  0.7556719E+02  0.7546771E-02  0.1342124E+00
         -2   -1    0    0    0  501 -0.00000000000E+00  0.00000000000E+00  0.49746501039E+01  0.49746501039E+01  0.00000000000E+00 0.  1.
          2   -1    0    0  501    0  0.00000000000E+00 -0.00000000000E+00 -0.28697495478E+03  0.28697495478E+03  0.00000000000E+00 0. -1.
         23    2    1    2    0    0  0.00000000000E+00  0.00000000000E+00 -0.28200030467E+03  0.29194960488E+03  0.75567188345E+02 0.  0.
          2    1    3    3  502    0  0.96702566256E+01 -0.22633751523E+02 -0.25175367356E+03  0.25295397352E+03  0.00000000000E+00 0. -1.
         -2    1    3    3    0  502 -0.96702566256E+01  0.22633751523E+02 -0.30246631115E+02  0.38995631358E+02  0.00000000000E+00 0.  1.
<mgrwt>
<rscale>  0 0.75567188E+02</rscale>
<asrwt>0</asrwt>
<pdfrwt beam="2">  1        2 0.44150008E-01 0.75567188E+02</pdfrwt>
<pdfrwt beam="1">  1       -2 0.76533053E-03 0.75567188E+02</pdfrwt>
<totfact> 0.29022537E+05</totfact>
</mgrwt>
</event>
<event>
 5    1  0.4059427E+001  0.9725692E+02  0.7546771E-02  0.1286172E+00
          1   -1    0    0  501    0  0.00000000000E+00  0.00000000000E+00  0.14343714141E+03  0.14343714141E+03  0.00000000000E+00 0. -1.
         -1   -1    0    0    0  501 -0.00000000000E+00 -0.00000000000E+00 -0.16486155138E+02  0.16486155138E+02  0.00000000000E+00 0.  1.
         23    2    1    2    0    0  0.00000000000E+00  0.00000000000E+00  0.12695098627E+03  0.15992329655E+03  0.97256916788E+02 0.  0.
          2    1    3    3  502    0 -0.21341243286E+02 -0.42293965924E+02  0.81525713230E+02  0.94290350176E+02  0.00000000000E+00 0. -1.
         -2    1    3    3    0  502  0.21341243286E+02  0.42293965924E+02  0.45425273043E+02  0.65632946373E+02  0.00000000000E+00 0.  1.
<mgrwt>
<rscale>  0 0.97256917E+02</rscale>
<asrwt>0</asrwt>
<pdfrwt beam="1">  1        1 0.22067252E-01 0.97256917E+02</pdfrwt>
<pdfrwt beam="2">  1       -1 0.25363317E-02 0.97256917E+02</pdfrwt>
<totfact> 0.93351758E+04</totfact>
</mgrwt>
</event>
<event>
 5    1  0.4059427E+001  0.9110498E+02  0.7546771E-02  0.1300198E+00
         -2   -1    0    0    0  501 -0.00000000000E+00  0.00000000000E+00  0.72053548134E+00  0.72053548134E+00  0.00000000000E+00 0.  1.
          2   -1    0    0  501    0  0.00000000000E+00 -0.00000000000E+00 -0.28798436524E+04  0.28798436524E+04  0.00000000000E+00 0. -1.
         23    2    1    2    0    0  0.00000000000E+00  0.00000000000E+00 -0.28791231170E+04  0.28805641879E+04  0.91104984107E+02 0.  0.
          2    1    3    3  502    0 -0.34002828320E+02  0.30005587083E+02 -0.15755631787E+04  0.15762156761E+04  0.00000000000E+00 0.  1.
         -2    1    3    3    0  502  0.34002828320E+02 -0.30005587083E+02 -0.13035599383E+04  0.13043485118E+04  0.00000000000E+00 0. -1.
<mgrwt>
<rscale>  0 0.91104984E+02</rscale>
<asrwt>0</asrwt>
<pdfrwt beam="2">  1        2 0.44306372E+00 0.91104984E+02</pdfrwt>
<pdfrwt beam="1">  1       -2 0.11084890E-03 0.91104984E+02</pdfrwt>
<totfact> 0.11280388E+05</totfact>
</mgrwt>
</event>
<event>
 5    1  0.4059427E+001  0.9186771E+02  0.7546771E-02  0.1298391E+00
          1   -1    0    0  501    0  0.00000000000E+00  0.00000000000E+00  0.21024266810E+02  0.21024266810E+02  0.00000000000E+00 0. -1.
         -1   -1    0    0    0  501 -0.00000000000E+00 -0.00000000000E+00 -0.10035636650E+03  0.10035636650E+03  0.00000000000E+00 0.  1.
         23    2    1    2    0    0  0.00000000000E+00  0.00000000000E+00 -0.79332099693E+02  0.12138063331E+03  0.91867709788E+02 0.  0.
          2    1    3    3  502    0  0.15087134487E+02  0.34677922051E+02 -0.74113544548E+02  0.83204551500E+02  0.00000000000E+00 0.  1.
         -2    1    3    3    0  502 -0.15087134487E+02 -0.34677922051E+02 -0.52185551451E+01  0.38176081813E+02  0.00000000000E+00 0. -1.
<mgrwt>
<rscale>  0 0.91867710E+02</rscale>
<asrwt>0</asrwt>
<pdfrwt beam="1">  1        1 0.32345026E-02 0.91867710E+02</pdfrwt>
<pdfrwt beam="2">  1       -1 0.15439441E-01 0.91867710E+02</pdfrwt>
<totfact> 0.79749354E+04</totfact>
</mgrwt>
</event>
<event>
 5    1  0.4059427E+001  0.8155200E+02  0.7546771E-02  0.1324704E+00
          2   -1    0    0  501    0  0.00000000000E+00  0.00000000000E+00  0.19234297911E+04  0.19234297911E+04  0.00000000000E+00 0. -1.
         -2   -1    0    0    0  501 -0.00000000000E+00 -0.00000000000E+00 -0.86443618086E+00  0.86443618086E+00  0.00000000000E+00 0.  1.
         23    2    1    2    0    0  0.00000000000E+00  0.00000000000E+00  0.19225653549E+04  0.19242942273E+04  0.81552003109E+02 0.  0.
          2    1    3    3  502    0  0.29152498311E+02 -0.26374414378E+02  0.12167343926E+04  0.12173693195E+04  0.00000000000E+00 0.  1.
         -2    1    3    3    0  502 -0.29152498311E+02  0.26374414378E+02  0.70583096230E+03  0.70692490778E+03  0.00000000000E+00 0. -1.
<mgrwt>
<rscale>  0 0.81552003E+02</rscale>
<asrwt>0</asrwt>
<pdfrwt beam="1">  1        2 0.29590885E+00 0.81552003E+02</pdfrwt>
<pdfrwt beam="2">  1       -2 0.13299172E-03 0.81552003E+02</pdfrwt>
<totfact> 0.27314796E+05</totfact>
</mgrwt>
</event>
<event>
 5    1  0.4059427E+001  0.9047437E+02  0.7546771E-02  0.1301707E+00
         -2   -1    0    0    0  501 -0.00000000000E+00  0.00000000000E+00  0.85149302287E+02  0.85149302287E+02  0.00000000000E+00 0.  1.
          2   -1    0    0  501    0  0.00000000000E+00 -0.00000000000E+00 -0.24033112207E+02  0.24033112207E+02  0.00000000000E+00 0. -1.
         23    2    1    2    0    0  0.00000000000E+00  0.00000000000E+00  0.61116190080E+02  0.10918241449E+03  0.90474366230E+02 0.  0.
          2    1    3    3  502    0 -0.27877276548E+02 -0.18633248636E+01 -0.12376529317E+02  0.30558026854E+02  0.00000000000E+00 0. -1.
         -2    1    3    3    0  502  0.27877276548E+02  0.18633248636E+01  0.73492719397E+02  0.78624387639E+02  0.00000000000E+00 0.  1.
<mgrwt>
<rscale>  0 0.90474366E+02</rscale>
<asrwt>0</asrwt>
<pdfrwt beam="2">  1        2 0.36974019E-02 0.90474366E+02</pdfrwt>
<pdfrwt beam="1">  1       -2 0.13099893E-01 0.90474366E+02</pdfrwt>
<totfact> 0.85221067E+04</totfact>
</mgrwt>
</event>
<event>
 5    1  0.4059427E+001  0.9246600E+02  0.7546771E-02  0.1296987E+00
          2   -1    0    0  501    0  0.00000000000E+00  0.00000000000E+00  0.12427629210E+04  0.12427629210E+04  0.00000000000E+00 0. -1.
         -2   -1    0    0    0  501 -0.00000000000E+00 -0.00000000000E+00 -0.17199500523E+01  0.17199500523E+01  0.00000000000E+00 0.  1.
         23    2    1    2    0    0  0.00000000000E+00  0.00000000000E+00  0.12410429710E+04  0.12444828711E+04  0.92465997016E+02 0.  0.
          2    1    3    3  502    0 -0.40555719158E+02  0.15879521218E+02  0.82926967950E+03  0.83041262447E+03  0.00000000000E+00 0. -1.
         -2    1    3    3    0  502  0.40555719158E+02 -0.15879521218E+02  0.41177329148E+03  0.41407024661E+03  0.00000000000E+00 0.  1.
<mgrwt>
<rscale>  0 0.92465997E+02</rscale>
<asrwt>0</asrwt>
<pdfrwt beam="1">  1        2 0.19119358E+00 0.92465997E+02</pdfrwt>
<pdfrwt beam="2">  1       -2 0.26460869E-03 0.92465997E+02</pdfrwt>
<totfact> 0.23858655E+05</totfact>
</mgrwt>
</event>
<event>
 5    1  0.4059427E+001  0.9368933E+02  0.7546771E-02  0.1294156E+00
          1   -1    0    0  501    0  0.00000000000E+00  0.00000000000E+00  0.11139827315E+04  0.11139827315E+04  0.00000000000E+00 0. -1.
         -1   -1    0    0    0  501 -0.00000000000E+00 -0.00000000000E+00 -0.19698891592E+01  0.19698891592E+01  0.00000000000E+00 0.  1.
         23    2    1    2    0    0  0.00000000000E+00  0.00000000000E+00  0.11120128423E+04  0.11159526206E+04  0.93689327168E+02 0.  0.
          2    1    3    3  502    0  0.36770188725E+02  0.22453456415E+02  0.77506184422E+03  0.77625837634E+03  0.00000000000E+00 0. -1.
         -2    1    3    3    0  502 -0.36770188725E+02 -0.22453456415E+02  0.33695099811E+03  0.33969424430E+03  0.00000000000E+00 0.  1.
<mgrwt>
<rscale>  0 0.93689327E+02</rscale>
<asrwt>0</asrwt>
<pdfrwt beam="1">  1        1 0.17138146E+00 0.93689327E+02</pdfrwt>
<pdfrwt beam="2">  1       -1 0.30306076E-03 0.93689327E+02</pdfrwt>
<totfact> 0.12226038E+05</totfact>
</mgrwt>
</event>
<event>
 5    1  0.4059427E+001  0.9154564E+02  0.7546771E-02  0.1299151E+00
          3   -1    0    0  501    0  0.00000000000E+00  0.00000000000E+00  0.15240037332E+02  0.15240037332E+02  0.00000000000E+00 0. -1.
         -3   -1    0    0    0  501 -0.00000000000E+00 -0.00000000000E+00 -0.13747677716E+03  0.13747677716E+03  0.00000000000E+00 0.  1.
         23    2    1    2    0    0  0.00000000000E+00  0.00000000000E+00 -0.12223673982E+03  0.15271681449E+03  0.91545643612E+02 0.  0.
          2    1    3    3  502    0 -0.33604371975E+02 -0.28792052065E+02 -0.41598590358E+02  0.60734494299E+02  0.00000000000E+00 0. -1.
         -2    1    3    3    0  502  0.33604371975E+02  0.28792052065E+02 -0.80638149466E+02  0.91982320189E+02  0.00000000000E+00 0.  1.
<mgrwt>
<rscale>  0 0.91545644E+02</rscale>
<asrwt>0</asrwt>
<pdfrwt beam="1">  1        3 0.23446211E-02 0.91545644E+02</pdfrwt>
<pdfrwt beam="2">  1       -3 0.21150274E-01 0.91545644E+02</pdfrwt>
<totfact> 0.30803492E+04</totfact>
</mgrwt>
</event>
<event>
 5    1  0.4059427E+001  0.9256861E+02  0.7546771E-02  0.1296748E+00
         -2   -1    0    0    0  501 -0.00000000000E+00  0.00000000000E+00  0.63427053726E+01  0.63427053726E+01  0.00000000000E+00 0.  1.
          2   -1    0    0  501    0  0.00000000000E+00 -0.00000000000E+00 -0.33774815885E+03  0.33774815885E+03  0.00000000000E+00 0. -1.
         23    2    1    2    0    0  0.00000000000E+00  0.00000000000E+00 -0.33140545347E+03  0.34409086422E+03  0.92568613724E+02 0.  0.
          2    1    3    3  502    0  0.32795882667E+02  0.19469895121E+02 -0.26317346622E+03  0.26592277085E+03  0.00000000000E+00 0. -1.
         -2    1    3    3    0  502 -0.32795882667E+02 -0.19469895121E+02 -0.68231987258E+02  0.78168093370E+02  0.00000000000E+00 0.  1.
<mgrwt>
<rscale>  0 0.92568614E+02</rscale>
<asrwt>0</asrwt>
<pdfrwt beam="2">  1        2 0.51961270E-01 0.92568614E+02</pdfrwt>
<pdfrwt beam="1">  1       -2 0.97580055E-03 0.92568614E+02</pdfrwt>
<totfact> 0.18029465E+05</totfact>
</mgrwt>
</event>
<event>
 5    1  0.4059427E+001  0.9228865E+02  0.7546771E-02  0.1297402E+00
          1   -1    0    0  501    0  0.00000000000E+00  0.00000000000E+00  0.10841590487E+04  0.10841590487E+04  0.00000000000E+00 0. -1.
         -1   -1    0    0    0  501 -0.00000000000E+00 -0.00000000000E+00 -0.19640096957E+01  0.19640096957E+01  0.00000000000E+00 0.  1.
         23    2    1    2    0    0  0.00000000000E+00  0.00000000000E+00  0.10821950390E+04  0.10861230584E+04  0.92288653329E+02 0.  0.
          2    1    3    3  502    0 -0.20763400172E+02  0.39638363553E+02  0.40848064687E+03  0.41092427225E+03  0.00000000000E+00 0.  1.
         -2    1    3    3    0  502  0.20763400172E+02 -0.39638363553E+02  0.67371439213E+03  0.67519878614E+03  0.00000000000E+00 0. -1.
<mgrwt>
<rscale>  0 0.92288653E+02</rscale>
<asrwt>0</asrwt>
<pdfrwt beam="1">  1        1 0.16679322E+00 0.92288653E+02</pdfrwt>
<pdfrwt beam="2">  1       -1 0.30215620E-03 0.92288653E+02</pdfrwt>
<totfact> 0.12850059E+05</totfact>
</mgrwt>
</event>
<event>
 5    1  0.4059427E+001  0.8892849E+02  0.7546771E-02  0.1305467E+00
          4   -1    0    0  501    0  0.00000000000E+00  0.00000000000E+00  0.44967969886E+02  0.44967969886E+02  0.00000000000E+00 0.  1.
         -4   -1    0    0    0  501 -0.00000000000E+00 -0.00000000000E+00 -0.43966164320E+02  0.43966164320E+02  0.00000000000E+00 0. -1.
         23    2    1    2    0    0  0.00000000000E+00  0.00000000000E+00  0.10018055660E+01  0.88934134206E+02  0.88928491568E+02 0.  0.
          2    1    3    3  502    0 -0.13998342097E+02 -0.40246059951E+02 -0.12203061523E+02  0.44323962296E+02  0.00000000000E+00 0. -1.
         -2    1    3    3    0  502  0.13998342097E+02  0.40246059951E+02  0.13204867089E+02  0.44610171910E+02  0.00000000000E+00 0.  1.
<mgrwt>
<rscale>  0 0.88928492E+02</rscale>
<asrwt>0</asrwt>
<pdfrwt beam="1">  1        4 0.69181492E-02 0.88928492E+02</pdfrwt>
<pdfrwt beam="2">  1       -4 0.67640253E-02 0.88928492E+02</pdfrwt>
<totfact> 0.29060444E+04</totfact>
</mgrwt>
</event>
<event>
 5    1  0.4059427E+001  0.8789492E+02  0.7546771E-02  0.1308031E+00
          2   -1    0    0  501    0  0.00000000000E+00  0.00000000000E+00  0.52434704030E+03  0.52434704030E+03  0.00000000000E+00 0. -1.
         -2   -1    0    0    0  501 -0.00000000000E+00 -0.00000000000E+00 -0.36833991596E+01  0.36833991596E+01  0.00000000000E+00 0.  1.
         23    2    1    2    0    0  0.00000000000E+00  0.00000000000E+00  0.52066364114E+03  0.52803043946E+03  0.87894924714E+02 0.  0.
          2    1    3    3  502    0 -0.67315476378E+01 -0.19072760603E+02  0.49472482448E+03  0.49513809779E+03  0.00000000000E+00 0. -1.
         -2    1    3    3    0  502  0.67315476378E+01  0.19072760603E+02  0.25938816669E+02  0.32892341674E+02  0.00000000000E+00 0.  1.
<mgrwt>
<rscale>  0 0.87894925E+02</rscale>
<asrwt>0</asrwt>
<pdfrwt beam="1">  1        2 0.80668716E-01 0.87894925E+02</pdfrwt>
<pdfrwt beam="2">  1       -2 0.56667721E-03 0.87894925E+02</pdfrwt>
<totfact> 0.24103059E+05</totfact>
</mgrwt>
</event>
<event>
 5    1  0.4059427E+001  0.8888337E+02  0.7546771E-02  0.1305579E+00
          2   -1    0    0  501    0  0.00000000000E+00  0.00000000000E+00  0.31071758783E+03  0.31071758783E+03  0.00000000000E+00 0. -1.
         -2   -1    0    0    0  501 -0.00000000000E+00 -0.00000000000E+00 -0.63564581750E+01  0.63564581750E+01  0.00000000000E+00 0.  1.
         23    2    1    2    0    0  0.00000000000E+00  0.00000000000E+00  0.30436112965E+03  0.31707404600E+03  0.88883369676E+02 0.  0.
          2    1    3    3  502    0 -0.42226557267E+02 -0.10836329670E+02  0.18298257581E+03  0.18810404363E+03  0.00000000000E+00 0. -1.
         -2    1    3    3    0  502  0.42226557267E+02  0.10836329670E+02  0.12137855384E+03  0.12897000237E+03  0.00000000000E+00 0.  1.
<mgrwt>
<rscale>  0 0.88883370E+02</rscale>
<asrwt>0</asrwt>
<pdfrwt beam="1">  1        2 0.47802694E-01 0.88883370E+02</pdfrwt>
<pdfrwt beam="2">  1       -2 0.97791689E-03 0.88883370E+02</pdfrwt>
<totfact> 0.19478979E+05</totfact>
</mgrwt>
</event>
<event>
 4    1  0.4059427E+001  0.5077499E+02  0.7546771E-02  0.1441206E+00
         -4   -1    0    0    0  501 -0.00000000000E+00  0.00000000000E+00  0.15980800562E+02  0.15980800562E+02  0.00000000000E+00 0. -1.
          4   -1    0    0  501    0  0.00000000000E+00 -0.00000000000E+00 -0.40331207947E+02  0.40331207947E+02  0.00000000000E+00 0.  1.
          2    1    1    2  502    0 -0.20601977298E+02 -0.14820781822E+02 -0.11449688082E+02  0.27842277198E+02  0.00000000000E+00 0. -1.
         -2    1    1    2    0  502  0.20601977298E+02  0.14820781822E+02 -0.12900719302E+02  0.28469731311E+02  0.00000000000E+00 0.  1.
<mgrwt>
<rscale>  0 0.50774993E+02</rscale>
<asrwt>0</asrwt>
<pdfrwt beam="2">  1        4 0.62048012E-02 0.50774993E+02</pdfrwt>
<pdfrwt beam="1">  1       -4 0.24585847E-02 0.50774993E+02</pdfrwt>
<totfact> 0.13612604E+05</totfact>
</mgrwt>
</event>
<event>
 5    1  0.4059427E+001  0.8779294E+02  0.7546771E-02  0.1308286E+00
          2   -1    0    0  501    0  0.00000000000E+00  0.00000000000E+00  0.17014329529E+04  0.17014329529E+04  0.00000000000E+00 0. -1.
         -2   -1    0    0    0  501 -0.00000000000E+00 -0.00000000000E+00 -0.11325161132E+01  0.11325161132E+01  0.00000000000E+00 0.  1.
         23    2    1    2    0    0  0.00000000000E+00  0.00000000000E+00  0.17003004368E+04  0.17025654691E+04  0.87792943559E+02 0.  0.
          2    1    3    3  502    0  0.24500375184E+02  0.12597944320E+02  0.15129028132E+04  0.15131536269E+04  0.00000000000E+00 0. -1.
         -2    1    3    3    0  502 -0.24500375184E+02 -0.12597944320E+02  0.18739762365E+03  0.18941184211E+03  0.00000000000E+00 0.  1.
<mgrwt>
<rscale>  0 0.87792944E+02</rscale>
<asrwt>0</asrwt>
<pdfrwt beam="1">  1        2 0.26175687E+00 0.87792944E+02</pdfrwt>
<pdfrwt beam="2">  1       -2 0.17423461E-03 0.87792944E+02</pdfrwt>
<totfact> 0.24545463E+05</totfact>
</mgrwt>
</event>
<event>
 5    1  0.4059427E+001  0.8966986E+02  0.7546771E-02  0.1303653E+00
          1   -1    0    0  501    0  0.00000000000E+00  0.00000000000E+00  0.76054937949E+03  0.76054937949E+03  0.00000000000E+00 0. -1.
         -1   -1    0    0    0  501 -0.00000000000E+00 -0.00000000000E+00 -0.26430509259E+01  0.26430509259E+01  0.00000000000E+00 0.  1.
         23    2    1    2    0    0  0.00000000000E+00  0.00000000000E+00  0.75790632857E+03  0.76319243042E+03  0.89669855395E+02 0.  0.
          2    1    3    3  502    0  0.25702450482E+02 -0.18182219656E+02  0.65063869429E+03  0.65139996897E+03  0.00000000000E+00 0. -1.
         -2    1    3    3    0  502 -0.25702450482E+02  0.18182219656E+02  0.10726763428E+03  0.11179246144E+03  0.00000000000E+00 0.  1.
<mgrwt>
<rscale>  0 0.89669855E+02</rscale>
<asrwt>0</asrwt>
<pdfrwt beam="1">  1        1 0.11700742E+00 0.89669855E+02</pdfrwt>
<pdfrwt beam="2">  1       -1 0.40662383E-03 0.89669855E+02</pdfrwt>
<totfact> 0.14818992E+05</totfact>
</mgrwt>
</event>
<event>
 5    1  0.4059427E+001  0.9110271E+02  0.7546771E-02  0.1300203E+00
         -1   -1    0    0    0  501 -0.00000000000E+00  0.00000000000E+00  0.62236103538E+00  0.62236103538E+00  0.00000000000E+00 0.  1.
          1   -1    0    0  501    0  0.00000000000E+00 -0.00000000000E+00 -0.33339587877E+04  0.33339587877E+04  0.00000000000E+00 0. -1.
         23    2    1    2    0    0  0.00000000000E+00  0.00000000000E+00 -0.33333364266E+04  0.33345811487E+04  0.91102712210E+02 0.  0.
          2    1    3    3  502    0  0.20149524020E+02  0.30884201637E+02 -0.68787719291E+03  0.68886491401E+03  0.00000000000E+00 0. -1.
         -2    1    3    3    0  502 -0.20149524020E+02 -0.30884201637E+02 -0.26454592337E+04  0.26457162347E+04  0.00000000000E+00 0.  1.
<mgrwt>
<rscale>  0 0.91102712E+02</rscale>
<asrwt>0</asrwt>
<pdfrwt beam="2">  1        1 0.51291221E+00 0.91102712E+02</pdfrwt>
<pdfrwt beam="1">  1       -1 0.95748696E-04 0.91102712E+02</pdfrwt>
<totfact> 0.21338983E+04</totfact>
</mgrwt>
</event>
<event>
 5    1  0.4059427E+001  0.9274533E+02  0.7546771E-02  0.1296336E+00
         -2   -1    0    0    0  501 -0.00000000000E+00  0.00000000000E+00  0.12504819160E+02  0.12504819160E+02  0.00000000000E+00 0.  1.
          2   -1    0    0  501    0  0.00000000000E+00 -0.00000000000E+00 -0.17196760843E+03  0.17196760843E+03  0.00000000000E+00 0. -1.
         23    2    1    2    0    0  0.00000000000E+00  0.00000000000E+00 -0.15946278927E+03  0.18447242759E+03  0.92745325377E+02 0.  0.
          2    1    3    3  502    0 -0.10916798022E+02 -0.29262611462E+02 -0.14791007019E+03  0.15117164341E+03  0.00000000000E+00 0. -1.
         -2    1    3    3    0  502  0.10916798022E+02  0.29262611462E+02 -0.11552719078E+02  0.33300784175E+02  0.00000000000E+00 0.  1.
<mgrwt>
<rscale>  0 0.92745325E+02</rscale>
<asrwt>0</asrwt>
<pdfrwt beam="2">  1        2 0.26456555E-01 0.92745325E+02</pdfrwt>
<pdfrwt beam="1">  1       -2 0.19238183E-02 0.92745325E+02</pdfrwt>
<totfact> 0.13995167E+05</totfact>
</mgrwt>
</event>
<event>
 5    1  0.4059427E+001  0.9023823E+02  0.7546771E-02  0.1302276E+00
          4   -1    0    0  501    0  0.00000000000E+00  0.00000000000E+00  0.45779950168E+01  0.45779950168E+01  0.00000000000E+00 0. -1.
         -4   -1    0    0    0  501 -0.00000000000E+00 -0.00000000000E+00 -0.44467817620E+03  0.44467817620E+03  0.00000000000E+00 0.  1.
         23    2    1    2    0    0  0.00000000000E+00  0.00000000000E+00 -0.44010018118E+03  0.44925617122E+03  0.90238228589E+02 0.  0.
          2    1    3    3  502    0 -0.12713369646E+02 -0.42552823927E+02 -0.25967949333E+03  0.26344982795E+03  0.00000000000E+00 0. -1.
         -2    1    3    3    0  502  0.12713369646E+02  0.42552823927E+02 -0.18042068785E+03  0.18580634326E+03  0.00000000000E+00 0.  1.
<mgrwt>
<rscale>  0 0.90238229E+02</rscale>
<asrwt>0</asrwt>
<pdfrwt beam="1">  1        4 0.70430666E-03 0.90238229E+02</pdfrwt>
<pdfrwt beam="2">  1       -4 0.68412053E-01 0.90238229E+02</pdfrwt>
<totfact> 0.14453685E+04</totfact>
</mgrwt>
</event>
<event>
 5    1  0.4059427E+001  0.9227458E+02  0.7546771E-02  0.1297435E+00
          3   -1    0    0  501    0  0.00000000000E+00  0.00000000000E+00  0.10791400213E+04  0.10791400213E+04  0.00000000000E+00 0. -1.
         -3   -1    0    0    0  501 -0.00000000000E+00 -0.00000000000E+00 -0.19725424410E+01  0.19725424410E+01  0.00000000000E+00 0.  1.
         23    2    1    2    0    0  0.00000000000E+00  0.00000000000E+00  0.10771674789E+04  0.10811125637E+04  0.92274579203E+02 0.  0.
          2    1    3    3  502    0  0.84327396430E+01 -0.26785013861E+02  0.10968213020E+03  0.11321977632E+03  0.00000000000E+00 0.  1.
         -2    1    3    3    0  502 -0.84327396430E+01  0.26785013861E+02  0.96748534867E+03  0.96789278743E+03  0.00000000000E+00 0. -1.
<mgrwt>
<rscale>  0 0.92274579E+02</rscale>
<asrwt>0</asrwt>
<pdfrwt beam="1">  1        3 0.16602107E+00 0.92274579E+02</pdfrwt>
<pdfrwt beam="2">  1       -3 0.30346893E-03 0.92274579E+02</pdfrwt>
<totfact> 0.89353206E+03</totfact>
</mgrwt>
</event>
<event>
 5    1  0.4059427E+001  0.9119901E+02  0.7546771E-02  0.1299974E+00
         -2   -1    0    0    0  501 -0.00000000000E+00  0.00000000000E+00  0.12284104208E+01  0.12284104208E+01  0.00000000000E+00 0.  1.
          2   -1    0    0  501    0  0.00000000000E+00 -0.00000000000E+00 -0.16926875796E+04  0.16926875796E+04  0.00000000000E+00 0. -1.
         23    2    1    2    0    0  0.00000000000E+00  0.00000000000E+00 -0.16914591692E+04  0.16939159900E+04  0.91199014512E+02 0.  0.
          2    1    3    3  502    0  0.19029591258E+02 -0.24503467137E+02 -0.14664321724E+04  0.14667603286E+04  0.00000000000E+00 0. -1.
         -2    1    3    3    0  502 -0.19029591258E+02  0.24503467137E+02 -0.22502699675E+03  0.22715566141E+03  0.00000000000E+00 0.  1.
<mgrwt>
<rscale>  0 0.91199015E+02</rscale>
<asrwt>0</asrwt>
<pdfrwt beam="2">  1        2 0.26041265E+00 0.91199015E+02</pdfrwt>
<pdfrwt beam="1">  1       -2 0.18898682E-03 0.91199015E+02</pdfrwt>
<totfact> 0.22270220E+05</totfact>
</mgrwt>
</event>
<event>
 5    1  0.4059427E+001  0.9241970E+02  0.7546771E-02  0.1297096E+00
          2   -1    0    0  501    0  0.00000000000E+00  0.00000000000E+00  0.25795893301E+03  0.25795893301E+03  0.00000000000E+00 0.  1.
         -2   -1    0    0    0  501 -0.00000000000E+00 -0.00000000000E+00 -0.82778680486E+01  0.82778680486E+01  0.00000000000E+00 0. -1.
         23    2    1    2    0    0  0.00000000000E+00  0.00000000000E+00  0.24968106497E+03  0.26623680106E+03  0.92419695075E+02 0.  0.
          2    1    3    3  502    0 -0.38117033049E+01 -0.31568527984E+02  0.28249945793E+02  0.42534227141E+02  0.00000000000E+00 0. -1.
         -2    1    3    3    0  502  0.38117033049E+01  0.31568527984E+02  0.22143111917E+03  0.22370257392E+03  0.00000000000E+00 0.  1.
<mgrwt>
<rscale>  0 0.92419695E+02</rscale>
<asrwt>0</asrwt>
<pdfrwt beam="1">  1        2 0.39685984E-01 0.92419695E+02</pdfrwt>
<pdfrwt beam="2">  1       -2 0.12735184E-02 0.92419695E+02</pdfrwt>
<totfact> 0.16377041E+05</totfact>
</mgrwt>
</event>
<event>
 5    1  0.4059427E+001  0.9026284E+02  0.7546771E-02  0.1302216E+00
         -2   -1    0    0    0  501 -0.00000000000E+00  0.00000000000E+00  0.11057318798E+02  0.11057318798E+02  0.00000000000E+00 0.  1.
          2   -1    0    0  501    0  0.00000000000E+00 -0.00000000000E+00 -0.18420785769E+03  0.18420785769E+03  0.00000000000E+00 0. -1.
         23    2    1    2    0    0  0.00000000000E+00  0.00000000000E+00 -0.17315053889E+03  0.19526517648E+03  0.90262838591E+02 0.  0.
          2    1    3    3  502    0 -0.24381529950E+02 -0.40508485860E+01 -0.16826585616E+03  0.17007135775E+03  0.00000000000E+00 0. -1.
         -2    1    3    3    0  502  0.24381529950E+02  0.40508485860E+01 -0.48846827227E+01  0.25193818732E+02  0.00000000000E+00 0.  1.
<mgrwt>
<rscale>  0 0.90262839E+02</rscale>
<asrwt>0</asrwt>
<pdfrwt beam="2">  1        2 0.28339669E-01 0.90262839E+02</pdfrwt>
<pdfrwt beam="1">  1       -2 0.17011260E-02 0.90262839E+02</pdfrwt>
<totfact> 0.15430974E+05</totfact>
</mgrwt>
</event>
<event>
 5    1  0.4059427E+001  0.9126320E+02  0.7546771E-02  0.1299821E+00
         -2   -1    0    0    0  501 -0.00000000000E+00  0.00000000000E+00  0.13102346421E+02  0.13102346421E+02  0.00000000000E+00 0.  1.
          2   -1    0    0  501    0  0.00000000000E+00 -0.00000000000E+00 -0.15892136467E+03  0.15892136467E+03  0.00000000000E+00 0. -1.
         23    2    1    2    0    0  0.00000000000E+00  0.00000000000E+00 -0.14581901825E+03  0.17202371109E+03  0.91263196823E+02 0.  0.
          2    1    3    3  502    0 -0.29196461504E+02 -0.16079985040E+02 -0.13165258669E+03  0.13580649051E+03  0.00000000000E+00 0. -1.
         -2    1    3    3    0  502  0.29196461504E+02  0.16079985040E+02 -0.14166431558E+02  0.36217220577E+02  0.00000000000E+00 0.  1.
<mgrwt>
<rscale>  0 0.91263197E+02</rscale>
<asrwt>0</asrwt>
<pdfrwt beam="2">  1        2 0.24449440E-01 0.91263197E+02</pdfrwt>
<pdfrwt beam="1">  1       -2 0.20157457E-02 0.91263197E+02</pdfrwt>
<totfact> 0.14223769E+05</totfact>
</mgrwt>
</event>
<event>
 5    1  0.4059427E+001  0.9127013E+02  0.7546771E-02  0.1299805E+00
         -1   -1    0    0    0  501 -0.00000000000E+00  0.00000000000E+00  0.10286807910E+02  0.10286807910E+02  0.00000000000E+00 0.  1.
          1   -1    0    0  501    0  0.00000000000E+00 -0.00000000000E+00 -0.20244948711E+03  0.20244948711E+03  0.00000000000E+00 0. -1.
         23    2    1    2    0    0  0.00000000000E+00  0.00000000000E+00 -0.19216267920E+03  0.21273629502E+03  0.91270126225E+02 0.  0.
          2    1    3    3  502    0  0.40462222482E+02  0.59890530684E+01 -0.14324844736E+03  0.14897374895E+03  0.00000000000E+00 0. -1.
         -2    1    3    3    0  502 -0.40462222482E+02 -0.59890530684E+01 -0.48914231840E+02  0.63762546070E+02  0.00000000000E+00 0.  1.
<mgrwt>
<rscale>  0 0.91270126E+02</rscale>
<asrwt>0</asrwt>
<pdfrwt beam="2">  1        1 0.31146071E-01 0.91270126E+02</pdfrwt>
<pdfrwt beam="1">  1       -1 0.15825860E-02 0.91270126E+02</pdfrwt>
<totfact> 0.11836079E+05</totfact>
</mgrwt>
</event>
<event>
 5    1  0.4059427E+001  0.9137336E+02  0.7546771E-02  0.1299560E+00
         -1   -1    0    0    0  501 -0.00000000000E+00  0.00000000000E+00  0.74257628575E+01  0.74257628575E+01  0.00000000000E+00 0.  1.
          1   -1    0    0  501    0  0.00000000000E+00 -0.00000000000E+00 -0.28108530457E+03  0.28108530457E+03  0.00000000000E+00 0. -1.
         23    2    1    2    0    0  0.00000000000E+00  0.00000000000E+00 -0.27365954171E+03  0.28851106742E+03  0.91373361861E+02 0.  0.
          2    1    3    3  502    0  0.31817967679E+02  0.11234409847E+02 -0.23408259874E+03  0.23650213120E+03  0.00000000000E+00 0. -1.
         -2    1    3    3    0  502 -0.31817967679E+02 -0.11234409847E+02 -0.39576942968E+02  0.52008936218E+02  0.00000000000E+00 0.  1.
<mgrwt>
<rscale>  0 0.91373362E+02</rscale>
<asrwt>0</asrwt>
<pdfrwt beam="2">  1        1 0.43243893E-01 0.91373362E+02</pdfrwt>
<pdfrwt beam="1">  1       -1 0.11424251E-02 0.91373362E+02</pdfrwt>
<totfact> 0.12580288E+05</totfact>
</mgrwt>
</event>
<event>
 5    1  0.4059427E+001  0.9174206E+02  0.7546771E-02  0.1298687E+00
         -1   -1    0    0    0  501 -0.00000000000E+00  0.00000000000E+00  0.17854236255E+02  0.17854236255E+02  0.00000000000E+00 0.  1.
          1   -1    0    0  501    0  0.00000000000E+00 -0.00000000000E+00 -0.11785165844E+03  0.11785165844E+03  0.00000000000E+00 0. -1.
         23    2    1    2    0    0  0.00000000000E+00  0.00000000000E+00 -0.99997422189E+02  0.13570589470E+03  0.91742059121E+02 0.  0.
          2    1    3    3  502    0  0.34438302907E+02  0.20889121690E+02 -0.82467290307E+02  0.91778026143E+02  0.00000000000E+00 0. -1.
         -2    1    3    3    0  502 -0.34438302907E+02 -0.20889121690E+02 -0.17530131882E+02  0.43927868557E+02  0.00000000000E+00 0.  1.
<mgrwt>
<rscale>  0 0.91742059E+02</rscale>
<asrwt>0</asrwt>
<pdfrwt beam="2">  1        1 0.18131025E-01 0.91742059E+02</pdfrwt>
<pdfrwt beam="1">  1       -1 0.27468055E-02 0.91742059E+02</pdfrwt>
<totfact> 0.10561362E+05</totfact>
</mgrwt>
</event>
<event>
 5    1  0.4059427E+001  0.9052778E+02  0.7546771E-02  0.1301579E+00
          1   -1    0    0  501    0  0.00000000000E+00  0.00000000000E+00  0.10424706896E+04  0.10424706896E+04  0.00000000000E+00 0. -1.
         -1   -1    0    0    0  501 -0.00000000000E+00 -0.00000000000E+00 -0.19653498700E+01  0.19653498700E+01  0.00000000000E+00 0.  1.
         23    2    1    2    0    0  0.00000000000E+00  0.00000000000E+00  0.10405053397E+04  0.10444360395E+04  0.90527777711E+02 0.  0.
          2    1    3    3  502    0 -0.26171704564E+02  0.95616275208E+01  0.93179839909E+03  0.93221491051E+03  0.00000000000E+00 0. -1.
         -2    1    3    3    0  502  0.26171704564E+02 -0.95616275208E+01  0.10870694065E+03  0.11222112897E+03  0.00000000000E+00 0.  1.
<mgrwt>
<rscale>  0 0.90527778E+02</rscale>
<asrwt>0</asrwt>
<pdfrwt beam="1">  1        1 0.16037966E+00 0.90527778E+02</pdfrwt>
<pdfrwt beam="2">  1       -1 0.30236235E-03 0.90527778E+02</pdfrwt>
<totfact> 0.13696630E+05</totfact>
</mgrwt>
</event>
<event>
 5    1  0.4059427E+001  0.1005583E+03  0.7546771E-02  0.1279126E+00
         -3   -1    0    0    0  501 -0.00000000000E+00  0.00000000000E+00  0.29215790053E+03  0.29215790053E+03  0.00000000000E+00 0.  1.
          3   -1    0    0  501    0  0.00000000000E+00 -0.00000000000E+00 -0.86528275995E+01  0.86528275995E+01  0.00000000000E+00 0. -1.
         23    2    1    2    0    0  0.00000000000E+00  0.00000000000E+00  0.28350507293E+03  0.30081072813E+03  0.10055828052E+03 0.  0.
          2    1    3    3  502    0  0.26014800783E+02  0.42685128151E+02  0.15791774033E+03  0.16564058300E+03  0.00000000000E+00 0. -1.
         -2    1    3    3    0  502 -0.26014800783E+02 -0.42685128151E+02  0.12558733260E+03  0.13517014513E+03  0.00000000000E+00 0.  1.
<mgrwt>
<rscale>  0 0.10055828E+03</rscale>
<asrwt>0</asrwt>
<pdfrwt beam="2">  1        3 0.13312045E-02 0.10055828E+03</pdfrwt>
<pdfrwt beam="1">  1       -3 0.44947362E-01 0.10055828E+03</pdfrwt>
<totfact> 0.18414680E+04</totfact>
</mgrwt>
</event>
<event>
 5    1  0.4059427E+001  0.9240662E+02  0.7546771E-02  0.1297126E+00
          3   -1    0    0  501    0  0.00000000000E+00  0.00000000000E+00  0.37811354265E+02  0.37811354265E+02  0.00000000000E+00 0.  1.
         -3   -1    0    0    0  501 -0.00000000000E+00 -0.00000000000E+00 -0.56457802504E+02  0.56457802504E+02  0.00000000000E+00 0. -1.
         23    2    1    2    0    0  0.00000000000E+00  0.00000000000E+00 -0.18646448239E+02  0.94269156769E+02  0.92406622522E+02 0.  0.
          2    1    3    3  502    0 -0.59987210177E+01 -0.45800557484E+02 -0.82678425650E+01  0.46925823812E+02  0.00000000000E+00 0.  1.
         -2    1    3    3    0  502  0.59987210177E+01  0.45800557484E+02 -0.10378605674E+02  0.47343332957E+02  0.00000000000E+00 0. -1.
<mgrwt>
<rscale>  0 0.92406623E+02</rscale>
<asrwt>0</asrwt>
<pdfrwt beam="1">  1        3 0.58171314E-02 0.92406623E+02</pdfrwt>
<pdfrwt beam="2">  1       -3 0.86858158E-02 0.92406623E+02</pdfrwt>
<totfact> 0.33842322E+04</totfact>
</mgrwt>
</event>
<event>
 5    1  0.4059427E+001  0.9486269E+02  0.7546771E-02  0.1291486E+00
          2   -1    0    0  501    0  0.00000000000E+00  0.00000000000E+00  0.66671978583E+01  0.66671978583E+01  0.00000000000E+00 0. -1.
         -2   -1    0    0    0  501 -0.00000000000E+00 -0.00000000000E+00 -0.33743301667E+03  0.33743301667E+03  0.00000000000E+00 0.  1.
         23    2    1    2    0    0  0.00000000000E+00  0.00000000000E+00 -0.33076581881E+03  0.34410021453E+03  0.94862694165E+02 0.  0.
          2    1    3    3  502    0 -0.39739314205E+02 -0.25490061148E+02 -0.14884904471E+03  0.15615695444E+03  0.00000000000E+00 0. -1.
         -2    1    3    3    0  502  0.39739314205E+02  0.25490061148E+02 -0.18191677411E+03  0.18794326009E+03  0.00000000000E+00 0.  1.
<mgrwt>
<rscale>  0 0.94862694E+02</rscale>
<asrwt>0</asrwt>
<pdfrwt beam="1">  1        2 0.10257228E-02 0.94862694E+02</pdfrwt>
<pdfrwt beam="2">  1       -2 0.51912770E-01 0.94862694E+02</pdfrwt>
<totfact> 0.42979787E+04</totfact>
</mgrwt>
</event>
<event>
 5    1  0.4059427E+001  0.9389168E+02  0.7546771E-02  0.1293692E+00
          1   -1    0    0  501    0  0.00000000000E+00  0.00000000000E+00  0.29407701586E+04  0.29407701586E+04  0.00000000000E+00 0. -1.
         -1   -1    0    0    0  501 -0.00000000000E+00 -0.00000000000E+00 -0.74943350572E+00  0.74943350572E+00  0.00000000000E+00 0.  1.
         23    2    1    2    0    0  0.00000000000E+00  0.00000000000E+00  0.29400207251E+04  0.29415195922E+04  0.93891675659E+02 0.  0.
          2    1    3    3  502    0 -0.34195995186E+02  0.14876911062E+02  0.23634176983E+04  0.23637118913E+04  0.00000000000E+00 0. -1.
         -2    1    3    3    0  502  0.34195995186E+02 -0.14876911062E+02  0.57660302687E+03  0.57780770086E+03  0.00000000000E+00 0.  1.
<mgrwt>
<rscale>  0 0.93891676E+02</rscale>
<asrwt>0</asrwt>
<pdfrwt beam="1">  1        1 0.45241694E+00 0.93891676E+02</pdfrwt>
<pdfrwt beam="2">  1       -1 0.11529982E-03 0.93891676E+02</pdfrwt>
<totfact> 0.31014927E+04</totfact>
</mgrwt>
</event>
<event>
 5    1  0.4059427E+001  0.9060484E+02  0.7546771E-02  0.1301394E+00
          2   -1    0    0  501    0  0.00000000000E+00  0.00000000000E+00  0.17839782231E+03  0.17839782231E+03  0.00000000000E+00 0. -1.
         -2   -1    0    0    0  501 -0.00000000000E+00 -0.00000000000E+00 -0.11504115375E+02  0.11504115375E+02  0.00000000000E+00 0.  1.
         23    2    1    2    0    0  0.00000000000E+00  0.00000000000E+00  0.16689370693E+03  0.18990193768E+03  0.90604837187E+02 0.  0.
          2    1    3    3  502    0  0.33231098505E+02  0.18062875217E+02  0.13570824099E+03  0.14088044591E+03  0.00000000000E+00 0. -1.
         -2    1    3    3    0  502 -0.33231098505E+02 -0.18062875217E+02  0.31185465944E+02  0.49021491767E+02  0.00000000000E+00 0.  1.
<mgrwt>
<rscale>  0 0.90604837E+02</rscale>
<asrwt>0</asrwt>
<pdfrwt beam="1">  1        2 0.27445817E-01 0.90604837E+02</pdfrwt>
<pdfrwt beam="2">  1       -2 0.17698640E-02 0.90604837E+02</pdfrwt>
<totfact> 0.15101754E+05</totfact>
</mgrwt>
</event>
<event>
 5    1  0.4059427E+001  0.9139969E+02  0.7546771E-02  0.1299497E+00
          2   -1    0    0  501    0  0.00000000000E+00  0.00000000000E+00  0.43749604734E+03  0.43749604734E+03  0.00000000000E+00 0. -1.
         -2   -1    0    0    0  501 -0.00000000000E+00 -0.00000000000E+00 -0.47737018500E+01  0.47737018500E+01  0.00000000000E+00 0.  1.
         23    2    1    2    0    0  0.00000000000E+00  0.00000000000E+00  0.43272234549E+03  0.44226974919E+03  0.91399686883E+02 0.  0.
          2    1    3    3  502    0  0.41989966646E+02  0.17917822639E+02  0.22636019790E+03  0.23091804793E+03  0.00000000000E+00 0. -1.
         -2    1    3    3    0  502 -0.41989966646E+02 -0.17917822639E+02  0.20636214759E+03  0.21135170126E+03  0.00000000000E+00 0.  1.
<mgrwt>
<rscale>  0 0.91399687E+02</rscale>
<asrwt>0</asrwt>
<pdfrwt beam="1">  1        2 0.67307052E-01 0.91399687E+02</pdfrwt>
<pdfrwt beam="2">  1       -2 0.73441602E-03 0.91399687E+02</pdfrwt>
<totfact> 0.20469848E+05</totfact>
</mgrwt>
</event>
<event>
 5    1  0.4059427E+001  0.9143717E+02  0.7546771E-02  0.1299408E+00
          4   -1    0    0  501    0  0.00000000000E+00  0.00000000000E+00  0.25958488687E+03  0.25958488687E+03  0.00000000000E+00 0. -1.
         -4   -1    0    0    0  501 -0.00000000000E+00 -0.00000000000E+00 -0.80520451158E+01  0.80520451158E+01  0.00000000000E+00 0.  1.
         23    2    1    2    0    0  0.00000000000E+00  0.00000000000E+00  0.25153284175E+03  0.26763693198E+03  0.91437174507E+02 0.  0.
          2    1    3    3  502    0  0.12099309395E+02 -0.33606336619E+02  0.20929686936E+03  0.21232277003E+03  0.00000000000E+00 0. -1.
         -2    1    3    3    0  502 -0.12099309395E+02  0.33606336619E+02  0.42235972387E+02  0.55314161950E+02  0.00000000000E+00 0.  1.
<mgrwt>
<rscale>  0 0.91437175E+02</rscale>
<asrwt>0</asrwt>
<pdfrwt beam="1">  1        4 0.39936130E-01 0.91437175E+02</pdfrwt>
<pdfrwt beam="2">  1       -4 0.12387764E-02 0.91437175E+02</pdfrwt>
<totfact> 0.18712723E+04</totfact>
</mgrwt>
</event>
<event>
 5    1  0.4059427E+001  0.9076631E+02  0.7546771E-02  0.1301007E+00
         -2   -1    0    0    0  501 -0.00000000000E+00  0.00000000000E+00  0.10130988844E+01  0.10130988844E+01  0.00000000000E+00 0.  1.
          2   -1    0    0  501    0  0.00000000000E+00 -0.00000000000E+00 -0.20330005101E+04  0.20330005101E+04  0.00000000000E+00 0. -1.
         23    2    1    2    0    0  0.00000000000E+00  0.00000000000E+00 -0.20319874112E+04  0.20340136090E+04  0.90766305394E+02 0.  0.
          2    1    3    3  502    0  0.41384094989E+02 -0.95439371779E+01 -0.65751384811E+03  0.65888404937E+03  0.00000000000E+00 0. -1.
         -2    1    3    3    0  502 -0.41384094989E+02  0.95439371779E+01 -0.13744735631E+04  0.13751295596E+04  0.00000000000E+00 0.  1.
<mgrwt>
<rscale>  0 0.90766305E+02</rscale>
<asrwt>0</asrwt>
<pdfrwt beam="2">  1        2 0.31276861E+00 0.90766305E+02</pdfrwt>
<pdfrwt beam="1">  1       -2 0.15586172E-03 0.90766305E+02</pdfrwt>
<totfact> 0.19608433E+05</totfact>
</mgrwt>
</event>
<event>
 5    1  0.4059427E+001  0.8635464E+02  0.7546771E-02  0.1311928E+00
          2   -1    0    0  501    0  0.00000000000E+00  0.00000000000E+00  0.15306182373E+04  0.15306182373E+04  0.00000000000E+00 0. -1.
         -2   -1    0    0    0  501 -0.00000000000E+00 -0.00000000000E+00 -0.12179922617E+01  0.12179922617E+01  0.00000000000E+00 0.  1.
         23    2    1    2    0    0  0.00000000000E+00  0.00000000000E+00  0.15294002450E+04  0.15318362295E+04  0.86354644775E+02 0.  0.
          2    1    3    3  502    0 -0.27009859992E+01 -0.24763079777E+02  0.13909877908E+03  0.14131162651E+03  0.00000000000E+00 0.  1.
         -2    1    3    3    0  502  0.27009859992E+01  0.24763079777E+02  0.13903014659E+04  0.13905246030E+04  0.00000000000E+00 0. -1.
<mgrwt>
<rscale>  0 0.86354645E+02</rscale>
<asrwt>0</asrwt>
<pdfrwt beam="1">  1        2 0.23547819E+00 0.86354645E+02</pdfrwt>
<pdfrwt beam="2">  1       -2 0.18738465E-03 0.86354645E+02</pdfrwt>
<totfact> 0.27004890E+05</totfact>
</mgrwt>
</event>
<event>
 5    1  0.4059427E+001  0.9825334E+02  0.7546771E-02  0.1284012E+00
         -2   -1    0    0    0  501 -0.00000000000E+00  0.00000000000E+00  0.68936162678E+01  0.68936162678E+01  0.00000000000E+00 0.  1.
          2   -1    0    0  501    0  0.00000000000E+00 -0.00000000000E+00 -0.35009632973E+03  0.35009632973E+03  0.00000000000E+00 0. -1.
         23    2    1    2    0    0  0.00000000000E+00  0.00000000000E+00 -0.34320271346E+03  0.35698994600E+03  0.98253340990E+02 0.  0.
          2    1    3    3  502    0  0.35322474333E+02  0.35553461371E+01 -0.29498125792E+03  0.29710984535E+03  0.00000000000E+00 0. -1.
         -2    1    3    3    0  502 -0.35322474333E+02 -0.35553461371E+01 -0.48221455544E+02  0.59880100650E+02  0.00000000000E+00 0.  1.
<mgrwt>
<rscale>  0 0.98253341E+02</rscale>
<asrwt>0</asrwt>
<pdfrwt beam="2">  1        2 0.53860977E-01 0.98253341E+02</pdfrwt>
<pdfrwt beam="1">  1       -2 0.10605563E-02 0.98253341E+02</pdfrwt>
<totfact> 0.15577043E+05</totfact>
</mgrwt>
</event>
<event>
 5    1  0.4059427E+001  0.9692129E+02  0.7546771E-02  0.1286907E+00
         -1   -1    0    0    0  501 -0.00000000000E+00  0.00000000000E+00  0.33685452134E+02  0.33685452134E+02  0.00000000000E+00 0.  1.
          1   -1    0    0  501    0  0.00000000000E+00 -0.00000000000E+00 -0.69716570204E+02  0.69716570204E+02  0.00000000000E+00 0. -1.
         23    2    1    2    0    0  0.00000000000E+00  0.00000000000E+00 -0.36031118069E+02  0.10340202234E+03  0.96921291542E+02 0.  0.
          2    1    3    3  502    0  0.34355760833E+02 -0.11063344805E+02 -0.52515407824E+02  0.63722711490E+02  0.00000000000E+00 0. -1.
         -2    1    3    3    0  502 -0.34355760833E+02  0.11063344805E+02  0.16484289754E+02  0.39679310848E+02  0.00000000000E+00 0.  1.
<mgrwt>
<rscale>  0 0.96921292E+02</rscale>
<asrwt>0</asrwt>
<pdfrwt beam="2">  1        1 0.10725626E-01 0.96921292E+02</pdfrwt>
<pdfrwt beam="1">  1       -1 0.51823773E-02 0.96921292E+02</pdfrwt>
<totfact> 0.83239164E+04</totfact>
</mgrwt>
</event>
<event>
 5    1  0.4059427E+001  0.9223169E+02  0.7546771E-02  0.1297536E+00
          2   -1    0    0  501    0  0.00000000000E+00  0.00000000000E+00  0.16985774523E+03  0.16985774523E+03  0.00000000000E+00 0. -1.
         -2   -1    0    0    0  501 -0.00000000000E+00 -0.00000000000E+00 -0.12520306410E+02  0.12520306410E+02  0.00000000000E+00 0.  1.
         23    2    1    2    0    0  0.00000000000E+00  0.00000000000E+00  0.15733743882E+03  0.18237805164E+03  0.92231686883E+02 0.  0.
          2    1    3    3  502    0  0.39855414571E+02 -0.20802598781E+02  0.58361311928E+02  0.73669837224E+02  0.00000000000E+00 0. -1.
         -2    1    3    3    0  502 -0.39855414571E+02  0.20802598781E+02  0.98976126893E+02  0.10870821442E+03  0.00000000000E+00 0.  1.
<mgrwt>
<rscale>  0 0.92231687E+02</rscale>
<asrwt>0</asrwt>
<pdfrwt beam="1">  1        2 0.26131959E-01 0.92231687E+02</pdfrwt>
<pdfrwt beam="2">  1       -2 0.19262011E-02 0.92231687E+02</pdfrwt>
<totfact> 0.14145973E+05</totfact>
</mgrwt>
</event>
<event>
 5    1  0.4059427E+001  0.9082148E+02  0.7546771E-02  0.1300874E+00
          3   -1    0    0  501    0  0.00000000000E+00  0.00000000000E+00  0.74971849815E+02  0.74971849815E+02  0.00000000000E+00 0. -1.
         -3   -1    0    0    0  501 -0.00000000000E+00 -0.00000000000E+00 -0.27505459899E+02  0.27505459899E+02  0.00000000000E+00 0.  1.
         23    2    1    2    0    0  0.00000000000E+00  0.00000000000E+00  0.47466389916E+02  0.10247730971E+03  0.90821477826E+02 0.  0.
          2    1    3    3  502    0 -0.41144435702E+02 -0.20672061217E+01  0.45289978664E+02  0.61223525689E+02  0.00000000000E+00 0. -1.
         -2    1    3    3    0  502  0.41144435702E+02  0.20672061217E+01  0.21764112525E+01  0.41253784025E+02  0.00000000000E+00 0.  1.
<mgrwt>
<rscale>  0 0.90821478E+02</rscale>
<asrwt>0</asrwt>
<pdfrwt beam="1">  1        3 0.11534131E-01 0.90821478E+02</pdfrwt>
<pdfrwt beam="2">  1       -3 0.42316092E-02 0.90821478E+02</pdfrwt>
<totfact> 0.34856760E+04</totfact>
</mgrwt>
</event>
<event>
 5    1  0.4059427E+001  0.8926757E+02  0.7546771E-02  0.1304635E+00
          2   -1    0    0  501    0  0.00000000000E+00  0.00000000000E+00  0.17959649137E+02  0.17959649137E+02  0.00000000000E+00 0. -1.
         -2   -1    0    0    0  501 -0.00000000000E+00 -0.00000000000E+00 -0.11092504279E+03  0.11092504279E+03  0.00000000000E+00 0.  1.
         23    2    1    2    0    0  0.00000000000E+00  0.00000000000E+00 -0.92965393657E+02  0.12888469193E+03  0.89267571918E+02 0.  0.
          2    1    3    3  502    0 -0.31753039966E+02  0.74601901218E+01 -0.24937492167E+01  0.32712822699E+02  0.00000000000E+00 0. -1.
         -2    1    3    3    0  502  0.31753039966E+02 -0.74601901218E+01 -0.90471644441E+02  0.96171869232E+02  0.00000000000E+00 0.  1.
<mgrwt>
<rscale>  0 0.89267572E+02</rscale>
<asrwt>0</asrwt>
<pdfrwt beam="1">  1        2 0.27630230E-02 0.89267572E+02</pdfrwt>
<pdfrwt beam="2">  1       -2 0.17065391E-01 0.89267572E+02</pdfrwt>
<totfact> 0.81522088E+04</totfact>
</mgrwt>
</event>
<event>
 5    1  0.4059427E+001  0.9288998E+02  0.7546771E-02  0.1296000E+00
          1   -1    0    0  501    0  0.00000000000E+00  0.00000000000E+00  0.44798193143E+03  0.44798193143E+03  0.00000000000E+00 0. -1.
         -1   -1    0    0    0  501 -0.00000000000E+00 -0.00000000000E+00 -0.48152326540E+01  0.48152326540E+01  0.00000000000E+00 0.  1.
         23    2    1    2    0    0  0.00000000000E+00  0.00000000000E+00  0.44316669878E+03  0.45279716409E+03  0.92889982768E+02 0.  0.
          2    1    3    3  502    0  0.34324957485E+02  0.46388132199E+00  0.37408126207E+03  0.37565304275E+03  0.00000000000E+00 0. -1.
         -2    1    3    3    0  502 -0.34324957485E+02 -0.46388132199E+00  0.69085436709E+02  0.77144121341E+02  0.00000000000E+00 0.  1.
<mgrwt>
<rscale>  0 0.92889983E+02</rscale>
<asrwt>0</asrwt>
<pdfrwt beam="1">  1        1 0.68920264E-01 0.92889983E+02</pdfrwt>
<pdfrwt beam="2">  1       -1 0.74080537E-03 0.92889983E+02</pdfrwt>
<totfact> 0.13064720E+05</totfact>
</mgrwt>
</event>
<event>
 5    1  0.4059427E+001  0.9051558E+02  0.7546771E-02  0.1301608E+00
          4   -1    0    0  501    0  0.00000000000E+00  0.00000000000E+00  0.73282653409E+01  0.73282653409E+01  0.00000000000E+00 0. -1.
         -4   -1    0    0    0  501 -0.00000000000E+00 -0.00000000000E+00 -0.27950235531E+03  0.27950235531E+03  0.00000000000E+00 0.  1.
         23    2    1    2    0    0  0.00000000000E+00  0.00000000000E+00 -0.27217408997E+03  0.28683062065E+03  0.90515577070E+02 0.  0.
          2    1    3    3  502    0  0.38701051593E+02  0.28732356881E+01 -0.62296930822E+02  0.73395738756E+02  0.00000000000E+00 0. -1.
         -2    1    3    3    0  502 -0.38701051593E+02 -0.28732356881E+01 -0.20987715914E+03  0.21343488189E+03  0.00000000000E+00 0.  1.
<mgrwt>
<rscale>  0 0.90515577E+02</rscale>
<asrwt>0</asrwt>
<pdfrwt beam="1">  1        4 0.11274255E-02 0.90515577E+02</pdfrwt>
<pdfrwt beam="2">  1       -4 0.43000361E-01 0.90515577E+02</pdfrwt>
<totfact> 0.18585481E+04</totfact>
</mgrwt>
</event>
<event>
 5    1  0.4059427E+001  0.8984086E+02  0.7546771E-02  0.1303238E+00
          1   -1    0    0  501    0  0.00000000000E+00  0.00000000000E+00  0.14940187240E+03  0.14940187240E+03  0.00000000000E+00 0. -1.
         -1   -1    0    0    0  501 -0.00000000000E+00 -0.00000000000E+00 -0.13506154918E+02  0.13506154918E+02  0.00000000000E+00 0.  1.
         23    2    1    2    0    0  0.00000000000E+00  0.00000000000E+00  0.13589571748E+03  0.16290802732E+03  0.89840855599E+02 0.  0.
          2    1    3    3  502    0 -0.20073797148E+02 -0.19287189402E+01  0.14073236797E+03  0.14216988669E+03  0.00000000000E+00 0. -1.
         -2    1    3    3    0  502  0.20073797148E+02  0.19287189402E+01 -0.48366504842E+01  0.20738140626E+02  0.00000000000E+00 0.  1.
<mgrwt>
<rscale>  0 0.89840856E+02</rscale>
<asrwt>0</asrwt>
<pdfrwt beam="1">  1        1 0.22984902E-01 0.89840856E+02</pdfrwt>
<pdfrwt beam="2">  1       -1 0.20778701E-02 0.89840856E+02</pdfrwt>
<totfact> 0.11659578E+05</totfact>
</mgrwt>
</event>
<event>
 5    1  0.4059427E+001  0.9252981E+02  0.7546771E-02  0.1296838E+00
         -2   -1    0    0    0  501 -0.00000000000E+00  0.00000000000E+00  0.90907824276E+02  0.90907824276E+02  0.00000000000E+00 0.  1.
          2   -1    0    0  501    0  0.00000000000E+00 -0.00000000000E+00 -0.23545186262E+02  0.23545186262E+02  0.00000000000E+00 0. -1.
         23    2    1    2    0    0  0.00000000000E+00  0.00000000000E+00  0.67362638014E+02  0.11445301054E+03  0.92529814768E+02 0.  0.
          2    1    3    3  502    0 -0.15268354365E+02  0.13316607030E+02 -0.17766497329E+02  0.26946300213E+02  0.00000000000E+00 0. -1.
         -2    1    3    3    0  502  0.15268354365E+02 -0.13316607030E+02  0.85129135343E+02  0.87506710326E+02  0.00000000000E+00 0.  1.
<mgrwt>
<rscale>  0 0.92529815E+02</rscale>
<asrwt>0</asrwt>
<pdfrwt beam="2">  1        2 0.36223364E-02 0.92529815E+02</pdfrwt>
<pdfrwt beam="1">  1       -2 0.13985819E-01 0.92529815E+02</pdfrwt>
<totfact> 0.79126187E+04</totfact>
</mgrwt>
</event>
<event>
 5    1  0.4059427E+001  0.9551750E+02  0.7546771E-02  0.1290015E+00
          2   -1    0    0  501    0  0.00000000000E+00  0.00000000000E+00  0.56994841946E+03  0.56994841946E+03  0.00000000000E+00 0. -1.
         -2   -1    0    0    0  501 -0.00000000000E+00 -0.00000000000E+00 -0.40019378322E+01  0.40019378322E+01  0.00000000000E+00 0.  1.
         23    2    1    2    0    0  0.00000000000E+00  0.00000000000E+00  0.56594648163E+03  0.57395035730E+03  0.95517498758E+02 0.  0.
          2    1    3    3  502    0  0.28302440248E+02 -0.28082052839E+02  0.12498865413E+03  0.13119372499E+03  0.00000000000E+00 0. -1.
         -2    1    3    3    0  502 -0.28302440248E+02  0.28082052839E+02  0.44095782751E+03  0.44275663231E+03  0.00000000000E+00 0.  1.
<mgrwt>
<rscale>  0 0.95517499E+02</rscale>
<asrwt>0</asrwt>
<pdfrwt beam="1">  1        2 0.87684308E-01 0.95517499E+02</pdfrwt>
<pdfrwt beam="2">  1       -2 0.61568319E-03 0.95517499E+02</pdfrwt>
<totfact> 0.19844780E+05</totfact>
</mgrwt>
</event>
<event>
 5    1  0.4059427E+001  0.9002817E+02  0.7546771E-02  0.1302783E+00
         -1   -1    0    0    0  501 -0.00000000000E+00  0.00000000000E+00  0.32347548079E+02  0.32347548079E+02  0.00000000000E+00 0.  1.
          1   -1    0    0  501    0  0.00000000000E+00 -0.00000000000E+00 -0.62640542279E+02  0.62640542279E+02  0.00000000000E+00 0. -1.
         23    2    1    2    0    0  0.00000000000E+00  0.00000000000E+00 -0.30292994200E+02  0.94988090358E+02  0.90028172325E+02 0.  0.
          2    1    3    3  502    0 -0.33197723131E+02  0.27433656897E+02 -0.13262452748E+01  0.43086578866E+02  0.00000000000E+00 0. -1.
         -2    1    3    3    0  502  0.33197723131E+02 -0.27433656897E+02 -0.28966748925E+02  0.51901511492E+02  0.00000000000E+00 0.  1.
<mgrwt>
<rscale>  0 0.90028172E+02</rscale>
<asrwt>0</asrwt>
<pdfrwt beam="2">  1        1 0.96370064E-02 0.90028172E+02</pdfrwt>
<pdfrwt beam="1">  1       -1 0.49765459E-02 0.90028172E+02</pdfrwt>
<totfact> 0.10046303E+05</totfact>
</mgrwt>
</event>
<event>
 5    1  0.4059427E+001  0.8857526E+02  0.7546771E-02  0.1306339E+00
          3   -1    0    0  501    0  0.00000000000E+00  0.00000000000E+00  0.34819336461E+03  0.34819336461E+03  0.00000000000E+00 0. -1.
         -3   -1    0    0    0  501 -0.00000000000E+00 -0.00000000000E+00 -0.56330605732E+01  0.56330605732E+01  0.00000000000E+00 0.  1.
         23    2    1    2    0    0  0.00000000000E+00  0.00000000000E+00  0.34256030404E+03  0.35382642519E+03  0.88575263229E+02 0.  0.
          2    1    3    3  502    0 -0.25161896723E+02 -0.30619634029E+02  0.25023990617E+03  0.25335882395E+03  0.00000000000E+00 0. -1.
         -2    1    3    3    0  502  0.25161896723E+02  0.30619634029E+02  0.92320397870E+02  0.10046760123E+03  0.00000000000E+00 0.  1.
<mgrwt>
<rscale>  0 0.88575263E+02</rscale>
<asrwt>0</asrwt>
<pdfrwt beam="1">  1        3 0.53568193E-01 0.88575263E+02</pdfrwt>
<pdfrwt beam="2">  1       -3 0.86662498E-03 0.88575263E+02</pdfrwt>
<totfact> 0.23863094E+04</totfact>
</mgrwt>
</event>
<event>
 5    1  0.4059427E+001  0.9559416E+02  0.7546771E-02  0.1289843E+00
          2   -1    0    0  501    0  0.00000000000E+00  0.00000000000E+00  0.73388113996E+03  0.73388113996E+03  0.00000000000E+00 0.  1.
         -2   -1    0    0    0  501 -0.00000000000E+00 -0.00000000000E+00 -0.31129851390E+01  0.31129851390E+01  0.00000000000E+00 0. -1.
         23    2    1    2    0    0  0.00000000000E+00  0.00000000000E+00  0.73076815482E+03  0.73699412510E+03  0.95594164727E+02 0.  0.
          2    1    3    3  502    0  0.74253706491E+01  0.35060274759E+02  0.60920811649E+03  0.61026132779E+03  0.00000000000E+00 0.  1.
         -2    1    3    3    0  502 -0.74253706491E+01 -0.35060274759E+02  0.12156003833E+03  0.12673279731E+03  0.00000000000E+00 0. -1.
<mgrwt>
<rscale>  0 0.95594165E+02</rscale>
<asrwt>0</asrwt>
<pdfrwt beam="1">  1        2 0.11290465E+00 0.95594165E+02</pdfrwt>
<pdfrwt beam="2">  1       -2 0.47892137E-03 0.95594165E+02</pdfrwt>
<totfact> 0.21148788E+05</totfact>
</mgrwt>
</event>
<event>
 5    1  0.4059427E+001  0.9941223E+02  0.7546771E-02  0.1281537E+00
          2   -1    0    0  501    0  0.00000000000E+00  0.00000000000E+00  0.29089350860E+03  0.29089350860E+03  0.00000000000E+00 0.  1.
         -2   -1    0    0    0  501 -0.00000000000E+00 -0.00000000000E+00 -0.84934795372E+01  0.84934795372E+01  0.00000000000E+00 0. -1.
         23    2    1    2    0    0  0.00000000000E+00  0.00000000000E+00  0.28240002906E+03  0.29938698813E+03  0.99412233911E+02 0.  0.
          2    1    3    3  502    0  0.40980596237E+02  0.27903918109E+02  0.15191551590E+03  0.15980100715E+03  0.00000000000E+00 0. -1.
         -2    1    3    3    0  502 -0.40980596237E+02 -0.27903918109E+02  0.13048451316E+03  0.13958598099E+03  0.00000000000E+00 0.  1.
<mgrwt>
<rscale>  0 0.99412234E+02</rscale>
<asrwt>0</asrwt>
<pdfrwt beam="1">  1        2 0.44752840E-01 0.99412234E+02</pdfrwt>
<pdfrwt beam="2">  1       -2 0.13066894E-02 0.99412234E+02</pdfrwt>
<totfact> 0.14082097E+05</totfact>
</mgrwt>
</event>
<event>
 5    1  0.4059427E+001  0.9130980E+02  0.7546771E-02  0.1299710E+00
         -2   -1    0    0    0  501 -0.00000000000E+00  0.00000000000E+00  0.10422816256E+01  0.10422816256E+01  0.00000000000E+00 0.  1.
          2   -1    0    0  501    0  0.00000000000E+00 -0.00000000000E+00 -0.19998147037E+04  0.19998147037E+04  0.00000000000E+00 0. -1.
         23    2    1    2    0    0  0.00000000000E+00  0.00000000000E+00 -0.19987724221E+04  0.20008569853E+04  0.91309804959E+02 0.  0.
          2    1    3    3  502    0 -0.11683020319E+02  0.31522208349E+02 -0.32248606873E+03  0.32423356876E+03  0.00000000000E+00 0. -1.
         -2    1    3    3    0  502  0.11683020319E+02 -0.31522208349E+02 -0.16762863534E+04  0.16766234166E+04  0.00000000000E+00 0.  1.
<mgrwt>
<rscale>  0 0.91309805E+02</rscale>
<asrwt>0</asrwt>
<pdfrwt beam="2">  1        2 0.30766487E+00 0.91309805E+02</pdfrwt>
<pdfrwt beam="1">  1       -2 0.16035046E-03 0.91309805E+02</pdfrwt>
<totfact> 0.19606626E+05</totfact>
</mgrwt>
</event>
<event>
 5    1  0.4059427E+001  0.8961493E+02  0.7546771E-02  0.1303787E+00
         -2   -1    0    0    0  501 -0.00000000000E+00  0.00000000000E+00  0.26793517218E+02  0.26793517218E+02  0.00000000000E+00 0.  1.
          2   -1    0    0  501    0  0.00000000000E+00 -0.00000000000E+00 -0.74932635072E+02  0.74932635072E+02  0.00000000000E+00 0. -1.
         23    2    1    2    0    0  0.00000000000E+00  0.00000000000E+00 -0.48139117855E+02  0.10172615229E+03  0.89614928399E+02 0.  0.
          2    1    3    3  502    0  0.14727775069E+02  0.30066289010E+02 -0.57873702320E+02  0.66859961962E+02  0.00000000000E+00 0. -1.
         -2    1    3    3    0  502 -0.14727775069E+02 -0.30066289010E+02  0.97345844652E+01  0.34866190328E+02  0.00000000000E+00 0.  1.
<mgrwt>
<rscale>  0 0.89614928E+02</rscale>
<asrwt>0</asrwt>
<pdfrwt beam="2">  1        2 0.11528098E-01 0.89614928E+02</pdfrwt>
<pdfrwt beam="1">  1       -2 0.41220796E-02 0.89614928E+02</pdfrwt>
<totfact> 0.11829481E+05</totfact>
</mgrwt>
</event>
<event>
 5    1  0.4059427E+001  0.9339504E+02  0.7546771E-02  0.1294832E+00
         -2   -1    0    0    0  501 -0.00000000000E+00  0.00000000000E+00  0.36197046957E+01  0.36197046957E+01  0.00000000000E+00 0.  1.
          2   -1    0    0  501    0  0.00000000000E+00 -0.00000000000E+00 -0.60244100039E+03  0.60244100039E+03  0.00000000000E+00 0. -1.
         23    2    1    2    0    0  0.00000000000E+00  0.00000000000E+00 -0.59882129570E+03  0.60606070509E+03  0.93395043080E+02 0.  0.
          2    1    3    3  502    0 -0.35638413389E+01 -0.34886870995E+02 -0.49951265896E+03  0.50074214042E+03  0.00000000000E+00 0. -1.
         -2    1    3    3    0  502  0.35638413389E+01  0.34886870995E+02 -0.99308636738E+02  0.10531856467E+03  0.00000000000E+00 0.  1.
<mgrwt>
<rscale>  0 0.93395043E+02</rscale>
<asrwt>0</asrwt>
<pdfrwt beam="2">  1        2 0.92683251E-01 0.93395043E+02</pdfrwt>
<pdfrwt beam="1">  1       -2 0.55687753E-03 0.93395043E+02</pdfrwt>
<totfact> 0.21405853E+05</totfact>
</mgrwt>
</event>
<event>
 5    1  0.4059427E+001  0.9311020E+02  0.7546771E-02  0.1295490E+00
          2   -1    0    0  501    0  0.00000000000E+00  0.00000000000E+00  0.52706846840E+01  0.52706846840E+01  0.00000000000E+00 0. -1.
         -2   -1    0    0    0  501 -0.00000000000E+00 -0.00000000000E+00 -0.41121363487E+03  0.41121363487E+03  0.00000000000E+00 0.  1.
         23    2    1    2    0    0  0.00000000000E+00  0.00000000000E+00 -0.40594295018E+03  0.41648431955E+03  0.93110201528E+02 0.  0.
          2    1    3    3  502    0 -0.43385908828E+02 -0.64696912341E+01 -0.13321759551E+03  0.14025377622E+03  0.00000000000E+00 0. -1.
         -2    1    3    3    0  502  0.43385908828E+02  0.64696912341E+01 -0.27272535467E+03  0.27623054333E+03  0.00000000000E+00 0.  1.
<mgrwt>
<rscale>  0 0.93110202E+02</rscale>
<asrwt>0</asrwt>
<pdfrwt beam="1">  1        2 0.81087463E-03 0.93110202E+02</pdfrwt>
<pdfrwt beam="2">  1       -2 0.63263631E-01 0.93110202E+02</pdfrwt>
<totfact> 0.39679421E+04</totfact>
</mgrwt>
</event>
<event>
 5    1  0.4059427E+001  0.8582891E+02  0.7546771E-02  0.1313279E+00
         -1   -1    0    0    0  501 -0.00000000000E+00  0.00000000000E+00  0.11417493915E+02  0.11417493915E+02  0.00000000000E+00 0. -1.
          1   -1    0    0  501    0  0.00000000000E+00 -0.00000000000E+00 -0.16130076093E+03  0.16130076093E+03  0.00000000000E+00 0.  1.
         23    2    1    2    0    0  0.00000000000E+00  0.00000000000E+00 -0.14988326702E+03  0.17271825485E+03  0.85828910198E+02 0.  0.
          2    1    3    3  502    0  0.18291759305E+01  0.26022973493E+02 -0.63705174994E+01  0.26853761882E+02  0.00000000000E+00 0. -1.
         -2    1    3    3    0  502 -0.18291759305E+01 -0.26022973493E+02 -0.14351274952E+03  0.14586449297E+03  0.00000000000E+00 0.  1.
<mgrwt>
<rscale>  0 0.85828910E+02</rscale>
<asrwt>0</asrwt>
<pdfrwt beam="2">  1        1 0.24815501E-01 0.85828910E+02</pdfrwt>
<pdfrwt beam="1">  1       -1 0.17565376E-02 0.85828910E+02</pdfrwt>
<totfact> 0.13365370E+05</totfact>
</mgrwt>
</event>
<event>
 5    1  0.4059427E+001  0.9161545E+02  0.7546771E-02  0.1298986E+00
         -2   -1    0    0    0  501 -0.00000000000E+00  0.00000000000E+00  0.60427508535E+00  0.60427508535E+00  0.00000000000E+00 0.  1.
          2   -1    0    0  501    0  0.00000000000E+00 -0.00000000000E+00 -0.34725043652E+04  0.34725043652E+04  0.00000000000E+00 0. -1.
         23    2    1    2    0    0  0.00000000000E+00  0.00000000000E+00 -0.34719000901E+04  0.34731086402E+04  0.91615454409E+02 0.  0.
          2    1    3    3  502    0 -0.32936987399E+02  0.20636541329E+02 -0.26549252344E+04  0.26552097304E+04  0.00000000000E+00 0. -1.
         -2    1    3    3    0  502  0.32936987399E+02 -0.20636541329E+02 -0.81697485563E+03  0.81789890984E+03  0.00000000000E+00 0.  1.
<mgrwt>
<rscale>  0 0.91615454E+02</rscale>
<asrwt>0</asrwt>
<pdfrwt beam="2">  1        2 0.53421796E+00 0.91615454E+02</pdfrwt>
<pdfrwt beam="1">  1       -2 0.92967744E-04 0.91615454E+02</pdfrwt>
<totfact> 0.64093907E+04</totfact>
</mgrwt>
</event>
<event>
 5    1  0.4059427E+001  0.9231911E+02  0.7546771E-02  0.1297331E+00
         -2   -1    0    0    0  501 -0.00000000000E+00  0.00000000000E+00  0.16015725901E+03  0.16015725901E+03  0.00000000000E+00 0.  1.
          2   -1    0    0  501    0  0.00000000000E+00 -0.00000000000E+00 -0.13303828442E+02  0.13303828442E+02  0.00000000000E+00 0. -1.
         23    2    1    2    0    0  0.00000000000E+00  0.00000000000E+00  0.14685343057E+03  0.17346108745E+03  0.92319113895E+02 0.  0.
          2    1    3    3  502    0 -0.21372291387E+02 -0.11017611479E+02 -0.60744069614E+00  0.24052683552E+02  0.00000000000E+00 0. -1.
         -2    1    3    3    0  502  0.21372291387E+02  0.11017611479E+02  0.14746087126E+03  0.14940840390E+03  0.00000000000E+00 0.  1.
<mgrwt>
<rscale>  0 0.92319114E+02</rscale>
<asrwt>0</asrwt>
<pdfrwt beam="2">  1        2 0.20467429E-02 0.92319114E+02</pdfrwt>
<pdfrwt beam="1">  1       -2 0.24639577E-01 0.92319114E+02</pdfrwt>
<totfact> 0.66057431E+04</totfact>
</mgrwt>
</event>
<event>
 5    1  0.4059427E+001  0.9178437E+02  0.7546771E-02  0.1298587E+00
         -2   -1    0    0    0  501 -0.00000000000E+00  0.00000000000E+00  0.12552915981E+03  0.12552915981E+03  0.00000000000E+00 0.  1.
          2   -1    0    0  501    0  0.00000000000E+00 -0.00000000000E+00 -0.16777714782E+02  0.16777714782E+02  0.00000000000E+00 0. -1.
         23    2    1    2    0    0  0.00000000000E+00  0.00000000000E+00  0.10875144503E+03  0.14230687459E+03  0.91784365556E+02 0.  0.
          2    1    3    3  502    0 -0.37055832578E+02 -0.21795217276E+01  0.12536393273E+02  0.39179665635E+02  0.00000000000E+00 0. -1.
         -2    1    3    3    0  502  0.37055832578E+02  0.21795217276E+01  0.96215051755E+02  0.10312720896E+03  0.00000000000E+00 0.  1.
<mgrwt>
<rscale>  0 0.91784366E+02</rscale>
<asrwt>0</asrwt>
<pdfrwt beam="2">  1        2 0.25811870E-02 0.91784366E+02</pdfrwt>
<pdfrwt beam="1">  1       -2 0.19312178E-01 0.91784366E+02</pdfrwt>
<totfact> 0.73080548E+04</totfact>
</mgrwt>
</event>
<event>
 5    1  0.4059427E+001  0.9762674E+02  0.7546771E-02  0.1285367E+00
          4   -1    0    0  501    0  0.00000000000E+00  0.00000000000E+00  0.97511720427E+01  0.97511720427E+01  0.00000000000E+00 0. -1.
         -4   -1    0    0    0  501 -0.00000000000E+00 -0.00000000000E+00 -0.24435473764E+03  0.24435473764E+03  0.00000000000E+00 0.  1.
         23    2    1    2    0    0  0.00000000000E+00  0.00000000000E+00 -0.23460356559E+03  0.25410590968E+03  0.97626739905E+02 0.  0.
          2    1    3    3  502    0 -0.39679364893E+02 -0.64055491442E+01 -0.45204676994E+02  0.60489221191E+02  0.00000000000E+00 0. -1.
         -2    1    3    3    0  502  0.39679364893E+02  0.64055491442E+01 -0.18939888860E+03  0.19361668849E+03  0.00000000000E+00 0.  1.
<mgrwt>
<rscale>  0 0.97626740E+02</rscale>
<asrwt>0</asrwt>
<pdfrwt beam="1">  1        4 0.15001805E-02 0.97626740E+02</pdfrwt>
<pdfrwt beam="2">  1       -4 0.37593032E-01 0.97626740E+02</pdfrwt>
<totfact> 0.16083601E+04</totfact>
</mgrwt>
</event>
<event>
 5    1  0.4059427E+001  0.9125884E+02  0.7546771E-02  0.1299832E+00
          2   -1    0    0  501    0  0.00000000000E+00  0.00000000000E+00  0.10216997554E+04  0.10216997554E+04  0.00000000000E+00 0. -1.
         -2   -1    0    0    0  501 -0.00000000000E+00 -0.00000000000E+00 -0.20378236510E+01  0.20378236510E+01  0.00000000000E+00 0.  1.
         23    2    1    2    0    0  0.00000000000E+00  0.00000000000E+00  0.10196619318E+04  0.10237375791E+04  0.91258839042E+02 0.  0.
          2    1    3    3  502    0 -0.25831040172E+02 -0.26648491151E+02  0.80761627733E+03  0.80846857460E+03  0.00000000000E+00 0. -1.
         -2    1    3    3    0  502  0.25831040172E+02  0.26648491151E+02  0.21204565445E+03  0.21526900447E+03  0.00000000000E+00 0.  1.
<mgrwt>
<rscale>  0 0.91258839E+02</rscale>
<asrwt>0</asrwt>
<pdfrwt beam="1">  1        2 0.15718417E+00 0.91258839E+02</pdfrwt>
<pdfrwt beam="2">  1       -2 0.31351215E-03 0.91258839E+02</pdfrwt>
<totfact> 0.24961420E+05</totfact>
</mgrwt>
</event>
<event>
 5    1  0.4059427E+001  0.9232530E+02  0.7546771E-02  0.1297316E+00
          2   -1    0    0  501    0  0.00000000000E+00  0.00000000000E+00  0.49010532476E+03  0.49010532476E+03  0.00000000000E+00 0. -1.
         -2   -1    0    0    0  501 -0.00000000000E+00 -0.00000000000E+00 -0.43480253778E+01  0.43480253778E+01  0.00000000000E+00 0.  1.
         23    2    1    2    0    0  0.00000000000E+00  0.00000000000E+00  0.48575729938E+03  0.49445335013E+03  0.92325302921E+02 0.  0.
          2    1    3    3  502    0 -0.71675593833E+01  0.29372118665E+02  0.42970200111E+03  0.43076432654E+03  0.00000000000E+00 0. -1.
         -2    1    3    3    0  502  0.71675593833E+01 -0.29372118665E+02  0.56055298274E+02  0.63689023599E+02  0.00000000000E+00 0.  1.
<mgrwt>
<rscale>  0 0.92325303E+02</rscale>
<asrwt>0</asrwt>
<pdfrwt beam="1">  1        2 0.75400776E-01 0.92325303E+02</pdfrwt>
<pdfrwt beam="2">  1       -2 0.66892737E-03 0.92325303E+02</pdfrwt>
<totfact> 0.20710795E+05</totfact>
</mgrwt>
</event>
<event>
 5    1  0.4059427E+001  0.8881444E+02  0.7546771E-02  0.1305748E+00
          1   -1    0    0  501    0  0.00000000000E+00  0.00000000000E+00  0.24853026374E+03  0.24853026374E+03  0.00000000000E+00 0. -1.
         -1   -1    0    0    0  501 -0.00000000000E+00 -0.00000000000E+00 -0.79346520796E+01  0.79346520796E+01  0.00000000000E+00 0.  1.
         23    2    1    2    0    0  0.00000000000E+00  0.00000000000E+00  0.24059561167E+03  0.25646491582E+03  0.88814439683E+02 0.  0.
          2    1    3    3  502    0  0.19379366418E+02 -0.35245058210E+02  0.17464602739E+03  0.17921776935E+03  0.00000000000E+00 0. -1.
         -2    1    3    3    0  502 -0.19379366418E+02  0.35245058210E+02  0.65949584280E+02  0.77247146469E+02  0.00000000000E+00 0.  1.
<mgrwt>
<rscale>  0 0.88814440E+02</rscale>
<asrwt>0</asrwt>
<pdfrwt beam="1">  1        1 0.38235419E-01 0.88814440E+02</pdfrwt>
<pdfrwt beam="2">  1       -1 0.12207159E-02 0.88814440E+02</pdfrwt>
<totfact> 0.13248465E+05</totfact>
</mgrwt>
</event>
<event>
 5    1  0.4059427E+001  0.9010236E+02  0.7546771E-02  0.1302604E+00
          1   -1    0    0  501    0  0.00000000000E+00  0.00000000000E+00  0.54658293833E+03  0.54658293833E+03  0.00000000000E+00 0. -1.
         -1   -1    0    0    0  501 -0.00000000000E+00 -0.00000000000E+00 -0.37132680064E+01  0.37132680064E+01  0.00000000000E+00 0.  1.
         23    2    1    2    0    0  0.00000000000E+00  0.00000000000E+00  0.54286967032E+03  0.55029620634E+03  0.90102362627E+02 0.  0.
          2    1    3    3  502    0  0.19230401373E+02 -0.26812542844E+02  0.45877432731E+03  0.45995935058E+03  0.00000000000E+00 0. -1.
         -2    1    3    3    0  502 -0.19230401373E+02  0.26812542844E+02  0.84095343013E+02  0.90336855752E+02  0.00000000000E+00 0.  1.
<mgrwt>
<rscale>  0 0.90102363E+02</rscale>
<asrwt>0</asrwt>
<pdfrwt beam="1">  1        1 0.84089619E-01 0.90102363E+02</pdfrwt>
<pdfrwt beam="2">  1       -1 0.57127243E-03 0.90102363E+02</pdfrwt>
<totfact> 0.14506006E+05</totfact>
</mgrwt>
</event>
<event>
 5    1  0.4059427E+001  0.9034052E+02  0.7546771E-02  0.1302029E+00
          2   -1    0    0  501    0  0.00000000000E+00  0.00000000000E+00  0.12984017017E+03  0.12984017017E+03  0.00000000000E+00 0. -1.
         -2   -1    0    0    0  501 -0.00000000000E+00 -0.00000000000E+00 -0.15714338392E+02  0.15714338392E+02  0.00000000000E+00 0.  1.
         23    2    1    2    0    0  0.00000000000E+00  0.00000000000E+00  0.11412583178E+03  0.14555450856E+03  0.90340519610E+02 0.  0.
          2    1    3    3  502    0  0.40962287125E+02 -0.16482427764E+02  0.72413375143E+02  0.84813184654E+02  0.00000000000E+00 0. -1.
         -2    1    3    3    0  502 -0.40962287125E+02  0.16482427764E+02  0.41712456635E+02  0.60741323907E+02  0.00000000000E+00 0.  1.
<mgrwt>
<rscale>  0 0.90340520E+02</rscale>
<asrwt>0</asrwt>
<pdfrwt beam="1">  1        2 0.19975410E-01 0.90340520E+02</pdfrwt>
<pdfrwt beam="2">  1       -2 0.24175906E-02 0.90340520E+02</pdfrwt>
<totfact> 0.13661247E+05</totfact>
</mgrwt>
</event>
<event>
 5    1  0.4059427E+001  0.9108124E+02  0.7546771E-02  0.1300254E+00
         -1   -1    0    0    0  501 -0.00000000000E+00  0.00000000000E+00  0.13996929323E+01  0.13996929323E+01  0.00000000000E+00 0.  1.
          1   -1    0    0  501    0  0.00000000000E+00 -0.00000000000E+00 -0.14817165522E+04  0.14817165522E+04  0.00000000000E+00 0. -1.
         23    2    1    2    0    0  0.00000000000E+00  0.00000000000E+00 -0.14803168593E+04  0.14831162452E+04  0.91081242542E+02 0.  0.
          2    1    3    3  502    0 -0.14006145923E+02  0.38328653277E+02 -0.10693460265E+04  0.10701243770E+04  0.00000000000E+00 0. -1.
         -2    1    3    3    0  502  0.14006145923E+02 -0.38328653277E+02 -0.41097083278E+03  0.41299186818E+03  0.00000000000E+00 0.  1.
<mgrwt>
<rscale>  0 0.91081243E+02</rscale>
<asrwt>0</asrwt>
<pdfrwt beam="2">  1        1 0.22795529E+00 0.91081243E+02</pdfrwt>
<pdfrwt beam="1">  1       -1 0.21533842E-03 0.91081243E+02</pdfrwt>
<totfact> 0.11192004E+05</totfact>
</mgrwt>
</event>
<event>
 5    1  0.4059427E+001  0.9147267E+02  0.7546771E-02  0.1299324E+00
         -2   -1    0    0    0  501 -0.00000000000E+00  0.00000000000E+00  0.20063380396E+01  0.20063380396E+01  0.00000000000E+00 0.  1.
          2   -1    0    0  501    0  0.00000000000E+00 -0.00000000000E+00 -0.10426021315E+04  0.10426021315E+04  0.00000000000E+00 0. -1.
         23    2    1    2    0    0  0.00000000000E+00  0.00000000000E+00 -0.10405957935E+04  0.10446084695E+04  0.91472669505E+02 0.  0.
          2    1    3    3  502    0 -0.54945043987E+01 -0.30288479933E+02 -0.90659281152E+03  0.90711526693E+03  0.00000000000E+00 0. -1.
         -2    1    3    3    0  502  0.54945043987E+01  0.30288479933E+02 -0.13400298193E+03  0.13749320260E+03  0.00000000000E+00 0.  1.
<mgrwt>
<rscale>  0 0.91472670E+02</rscale>
<asrwt>0</asrwt>
<pdfrwt beam="2">  1        2 0.16040019E+00 0.91472670E+02</pdfrwt>
<pdfrwt beam="1">  1       -2 0.30866766E-03 0.91472670E+02</pdfrwt>
<totfact> 0.24818216E+05</totfact>
</mgrwt>
</event>
<event>
 5    1  0.4059427E+001  0.7825640E+02  0.7546771E-02  0.1334074E+00
          1   -1    0    0  501    0  0.00000000000E+00  0.00000000000E+00  0.45586104105E+03  0.45586104105E+03  0.00000000000E+00 0. -1.
         -1   -1    0    0    0  501 -0.00000000000E+00 -0.00000000000E+00 -0.33585149565E+01  0.33585149565E+01  0.00000000000E+00 0.  1.
         23    2    1    2    0    0  0.00000000000E+00  0.00000000000E+00  0.45250252609E+03  0.45921955601E+03  0.78256402280E+02 0.  0.
          2    1    3    3  502    0  0.37988307347E+02 -0.77743378454E+01  0.25700407035E+03  0.25991276229E+03  0.00000000000E+00 0.  1.
         -2    1    3    3    0  502 -0.37988307347E+02  0.77743378454E+01  0.19549845574E+03  0.19930679372E+03  0.00000000000E+00 0. -1.
<mgrwt>
<rscale>  0 0.78256402E+02</rscale>
<asrwt>0</asrwt>
<pdfrwt beam="1">  1        1 0.70132419E-01 0.78256402E+02</pdfrwt>
<pdfrwt beam="2">  1       -1 0.51669497E-03 0.78256402E+02</pdfrwt>
<totfact> 0.20572125E+05</totfact>
</mgrwt>
</event>
<event>
 5    1  0.4059427E+001  0.9088394E+02  0.7546771E-02  0.1300725E+00
          2   -1    0    0  501    0  0.00000000000E+00  0.00000000000E+00  0.26711898796E+03  0.26711898796E+03  0.00000000000E+00 0. -1.
         -2   -1    0    0    0  501 -0.00000000000E+00 -0.00000000000E+00 -0.77305351931E+01  0.77305351931E+01  0.00000000000E+00 0.  1.
         23    2    1    2    0    0  0.00000000000E+00  0.00000000000E+00  0.25938845277E+03  0.27484952316E+03  0.90883942195E+02 0.  0.
          2    1    3    3  502    0  0.76323260995E+01  0.19221123429E+02  0.25206221382E+03  0.25290920035E+03  0.00000000000E+00 0. -1.
         -2    1    3    3    0  502 -0.76323260995E+01 -0.19221123429E+02  0.73262389504E+01  0.21940322803E+02  0.00000000000E+00 0.  1.
<mgrwt>
<rscale>  0 0.90883942E+02</rscale>
<asrwt>0</asrwt>
<pdfrwt beam="1">  1        2 0.41095222E-01 0.90883942E+02</pdfrwt>
<pdfrwt beam="2">  1       -2 0.11893133E-02 0.90883942E+02</pdfrwt>
<totfact> 0.17353300E+05</totfact>
</mgrwt>
</event>
<event>
 5    1  0.4059427E+001  0.9226838E+02  0.7546771E-02  0.1297450E+00
          3   -1    0    0  501    0  0.00000000000E+00  0.00000000000E+00  0.94981659004E+02  0.94981659004E+02  0.00000000000E+00 0. -1.
         -3   -1    0    0    0  501 -0.00000000000E+00 -0.00000000000E+00 -0.22408153917E+02  0.22408153917E+02  0.00000000000E+00 0.  1.
         23    2    1    2    0    0  0.00000000000E+00  0.00000000000E+00  0.72573505087E+02  0.11738981292E+03  0.92268383192E+02 0.  0.
          2    1    3    3  502    0 -0.20704067550E+01 -0.27955481970E+02  0.82903896048E+02  0.87514864658E+02  0.00000000000E+00 0. -1.
         -2    1    3    3    0  502  0.20704067550E+01  0.27955481970E+02 -0.10330390961E+02  0.29874948262E+02  0.00000000000E+00 0.  1.
<mgrwt>
<rscale>  0 0.92268383E+02</rscale>
<asrwt>0</asrwt>
<pdfrwt beam="1">  1        3 0.14612563E-01 0.92268383E+02</pdfrwt>
<pdfrwt beam="2">  1       -3 0.34474083E-02 0.92268383E+02</pdfrwt>
<totfact> 0.32360038E+04</totfact>
</mgrwt>
</event>
<event>
 5    1  0.4059427E+001  0.8842126E+02  0.7546771E-02  0.1306720E+00
          1   -1    0    0  501    0  0.00000000000E+00  0.00000000000E+00  0.29476627804E+03  0.29476627804E+03  0.00000000000E+00 0. -1.
         -1   -1    0    0    0  501 -0.00000000000E+00 -0.00000000000E+00 -0.66309481345E+01  0.66309481345E+01  0.00000000000E+00 0.  1.
         23    2    1    2    0    0  0.00000000000E+00  0.00000000000E+00  0.28813532991E+03  0.30139722618E+03  0.88421262183E+02 0.  0.
          2    1    3    3  502    0  0.30038062465E+02  0.13583170902E+02  0.24448077199E+03  0.24669340405E+03  0.00000000000E+00 0. -1.
         -2    1    3    3    0  502 -0.30038062465E+02 -0.13583170902E+02  0.43654557918E+02  0.54703822129E+02  0.00000000000E+00 0.  1.
<mgrwt>
<rscale>  0 0.88421262E+02</rscale>
<asrwt>0</asrwt>
<pdfrwt beam="1">  1        1 0.45348648E-01 0.88421262E+02</pdfrwt>
<pdfrwt beam="2">  1       -1 0.10201461E-02 0.88421262E+02</pdfrwt>
<totfact> 0.13855051E+05</totfact>
</mgrwt>
</event>
<event>
 5    1  0.4059427E+001  0.6023794E+02  0.7546771E-02  0.1396836E+00
         -2   -1    0    0    0  501 -0.00000000000E+00  0.00000000000E+00  0.92381124352E+01  0.92381124352E+01  0.00000000000E+00 0.  1.
          2   -1    0    0  501    0  0.00000000000E+00 -0.00000000000E+00 -0.98196710770E+02  0.98196710770E+02  0.00000000000E+00 0. -1.
         23    2    1    2    0    0  0.00000000000E+00  0.00000000000E+00 -0.88958598335E+02  0.10743482321E+03  0.60237936713E+02 0.  0.
          2    1    3    3  502    0  0.18742972997E+02 -0.14094561520E+02 -0.78186960019E+02  0.81628159468E+02  0.00000000000E+00 0. -1.
         -2    1    3    3    0  502 -0.18742972997E+02  0.14094561520E+02 -0.10771638316E+02  0.25806663737E+02  0.00000000000E+00 0.  1.
<mgrwt>
<rscale>  0 0.60237937E+02</rscale>
<asrwt>0</asrwt>
<pdfrwt beam="2">  1        2 0.15107186E-01 0.60237937E+02</pdfrwt>
<pdfrwt beam="1">  1       -2 0.14212481E-02 0.60237937E+02</pdfrwt>
<totfact> 0.36952901E+05</totfact>
</mgrwt>
</event>
<event>
 5    1  0.4059427E+001  0.8894302E+02  0.7546771E-02  0.1305432E+00
          2   -1    0    0  501    0  0.00000000000E+00  0.00000000000E+00  0.50379926042E+02  0.50379926042E+02  0.00000000000E+00 0. -1.
         -2   -1    0    0    0  501 -0.00000000000E+00 -0.00000000000E+00 -0.39256012255E+02  0.39256012255E+02  0.00000000000E+00 0.  1.
         23    2    1    2    0    0  0.00000000000E+00  0.00000000000E+00  0.11123913787E+02  0.89635938297E+02  0.88943015333E+02 0.  0.
          2    1    3    3  502    0 -0.24996233123E+02 -0.36032338003E+02  0.13006927409E+02  0.45741897784E+02  0.00000000000E+00 0. -1.
         -2    1    3    3    0  502  0.24996233123E+02  0.36032338003E+02 -0.18830136222E+01  0.43894040513E+02  0.00000000000E+00 0.  1.
<mgrwt>
<rscale>  0 0.88943015E+02</rscale>
<asrwt>0</asrwt>
<pdfrwt beam="1">  1        2 0.77507578E-02 0.88943015E+02</pdfrwt>
<pdfrwt beam="2">  1       -2 0.60393865E-02 0.88943015E+02</pdfrwt>
<totfact> 0.10867345E+05</totfact>
</mgrwt>
</event>
<event>
 5    1  0.4059427E+001  0.9215595E+02  0.7546771E-02  0.1297713E+00
          1   -1    0    0  501    0  0.00000000000E+00  0.00000000000E+00  0.27257292878E+02  0.27257292878E+02  0.00000000000E+00 0. -1.
         -1   -1    0    0    0  501 -0.00000000000E+00 -0.00000000000E+00 -0.77893999466E+02  0.77893999466E+02  0.00000000000E+00 0.  1.
         23    2    1    2    0    0  0.00000000000E+00  0.00000000000E+00 -0.50636706588E+02  0.10515129234E+03  0.92155945156E+02 0.  0.
          2    1    3    3  502    0 -0.36626270616E+02  0.26341216469E+02 -0.14624654219E+02  0.47425983336E+02  0.00000000000E+00 0. -1.
         -2    1    3    3    0  502  0.36626270616E+02 -0.26341216469E+02 -0.36012052369E+02  0.57725309009E+02  0.00000000000E+00 0.  1.
<mgrwt>
<rscale>  0 0.92155945E+02</rscale>
<asrwt>0</asrwt>
<pdfrwt beam="1">  1        1 0.41934297E-02 0.92155945E+02</pdfrwt>
<pdfrwt beam="2">  1       -1 0.11983692E-01 0.92155945E+02</pdfrwt>
<totfact> 0.82737252E+04</totfact>
</mgrwt>
</event>
<event>
 5    1  0.4059427E+001  0.9143113E+02  0.7546771E-02  0.1299423E+00
          1   -1    0    0  501    0  0.00000000000E+00  0.00000000000E+00  0.47389732983E+03  0.47389732983E+03  0.00000000000E+00 0. -1.
         -1   -1    0    0    0  501 -0.00000000000E+00 -0.00000000000E+00 -0.44100537888E+01  0.44100537888E+01  0.00000000000E+00 0.  1.
         23    2    1    2    0    0  0.00000000000E+00  0.00000000000E+00  0.46948727604E+03  0.47830738362E+03  0.91431126317E+02 0.  0.
          2    1    3    3  502    0  0.41434554651E+02  0.75639441203E+01  0.14176736841E+03  0.14789192783E+03  0.00000000000E+00 0.  1.
         -2    1    3    3    0  502 -0.41434554651E+02 -0.75639441203E+01  0.32771990763E+03  0.33041545579E+03  0.00000000000E+00 0. -1.
<mgrwt>
<rscale>  0 0.91431126E+02</rscale>
<asrwt>0</asrwt>
<pdfrwt beam="1">  1        1 0.72907241E-01 0.91431126E+02</pdfrwt>
<pdfrwt beam="2">  1       -1 0.67847019E-03 0.91431126E+02</pdfrwt>
<totfact> 0.13731778E+05</totfact>
</mgrwt>
</event>
<event>
 5    1  0.4059427E+001  0.8428239E+02  0.7546771E-02  0.1317320E+00
         -2   -1    0    0    0  501 -0.00000000000E+00  0.00000000000E+00  0.74536975592E+01  0.74536975592E+01  0.00000000000E+00 0.  1.
          2   -1    0    0  501    0  0.00000000000E+00 -0.00000000000E+00 -0.23825493185E+03  0.23825493185E+03  0.00000000000E+00 0. -1.
         23    2    1    2    0    0  0.00000000000E+00  0.00000000000E+00 -0.23080123429E+03  0.24570862941E+03  0.84282387342E+02 0.  0.
          2    1    3    3  502    0 -0.47917659942E+01  0.35189486929E+02 -0.18153488806E+03  0.18497615142E+03  0.00000000000E+00 0. -1.
         -2    1    3    3    0  502  0.47917659942E+01 -0.35189486929E+02 -0.49266346235E+02  0.60732477992E+02  0.00000000000E+00 0.  1.
<mgrwt>
<rscale>  0 0.84282387E+02</rscale>
<asrwt>0</asrwt>
<pdfrwt beam="2">  1        2 0.36654610E-01 0.84282387E+02</pdfrwt>
<pdfrwt beam="1">  1       -2 0.11467226E-02 0.84282387E+02</pdfrwt>
<totfact> 0.20338184E+05</totfact>
</mgrwt>
</event>
<event>
 5    1  0.4059427E+001  0.9194385E+02  0.7546771E-02  0.1298212E+00
          2   -1    0    0  501    0  0.00000000000E+00  0.00000000000E+00  0.79371766035E+01  0.79371766035E+01  0.00000000000E+00 0. -1.
         -2   -1    0    0    0  501 -0.00000000000E+00 -0.00000000000E+00 -0.26626822232E+03  0.26626822232E+03  0.00000000000E+00 0.  1.
         23    2    1    2    0    0  0.00000000000E+00  0.00000000000E+00 -0.25833104572E+03  0.27420539892E+03  0.91943850353E+02 0.  0.
          2    1    3    3  502    0  0.38691968799E+02  0.11340247772E+02 -0.63301057923E+02  0.75051273163E+02  0.00000000000E+00 0. -1.
         -2    1    3    3    0  502 -0.38691968799E+02 -0.11340247772E+02 -0.19502998779E+03  0.19915412576E+03  0.00000000000E+00 0.  1.
<mgrwt>
<rscale>  0 0.91943850E+02</rscale>
<asrwt>0</asrwt>
<pdfrwt beam="1">  1        2 0.12211040E-02 0.91943850E+02</pdfrwt>
<pdfrwt beam="2">  1       -2 0.40964344E-01 0.91943850E+02</pdfrwt>
<totfact> 0.53241221E+04</totfact>
</mgrwt>
</event>
<event>
 5    1  0.4059427E+001  0.9098488E+02  0.7546771E-02  0.1300484E+00
          1   -1    0    0  501    0  0.00000000000E+00  0.00000000000E+00  0.57609997979E+03  0.57609997979E+03  0.00000000000E+00 0.  1.
         -1   -1    0    0    0  501 -0.00000000000E+00 -0.00000000000E+00 -0.35923665218E+01  0.35923665218E+01  0.00000000000E+00 0. -1.
         23    2    1    2    0    0  0.00000000000E+00  0.00000000000E+00  0.57250761326E+03  0.57969234631E+03  0.90984884032E+02 0.  0.
          2    1    3    3  502    0  0.35074275680E+02  0.28837761724E+02  0.26852718933E+03  0.27233926035E+03  0.00000000000E+00 0. -1.
         -2    1    3    3    0  502 -0.35074275680E+02 -0.28837761724E+02  0.30398042393E+03  0.30735308596E+03  0.00000000000E+00 0.  1.
<mgrwt>
<rscale>  0 0.90984884E+02</rscale>
<asrwt>0</asrwt>
<pdfrwt beam="1">  1        1 0.88630693E-01 0.90984884E+02</pdfrwt>
<pdfrwt beam="2">  1       -1 0.55267223E-03 0.90984884E+02</pdfrwt>
<totfact> 0.14199046E+05</totfact>
</mgrwt>
</event>
<event>
 5    1  0.4059427E+001  0.9133244E+02  0.7546771E-02  0.1299657E+00
          2   -1    0    0  501    0  0.00000000000E+00  0.00000000000E+00  0.51177926057E+01  0.51177926057E+01  0.00000000000E+00 0. -1.
         -2   -1    0    0    0  501 -0.00000000000E+00 -0.00000000000E+00 -0.40748107416E+03  0.40748107416E+03  0.00000000000E+00 0.  1.
         23    2    1    2    0    0  0.00000000000E+00  0.00000000000E+00 -0.40236328156E+03  0.41259886677E+03  0.91332439545E+02 0.  0.
          2    1    3    3  502    0  0.33270138599E+02  0.29278814553E+02 -0.25092651843E+03  0.25481026030E+03  0.00000000000E+00 0. -1.
         -2    1    3    3    0  502 -0.33270138599E+02 -0.29278814553E+02 -0.15143676313E+03  0.15778860646E+03  0.00000000000E+00 0.  1.
<mgrwt>
<rscale>  0 0.91332440E+02</rscale>
<asrwt>0</asrwt>
<pdfrwt beam="1">  1        2 0.78735267E-03 0.91332440E+02</pdfrwt>
<pdfrwt beam="2">  1       -2 0.62689399E-01 0.91332440E+02</pdfrwt>
<totfact> 0.41971945E+04</totfact>
</mgrwt>
</event>
<event>
 5    1  0.4059427E+001  0.9044503E+02  0.7546771E-02  0.1301778E+00
          2   -1    0    0  501    0  0.00000000000E+00  0.00000000000E+00  0.15502780357E+03  0.15502780357E+03  0.00000000000E+00 0. -1.
         -2   -1    0    0    0  501 -0.00000000000E+00 -0.00000000000E+00 -0.13191670161E+02  0.13191670161E+02  0.00000000000E+00 0.  1.
         23    2    1    2    0    0  0.00000000000E+00  0.00000000000E+00  0.14183613341E+03  0.16821947373E+03  0.90445025301E+02 0.  0.
          2    1    3    3  502    0  0.31201739444E+02  0.22838145582E+02  0.11453465512E+03  0.12088555191E+03  0.00000000000E+00 0. -1.
         -2    1    3    3    0  502 -0.31201739444E+02 -0.22838145582E+02  0.27301478295E+02  0.47333921822E+02  0.00000000000E+00 0.  1.
<mgrwt>
<rscale>  0 0.90445025E+02</rscale>
<asrwt>0</asrwt>
<pdfrwt beam="1">  1        2 0.23850430E-01 0.90445025E+02</pdfrwt>
<pdfrwt beam="2">  1       -2 0.20294878E-02 0.90445025E+02</pdfrwt>
<totfact> 0.14451284E+05</totfact>
</mgrwt>
</event>
<event>
 5    1  0.4059427E+001  0.8898256E+02  0.7546771E-02  0.1305334E+00
         -2   -1    0    0    0  501 -0.00000000000E+00  0.00000000000E+00  0.12727978254E+01  0.12727978254E+01  0.00000000000E+00 0.  1.
          2   -1    0    0  501    0  0.00000000000E+00 -0.00000000000E+00 -0.15552147022E+04  0.15552147022E+04  0.00000000000E+00 0. -1.
         23    2    1    2    0    0  0.00000000000E+00  0.00000000000E+00 -0.15539419044E+04  0.15564875001E+04  0.88982557642E+02 0.  0.
          2    1    3    3  502    0 -0.23266876550E+01  0.27099523973E+02 -0.16109267362E+03  0.16337272468E+03  0.00000000000E+00 0.  1.
         -2    1    3    3    0  502  0.23266876550E+01 -0.27099523973E+02 -0.13928492308E+04  0.13931147754E+04  0.00000000000E+00 0. -1.
<mgrwt>
<rscale>  0 0.88982558E+02</rscale>
<asrwt>0</asrwt>
<pdfrwt beam="2">  1        2 0.23926304E+00 0.88982558E+02</pdfrwt>
<pdfrwt beam="1">  1       -2 0.19581567E-03 0.88982558E+02</pdfrwt>
<totfact> 0.24793954E+05</totfact>
</mgrwt>
</event>
<event>
 5    1  0.4059427E+001  0.8979502E+02  0.7546771E-02  0.1303349E+00
          1   -1    0    0  501    0  0.00000000000E+00  0.00000000000E+00  0.35159951460E+03  0.35159951460E+03  0.00000000000E+00 0. -1.
         -1   -1    0    0    0  501 -0.00000000000E+00 -0.00000000000E+00 -0.57331885011E+01  0.57331885011E+01  0.00000000000E+00 0.  1.
         23    2    1    2    0    0  0.00000000000E+00  0.00000000000E+00  0.34586632610E+03  0.35733270310E+03  0.89795017547E+02 0.  0.
          2    1    3    3  502    0  0.14777305644E+02  0.37456348759E+02  0.25196657078E+03  0.25516367221E+03  0.00000000000E+00 0. -1.
         -2    1    3    3    0  502 -0.14777305644E+02 -0.37456348759E+02  0.93899755314E+02  0.10216903089E+03  0.00000000000E+00 0.  1.
<mgrwt>
<rscale>  0 0.89795018E+02</rscale>
<asrwt>0</asrwt>
<pdfrwt beam="1">  1        1 0.54092216E-01 0.89795018E+02</pdfrwt>
<pdfrwt beam="2">  1       -1 0.88202928E-03 0.89795018E+02</pdfrwt>
<totfact> 0.13740088E+05</totfact>
</mgrwt>
</event>
<event>
 5    1  0.4059427E+001  0.9200672E+02  0.7546771E-02  0.1298064E+00
         -3   -1    0    0    0  501 -0.00000000000E+00  0.00000000000E+00  0.14482662379E+03  0.14482662379E+03  0.00000000000E+00 0.  1.
          3   -1    0    0  501    0  0.00000000000E+00 -0.00000000000E+00 -0.14612708210E+02  0.14612708210E+02  0.00000000000E+00 0. -1.
         23    2    1    2    0    0  0.00000000000E+00  0.00000000000E+00  0.13021391558E+03  0.15943933200E+03  0.92006721374E+02 0.  0.
          2    1    3    3  502    0 -0.21489550033E+02 -0.34599717689E+02  0.10216724533E+03  0.10998675940E+03  0.00000000000E+00 0. -1.
         -2    1    3    3    0  502  0.21489550033E+02  0.34599717689E+02  0.28046670253E+02  0.49452572603E+02  0.00000000000E+00 0.  1.
<mgrwt>
<rscale>  0 0.92006721E+02</rscale>
<asrwt>0</asrwt>
<pdfrwt beam="2">  1        3 0.22481091E-02 0.92006721E+02</pdfrwt>
<pdfrwt beam="1">  1       -3 0.22281018E-01 0.92006721E+02</pdfrwt>
<totfact> 0.29994016E+04</totfact>
</mgrwt>
</event>
<event>
 5    1  0.4059427E+001  0.8771945E+02  0.7546771E-02  0.1308470E+00
         -3   -1    0    0    0  501 -0.00000000000E+00  0.00000000000E+00  0.18995091808E+03  0.18995091808E+03  0.00000000000E+00 0.  1.
          3   -1    0    0  501    0  0.00000000000E+00 -0.00000000000E+00 -0.10127223209E+02  0.10127223209E+02  0.00000000000E+00 0. -1.
         23    2    1    2    0    0  0.00000000000E+00  0.00000000000E+00  0.17982369488E+03  0.20007814129E+03  0.87719447015E+02 0.  0.
          2    1    3    3  502    0  0.20930351609E+02 -0.25202315197E+02  0.15642772915E+03  0.15982137140E+03  0.00000000000E+00 0. -1.
         -2    1    3    3    0  502 -0.20930351609E+02  0.25202315197E+02  0.23395965724E+02  0.40256769890E+02  0.00000000000E+00 0.  1.
<mgrwt>
<rscale>  0 0.87719447E+02</rscale>
<asrwt>0</asrwt>
<pdfrwt beam="2">  1        3 0.15580345E-02 0.87719447E+02</pdfrwt>
<pdfrwt beam="1">  1       -3 0.29223216E-01 0.87719447E+02</pdfrwt>
<totfact> 0.31613552E+04</totfact>
</mgrwt>
</event>
<event>
 5    1  0.4059427E+001  0.9147878E+02  0.7546771E-02  0.1299310E+00
         -4   -1    0    0    0  501 -0.00000000000E+00  0.00000000000E+00  0.17668069115E+03  0.17668069115E+03  0.00000000000E+00 0.  1.
          4   -1    0    0  501    0  0.00000000000E+00 -0.00000000000E+00 -0.11841088541E+02  0.11841088541E+02  0.00000000000E+00 0. -1.
         23    2    1    2    0    0  0.00000000000E+00  0.00000000000E+00  0.16483960261E+03  0.18852177969E+03  0.91478778029E+02 0.  0.
          2    1    3    3  502    0 -0.35749704323E+02 -0.24214621118E+02  0.51322331893E+02  0.67069896272E+02  0.00000000000E+00 0. -1.
         -2    1    3    3    0  502  0.35749704323E+02  0.24214621118E+02  0.11351727072E+03  0.12145188342E+03  0.00000000000E+00 0.  1.
<mgrwt>
<rscale>  0 0.91478778E+02</rscale>
<asrwt>0</asrwt>
<pdfrwt beam="2">  1        4 0.18217061E-02 0.91478778E+02</pdfrwt>
<pdfrwt beam="1">  1       -4 0.27181643E-01 0.91478778E+02</pdfrwt>
<totfact> 0.21682095E+04</totfact>
</mgrwt>
</event>
<event>
 5    1  0.4059427E+001  0.9073904E+02  0.7546771E-02  0.1301072E+00
          1   -1    0    0  501    0  0.00000000000E+00  0.00000000000E+00  0.12574252828E+04  0.12574252828E+04  0.00000000000E+00 0. -1.
         -1   -1    0    0    0  501 -0.00000000000E+00 -0.00000000000E+00 -0.16369907550E+01  0.16369907550E+01  0.00000000000E+00 0.  1.
         23    2    1    2    0    0  0.00000000000E+00  0.00000000000E+00  0.12557882920E+04  0.12590622735E+04  0.90739044804E+02 0.  0.
          2    1    3    3  502    0 -0.37532522722E+02 -0.24820438571E+02  0.54740451627E+03  0.54925080688E+03  0.00000000000E+00 0. -1.
         -2    1    3    3    0  502  0.37532522722E+02  0.24820438571E+02  0.70838377575E+03  0.70981146664E+03  0.00000000000E+00 0.  1.
<mgrwt>
<rscale>  0 0.90739045E+02</rscale>
<asrwt>0</asrwt>
<pdfrwt beam="1">  1        1 0.19344927E+00 0.90739045E+02</pdfrwt>
<pdfrwt beam="2">  1       -1 0.25184574E-03 0.90739045E+02</pdfrwt>
<totfact> 0.12594615E+05</totfact>
</mgrwt>
</event>
<event>
 5    1  0.4059427E+001  0.9202179E+02  0.7546771E-02  0.1298028E+00
          4   -1    0    0  501    0  0.00000000000E+00  0.00000000000E+00  0.12313033101E+02  0.12313033101E+02  0.00000000000E+00 0. -1.
         -4   -1    0    0    0  501 -0.00000000000E+00 -0.00000000000E+00 -0.17193182955E+03  0.17193182955E+03  0.00000000000E+00 0.  1.
         23    2    1    2    0    0  0.00000000000E+00  0.00000000000E+00 -0.15961879645E+03  0.18424486265E+03  0.92021786735E+02 0.  0.
          2    1    3    3  502    0 -0.10577494141E+02 -0.44249774152E+02 -0.93546857276E+02  0.10402374922E+03  0.00000000000E+00 0.  1.
         -2    1    3    3    0  502  0.10577494141E+02  0.44249774152E+02 -0.66071939175E+02  0.80221113437E+02  0.00000000000E+00 0. -1.
<mgrwt>
<rscale>  0 0.92021787E+02</rscale>
<asrwt>0</asrwt>
<pdfrwt beam="1">  1        4 0.18943130E-02 0.92021787E+02</pdfrwt>
<pdfrwt beam="2">  1       -4 0.26451048E-01 0.92021787E+02</pdfrwt>
<totfact> 0.21522436E+04</totfact>
</mgrwt>
</event>
<event>
 5    1  0.4059427E+001  0.8496877E+02  0.7546771E-02  0.1315514E+00
          3   -1    0    0  501    0  0.00000000000E+00  0.00000000000E+00  0.24317291297E+03  0.24317291297E+03  0.00000000000E+00 0. -1.
         -3   -1    0    0    0  501 -0.00000000000E+00 -0.00000000000E+00 -0.74223848211E+01  0.74223848211E+01  0.00000000000E+00 0.  1.
         23    2    1    2    0    0  0.00000000000E+00  0.00000000000E+00  0.23575052815E+03  0.25059529779E+03  0.84968769277E+02 0.  0.
          2    1    3    3  502    0 -0.34448864242E+02 -0.16352799657E+02  0.17311274571E+03  0.17726297141E+03  0.00000000000E+00 0. -1.
         -2    1    3    3    0  502  0.34448864242E+02  0.16352799657E+02  0.62637782434E+02  0.73332326381E+02  0.00000000000E+00 0.  1.
<mgrwt>
<rscale>  0 0.84968769E+02</rscale>
<asrwt>0</asrwt>
<pdfrwt beam="1">  1        3 0.37411211E-01 0.84968769E+02</pdfrwt>
<pdfrwt beam="2">  1       -3 0.11419055E-02 0.84968769E+02</pdfrwt>
<totfact> 0.31492604E+04</totfact>
</mgrwt>
</event>
<event>
 5    1  0.4059427E+001  0.8940692E+02  0.7546771E-02  0.1304294E+00
          2   -1    0    0  501    0  0.00000000000E+00  0.00000000000E+00  0.42354163211E+03  0.42354163211E+03  0.00000000000E+00 0. -1.
         -2   -1    0    0    0  501 -0.00000000000E+00 -0.00000000000E+00 -0.47183065005E+01  0.47183065005E+01  0.00000000000E+00 0.  1.
         23    2    1    2    0    0  0.00000000000E+00  0.00000000000E+00  0.41882332561E+03  0.42825993861E+03  0.89406917764E+02 0.  0.
          2    1    3    3  502    0 -0.12948462304E+02  0.27320819821E+02  0.36714116457E+03  0.36838393639E+03  0.00000000000E+00 0. -1.
         -2    1    3    3    0  502  0.12948462304E+02 -0.27320819821E+02  0.51682161043E+02  0.59876002220E+02  0.00000000000E+00 0.  1.
<mgrwt>
<rscale>  0 0.89406918E+02</rscale>
<asrwt>0</asrwt>
<pdfrwt beam="1">  1        2 0.65160221E-01 0.89406918E+02</pdfrwt>
<pdfrwt beam="2">  1       -2 0.72589364E-03 0.89406918E+02</pdfrwt>
<totfact> 0.21456815E+05</totfact>
</mgrwt>
</event>
<event>
 5    1  0.4059427E+001  0.8624327E+02  0.7546771E-02  0.1312213E+00
          1   -1    0    0  501    0  0.00000000000E+00  0.00000000000E+00  0.38874307353E+01  0.38874307353E+01  0.00000000000E+00 0. -1.
         -1   -1    0    0    0  501 -0.00000000000E+00 -0.00000000000E+00 -0.47833018482E+03  0.47833018482E+03  0.00000000000E+00 0.  1.
         23    2    1    2    0    0  0.00000000000E+00  0.00000000000E+00 -0.47444275409E+03  0.48221761556E+03  0.86243271322E+02 0.  0.
          2    1    3    3  502    0  0.16150523444E+02 -0.39573388956E+02 -0.20530504378E+03  0.20970706598E+03  0.00000000000E+00 0. -1.
         -2    1    3    3    0  502 -0.16150523444E+02  0.39573388956E+02 -0.26913771031E+03  0.27251054958E+03  0.00000000000E+00 0.  1.
<mgrwt>
<rscale>  0 0.86243271E+02</rscale>
<asrwt>0</asrwt>
<pdfrwt beam="1">  1        1 0.59806645E-03 0.86243271E+02</pdfrwt>
<pdfrwt beam="2">  1       -1 0.73589237E-01 0.86243271E+02</pdfrwt>
<totfact> 0.55888531E+04</totfact>
</mgrwt>
</event>
<event>
 5    1  0.4059427E+001  0.8928389E+02  0.7546771E-02  0.1304595E+00
          3   -1    0    0  501    0  0.00000000000E+00  0.00000000000E+00  0.51863222639E+01  0.51863222639E+01  0.00000000000E+00 0. -1.
         -3   -1    0    0    0  501 -0.00000000000E+00 -0.00000000000E+00 -0.38426138731E+03  0.38426138731E+03  0.00000000000E+00 0.  1.
         23    2    1    2    0    0  0.00000000000E+00  0.00000000000E+00 -0.37907506505E+03  0.38944770957E+03  0.89283893019E+02 0.  0.
          2    1    3    3  502    0 -0.34884808377E+02 -0.23722120063E+02 -0.12584559550E+03  0.13272830422E+03  0.00000000000E+00 0. -1.
         -2    1    3    3    0  502  0.34884808377E+02  0.23722120063E+02 -0.25322946955E+03  0.25671940535E+03  0.00000000000E+00 0.  1.
<mgrwt>
<rscale>  0 0.89283893E+02</rscale>
<asrwt>0</asrwt>
<pdfrwt beam="1">  1        3 0.79789548E-03 0.89283893E+02</pdfrwt>
<pdfrwt beam="2">  1       -3 0.59117156E-01 0.89283893E+02</pdfrwt>
<totfact> 0.22128494E+04</totfact>
</mgrwt>
</event>
<event>
 5    1  0.4059427E+001  0.9098660E+02  0.7546771E-02  0.1300480E+00
         -2   -1    0    0    0  501 -0.00000000000E+00  0.00000000000E+00  0.29586851752E+02  0.29586851752E+02  0.00000000000E+00 0. -1.
          2   -1    0    0  501    0  0.00000000000E+00 -0.00000000000E+00 -0.69951346688E+02  0.69951346688E+02  0.00000000000E+00 0.  1.
         23    2    1    2    0    0  0.00000000000E+00  0.00000000000E+00 -0.40364494936E+02  0.99538198440E+02  0.90986595152E+02 0.  0.
          2    1    3    3  502    0 -0.41595575911E+02 -0.16506214981E+02 -0.11228037847E+02  0.46138009301E+02  0.00000000000E+00 0. -1.
         -2    1    3    3    0  502  0.41595575911E+02  0.16506214981E+02 -0.29136457088E+02  0.53400189139E+02  0.00000000000E+00 0.  1.
<mgrwt>
<rscale>  0 0.90986595E+02</rscale>
<asrwt>0</asrwt>
<pdfrwt beam="2">  1        2 0.10761745E-01 0.90986595E+02</pdfrwt>
<pdfrwt beam="1">  1       -2 0.45518234E-02 0.90986595E+02</pdfrwt>
<totfact> 0.11124663E+05</totfact>
</mgrwt>
</event>
<event>
 5    1  0.4059427E+001  0.8634325E+02  0.7546771E-02  0.1311957E+00
         -1   -1    0    0    0  501 -0.00000000000E+00  0.00000000000E+00  0.74468012997E+01  0.74468012997E+01  0.00000000000E+00 0.  1.
          1   -1    0    0  501    0  0.00000000000E+00 -0.00000000000E+00 -0.25028050028E+03  0.25028050028E+03  0.00000000000E+00 0. -1.
         23    2    1    2    0    0  0.00000000000E+00  0.00000000000E+00 -0.24283369898E+03  0.25772730157E+03  0.86343248832E+02 0.  0.
          2    1    3    3  502    0  0.43081091720E+02  0.26693160697E+01 -0.12388449676E+03  0.13118869711E+03  0.00000000000E+00 0. -1.
         -2    1    3    3    0  502 -0.43081091720E+02 -0.26693160697E+01 -0.11894920221E+03  0.12653860446E+03  0.00000000000E+00 0.  1.
<mgrwt>
<rscale>  0 0.86343249E+02</rscale>
<asrwt>0</asrwt>
<pdfrwt beam="2">  1        1 0.38504684E-01 0.86343249E+02</pdfrwt>
<pdfrwt beam="1">  1       -1 0.11456620E-02 0.86343249E+02</pdfrwt>
<totfact> 0.14300073E+05</totfact>
</mgrwt>
</event>
<event>
 5    1  0.4059427E+001  0.9107987E+02  0.7546771E-02  0.1300258E+00
         -2   -1    0    0    0  501 -0.00000000000E+00  0.00000000000E+00  0.11349268460E+01  0.11349268460E+01  0.00000000000E+00 0.  1.
          2   -1    0    0  501    0  0.00000000000E+00 -0.00000000000E+00 -0.18273298597E+04  0.18273298597E+04  0.00000000000E+00 0. -1.
         23    2    1    2    0    0  0.00000000000E+00  0.00000000000E+00 -0.18261949328E+04  0.18284647865E+04  0.91079870755E+02 0.  0.
          2    1    3    3  502    0 -0.35535538069E+02  0.27774241467E+02 -0.10395928104E+04  0.10405707061E+04  0.00000000000E+00 0. -1.
         -2    1    3    3    0  502  0.35535538069E+02 -0.27774241467E+02 -0.78660212239E+03  0.78789408038E+03  0.00000000000E+00 0.  1.
<mgrwt>
<rscale>  0 0.91079871E+02</rscale>
<asrwt>0</asrwt>
<pdfrwt beam="2">  1        2 0.28112489E+00 0.91079871E+02</pdfrwt>
<pdfrwt beam="1">  1       -2 0.17460586E-03 0.91079871E+02</pdfrwt>
<totfact> 0.21264689E+05</totfact>
</mgrwt>
</event>
<event>
 5    1  0.4059427E+001  0.8987063E+02  0.7546771E-02  0.1303165E+00
         -1   -1    0    0    0  501 -0.00000000000E+00  0.00000000000E+00  0.37160336072E+01  0.37160336072E+01  0.00000000000E+00 0.  1.
          1   -1    0    0  501    0  0.00000000000E+00 -0.00000000000E+00 -0.54337038746E+03  0.54337038746E+03  0.00000000000E+00 0. -1.
         23    2    1    2    0    0  0.00000000000E+00  0.00000000000E+00 -0.53965435386E+03  0.54708642107E+03  0.89870631932E+02 0.  0.
          2    1    3    3  502    0 -0.31687161887E+02 -0.15380053621E+02 -0.43968450156E+03  0.44109305503E+03  0.00000000000E+00 0. -1.
         -2    1    3    3    0  502  0.31687161887E+02  0.15380053621E+02 -0.99969852294E+02  0.10599336604E+03  0.00000000000E+00 0.  1.
<mgrwt>
<rscale>  0 0.89870632E+02</rscale>
<asrwt>0</asrwt>
<pdfrwt beam="2">  1        1 0.83595459E-01 0.89870632E+02</pdfrwt>
<pdfrwt beam="1">  1       -1 0.57169738E-03 0.89870632E+02</pdfrwt>
<totfact> 0.14597106E+05</totfact>
</mgrwt>
</event>
<event>
 5    1  0.4059427E+001  0.9093719E+02  0.7546771E-02  0.1300598E+00
         -4   -1    0    0    0  501 -0.00000000000E+00  0.00000000000E+00  0.20618384200E+03  0.20618384200E+03  0.00000000000E+00 0.  1.
          4   -1    0    0  501    0  0.00000000000E+00 -0.00000000000E+00 -0.10026941122E+02  0.10026941122E+02  0.00000000000E+00 0. -1.
         23    2    1    2    0    0  0.00000000000E+00  0.00000000000E+00  0.19615690088E+03  0.21621078312E+03  0.90937192478E+02 0.  0.
          2    1    3    3  502    0 -0.14685928906E+02  0.37412068189E+02  0.47527315193E+02  0.62242951757E+02  0.00000000000E+00 0. -1.
         -2    1    3    3    0  502  0.14685928906E+02 -0.37412068189E+02  0.14862958569E+03  0.15396783136E+03  0.00000000000E+00 0.  1.
<mgrwt>
<rscale>  0 0.90937192E+02</rscale>
<asrwt>0</asrwt>
<pdfrwt beam="2">  1        4 0.15426065E-02 0.90937192E+02</pdfrwt>
<pdfrwt beam="1">  1       -4 0.31720588E-01 0.90937192E+02</pdfrwt>
<totfact> 0.20873997E+04</totfact>
</mgrwt>
</event>
<event>
 5    1  0.4059427E+001  0.8706258E+02  0.7546771E-02  0.1310125E+00
          2   -1    0    0  501    0  0.00000000000E+00  0.00000000000E+00  0.25042934503E+03  0.25042934503E+03  0.00000000000E+00 0. -1.
         -2   -1    0    0    0  501 -0.00000000000E+00 -0.00000000000E+00 -0.75668973723E+01  0.75668973723E+01  0.00000000000E+00 0.  1.
         23    2    1    2    0    0  0.00000000000E+00  0.00000000000E+00  0.24286244766E+03  0.25799624241E+03  0.87062578709E+02 0.  0.
          2    1    3    3  502    0  0.38459708568E+01  0.32459311007E+02  0.36234492665E+02  0.48798942832E+02  0.00000000000E+00 0.  1.
         -2    1    3    3    0  502 -0.38459708568E+01 -0.32459311007E+02  0.20662795500E+03  0.20919729957E+03  0.00000000000E+00 0. -1.
<mgrwt>
<rscale>  0 0.87062579E+02</rscale>
<asrwt>0</asrwt>
<pdfrwt beam="1">  1        2 0.38527585E-01 0.87062579E+02</pdfrwt>
<pdfrwt beam="2">  1       -2 0.11641382E-02 0.87062579E+02</pdfrwt>
<totfact> 0.18999954E+05</totfact>
</mgrwt>
</event>
<event>
 5    1  0.4059427E+001  0.9121894E+02  0.7546771E-02  0.1299926E+00
          2   -1    0    0  501    0  0.00000000000E+00  0.00000000000E+00  0.27010837597E+04  0.27010837597E+04  0.00000000000E+00 0.  1.
         -2   -1    0    0    0  501 -0.00000000000E+00 -0.00000000000E+00 -0.77014411888E+00  0.77014411888E+00  0.00000000000E+00 0. -1.
         23    2    1    2    0    0  0.00000000000E+00  0.00000000000E+00  0.27003136155E+04  0.27018539038E+04  0.91218940404E+02 0.  0.
          2    1    3    3  502    0  0.36338312674E+02  0.24968463364E+02  0.16959904244E+04  0.16965634137E+04  0.00000000000E+00 0.  1.
         -2    1    3    3    0  502 -0.36338312674E+02 -0.24968463364E+02  0.10043231912E+04  0.10052904901E+04  0.00000000000E+00 0. -1.
<mgrwt>
<rscale>  0 0.91218940E+02</rscale>
<asrwt>0</asrwt>
<pdfrwt beam="1">  1        2 0.41554377E+00 0.91218940E+02</pdfrwt>
<pdfrwt beam="2">  1       -2 0.11848587E-03 0.91218940E+02</pdfrwt>
<totfact> 0.12900436E+05</totfact>
</mgrwt>
</event>
<event>
 5    1  0.4059427E+001  0.8639598E+02  0.7546771E-02  0.1311822E+00
          2   -1    0    0  501    0  0.00000000000E+00  0.00000000000E+00  0.25345153981E+03  0.25345153981E+03  0.00000000000E+00 0. -1.
         -2   -1    0    0    0  501 -0.00000000000E+00 -0.00000000000E+00 -0.73626163605E+01  0.73626163605E+01  0.00000000000E+00 0.  1.
         23    2    1    2    0    0  0.00000000000E+00  0.00000000000E+00  0.24608892345E+03  0.26081415618E+03  0.86395982630E+02 0.  0.
          2    1    3    3  502    0  0.40132907890E+02 -0.89066395442E+01  0.16310367403E+03  0.16820459865E+03  0.00000000000E+00 0. -1.
         -2    1    3    3    0  502 -0.40132907890E+02  0.89066395442E+01  0.82985249426E+02  0.92609557530E+02  0.00000000000E+00 0.  1.
<mgrwt>
<rscale>  0 0.86395983E+02</rscale>
<asrwt>0</asrwt>
<pdfrwt beam="1">  1        2 0.38992538E-01 0.86395983E+02</pdfrwt>
<pdfrwt beam="2">  1       -2 0.11327104E-02 0.86395983E+02</pdfrwt>
<totfact> 0.19478244E+05</totfact>
</mgrwt>
</event>
<event>
 5    1  0.4059427E+001  0.9082643E+02  0.7546771E-02  0.1300863E+00
         -3   -1    0    0    0  501 -0.00000000000E+00  0.00000000000E+00  0.39030216667E+02  0.39030216667E+02  0.00000000000E+00 0.  1.
          3   -1    0    0  501    0  0.00000000000E+00 -0.00000000000E+00 -0.52840084708E+02  0.52840084708E+02  0.00000000000E+00 0. -1.
         23    2    1    2    0    0  0.00000000000E+00  0.00000000000E+00 -0.13809868041E+02  0.91870301375E+02  0.90826426878E+02 0.  0.
          2    1    3    3  502    0 -0.26666459248E+02  0.81236906346E+01 -0.43167567992E+02  0.51386119961E+02  0.00000000000E+00 0. -1.
         -2    1    3    3    0  502  0.26666459248E+02 -0.81236906346E+01  0.29357699951E+02  0.40484181414E+02  0.00000000000E+00 0.  1.
<mgrwt>
<rscale>  0 0.90826427E+02</rscale>
<asrwt>0</asrwt>
<pdfrwt beam="2">  1        3 0.81292438E-02 0.90826427E+02</pdfrwt>
<pdfrwt beam="1">  1       -3 0.60046487E-02 0.90826427E+02</pdfrwt>
<totfact> 0.35657513E+04</totfact>
</mgrwt>
</event>
<event>
 5    1  0.4059427E+001  0.9065033E+02  0.7546771E-02  0.1301284E+00
          2   -1    0    0  501    0  0.00000000000E+00  0.00000000000E+00  0.21619395750E+03  0.21619395750E+03  0.00000000000E+00 0.  1.
         -2   -1    0    0    0  501 -0.00000000000E+00 -0.00000000000E+00 -0.95024430327E+01  0.95024430327E+01  0.00000000000E+00 0. -1.
         23    2    1    2    0    0  0.00000000000E+00  0.00000000000E+00  0.20669151447E+03  0.22569640053E+03  0.90650334035E+02 0.  0.
          2    1    3    3  502    0  0.23327203135E+02  0.30118810518E+02  0.42203854920E+02  0.56854784524E+02  0.00000000000E+00 0. -1.
         -2    1    3    3    0  502 -0.23327203135E+02 -0.30118810518E+02  0.16448765955E+03  0.16884161601E+03  0.00000000000E+00 0.  1.
<mgrwt>
<rscale>  0 0.90650334E+02</rscale>
<asrwt>0</asrwt>
<pdfrwt beam="1">  1        2 0.33260605E-01 0.90650334E+02</pdfrwt>
<pdfrwt beam="2">  1       -2 0.14619145E-02 0.90650334E+02</pdfrwt>
<totfact> 0.16161508E+05</totfact>
</mgrwt>
</event>
<event>
 5    1  0.4059427E+001  0.8731633E+02  0.7546771E-02  0.1309484E+00
          2   -1    0    0  501    0  0.00000000000E+00  0.00000000000E+00  0.22132210922E+03  0.22132210922E+03  0.00000000000E+00 0. -1.
         -2   -1    0    0    0  501 -0.00000000000E+00 -0.00000000000E+00 -0.86120432361E+01  0.86120432361E+01  0.00000000000E+00 0.  1.
         23    2    1    2    0    0  0.00000000000E+00  0.00000000000E+00  0.21271006599E+03  0.22993415246E+03  0.87316334640E+02 0.  0.
          2    1    3    3  502    0  0.19089496215E+02  0.13170293148E+02  0.89507550603E+01  0.24859233767E+02  0.00000000000E+00 0.  1.
         -2    1    3    3    0  502 -0.19089496215E+02 -0.13170293148E+02  0.20375931093E+03  0.20507491869E+03  0.00000000000E+00 0. -1.
<mgrwt>
<rscale>  0 0.87316335E+02</rscale>
<asrwt>0</asrwt>
<pdfrwt beam="1">  1        2 0.34049551E-01 0.87316335E+02</pdfrwt>
<pdfrwt beam="2">  1       -2 0.13249299E-02 0.87316335E+02</pdfrwt>
<totfact> 0.18019972E+05</totfact>
</mgrwt>
</event>
<event>
 5    1  0.4059427E+001  0.8994632E+02  0.7546771E-02  0.1302982E+00
         -2   -1    0    0    0  501 -0.00000000000E+00  0.00000000000E+00  0.10993994356E+02  0.10993994356E+02  0.00000000000E+00 0. -1.
          2   -1    0    0  501    0  0.00000000000E+00 -0.00000000000E+00 -0.18397182017E+03  0.18397182017E+03  0.00000000000E+00 0.  1.
         23    2    1    2    0    0  0.00000000000E+00  0.00000000000E+00 -0.17297782582E+03  0.19496581453E+03  0.89946320717E+02 0.  0.
          2    1    3    3  502    0 -0.36548893389E+02 -0.58748768931E+01 -0.31130720826E+02  0.48367939440E+02  0.00000000000E+00 0. -1.
         -2    1    3    3    0  502  0.36548893389E+02  0.58748768931E+01 -0.14184710499E+03  0.14659787509E+03  0.00000000000E+00 0.  1.
<mgrwt>
<rscale>  0 0.89946321E+02</rscale>
<asrwt>0</asrwt>
<pdfrwt beam="2">  1        2 0.28303356E-01 0.89946321E+02</pdfrwt>
<pdfrwt beam="1">  1       -2 0.16913838E-02 0.89946321E+02</pdfrwt>
<totfact> 0.15570489E+05</totfact>
</mgrwt>
</event>
<event>
 5    1  0.4059427E+001  0.9178740E+02  0.7546771E-02  0.1298580E+00
          1   -1    0    0  501    0  0.00000000000E+00  0.00000000000E+00  0.27370124699E+04  0.27370124699E+04  0.00000000000E+00 0. -1.
         -1   -1    0    0    0  501 -0.00000000000E+00 -0.00000000000E+00 -0.76953678882E+00  0.76953678882E+00  0.00000000000E+00 0.  1.
         23    2    1    2    0    0  0.00000000000E+00  0.00000000000E+00  0.27362429331E+04  0.27377820067E+04  0.91787401903E+02 0.  0.
          2    1    3    3  502    0 -0.34184035905E+02 -0.26162706631E+02  0.18427397118E+04  0.18432424368E+04  0.00000000000E+00 0.  1.
         -2    1    3    3    0  502  0.34184035905E+02  0.26162706631E+02  0.89350322134E+03  0.89453956988E+03  0.00000000000E+00 0. -1.
<mgrwt>
<rscale>  0 0.91787402E+02</rscale>
<asrwt>0</asrwt>
<pdfrwt beam="1">  1        1 0.42107105E+00 0.91787402E+02</pdfrwt>
<pdfrwt beam="2">  1       -1 0.11839247E-03 0.91787402E+02</pdfrwt>
<totfact> 0.40808604E+04</totfact>
</mgrwt>
</event>
<event>
 5    1  0.4059427E+001  0.9222290E+02  0.7546771E-02  0.1297556E+00
         -2   -1    0    0    0  501 -0.00000000000E+00  0.00000000000E+00  0.11399503979E+02  0.11399503979E+02  0.00000000000E+00 0.  1.
          2   -1    0    0  501    0  0.00000000000E+00 -0.00000000000E+00 -0.18652266918E+03  0.18652266918E+03  0.00000000000E+00 0. -1.
         23    2    1    2    0    0  0.00000000000E+00  0.00000000000E+00 -0.17512316520E+03  0.19792217316E+03  0.92222901914E+02 0.  0.
          2    1    3    3  502    0 -0.13465844553E+02  0.30992676790E+02 -0.20226799146E+02  0.39382716867E+02  0.00000000000E+00 0.  1.
         -2    1    3    3    0  502  0.13465844553E+02 -0.30992676790E+02 -0.15489636605E+03  0.15853945629E+03  0.00000000000E+00 0. -1.
<mgrwt>
<rscale>  0 0.92222902E+02</rscale>
<asrwt>0</asrwt>
<pdfrwt beam="2">  1        2 0.28695794E-01 0.92222902E+02</pdfrwt>
<pdfrwt beam="1">  1       -2 0.17537699E-02 0.92222902E+02</pdfrwt>
<totfact> 0.14627019E+05</totfact>
</mgrwt>
</event>
<event>
 5    1  0.4059427E+001  0.8674905E+02  0.7546771E-02  0.1310921E+00
         -2   -1    0    0    0  501 -0.00000000000E+00  0.00000000000E+00  0.18232931125E+01  0.18232931125E+01  0.00000000000E+00 0. -1.
          2   -1    0    0  501    0  0.00000000000E+00 -0.00000000000E+00 -0.10318414486E+04  0.10318414486E+04  0.00000000000E+00 0.  1.
         23    2    1    2    0    0  0.00000000000E+00  0.00000000000E+00 -0.10300181555E+04  0.10336647418E+04  0.86749049713E+02 0.  0.
          2    1    3    3  502    0  0.11314435765E+01  0.23254882201E+02 -0.78944691339E+02  0.82306342413E+02  0.00000000000E+00 0. -1.
         -2    1    3    3    0  502 -0.11314435765E+01 -0.23254882201E+02 -0.95107346420E+03  0.95135839935E+03  0.00000000000E+00 0.  1.
<mgrwt>
<rscale>  0 0.86749050E+02</rscale>
<asrwt>0</asrwt>
<pdfrwt beam="2">  1        2 0.15874486E+00 0.86749050E+02</pdfrwt>
<pdfrwt beam="1">  1       -2 0.28050660E-03 0.86749050E+02</pdfrwt>
<totfact> 0.28522072E+05</totfact>
</mgrwt>
</event>
<event>
 5    1  0.4059427E+001  0.9131895E+02  0.7546771E-02  0.1299689E+00
         -1   -1    0    0    0  501 -0.00000000000E+00  0.00000000000E+00  0.39100086034E+03  0.39100086034E+03  0.00000000000E+00 0.  1.
          1   -1    0    0  501    0  0.00000000000E+00 -0.00000000000E+00 -0.53319258143E+01  0.53319258143E+01  0.00000000000E+00 0. -1.
         23    2    1    2    0    0  0.00000000000E+00  0.00000000000E+00  0.38566893453E+03  0.39633278616E+03  0.91318948322E+02 0.  0.
          2    1    3    3  502    0  0.41031348368E+02  0.20030356659E+02  0.19270838851E+03  0.19804370664E+03  0.00000000000E+00 0.  1.
         -2    1    3    3    0  502 -0.41031348368E+02 -0.20030356659E+02  0.19296054602E+03  0.19828907952E+03  0.00000000000E+00 0. -1.
<mgrwt>
<rscale>  0 0.91318948E+02</rscale>
<asrwt>0</asrwt>
<pdfrwt beam="2">  1        1 0.82029658E-03 0.91318948E+02</pdfrwt>
<pdfrwt beam="1">  1       -1 0.60153956E-01 0.91318948E+02</pdfrwt>
<totfact> 0.53680181E+04</totfact>
</mgrwt>
</event>
<event>
 5    1  0.4059427E+001  0.8997336E+02  0.7546771E-02  0.1302916E+00
          1   -1    0    0  501    0  0.00000000000E+00  0.00000000000E+00  0.94128203274E+03  0.94128203274E+03  0.00000000000E+00 0. -1.
         -1   -1    0    0    0  501 -0.00000000000E+00 -0.00000000000E+00 -0.21500478425E+01  0.21500478425E+01  0.00000000000E+00 0.  1.
         23    2    1    2    0    0  0.00000000000E+00  0.00000000000E+00  0.93913198490E+03  0.94343208059E+03  0.89973360583E+02 0.  0.
          2    1    3    3  502    0 -0.27589240653E+02 -0.25174441977E+02  0.73252104089E+03  0.73347255850E+03  0.00000000000E+00 0. -1.
         -2    1    3    3    0  502  0.27589240653E+02  0.25174441977E+02  0.20661094401E+03  0.20995952208E+03  0.00000000000E+00 0.  1.
<mgrwt>
<rscale>  0 0.89973361E+02</rscale>
<asrwt>0</asrwt>
<pdfrwt beam="1">  1        1 0.14481229E+00 0.89973361E+02</pdfrwt>
<pdfrwt beam="2">  1       -1 0.33077734E-03 0.89973361E+02</pdfrwt>
<totfact> 0.14291532E+05</totfact>
</mgrwt>
</event>
<event>
 4    1  0.4059427E+001  0.4495943E+02  0.7546771E-02  0.1474595E+00
          4   -1    0    0  501    0  0.00000000000E+00  0.00000000000E+00  0.21671337366E+03  0.21671337366E+03  0.00000000000E+00 0. -1.
         -4   -1    0    0    0  501 -0.00000000000E+00 -0.00000000000E+00 -0.23318242490E+01  0.23318242490E+01  0.00000000000E+00 0.  1.
          2    1    1    2  502    0 -0.22467047140E+02  0.22906451662E+00  0.11069331790E+03  0.11295057019E+03  0.00000000000E+00 0. -1.
         -2    1    1    2    0  502  0.22467047140E+02 -0.22906451662E+00  0.10368823151E+03  0.10609462772E+03  0.00000000000E+00 0.  1.
<mgrwt>
<rscale>  0 0.44959426E+02</rscale>
<asrwt>0</asrwt>
<pdfrwt beam="1">  1        4 0.33340503E-01 0.44959426E+02</pdfrwt>
<pdfrwt beam="2">  1       -4 0.35874237E-03 0.44959426E+02</pdfrwt>
<totfact> 0.12362361E+05</totfact>
</mgrwt>
</event>
<event>
 5    1  0.4059427E+001  0.9132274E+02  0.7546771E-02  0.1299680E+00
          2   -1    0    0  501    0  0.00000000000E+00  0.00000000000E+00  0.45113760513E+03  0.45113760513E+03  0.00000000000E+00 0. -1.
         -2   -1    0    0    0  501 -0.00000000000E+00 -0.00000000000E+00 -0.46215623742E+01  0.46215623742E+01  0.00000000000E+00 0.  1.
         23    2    1    2    0    0  0.00000000000E+00  0.00000000000E+00  0.44651604275E+03  0.45575916750E+03  0.91322737179E+02 0.  0.
          2    1    3    3  502    0  0.23535540312E+02  0.32065717650E+02  0.33516740701E+03  0.33751936630E+03  0.00000000000E+00 0. -1.
         -2    1    3    3    0  502 -0.23535540312E+02 -0.32065717650E+02  0.11134863575E+03  0.11823980120E+03  0.00000000000E+00 0.  1.
<mgrwt>
<rscale>  0 0.91322737E+02</rscale>
<asrwt>0</asrwt>
<pdfrwt beam="1">  1        2 0.69405751E-01 0.91322737E+02</pdfrwt>
<pdfrwt beam="2">  1       -2 0.71100995E-03 0.91322737E+02</pdfrwt>
<totfact> 0.20733912E+05</totfact>
</mgrwt>
</event>
<event>
 5    1  0.4059427E+001  0.9005647E+02  0.7546771E-02  0.1302715E+00
         -1   -1    0    0    0  501 -0.00000000000E+00  0.00000000000E+00  0.46969094830E+02  0.46969094830E+02  0.00000000000E+00 0.  1.
          1   -1    0    0  501    0  0.00000000000E+00 -0.00000000000E+00 -0.43167573324E+02  0.43167573324E+02  0.00000000000E+00 0. -1.
         23    2    1    2    0    0  0.00000000000E+00  0.00000000000E+00  0.38015215061E+01  0.90136668153E+02  0.90056467730E+02 0.  0.
          2    1    3    3  502    0 -0.44433969642E+02 -0.61571957152E+01 -0.20082426332E+01  0.44903471532E+02  0.00000000000E+00 0. -1.
         -2    1    3    3    0  502  0.44433969642E+02  0.61571957152E+01  0.58097641392E+01  0.45233196621E+02  0.00000000000E+00 0.  1.
<mgrwt>
<rscale>  0 0.90056468E+02</rscale>
<asrwt>0</asrwt>
<pdfrwt beam="2">  1        1 0.66411651E-02 0.90056468E+02</pdfrwt>
<pdfrwt beam="1">  1       -1 0.72260146E-02 0.90056468E+02</pdfrwt>
<totfact> 0.94957074E+04</totfact>
</mgrwt>
</event>
<event>
 5    1  0.4059427E+001  0.9062930E+02  0.7546771E-02  0.1301335E+00
         -3   -1    0    0    0  501 -0.00000000000E+00  0.00000000000E+00  0.73327365342E+02  0.73327365342E+02  0.00000000000E+00 0.  1.
          3   -1    0    0  501    0  0.00000000000E+00 -0.00000000000E+00 -0.28003424872E+02  0.28003424872E+02  0.00000000000E+00 0. -1.
         23    2    1    2    0    0  0.00000000000E+00  0.00000000000E+00  0.45323940470E+02  0.10133079021E+03  0.90629296951E+02 0.  0.
          2    1    3    3  502    0 -0.11160397879E+02 -0.33802935476E+02  0.54012586918E+02  0.64688116940E+02  0.00000000000E+00 0.  1.
         -2    1    3    3    0  502  0.11160397879E+02  0.33802935476E+02 -0.86886464485E+01  0.36642673275E+02  0.00000000000E+00 0. -1.
<mgrwt>
<rscale>  0 0.90629297E+02</rscale>
<asrwt>0</asrwt>
<pdfrwt beam="2">  1        3 0.43082193E-02 0.90629297E+02</pdfrwt>
<pdfrwt beam="1">  1       -3 0.11281133E-01 0.90629297E+02</pdfrwt>
<totfact> 0.35144935E+04</totfact>
</mgrwt>
</event>
<event>
 5    1  0.4059427E+001  0.8903534E+02  0.7546771E-02  0.1305205E+00
         -3   -1    0    0    0  501 -0.00000000000E+00  0.00000000000E+00  0.15273763015E+02  0.15273763015E+02  0.00000000000E+00 0. -1.
          3   -1    0    0  501    0  0.00000000000E+00 -0.00000000000E+00 -0.12975341106E+03  0.12975341106E+03  0.00000000000E+00 0.  1.
         23    2    1    2    0    0  0.00000000000E+00  0.00000000000E+00 -0.11447964805E+03  0.14502717408E+03  0.89035337948E+02 0.  0.
          2    1    3    3  502    0  0.12544516788E+02  0.21542546187E+02  0.28383269799E+01  0.25089884370E+02  0.00000000000E+00 0. -1.
         -2    1    3    3    0  502 -0.12544516788E+02 -0.21542546187E+02 -0.11731797503E+03  0.11993728971E+03  0.00000000000E+00 0.  1.
<mgrwt>
<rscale>  0 0.89035338E+02</rscale>
<asrwt>0</asrwt>
<pdfrwt beam="2">  1        3 0.19962063E-01 0.89035338E+02</pdfrwt>
<pdfrwt beam="1">  1       -3 0.23498097E-02 0.89035338E+02</pdfrwt>
<totfact> 0.33710453E+04</totfact>
</mgrwt>
</event>
<event>
 5    1  0.4059427E+001  0.8629513E+02  0.7546771E-02  0.1312080E+00
          1   -1    0    0  501    0  0.00000000000E+00  0.00000000000E+00  0.36367715768E+01  0.36367715768E+01  0.00000000000E+00 0. -1.
         -1   -1    0    0    0  501 -0.00000000000E+00 -0.00000000000E+00 -0.51191346560E+03  0.51191346560E+03  0.00000000000E+00 0.  1.
         23    2    1    2    0    0  0.00000000000E+00  0.00000000000E+00 -0.50827669402E+03  0.51555023718E+03  0.86295129444E+02 0.  0.
          2    1    3    3  502    0  0.29020952810E+02 -0.82627636130E+00 -0.63446494114E+02  0.69773605683E+02  0.00000000000E+00 0. -1.
         -2    1    3    3    0  502 -0.29020952810E+02  0.82627636130E+00 -0.44483019991E+03  0.44577663149E+03  0.00000000000E+00 0.  1.
<mgrwt>
<rscale>  0 0.86295129E+02</rscale>
<asrwt>0</asrwt>
<pdfrwt beam="1">  1        1 0.55950332E-03 0.86295129E+02</pdfrwt>
<pdfrwt beam="2">  1       -1 0.78755918E-01 0.86295129E+02</pdfrwt>
<totfact> 0.53536516E+04</totfact>
</mgrwt>
</event>
<event>
 5    1  0.4059427E+001  0.9222985E+02  0.7546771E-02  0.1297540E+00
         -4   -1    0    0    0  501 -0.00000000000E+00  0.00000000000E+00  0.10184182429E+03  0.10184182429E+03  0.00000000000E+00 0.  1.
          4   -1    0    0  501    0  0.00000000000E+00 -0.00000000000E+00 -0.20881267498E+02  0.20881267498E+02  0.00000000000E+00 0. -1.
         23    2    1    2    0    0  0.00000000000E+00  0.00000000000E+00  0.80960556788E+02  0.12272309178E+03  0.92229851468E+02 0.  0.
          2    1    3    3  502    0 -0.34142942589E+02  0.28325875700E+02  0.57231888292E+02  0.72412601115E+02  0.00000000000E+00 0. -1.
         -2    1    3    3    0  502  0.34142942589E+02 -0.28325875700E+02  0.23728668496E+02  0.50310490669E+02  0.00000000000E+00 0.  1.
<mgrwt>
<rscale>  0 0.92229851E+02</rscale>
<asrwt>0</asrwt>
<pdfrwt beam="2">  1        4 0.32125028E-02 0.92229851E+02</pdfrwt>
<pdfrwt beam="1">  1       -4 0.15667973E-01 0.92229851E+02</pdfrwt>
<totfact> 0.24350138E+04</totfact>
</mgrwt>
</event>
<event>
 5    1  0.4059427E+001  0.8967387E+02  0.7546771E-02  0.1303643E+00
          1   -1    0    0  501    0  0.00000000000E+00  0.00000000000E+00  0.45646889779E+03  0.45646889779E+03  0.00000000000E+00 0. -1.
         -1   -1    0    0    0  501 -0.00000000000E+00 -0.00000000000E+00 -0.44041356901E+01  0.44041356901E+01  0.00000000000E+00 0.  1.
         23    2    1    2    0    0  0.00000000000E+00  0.00000000000E+00  0.45206476210E+03  0.46087303348E+03  0.89673874996E+02 0.  0.
          2    1    3    3  502    0  0.31575056229E+02  0.15489662016E+02  0.83100905460E+02  0.90236767969E+02  0.00000000000E+00 0.  1.
         -2    1    3    3    0  502 -0.31575056229E+02 -0.15489662016E+02  0.36896385664E+03  0.37063626552E+03  0.00000000000E+00 0. -1.
<mgrwt>
<rscale>  0 0.89673875E+02</rscale>
<asrwt>0</asrwt>
<pdfrwt beam="1">  1        1 0.70225947E-01 0.89673875E+02</pdfrwt>
<pdfrwt beam="2">  1       -1 0.67755970E-03 0.89673875E+02</pdfrwt>
<totfact> 0.14382998E+05</totfact>
</mgrwt>
</event>
<event>
 5    1  0.4059427E+001  0.8968694E+02  0.7546771E-02  0.1303612E+00
          1   -1    0    0  501    0  0.00000000000E+00  0.00000000000E+00  0.13235151034E+02  0.13235151034E+02  0.00000000000E+00 0. -1.
         -1   -1    0    0    0  501 -0.00000000000E+00 -0.00000000000E+00 -0.15193910480E+03  0.15193910480E+03  0.00000000000E+00 0.  1.
         23    2    1    2    0    0  0.00000000000E+00  0.00000000000E+00 -0.13870395376E+03  0.16517425583E+03  0.89686944422E+02 0.  0.
          2    1    3    3  502    0  0.23912429002E+02 -0.31393365983E+02 -0.10857531365E+03  0.11552465720E+03  0.00000000000E+00 0.  1.
         -2    1    3    3    0  502 -0.23912429002E+02  0.31393365983E+02 -0.30128640115E+02  0.49649598626E+02  0.00000000000E+00 0. -1.
<mgrwt>
<rscale>  0 0.89686944E+02</rscale>
<asrwt>0</asrwt>
<pdfrwt beam="1">  1        1 0.20361772E-02 0.89686944E+02</pdfrwt>
<pdfrwt beam="2">  1       -1 0.23375245E-01 0.89686944E+02</pdfrwt>
<totfact> 0.77817491E+04</totfact>
</mgrwt>
</event>
<event>
 5    1  0.4059427E+001  0.8884345E+02  0.7546771E-02  0.1305677E+00
          2   -1    0    0  501    0  0.00000000000E+00  0.00000000000E+00  0.76247722070E+03  0.76247722070E+03  0.00000000000E+00 0. -1.
         -2   -1    0    0    0  501 -0.00000000000E+00 -0.00000000000E+00 -0.25879979022E+01  0.25879979022E+01  0.00000000000E+00 0.  1.
         23    2    1    2    0    0  0.00000000000E+00  0.00000000000E+00  0.75988922280E+03  0.76506521860E+03  0.88843445401E+02 0.  0.
          2    1    3    3  502    0  0.34085373096E+02 -0.24369222502E+02  0.50697869444E+03  0.50870725204E+03  0.00000000000E+00 0. -1.
         -2    1    3    3    0  502 -0.34085373096E+02  0.24369222502E+02  0.25291052836E+03  0.25635796656E+03  0.00000000000E+00 0.  1.
<mgrwt>
<rscale>  0 0.88843445E+02</rscale>
<asrwt>0</asrwt>
<pdfrwt beam="1">  1        2 0.11730401E+00 0.88843445E+02</pdfrwt>
<pdfrwt beam="2">  1       -2 0.39815413E-03 0.88843445E+02</pdfrwt>
<totfact> 0.25862008E+05</totfact>
</mgrwt>
</event>
<event>
 5    1  0.4059427E+001  0.9221326E+02  0.7546771E-02  0.1297579E+00
         -2   -1    0    0    0  501 -0.00000000000E+00  0.00000000000E+00  0.19734949661E+01  0.19734949661E+01  0.00000000000E+00 0.  1.
          2   -1    0    0  501    0  0.00000000000E+00 -0.00000000000E+00 -0.10771860120E+04  0.10771860120E+04  0.00000000000E+00 0. -1.
         23    2    1    2    0    0  0.00000000000E+00  0.00000000000E+00 -0.10752125170E+04  0.10791595069E+04  0.92213256577E+02 0.  0.
          2    1    3    3  502    0  0.17883075532E+02 -0.21296981569E+02 -0.96798791288E+03  0.96838730129E+03  0.00000000000E+00 0. -1.
         -2    1    3    3    0  502 -0.17883075532E+02  0.21296981569E+02 -0.10722460410E+03  0.11077220563E+03  0.00000000000E+00 0.  1.
<mgrwt>
<rscale>  0 0.92213257E+02</rscale>
<asrwt>0</asrwt>
<pdfrwt beam="2">  1        2 0.16572064E+00 0.92213257E+02</pdfrwt>
<pdfrwt beam="1">  1       -2 0.30361513E-03 0.92213257E+02</pdfrwt>
<totfact> 0.24296309E+05</totfact>
</mgrwt>
</event>
<event>
 5    1  0.4059427E+001  0.8683592E+02  0.7546771E-02  0.1310700E+00
         -2   -1    0    0    0  501 -0.00000000000E+00  0.00000000000E+00  0.25210466536E+02  0.25210466536E+02  0.00000000000E+00 0.  1.
          2   -1    0    0  501    0  0.00000000000E+00 -0.00000000000E+00 -0.74775259186E+02  0.74775259186E+02  0.00000000000E+00 0. -1.
         23    2    1    2    0    0  0.00000000000E+00  0.00000000000E+00 -0.49564792650E+02  0.99985725722E+02  0.86835918132E+02 0.  0.
          2    1    3    3  502    0  0.26263001818E+02  0.43471489655E+00 -0.64589094559E+02  0.69725787034E+02  0.00000000000E+00 0. -1.
         -2    1    3    3    0  502 -0.26263001818E+02 -0.43471489655E+00  0.15024301909E+02  0.30259938688E+02  0.00000000000E+00 0.  1.
<mgrwt>
<rscale>  0 0.86835918E+02</rscale>
<asrwt>0</asrwt>
<pdfrwt beam="2">  1        2 0.11503886E-01 0.86835918E+02</pdfrwt>
<pdfrwt beam="1">  1       -2 0.38785333E-02 0.86835918E+02</pdfrwt>
<totfact> 0.12900883E+05</totfact>
</mgrwt>
</event>
<event>
 5    1  0.4059427E+001  0.9340712E+02  0.7546771E-02  0.1294804E+00
         -2   -1    0    0    0  501 -0.00000000000E+00  0.00000000000E+00  0.73435974265E+02  0.73435974265E+02  0.00000000000E+00 0. -1.
          2   -1    0    0  501    0  0.00000000000E+00 -0.00000000000E+00 -0.29702370328E+02  0.29702370328E+02  0.00000000000E+00 0.  1.
         23    2    1    2    0    0  0.00000000000E+00  0.00000000000E+00  0.43733603937E+02  0.10313834459E+03  0.93407119707E+02 0.  0.
          2    1    3    3  502    0  0.20851241321E+01  0.28983220815E+02  0.62238883171E+02  0.68688087831E+02  0.00000000000E+00 0. -1.
         -2    1    3    3    0  502 -0.20851241321E+01 -0.28983220815E+02 -0.18505279234E+02  0.34450256762E+02  0.00000000000E+00 0.  1.
<mgrwt>
<rscale>  0 0.93407120E+02</rscale>
<asrwt>0</asrwt>
<pdfrwt beam="2">  1        2 0.45695954E-02 0.93407120E+02</pdfrwt>
<pdfrwt beam="1">  1       -2 0.11297842E-01 0.93407120E+02</pdfrwt>
<totfact> 0.82095647E+04</totfact>
</mgrwt>
</event>
<event>
 5    1  0.4059427E+001  0.9226357E+02  0.7546771E-02  0.1297461E+00
         -3   -1    0    0    0  501 -0.00000000000E+00  0.00000000000E+00  0.25762582113E+02  0.25762582113E+02  0.00000000000E+00 0.  1.
          3   -1    0    0  501    0  0.00000000000E+00 -0.00000000000E+00 -0.82605907472E+02  0.82605907472E+02  0.00000000000E+00 0. -1.
         23    2    1    2    0    0  0.00000000000E+00  0.00000000000E+00 -0.56843325360E+02  0.10836848959E+03  0.92263567550E+02 0.  0.
          2    1    3    3  502    0  0.22071883363E+02 -0.38257307477E+02 -0.12779721257E+02  0.45979461567E+02  0.00000000000E+00 0. -1.
         -2    1    3    3    0  502 -0.22071883363E+02  0.38257307477E+02 -0.44063604103E+02  0.62389028018E+02  0.00000000000E+00 0.  1.
<mgrwt>
<rscale>  0 0.92263568E+02</rscale>
<asrwt>0</asrwt>
<pdfrwt beam="2">  1        3 0.12708601E-01 0.92263568E+02</pdfrwt>
<pdfrwt beam="1">  1       -3 0.39634741E-02 0.92263568E+02</pdfrwt>
<totfact> 0.32979156E+04</totfact>
</mgrwt>
</event>
<event>
 5    1  0.4059427E+001  0.8071532E+02  0.7546771E-02  0.1327034E+00
         -1   -1    0    0    0  501 -0.00000000000E+00  0.00000000000E+00  0.64453048759E+01  0.64453048759E+01  0.00000000000E+00 0.  1.
          1   -1    0    0  501    0  0.00000000000E+00 -0.00000000000E+00 -0.25270191370E+03  0.25270191370E+03  0.00000000000E+00 0. -1.
         23    2    1    2    0    0  0.00000000000E+00  0.00000000000E+00 -0.24625660883E+03  0.25914721858E+03  0.80715323862E+02 0.  0.
          2    1    3    3  502    0 -0.31849802708E+02 -0.18631339645E+02 -0.17561051736E+03  0.17944522997E+03  0.00000000000E+00 0. -1.
         -2    1    3    3    0  502  0.31849802708E+02  0.18631339645E+02 -0.70646091465E+02  0.79701988613E+02  0.00000000000E+00 0.  1.
<mgrwt>
<rscale>  0 0.80715324E+02</rscale>
<asrwt>0</asrwt>
<pdfrwt beam="2">  1        1 0.38877218E-01 0.80715324E+02</pdfrwt>
<pdfrwt beam="1">  1       -1 0.99158536E-03 0.80715324E+02</pdfrwt>
<totfact> 0.17123247E+05</totfact>
</mgrwt>
</event>
<event>
 5    1  0.4059427E+001  0.9064551E+02  0.7546771E-02  0.1301296E+00
         -2   -1    0    0    0  501 -0.00000000000E+00  0.00000000000E+00  0.44259507772E+03  0.44259507772E+03  0.00000000000E+00 0.  1.
          2   -1    0    0  501    0  0.00000000000E+00 -0.00000000000E+00 -0.46411541230E+01  0.46411541230E+01  0.00000000000E+00 0. -1.
         23    2    1    2    0    0  0.00000000000E+00  0.00000000000E+00  0.43795392360E+03  0.44723623184E+03  0.90645506668E+02 0.  0.
          2    1    3    3  502    0 -0.39095348992E+02  0.22181795734E+02  0.19034603276E+03  0.19558141671E+03  0.00000000000E+00 0. -1.
         -2    1    3    3    0  502  0.39095348992E+02 -0.22181795734E+02  0.24760789084E+03  0.25165481513E+03  0.00000000000E+00 0.  1.
<mgrwt>
<rscale>  0 0.90645507E+02</rscale>
<asrwt>0</asrwt>
<pdfrwt beam="2">  1        2 0.71402406E-03 0.90645507E+02</pdfrwt>
<pdfrwt beam="1">  1       -2 0.68091517E-01 0.90645507E+02</pdfrwt>
<totfact> 0.40384347E+04</totfact>
</mgrwt>
</event>
<event>
 5    1  0.4059427E+001  0.9046080E+02  0.7546771E-02  0.1301740E+00
          1   -1    0    0  501    0  0.00000000000E+00  0.00000000000E+00  0.29273460556E+04  0.29273460556E+04  0.00000000000E+00 0. -1.
         -1   -1    0    0    0  501 -0.00000000000E+00 -0.00000000000E+00 -0.69885460790E+00  0.69885460790E+00  0.00000000000E+00 0.  1.
         23    2    1    2    0    0  0.00000000000E+00  0.00000000000E+00  0.29266472010E+04  0.29280449102E+04  0.90460804327E+02 0.  0.
          2    1    3    3  502    0 -0.82406790217E+01 -0.44464007394E+02  0.14928573578E+04  0.14935421144E+04  0.00000000000E+00 0. -1.
         -2    1    3    3    0  502  0.82406790217E+01  0.44464007394E+02  0.14337898431E+04  0.14345027958E+04  0.00000000000E+00 0.  1.
<mgrwt>
<rscale>  0 0.90460804E+02</rscale>
<asrwt>0</asrwt>
<pdfrwt beam="1">  1        1 0.45035111E+00 0.90460804E+02</pdfrwt>
<pdfrwt beam="2">  1       -1 0.10751844E-03 0.90460804E+02</pdfrwt>
<totfact> 0.34768181E+04</totfact>
</mgrwt>
</event>
<event>
 5    1  0.4059427E+001  0.7098345E+02  0.7546771E-02  0.1356780E+00
          2   -1    0    0  501    0  0.00000000000E+00  0.00000000000E+00  0.19902486461E+04  0.19902486461E+04  0.00000000000E+00 0. -1.
         -2   -1    0    0    0  501 -0.00000000000E+00 -0.00000000000E+00 -0.63291723896E+00  0.63291723896E+00  0.00000000000E+00 0.  1.
         23    2    1    2    0    0  0.00000000000E+00  0.00000000000E+00  0.19896157288E+04  0.19908815633E+04  0.70983453788E+02 0.  0.
          2    1    3    3  502    0  0.11326361942E+02  0.29182122269E+02  0.14639415162E+04  0.14642761507E+04  0.00000000000E+00 0. -1.
         -2    1    3    3    0  502 -0.11326361942E+02 -0.29182122269E+02  0.52567421263E+03  0.52660541258E+03  0.00000000000E+00 0.  1.
<mgrwt>
<rscale>  0 0.70983454E+02</rscale>
<asrwt>0</asrwt>
<pdfrwt beam="1">  1        2 0.30618709E+00 0.70983454E+02</pdfrwt>
<pdfrwt beam="2">  1       -2 0.97373476E-04 0.70983454E+02</pdfrwt>
<totfact> 0.38017568E+05</totfact>
</mgrwt>
</event>
<event>
 5    1  0.4059427E+001  0.9194055E+02  0.7546771E-02  0.1298219E+00
         -2   -1    0    0    0  501 -0.00000000000E+00  0.00000000000E+00  0.12331475837E+02  0.12331475837E+02  0.00000000000E+00 0.  1.
          2   -1    0    0  501    0  0.00000000000E+00 -0.00000000000E+00 -0.17137173187E+03  0.17137173187E+03  0.00000000000E+00 0. -1.
         23    2    1    2    0    0  0.00000000000E+00  0.00000000000E+00 -0.15904025603E+03  0.18370320770E+03  0.91940554069E+02 0.  0.
          2    1    3    3  502    0 -0.12510289372E+02 -0.29514726730E+02 -0.14535447446E+03  0.14884740401E+03  0.00000000000E+00 0. -1.
         -2    1    3    3    0  502  0.12510289372E+02  0.29514726730E+02 -0.13685781569E+02  0.34855803696E+02  0.00000000000E+00 0.  1.
<mgrwt>
<rscale>  0 0.91940554E+02</rscale>
<asrwt>0</asrwt>
<pdfrwt beam="2">  1        2 0.26364881E-01 0.91940554E+02</pdfrwt>
<pdfrwt beam="1">  1       -2 0.18971502E-02 0.91940554E+02</pdfrwt>
<totfact> 0.14312121E+05</totfact>
</mgrwt>
</event>
<event>
 5    1  0.4059427E+001  0.9037077E+02  0.7546771E-02  0.1301956E+00
          1   -1    0    0  501    0  0.00000000000E+00  0.00000000000E+00  0.13562046114E+03  0.13562046114E+03  0.00000000000E+00 0. -1.
         -1   -1    0    0    0  501 -0.00000000000E+00 -0.00000000000E+00 -0.15054654502E+02  0.15054654502E+02  0.00000000000E+00 0.  1.
         23    2    1    2    0    0  0.00000000000E+00  0.00000000000E+00  0.12056580664E+03  0.15067511565E+03  0.90370773725E+02 0.  0.
          2    1    3    3  502    0 -0.17736238595E+02 -0.14720522796E+02  0.12508169196E+03  0.12718764726E+03  0.00000000000E+00 0. -1.
         -2    1    3    3    0  502  0.17736238595E+02  0.14720522796E+02 -0.45158853232E+01  0.23487468385E+02  0.00000000000E+00 0.  1.
<mgrwt>
<rscale>  0 0.90370774E+02</rscale>
<asrwt>0</asrwt>
<pdfrwt beam="1">  1        1 0.20864686E-01 0.90370774E+02</pdfrwt>
<pdfrwt beam="2">  1       -1 0.23161008E-02 0.90370774E+02</pdfrwt>
<totfact> 0.11276968E+05</totfact>
</mgrwt>
</event>
<event>
 5    1  0.4059427E+001  0.9203174E+02  0.7546771E-02  0.1298005E+00
          2   -1    0    0  501    0  0.00000000000E+00  0.00000000000E+00  0.14865376282E+03  0.14865376282E+03  0.00000000000E+00 0.  1.
         -2   -1    0    0    0  501 -0.00000000000E+00 -0.00000000000E+00 -0.14244243023E+02  0.14244243023E+02  0.00000000000E+00 0. -1.
         23    2    1    2    0    0  0.00000000000E+00  0.00000000000E+00  0.13440951980E+03  0.16289800585E+03  0.92031740697E+02 0.  0.
          2    1    3    3  502    0  0.39370316169E+02 -0.14346171180E+02  0.33545241651E+02  0.53676043634E+02  0.00000000000E+00 0. -1.
         -2    1    3    3    0  502 -0.39370316169E+02  0.14346171180E+02  0.10086427815E+03  0.10922196221E+03  0.00000000000E+00 0.  1.
<mgrwt>
<rscale>  0 0.92031741E+02</rscale>
<asrwt>0</asrwt>
<pdfrwt beam="1">  1        2 0.22869809E-01 0.92031741E+02</pdfrwt>
<pdfrwt beam="2">  1       -2 0.21914221E-02 0.92031741E+02</pdfrwt>
<totfact> 0.13588980E+05</totfact>
</mgrwt>
</event>
<event>
 5    1  0.4059427E+001  0.8939302E+02  0.7546771E-02  0.1304328E+00
         -2   -1    0    0    0  501 -0.00000000000E+00  0.00000000000E+00  0.83562335368E+00  0.83562335368E+00  0.00000000000E+00 0.  1.
          2   -1    0    0  501    0  0.00000000000E+00 -0.00000000000E+00 -0.23907636164E+04  0.23907636164E+04  0.00000000000E+00 0. -1.
         23    2    1    2    0    0  0.00000000000E+00  0.00000000000E+00 -0.23899279931E+04  0.23915992398E+04  0.89393017871E+02 0.  0.
          2    1    3    3  502    0  0.42295766486E+02 -0.12649589300E+02 -0.13819226991E+04  0.13826276759E+04  0.00000000000E+00 0. -1.
         -2    1    3    3    0  502 -0.42295766486E+02  0.12649589300E+02 -0.10080052940E+04  0.10089715639E+04  0.00000000000E+00 0.  1.
<mgrwt>
<rscale>  0 0.89393018E+02</rscale>
<asrwt>0</asrwt>
<pdfrwt beam="2">  1        2 0.36780655E+00 0.89393018E+02</pdfrwt>
<pdfrwt beam="1">  1       -2 0.12855857E-03 0.89393018E+02</pdfrwt>
<totfact> 0.16781882E+05</totfact>
</mgrwt>
</event>
<event>
 5    1  0.4059427E+001  0.9019528E+02  0.7546771E-02  0.1302379E+00
         -2   -1    0    0    0  501 -0.00000000000E+00  0.00000000000E+00  0.56255998309E+01  0.56255998309E+01  0.00000000000E+00 0.  1.
          2   -1    0    0  501    0  0.00000000000E+00 -0.00000000000E+00 -0.36152541374E+03  0.36152541374E+03  0.00000000000E+00 0. -1.
         23    2    1    2    0    0  0.00000000000E+00  0.00000000000E+00 -0.35589981391E+03  0.36715101358E+03  0.90195283833E+02 0.  0.
          2    1    3    3  502    0 -0.20820780292E+02  0.39891982353E+02 -0.19010885118E+03  0.19536184491E+03  0.00000000000E+00 0. -1.
         -2    1    3    3    0  502  0.20820780292E+02 -0.39891982353E+02 -0.16579096273E+03  0.17178916867E+03  0.00000000000E+00 0.  1.
<mgrwt>
<rscale>  0 0.90195284E+02</rscale>
<asrwt>0</asrwt>
<pdfrwt beam="2">  1        2 0.55619296E-01 0.90195284E+02</pdfrwt>
<pdfrwt beam="1">  1       -2 0.86547687E-03 0.90195284E+02</pdfrwt>
<totfact> 0.19807322E+05</totfact>
</mgrwt>
</event>
<event>
 5    1  0.4059427E+001  0.9144928E+02  0.7546771E-02  0.1299380E+00
         -3   -1    0    0    0  501 -0.00000000000E+00  0.00000000000E+00  0.20096761135E+02  0.20096761135E+02  0.00000000000E+00 0.  1.
          3   -1    0    0  501    0  0.00000000000E+00 -0.00000000000E+00 -0.10403381440E+03  0.10403381440E+03  0.00000000000E+00 0. -1.
         23    2    1    2    0    0  0.00000000000E+00  0.00000000000E+00 -0.83937053262E+02  0.12413057553E+03  0.91449280322E+02 0.  0.
          2    1    3    3  502    0 -0.49508602705E+01 -0.43725812041E+02 -0.58828637119E+02  0.73466088785E+02  0.00000000000E+00 0. -1.
         -2    1    3    3    0  502  0.49508602705E+01  0.43725812041E+02 -0.25108416144E+02  0.50664486747E+02  0.00000000000E+00 0.  1.
<mgrwt>
<rscale>  0 0.91449280E+02</rscale>
<asrwt>0</asrwt>
<pdfrwt beam="2">  1        3 0.16005202E-01 0.91449280E+02</pdfrwt>
<pdfrwt beam="1">  1       -3 0.30918094E-02 0.91449280E+02</pdfrwt>
<totfact> 0.32699714E+04</totfact>
</mgrwt>
</event>
<event>
 5    1  0.4059427E+001  0.9106018E+02  0.7546771E-02  0.1300304E+00
         -1   -1    0    0    0  501 -0.00000000000E+00  0.00000000000E+00  0.56073858597E+02  0.56073858597E+02  0.00000000000E+00 0.  1.
          1   -1    0    0  501    0  0.00000000000E+00 -0.00000000000E+00 -0.36968904541E+02  0.36968904541E+02  0.00000000000E+00 0. -1.
         23    2    1    2    0    0  0.00000000000E+00  0.00000000000E+00  0.19104954056E+02  0.93042763138E+02  0.91060180665E+02 0.  0.
          2    1    3    3  502    0 -0.19844271835E+02  0.38950918850E+02 -0.34533597941E+01  0.43850825509E+02  0.00000000000E+00 0. -1.
         -2    1    3    3    0  502  0.19844271835E+02 -0.38950918850E+02  0.22558313850E+02  0.49191937629E+02  0.00000000000E+00 0.  1.
<mgrwt>
<rscale>  0 0.91060181E+02</rscale>
<asrwt>0</asrwt>
<pdfrwt beam="2">  1        1 0.56875238E-02 0.91060181E+02</pdfrwt>
<pdfrwt beam="1">  1       -1 0.86267475E-02 0.91060181E+02</pdfrwt>
<totfact> 0.89904620E+04</totfact>
</mgrwt>
</event>
<event>
 5    1  0.4059427E+001  0.9261409E+02  0.7546771E-02  0.1296642E+00
          2   -1    0    0  501    0  0.00000000000E+00  0.00000000000E+00  0.48872034456E+03  0.48872034456E+03  0.00000000000E+00 0. -1.
         -2   -1    0    0    0  501 -0.00000000000E+00 -0.00000000000E+00 -0.43876678804E+01  0.43876678804E+01  0.00000000000E+00 0.  1.
         23    2    1    2    0    0  0.00000000000E+00  0.00000000000E+00  0.48433267668E+03  0.49310801244E+03  0.92614093060E+02 0.  0.
          2    1    3    3  502    0 -0.44538417524E+01  0.44605023911E+02  0.30400601980E+03  0.30729319052E+03  0.00000000000E+00 0. -1.
         -2    1    3    3    0  502  0.44538417524E+01 -0.44605023911E+02  0.18032665688E+03  0.18581482192E+03  0.00000000000E+00 0.  1.
<mgrwt>
<rscale>  0 0.92614093E+02</rscale>
<asrwt>0</asrwt>
<pdfrwt beam="1">  1        2 0.75187702E-01 0.92614093E+02</pdfrwt>
<pdfrwt beam="2">  1       -2 0.67502622E-03 0.92614093E+02</pdfrwt>
<totfact> 0.20520799E+05</totfact>
</mgrwt>
</event>
<event>
 5    1  0.4059427E+001  0.9124176E+02  0.7546771E-02  0.1299872E+00
         -2   -1    0    0    0  501 -0.00000000000E+00  0.00000000000E+00  0.96279125871E+02  0.96279125871E+02  0.00000000000E+00 0.  1.
          2   -1    0    0  501    0  0.00000000000E+00 -0.00000000000E+00 -0.21616989675E+02  0.21616989675E+02  0.00000000000E+00 0. -1.
         23    2    1    2    0    0  0.00000000000E+00  0.00000000000E+00  0.74662136196E+02  0.11789611555E+03  0.91241763899E+02 0.  0.
          2    1    3    3  502    0 -0.61524119956E+01 -0.34983787938E+02  0.34034425958E+00  0.35522294775E+02  0.00000000000E+00 0. -1.
         -2    1    3    3    0  502  0.61524119956E+01  0.34983787938E+02  0.74321791937E+02  0.82373820772E+02  0.00000000000E+00 0.  1.
<mgrwt>
<rscale>  0 0.91241764E+02</rscale>
<asrwt>0</asrwt>
<pdfrwt beam="2">  1        2 0.33256908E-02 0.91241764E+02</pdfrwt>
<pdfrwt beam="1">  1       -2 0.14812173E-01 0.91241764E+02</pdfrwt>
<totfact> 0.80564966E+04</totfact>
</mgrwt>
</event>
<event>
 5    1  0.4059427E+001  0.9145429E+02  0.7546771E-02  0.1299368E+00
          1   -1    0    0  501    0  0.00000000000E+00  0.00000000000E+00  0.43707957944E+01  0.43707957944E+01  0.00000000000E+00 0. -1.
         -1   -1    0    0    0  501 -0.00000000000E+00 -0.00000000000E+00 -0.47839609624E+03  0.47839609624E+03  0.00000000000E+00 0.  1.
         23    2    1    2    0    0  0.00000000000E+00  0.00000000000E+00 -0.47402530045E+03  0.48276689204E+03  0.91454286844E+02 0.  0.
          2    1    3    3  502    0  0.31774128857E+01 -0.41713318646E+02 -0.13955165961E+03  0.14568720811E+03  0.00000000000E+00 0. -1.
         -2    1    3    3    0  502 -0.31774128857E+01  0.41713318646E+02 -0.33447364083E+03  0.33707968393E+03  0.00000000000E+00 0.  1.
<mgrwt>
<rscale>  0 0.91454287E+02</rscale>
<asrwt>0</asrwt>
<pdfrwt beam="1">  1        1 0.67243026E-03 0.91454287E+02</pdfrwt>
<pdfrwt beam="2">  1       -1 0.73599384E-01 0.91454287E+02</pdfrwt>
<totfact> 0.47932168E+04</totfact>
</mgrwt>
</event>
<event>
 5    1  0.4059427E+001  0.8999168E+02  0.7546771E-02  0.1302872E+00
         -4   -1    0    0    0  501 -0.00000000000E+00  0.00000000000E+00  0.40342252460E+01  0.40342252460E+01  0.00000000000E+00 0.  1.
          4   -1    0    0  501    0  0.00000000000E+00 -0.00000000000E+00 -0.50186227462E+03  0.50186227462E+03  0.00000000000E+00 0. -1.
         23    2    1    2    0    0  0.00000000000E+00  0.00000000000E+00 -0.49782804938E+03  0.50589649987E+03  0.89991676466E+02 0.  0.
          2    1    3    3  502    0  0.52284254703E+01 -0.40674573705E+02 -0.14482070488E+03  0.15051509540E+03  0.00000000000E+00 0.  1.
         -2    1    3    3    0  502 -0.52284254703E+01  0.40674573705E+02 -0.35300734449E+03  0.35538140447E+03  0.00000000000E+00 0. -1.
<mgrwt>
<rscale>  0 0.89991676E+02</rscale>
<asrwt>0</asrwt>
<pdfrwt beam="2">  1        4 0.77209593E-01 0.89991676E+02</pdfrwt>
<pdfrwt beam="1">  1       -4 0.62064994E-03 0.89991676E+02</pdfrwt>
<totfact> 0.13415888E+04</totfact>
</mgrwt>
</event>
<event>
 5    1  0.4059427E+001  0.9215178E+02  0.7546771E-02  0.1297723E+00
         -4   -1    0    0    0  501 -0.00000000000E+00  0.00000000000E+00  0.31785706800E+04  0.31785706800E+04  0.00000000000E+00 0.  1.
          4   -1    0    0  501    0  0.00000000000E+00 -0.00000000000E+00 -0.66790633731E+00  0.66790633731E+00  0.00000000000E+00 0. -1.
         23    2    1    2    0    0  0.00000000000E+00  0.00000000000E+00  0.31779027737E+04  0.31792385863E+04  0.92151776993E+02 0.  0.
          2    1    3    3  502    0 -0.30257106008E+02  0.22552143618E+02  0.67688670459E+03  0.67793783085E+03  0.00000000000E+00 0. -1.
         -2    1    3    3    0  502  0.30257106008E+02 -0.22552143618E+02  0.25010160691E+04  0.25013007555E+04  0.00000000000E+00 0.  1.
<mgrwt>
<rscale>  0 0.92151777E+02</rscale>
<asrwt>0</asrwt>
<pdfrwt beam="2">  1        4 0.10275737E-03 0.92151777E+02</pdfrwt>
<pdfrwt beam="1">  1       -4 0.48899876E+00 0.92151777E+02</pdfrwt>
<totfact> 0.28546841E+02</totfact>
</mgrwt>
</event>
<event>
 5    1  0.4059427E+001  0.9123212E+02  0.7546771E-02  0.1299895E+00
         -1   -1    0    0    0  501 -0.00000000000E+00  0.00000000000E+00  0.17320418717E+03  0.17320418717E+03  0.00000000000E+00 0.  1.
          1   -1    0    0  501    0  0.00000000000E+00 -0.00000000000E+00 -0.12013709156E+02  0.12013709156E+02  0.00000000000E+00 0. -1.
         23    2    1    2    0    0  0.00000000000E+00  0.00000000000E+00  0.16119047801E+03  0.18521789633E+03  0.91232115602E+02 0.  0.
          2    1    3    3  502    0  0.22621951559E+02  0.19423465835E+02  0.10508302693E+02  0.31614049770E+02  0.00000000000E+00 0. -1.
         -2    1    3    3    0  502 -0.22621951559E+02 -0.19423465835E+02  0.15068217532E+03  0.15360384656E+03  0.00000000000E+00 0.  1.
<mgrwt>
<rscale>  0 0.91232116E+02</rscale>
<asrwt>0</asrwt>
<pdfrwt beam="2">  1        1 0.18482631E-02 0.91232116E+02</pdfrwt>
<pdfrwt beam="1">  1       -1 0.26646796E-01 0.91232116E+02</pdfrwt>
<totfact> 0.72078464E+04</totfact>
</mgrwt>
</event>
<event>
 5    1  0.4059427E+001  0.9127276E+02  0.7546771E-02  0.1299798E+00
         -1   -1    0    0    0  501 -0.00000000000E+00  0.00000000000E+00  0.23081166591E+01  0.23081166591E+01  0.00000000000E+00 0.  1.
          1   -1    0    0  501    0  0.00000000000E+00 -0.00000000000E+00 -0.90232840650E+03  0.90232840650E+03  0.00000000000E+00 0. -1.
         23    2    1    2    0    0  0.00000000000E+00  0.00000000000E+00 -0.90002028984E+03  0.90463652316E+03  0.91272761041E+02 0.  0.
          2    1    3    3  502    0 -0.44014098869E+02 -0.56178049242E+01 -0.34424222081E+03  0.34709005636E+03  0.00000000000E+00 0.  1.
         -2    1    3    3    0  502  0.44014098869E+02  0.56178049242E+01 -0.55577806903E+03  0.55754646680E+03  0.00000000000E+00 0. -1.
<mgrwt>
<rscale>  0 0.91272761E+02</rscale>
<asrwt>0</asrwt>
<pdfrwt beam="2">  1        1 0.13881961E+00 0.91272761E+02</pdfrwt>
<pdfrwt beam="1">  1       -1 0.35509523E-03 0.91272761E+02</pdfrwt>
<totfact> 0.13872746E+05</totfact>
</mgrwt>
</event>
<event>
 5    1  0.4059427E+001  0.9182653E+02  0.7546771E-02  0.1298488E+00
         -1   -1    0    0    0  501 -0.00000000000E+00  0.00000000000E+00  0.12424633028E+04  0.12424633028E+04  0.00000000000E+00 0.  1.
          1   -1    0    0  501    0  0.00000000000E+00 -0.00000000000E+00 -0.16966521652E+01  0.16966521652E+01  0.00000000000E+00 0. -1.
         23    2    1    2    0    0  0.00000000000E+00  0.00000000000E+00  0.12407666506E+04  0.12441599549E+04  0.91826533264E+02 0.  0.
          2    1    3    3  502    0 -0.18608853671E+02  0.30082415232E+02  0.22379087553E+03  0.22656918835E+03  0.00000000000E+00 0. -1.
         -2    1    3    3    0  502  0.18608853671E+02 -0.30082415232E+02  0.10169757751E+04  0.10175907666E+04  0.00000000000E+00 0.  1.
<mgrwt>
<rscale>  0 0.91826533E+02</rscale>
<asrwt>0</asrwt>
<pdfrwt beam="2">  1        1 0.26102440E-03 0.91826533E+02</pdfrwt>
<pdfrwt beam="1">  1       -1 0.19114747E+00 0.91826533E+02</pdfrwt>
<totfact> 0.18718270E+04</totfact>
</mgrwt>
</event>
<event>
 5    1  0.4059427E+001  0.8885220E+02  0.7546771E-02  0.1305655E+00
          2   -1    0    0  501    0  0.00000000000E+00  0.00000000000E+00  0.92202480499E+02  0.92202480499E+02  0.00000000000E+00 0. -1.
         -2   -1    0    0    0  501 -0.00000000000E+00 -0.00000000000E+00 -0.21405911978E+02  0.21405911978E+02  0.00000000000E+00 0.  1.
         23    2    1    2    0    0  0.00000000000E+00  0.00000000000E+00  0.70796568521E+02  0.11360839248E+03  0.88852195960E+02 0.  0.
          2    1    3    3  502    0 -0.17801298013E+02  0.28672483788E+02  0.72338754561E+02  0.79824137634E+02  0.00000000000E+00 0. -1.
         -2    1    3    3    0  502  0.17801298013E+02 -0.28672483788E+02 -0.15421860402E+01  0.33784254843E+02  0.00000000000E+00 0.  1.
<mgrwt>
<rscale>  0 0.88852196E+02</rscale>
<asrwt>0</asrwt>
<pdfrwt beam="1">  1        2 0.14184997E-01 0.88852196E+02</pdfrwt>
<pdfrwt beam="2">  1       -2 0.32932173E-02 0.88852196E+02</pdfrwt>
<totfact> 0.12854064E+05</totfact>
</mgrwt>
</event>
<event>
 5    1  0.4059427E+001  0.9106294E+02  0.7546771E-02  0.1300298E+00
          2   -1    0    0  501    0  0.00000000000E+00  0.00000000000E+00  0.25978415646E+04  0.25978415646E+04  0.00000000000E+00 0. -1.
         -2   -1    0    0    0  501 -0.00000000000E+00 -0.00000000000E+00 -0.79801425690E+00  0.79801425690E+00  0.00000000000E+00 0.  1.
         23    2    1    2    0    0  0.00000000000E+00  0.00000000000E+00  0.25970435503E+04  0.25986395788E+04  0.91062936603E+02 0.  0.
          2    1    3    3  502    0 -0.30922063807E+02  0.39611370644E+00  0.34487196919E+03  0.34625569463E+03  0.00000000000E+00 0.  1.
         -2    1    3    3    0  502  0.30922063807E+02 -0.39611370644E+00  0.22521715811E+04  0.22523838842E+04  0.00000000000E+00 0. -1.
<mgrwt>
<rscale>  0 0.91062937E+02</rscale>
<asrwt>0</asrwt>
<pdfrwt beam="1">  1        2 0.39966116E+00 0.91062937E+02</pdfrwt>
<pdfrwt beam="2">  1       -2 0.12277350E-03 0.91062937E+02</pdfrwt>
<totfact> 0.13950814E+05</totfact>
</mgrwt>
</event>
<event>
 5    1  0.4059427E+001  0.9023092E+02  0.7546771E-02  0.1302293E+00
          3   -1    0    0  501    0  0.00000000000E+00  0.00000000000E+00  0.62496747479E+03  0.62496747479E+03  0.00000000000E+00 0. -1.
         -3   -1    0    0    0  501 -0.00000000000E+00 -0.00000000000E+00 -0.32568172890E+01  0.32568172890E+01  0.00000000000E+00 0.  1.
         23    2    1    2    0    0  0.00000000000E+00  0.00000000000E+00  0.62171065750E+03  0.62822429207E+03  0.90230923234E+02 0.  0.
          2    1    3    3  502    0 -0.16260228850E+01  0.22476038607E+02  0.58297662499E+03  0.58341199983E+03  0.00000000000E+00 0. -1.
         -2    1    3    3    0  502  0.16260228850E+01 -0.22476038607E+02  0.38734032505E+02  0.44812292242E+02  0.00000000000E+00 0.  1.
<mgrwt>
<rscale>  0 0.90230923E+02</rscale>
<asrwt>0</asrwt>
<pdfrwt beam="1">  1        3 0.96148747E-01 0.90230923E+02</pdfrwt>
<pdfrwt beam="2">  1       -3 0.50104931E-03 0.90230923E+02</pdfrwt>
<totfact> 0.15611488E+04</totfact>
</mgrwt>
</event>
<event>
 5    1  0.4059427E+001  0.8964435E+02  0.7546771E-02  0.1303715E+00
          3   -1    0    0  501    0  0.00000000000E+00  0.00000000000E+00  0.19781088445E+03  0.19781088445E+03  0.00000000000E+00 0. -1.
         -3   -1    0    0    0  501 -0.00000000000E+00 -0.00000000000E+00 -0.10156303908E+02  0.10156303908E+02  0.00000000000E+00 0.  1.
         23    2    1    2    0    0  0.00000000000E+00  0.00000000000E+00  0.18765458054E+03  0.20796718836E+03  0.89644351944E+02 0.  0.
          2    1    3    3  502    0  0.24384172654E+02  0.35759187386E+02  0.12085404960E+03  0.12837059112E+03  0.00000000000E+00 0. -1.
         -2    1    3    3    0  502 -0.24384172654E+02 -0.35759187386E+02  0.66800530940E+02  0.79596597242E+02  0.00000000000E+00 0.  1.
<mgrwt>
<rscale>  0 0.89644352E+02</rscale>
<asrwt>0</asrwt>
<pdfrwt beam="1">  1        3 0.30432441E-01 0.89644352E+02</pdfrwt>
<pdfrwt beam="2">  1       -3 0.15625084E-02 0.89644352E+02</pdfrwt>
<totfact> 0.29402624E+04</totfact>
</mgrwt>
</event>
<event>
 5    1  0.4059427E+001  0.9207078E+02  0.7546771E-02  0.1297913E+00
          3   -1    0    0  501    0  0.00000000000E+00  0.00000000000E+00  0.12231637653E+03  0.12231637653E+03  0.00000000000E+00 0. -1.
         -3   -1    0    0    0  501 -0.00000000000E+00 -0.00000000000E+00 -0.17326028154E+02  0.17326028154E+02  0.00000000000E+00 0.  1.
         23    2    1    2    0    0  0.00000000000E+00  0.00000000000E+00  0.10499034838E+03  0.13964240468E+03  0.92070776764E+02 0.  0.
          2    1    3    3  502    0 -0.28116101634E+02  0.27137795128E+02  0.89406507902E+02  0.97573043156E+02  0.00000000000E+00 0. -1.
         -2    1    3    3    0  502  0.28116101634E+02 -0.27137795128E+02  0.15583840474E+02  0.42069361528E+02  0.00000000000E+00 0.  1.
<mgrwt>
<rscale>  0 0.92070777E+02</rscale>
<asrwt>0</asrwt>
<pdfrwt beam="1">  1        3 0.18817903E-01 0.92070777E+02</pdfrwt>
<pdfrwt beam="2">  1       -3 0.26655429E-02 0.92070777E+02</pdfrwt>
<totfact> 0.31117262E+04</totfact>
</mgrwt>
</event>
<event>
 5    1  0.4059427E+001  0.9081899E+02  0.7546771E-02  0.1300880E+00
         -2   -1    0    0    0  501 -0.00000000000E+00  0.00000000000E+00  0.28304992697E+01  0.28304992697E+01  0.00000000000E+00 0.  1.
          2   -1    0    0  501    0  0.00000000000E+00 -0.00000000000E+00 -0.72850120306E+03  0.72850120306E+03  0.00000000000E+00 0. -1.
         23    2    1    2    0    0  0.00000000000E+00  0.00000000000E+00 -0.72567070379E+03  0.73133170233E+03  0.90818987513E+02 0.  0.
          2    1    3    3  502    0 -0.19461497419E+02  0.39405474834E+02 -0.45481908696E+03  0.45693757034E+03  0.00000000000E+00 0. -1.
         -2    1    3    3    0  502  0.19461497419E+02 -0.39405474834E+02 -0.27085161683E+03  0.27439413199E+03  0.00000000000E+00 0.  1.
<mgrwt>
<rscale>  0 0.90818988E+02</rscale>
<asrwt>0</asrwt>
<pdfrwt beam="2">  1        2 0.11207727E+00 0.90818988E+02</pdfrwt>
<pdfrwt beam="1">  1       -2 0.43546080E-03 0.90818988E+02</pdfrwt>
<totfact> 0.24177755E+05</totfact>
</mgrwt>
</event>
<event>
 5    1  0.4059427E+001  0.8395348E+02  0.7546771E-02  0.1318192E+00
          3   -1    0    0  501    0  0.00000000000E+00  0.00000000000E+00  0.32054066369E+01  0.32054066369E+01  0.00000000000E+00 0. -1.
         -3   -1    0    0    0  501 -0.00000000000E+00 -0.00000000000E+00 -0.54971075903E+03  0.54971075903E+03  0.00000000000E+00 0.  1.
         23    2    1    2    0    0  0.00000000000E+00  0.00000000000E+00 -0.54650535239E+03  0.55291616566E+03  0.83953475578E+02 0.  0.
          2    1    3    3  502    0  0.32293547997E+02 -0.20731828943E+02 -0.16122037319E+03  0.16572474379E+03  0.00000000000E+00 0. -1.
         -2    1    3    3    0  502 -0.32293547997E+02  0.20731828943E+02 -0.38528497920E+03  0.38719142187E+03  0.00000000000E+00 0.  1.
<mgrwt>
<rscale>  0 0.83953476E+02</rscale>
<asrwt>0</asrwt>
<pdfrwt beam="1">  1        3 0.49313927E-03 0.83953476E+02</pdfrwt>
<pdfrwt beam="2">  1       -3 0.84570922E-01 0.83953476E+02</pdfrwt>
<totfact> 0.20754898E+04</totfact>
</mgrwt>
</event>
<event>
 5    1  0.4059427E+001  0.9076496E+02  0.7546771E-02  0.1301010E+00
         -1   -1    0    0    0  501 -0.00000000000E+00  0.00000000000E+00  0.27757511740E+01  0.27757511740E+01  0.00000000000E+00 0.  1.
          1   -1    0    0  501    0  0.00000000000E+00 -0.00000000000E+00 -0.74198631268E+03  0.74198631268E+03  0.00000000000E+00 0. -1.
         23    2    1    2    0    0  0.00000000000E+00  0.00000000000E+00 -0.73921056150E+03  0.74476206385E+03  0.90764957522E+02 0.  0.
          2    1    3    3  502    0  0.33721251126E+02  0.30037698510E+02 -0.40646865580E+03  0.40896962510E+03  0.00000000000E+00 0. -1.
         -2    1    3    3    0  502 -0.33721251126E+02 -0.30037698510E+02 -0.33274190571E+03  0.33579243875E+03  0.00000000000E+00 0.  1.
<mgrwt>
<rscale>  0 0.90764958E+02</rscale>
<asrwt>0</asrwt>
<pdfrwt beam="2">  1        1 0.11415190E+00 0.90764958E+02</pdfrwt>
<pdfrwt beam="1">  1       -1 0.42703806E-03 0.90764958E+02</pdfrwt>
<totfact> 0.14368257E+05</totfact>
</mgrwt>
</event>
<event>
 5    1  0.4059427E+001  0.9217699E+02  0.7546771E-02  0.1297664E+00
          1   -1    0    0  501    0  0.00000000000E+00  0.00000000000E+00  0.49286371811E+02  0.49286371811E+02  0.00000000000E+00 0. -1.
         -1   -1    0    0    0  501 -0.00000000000E+00 -0.00000000000E+00 -0.43098111970E+02  0.43098111970E+02  0.00000000000E+00 0.  1.
         23    2    1    2    0    0  0.00000000000E+00  0.00000000000E+00  0.61882598405E+01  0.92384483781E+02  0.92176994329E+02 0.  0.
          2    1    3    3  502    0  0.31603800959E+02 -0.26636968270E+01  0.36609709545E+02  0.48437241342E+02  0.00000000000E+00 0. -1.
         -2    1    3    3    0  502 -0.31603800959E+02  0.26636968270E+01 -0.30421449705E+02  0.43947242439E+02  0.00000000000E+00 0.  1.
<mgrwt>
<rscale>  0 0.92176994E+02</rscale>
<asrwt>0</asrwt>
<pdfrwt beam="1">  1        1 0.75825188E-02 0.92176994E+02</pdfrwt>
<pdfrwt beam="2">  1       -1 0.66304787E-02 0.92176994E+02</pdfrwt>
<totfact> 0.90744813E+04</totfact>
</mgrwt>
</event>
<event>
 5    1  0.4059427E+001  0.9126882E+02  0.7546771E-02  0.1299808E+00
          2   -1    0    0  501    0  0.00000000000E+00  0.00000000000E+00  0.11224277256E+04  0.11224277256E+04  0.00000000000E+00 0. -1.
         -2   -1    0    0    0  501 -0.00000000000E+00 -0.00000000000E+00 -0.18553526684E+01  0.18553526684E+01  0.00000000000E+00 0.  1.
         23    2    1    2    0    0  0.00000000000E+00  0.00000000000E+00  0.11205723729E+04  0.11242830782E+04  0.91268817803E+02 0.  0.
          2    1    3    3  502    0 -0.33305865255E+02 -0.29746639985E+02  0.67607626104E+03  0.67754944764E+03  0.00000000000E+00 0. -1.
         -2    1    3    3    0  502  0.33305865255E+02  0.29746639985E+02  0.44449611187E+03  0.44673363061E+03  0.00000000000E+00 0.  1.
<mgrwt>
<rscale>  0 0.91268818E+02</rscale>
<asrwt>0</asrwt>
<pdfrwt beam="1">  1        2 0.17268065E+00 0.91268818E+02</pdfrwt>
<pdfrwt beam="2">  1       -2 0.28543977E-03 0.91268818E+02</pdfrwt>
<totfact> 0.24932823E+05</totfact>
</mgrwt>
</event>
<event>
 5    1  0.4059427E+001  0.8804624E+02  0.7546771E-02  0.1307653E+00
          4   -1    0    0  501    0  0.00000000000E+00  0.00000000000E+00  0.11083026415E+01  0.11083026415E+01  0.00000000000E+00 0. -1.
         -4   -1    0    0    0  501 -0.00000000000E+00 -0.00000000000E+00 -0.17486516735E+04  0.17486516735E+04  0.00000000000E+00 0.  1.
         23    2    1    2    0    0  0.00000000000E+00  0.00000000000E+00 -0.17475433709E+04  0.17497599761E+04  0.88046243958E+02 0.  0.
          2    1    3    3  502    0  0.31731410770E+01 -0.40652465307E+02 -0.12035370700E+04  0.12042276241E+04  0.00000000000E+00 0. -1.
         -2    1    3    3    0  502 -0.31731410770E+01  0.40652465307E+02 -0.54400630083E+03  0.54553235202E+03  0.00000000000E+00 0.  1.
<mgrwt>
<rscale>  0 0.88046244E+02</rscale>
<asrwt>0</asrwt>
<pdfrwt beam="1">  1        4 0.17050784E-03 0.88046244E+02</pdfrwt>
<pdfrwt beam="2">  1       -4 0.26902374E+00 0.88046244E+02</pdfrwt>
<totfact> 0.34585295E+03</totfact>
</mgrwt>
</event>
<event>
 5    1  0.4059427E+001  0.9155933E+02  0.7546771E-02  0.1299119E+00
          2   -1    0    0  501    0  0.00000000000E+00  0.00000000000E+00  0.14038508856E+03  0.14038508856E+03  0.00000000000E+00 0. -1.
         -2   -1    0    0    0  501 -0.00000000000E+00 -0.00000000000E+00 -0.14928776691E+02  0.14928776691E+02  0.00000000000E+00 0.  1.
         23    2    1    2    0    0  0.00000000000E+00  0.00000000000E+00  0.12545631187E+03  0.15531386526E+03  0.91559328043E+02 0.  0.
          2    1    3    3  502    0 -0.12272685297E+02 -0.28413398015E+02  0.11994814635E+03  0.12387694622E+03  0.00000000000E+00 0. -1.
         -2    1    3    3    0  502  0.12272685297E+02  0.28413398015E+02  0.55081655218E+01  0.31436919037E+02  0.00000000000E+00 0.  1.
<mgrwt>
<rscale>  0 0.91559328E+02</rscale>
<asrwt>0</asrwt>
<pdfrwt beam="1">  1        2 0.21597705E-01 0.91559328E+02</pdfrwt>
<pdfrwt beam="2">  1       -2 0.22967350E-02 0.91559328E+02</pdfrwt>
<totfact> 0.13516944E+05</totfact>
</mgrwt>
</event>
<event>
 5    1  0.4059427E+001  0.8985526E+02  0.7546771E-02  0.1303203E+00
          4   -1    0    0  501    0  0.00000000000E+00  0.00000000000E+00  0.55890801638E+03  0.55890801638E+03  0.00000000000E+00 0. -1.
         -4   -1    0    0    0  501 -0.00000000000E+00 -0.00000000000E+00 -0.36114924945E+01  0.36114924945E+01  0.00000000000E+00 0.  1.
         23    2    1    2    0    0  0.00000000000E+00  0.00000000000E+00  0.55529652389E+03  0.56251950887E+03  0.89855263758E+02 0.  0.
          2    1    3    3  502    0 -0.37898226493E+01  0.43735866378E+02  0.33746702171E+03  0.34031041639E+03  0.00000000000E+00 0. -1.
         -2    1    3    3    0  502  0.37898226493E+01 -0.43735866378E+02  0.21782950218E+03  0.22220909249E+03  0.00000000000E+00 0.  1.
<mgrwt>
<rscale>  0 0.89855264E+02</rscale>
<asrwt>0</asrwt>
<pdfrwt beam="1">  1        4 0.85985780E-01 0.89855264E+02</pdfrwt>
<pdfrwt beam="2">  1       -4 0.55561467E-03 0.89855264E+02</pdfrwt>
<totfact> 0.12458657E+04</totfact>
</mgrwt>
</event>
<event>
 5    1  0.4059427E+001  0.9263664E+02  0.7546771E-02  0.1296589E+00
         -3   -1    0    0    0  501 -0.00000000000E+00  0.00000000000E+00  0.74466208633E+02  0.74466208633E+02  0.00000000000E+00 0. -1.
          3   -1    0    0  501    0  0.00000000000E+00 -0.00000000000E+00 -0.28810205514E+02  0.28810205514E+02  0.00000000000E+00 0.  1.
         23    2    1    2    0    0  0.00000000000E+00  0.00000000000E+00  0.45656003120E+02  0.10327641415E+03  0.92636640149E+02 0.  0.
          2    1    3    3  502    0 -0.16558682276E+02 -0.40998389856E+02  0.74474942192E+01  0.44838857029E+02  0.00000000000E+00 0. -1.
         -2    1    3    3    0  502  0.16558682276E+02  0.40998389856E+02  0.38208508900E+02  0.58437557118E+02  0.00000000000E+00 0.  1.
<mgrwt>
<rscale>  0 0.92636640E+02</rscale>
<asrwt>0</asrwt>
<pdfrwt beam="2">  1        3 0.44323393E-02 0.92636640E+02</pdfrwt>
<pdfrwt beam="1">  1       -3 0.11456340E-01 0.92636640E+02</pdfrwt>
<totfact> 0.32971289E+04</totfact>
</mgrwt>
</event>
<event>
 5    1  0.4059427E+001  0.9592738E+02  0.7546771E-02  0.1289101E+00
         -1   -1    0    0    0  501 -0.00000000000E+00  0.00000000000E+00  0.18057731114E+02  0.18057731114E+02  0.00000000000E+00 0.  1.
          1   -1    0    0  501    0  0.00000000000E+00 -0.00000000000E+00 -0.12739781395E+03  0.12739781395E+03  0.00000000000E+00 0. -1.
         23    2    1    2    0    0  0.00000000000E+00  0.00000000000E+00 -0.10934008283E+03  0.14545554506E+03  0.95927378131E+02 0.  0.
          2    1    3    3  502    0  0.13869517768E+02  0.29900189784E+02 -0.18351998662E+01  0.33011404556E+02  0.00000000000E+00 0.  1.
         -2    1    3    3    0  502 -0.13869517768E+02 -0.29900189784E+02 -0.10750488297E+03  0.11244414051E+03  0.00000000000E+00 0. -1.
<mgrwt>
<rscale>  0 0.95927378E+02</rscale>
<asrwt>0</asrwt>
<pdfrwt beam="2">  1        1 0.19599663E-01 0.95927378E+02</pdfrwt>
<pdfrwt beam="1">  1       -1 0.27781126E-02 0.95927378E+02</pdfrwt>
<totfact> 0.94834371E+04</totfact>
</mgrwt>
</event>
<event>
 5    1  0.4059427E+001  0.9040652E+02  0.7546771E-02  0.1301870E+00
          2   -1    0    0  501    0  0.00000000000E+00  0.00000000000E+00  0.87972363762E+03  0.87972363762E+03  0.00000000000E+00 0. -1.
         -2   -1    0    0    0  501 -0.00000000000E+00 -0.00000000000E+00 -0.23227005973E+01  0.23227005973E+01  0.00000000000E+00 0.  1.
         23    2    1    2    0    0  0.00000000000E+00  0.00000000000E+00  0.87740093703E+03  0.88204633822E+03  0.90406517874E+02 0.  0.
          2    1    3    3  502    0  0.19904745894E+02  0.22020553102E+02  0.77131244082E+03  0.77188340119E+03  0.00000000000E+00 0. -1.
         -2    1    3    3    0  502 -0.19904745894E+02 -0.22020553102E+02  0.10608849620E+03  0.11016293703E+03  0.00000000000E+00 0.  1.
<mgrwt>
<rscale>  0 0.90406518E+02</rscale>
<asrwt>0</asrwt>
<pdfrwt beam="1">  1        2 0.13534183E+00 0.90406518E+02</pdfrwt>
<pdfrwt beam="2">  1       -2 0.35733926E-03 0.90406518E+02</pdfrwt>
<totfact> 0.25285529E+05</totfact>
</mgrwt>
</event>
<event>
 5    1  0.4059427E+001  0.9194820E+02  0.7546771E-02  0.1298201E+00
          2   -1    0    0  501    0  0.00000000000E+00  0.00000000000E+00  0.33088010641E+02  0.33088010641E+02  0.00000000000E+00 0.  1.
         -2   -1    0    0    0  501 -0.00000000000E+00 -0.00000000000E+00 -0.63878660681E+02  0.63878660681E+02  0.00000000000E+00 0. -1.
         23    2    1    2    0    0  0.00000000000E+00  0.00000000000E+00 -0.30790650040E+02  0.96966671322E+02  0.91948198554E+02 0.  0.
          2    1    3    3  502    0 -0.11685292101E+02  0.21276401852E+02 -0.56569680163E+02  0.61557778070E+02  0.00000000000E+00 0. -1.
         -2    1    3    3    0  502  0.11685292101E+02 -0.21276401852E+02  0.25779030123E+02  0.35408893252E+02  0.00000000000E+00 0.  1.
<mgrwt>
<rscale>  0 0.91948199E+02</rscale>
<asrwt>0</asrwt>
<pdfrwt beam="1">  1        2 0.50904632E-02 0.91948199E+02</pdfrwt>
<pdfrwt beam="2">  1       -2 0.98274862E-02 0.91948199E+02</pdfrwt>
<totfact> 0.88564472E+04</totfact>
</mgrwt>
</event>
<event>
 5    1  0.4059427E+001  0.9195685E+02  0.7546771E-02  0.1298181E+00
          2   -1    0    0  501    0  0.00000000000E+00  0.00000000000E+00  0.27447850352E+02  0.27447850352E+02  0.00000000000E+00 0. -1.
         -2   -1    0    0    0  501 -0.00000000000E+00 -0.00000000000E+00 -0.77019345555E+02  0.77019345555E+02  0.00000000000E+00 0.  1.
         23    2    1    2    0    0  0.00000000000E+00  0.00000000000E+00 -0.49571495203E+02  0.10446719591E+03  0.91956847945E+02 0.  0.
          2    1    3    3  502    0 -0.14688569304E+02 -0.41760687176E+02 -0.38897724086E+02  0.58929975401E+02  0.00000000000E+00 0. -1.
         -2    1    3    3    0  502  0.14688569304E+02  0.41760687176E+02 -0.10673771117E+02  0.45537220506E+02  0.00000000000E+00 0.  1.
<mgrwt>
<rscale>  0 0.91956848E+02</rscale>
<asrwt>0</asrwt>
<pdfrwt beam="1">  1        2 0.42227463E-02 0.91956848E+02</pdfrwt>
<pdfrwt beam="2">  1       -2 0.11849130E-01 0.91956848E+02</pdfrwt>
<totfact> 0.84193183E+04</totfact>
</mgrwt>
</event>
<event>
 5    1  0.4059427E+001  0.8809962E+02  0.7546771E-02  0.1307520E+00
         -2   -1    0    0    0  501 -0.00000000000E+00  0.00000000000E+00  0.21352605425E+01  0.21352605425E+01  0.00000000000E+00 0.  1.
          2   -1    0    0  501    0  0.00000000000E+00 -0.00000000000E+00 -0.90873480507E+03  0.90873480507E+03  0.00000000000E+00 0. -1.
         23    2    1    2    0    0  0.00000000000E+00  0.00000000000E+00 -0.90659954452E+03  0.91087006561E+03  0.88099615728E+02 0.  0.
          2    1    3    3  502    0  0.36659974546E+02  0.21049240625E+02 -0.58133819573E+03  0.58287316123E+03  0.00000000000E+00 0. -1.
         -2    1    3    3    0  502 -0.36659974546E+02 -0.21049240625E+02 -0.32526134880E+03  0.32799690438E+03  0.00000000000E+00 0.  1.
<mgrwt>
<rscale>  0 0.88099616E+02</rscale>
<asrwt>0</asrwt>
<pdfrwt beam="2">  1        2 0.13980544E+00 0.88099616E+02</pdfrwt>
<pdfrwt beam="1">  1       -2 0.32850142E-03 0.88099616E+02</pdfrwt>
<totfact> 0.27164994E+05</totfact>
</mgrwt>
</event>
<event>
 5    1  0.4059427E+001  0.9152408E+02  0.7546771E-02  0.1299202E+00
         -2   -1    0    0    0  501 -0.00000000000E+00  0.00000000000E+00  0.76221481018E+03  0.76221481018E+03  0.00000000000E+00 0.  1.
          2   -1    0    0  501    0  0.00000000000E+00 -0.00000000000E+00 -0.27474727068E+01  0.27474727068E+01  0.00000000000E+00 0. -1.
         23    2    1    2    0    0  0.00000000000E+00  0.00000000000E+00  0.75946733748E+03  0.76496228289E+03  0.91524081808E+02 0.  0.
          2    1    3    3  502    0 -0.16476636550E+02 -0.41830428008E+02  0.30837137704E+03  0.31163146573E+03  0.00000000000E+00 0. -1.
         -2    1    3    3    0  502  0.16476636550E+02  0.41830428008E+02  0.45109596044E+03  0.45333081716E+03  0.00000000000E+00 0.  1.
<mgrwt>
<rscale>  0 0.91524082E+02</rscale>
<asrwt>0</asrwt>
<pdfrwt beam="2">  1        2 0.42268872E-03 0.91524082E+02</pdfrwt>
<pdfrwt beam="1">  1       -2 0.11726365E+00 0.91524082E+02</pdfrwt>
<totfact> 0.24791577E+04</totfact>
</mgrwt>
</event>
<event>
 5    1  0.4059427E+001  0.9004477E+02  0.7546771E-02  0.1302743E+00
         -1   -1    0    0    0  501 -0.00000000000E+00  0.00000000000E+00  0.12809136641E+02  0.12809136641E+02  0.00000000000E+00 0.  1.
          1   -1    0    0  501    0  0.00000000000E+00 -0.00000000000E+00 -0.15824760233E+03  0.15824760233E+03  0.00000000000E+00 0. -1.
         23    2    1    2    0    0  0.00000000000E+00  0.00000000000E+00 -0.14543846569E+03  0.17105673897E+03  0.90044770226E+02 0.  0.
          2    1    3    3  502    0  0.29606469193E+02  0.23221720147E+02 -0.11968504563E+03  0.12546035809E+03  0.00000000000E+00 0.  1.
         -2    1    3    3    0  502 -0.29606469193E+02 -0.23221720147E+02 -0.25753420062E+02  0.45596380882E+02  0.00000000000E+00 0. -1.
<mgrwt>
<rscale>  0 0.90044770E+02</rscale>
<asrwt>0</asrwt>
<pdfrwt beam="2">  1        1 0.24345784E-01 0.90044770E+02</pdfrwt>
<pdfrwt beam="1">  1       -1 0.19706365E-02 0.90044770E+02</pdfrwt>
<totfact> 0.11711966E+05</totfact>
</mgrwt>
</event>
<event>
 5    1  0.4059427E+001  0.9104257E+02  0.7546771E-02  0.1300346E+00
          1   -1    0    0  501    0  0.00000000000E+00  0.00000000000E+00  0.18135700299E+02  0.18135700299E+02  0.00000000000E+00 0. -1.
         -1   -1    0    0    0  501 -0.00000000000E+00 -0.00000000000E+00 -0.11426012115E+03  0.11426012115E+03  0.00000000000E+00 0.  1.
         23    2    1    2    0    0  0.00000000000E+00  0.00000000000E+00 -0.96124420850E+02  0.13239582145E+03  0.91042568358E+02 0.  0.
          2    1    3    3  502    0  0.36003527742E+01  0.40640275013E+02 -0.18703090009E+02  0.44882068458E+02  0.00000000000E+00 0. -1.
         -2    1    3    3    0  502 -0.36003527742E+01 -0.40640275013E+02 -0.77421330841E+02  0.87513752990E+02  0.00000000000E+00 0.  1.
<mgrwt>
<rscale>  0 0.91042568E+02</rscale>
<asrwt>0</asrwt>
<pdfrwt beam="1">  1        1 0.27901077E-02 0.91042568E+02</pdfrwt>
<pdfrwt beam="2">  1       -1 0.17578480E-01 0.91042568E+02</pdfrwt>
<totfact> 0.79613901E+04</totfact>
</mgrwt>
</event>
<event>
 5    1  0.4059427E+001  0.9248841E+02  0.7546771E-02  0.1296935E+00
         -2   -1    0    0    0  501 -0.00000000000E+00  0.00000000000E+00  0.30797789079E+03  0.30797789079E+03  0.00000000000E+00 0.  1.
          2   -1    0    0  501    0  0.00000000000E+00 -0.00000000000E+00 -0.69437655547E+01  0.69437655547E+01  0.00000000000E+00 0. -1.
         23    2    1    2    0    0  0.00000000000E+00  0.00000000000E+00  0.30103412523E+03  0.31492165634E+03  0.92488405104E+02 0.  0.
          2    1    3    3  502    0  0.42808706064E+02  0.11417591102E+02  0.19563531039E+03  0.20058943485E+03  0.00000000000E+00 0.  1.
         -2    1    3    3    0  502 -0.42808706064E+02 -0.11417591102E+02  0.10539881484E+03  0.11433222149E+03  0.00000000000E+00 0. -1.
<mgrwt>
<rscale>  0 0.92488405E+02</rscale>
<asrwt>0</asrwt>
<pdfrwt beam="2">  1        2 0.10682719E-02 0.92488405E+02</pdfrwt>
<pdfrwt beam="1">  1       -2 0.47381203E-01 0.92488405E+02</pdfrwt>
<totfact> 0.48430603E+04</totfact>
</mgrwt>
</event>
<event>
 5    1  0.4059427E+001  0.9270713E+02  0.7546771E-02  0.1296425E+00
          3   -1    0    0  501    0  0.00000000000E+00  0.00000000000E+00  0.86404519569E+02  0.86404519569E+02  0.00000000000E+00 0. -1.
         -3   -1    0    0    0  501 -0.00000000000E+00 -0.00000000000E+00 -0.24867365403E+02  0.24867365403E+02  0.00000000000E+00 0.  1.
         23    2    1    2    0    0  0.00000000000E+00  0.00000000000E+00  0.61537154166E+02  0.11127188497E+03  0.92707125090E+02 0.  0.
          2    1    3    3  502    0  0.11443387141E+02  0.23085716372E+02  0.77017241567E+02  0.81213034103E+02  0.00000000000E+00 0. -1.
         -2    1    3    3    0  502 -0.11443387141E+02 -0.23085716372E+02 -0.15480087401E+02  0.30058850869E+02  0.00000000000E+00 0.  1.
<mgrwt>
<rscale>  0 0.92707125E+02</rscale>
<asrwt>0</asrwt>
<pdfrwt beam="1">  1        3 0.13293003E-01 0.92707125E+02</pdfrwt>
<pdfrwt beam="2">  1       -3 0.38257486E-02 0.92707125E+02</pdfrwt>
<totfact> 0.32353111E+04</totfact>
</mgrwt>
</event>
<event>
 5    1  0.4059427E+001  0.9341775E+02  0.7546771E-02  0.1294780E+00
         -2   -1    0    0    0  501 -0.00000000000E+00  0.00000000000E+00  0.11286111735E+04  0.11286111735E+04  0.00000000000E+00 0. -1.
          2   -1    0    0  501    0  0.00000000000E+00 -0.00000000000E+00 -0.19331007404E+01  0.19331007404E+01  0.00000000000E+00 0.  1.
         23    2    1    2    0    0  0.00000000000E+00  0.00000000000E+00  0.11266780728E+04  0.11305442742E+04  0.93417751956E+02 0.  0.
          2    1    3    3  502    0  0.23352140466E+02 -0.32896950392E+02  0.84823509542E+03  0.84919391714E+03  0.00000000000E+00 0. -1.
         -2    1    3    3    0  502 -0.23352140466E+02  0.32896950392E+02  0.27844297734E+03  0.28135035710E+03  0.00000000000E+00 0.  1.
<mgrwt>
<rscale>  0 0.93417752E+02</rscale>
<asrwt>0</asrwt>
<pdfrwt beam="2">  1        2 0.29740102E-03 0.93417752E+02</pdfrwt>
<pdfrwt beam="1">  1       -2 0.17363196E+00 0.93417752E+02</pdfrwt>
<totfact> 0.15120868E+04</totfact>
</mgrwt>
</event>
<event>
 5    1  0.4059427E+001  0.8902136E+02  0.7546771E-02  0.1305239E+00
          1   -1    0    0  501    0  0.00000000000E+00  0.00000000000E+00  0.25585539417E+03  0.25585539417E+03  0.00000000000E+00 0. -1.
         -1   -1    0    0    0  501 -0.00000000000E+00 -0.00000000000E+00 -0.77434392472E+01  0.77434392472E+01  0.00000000000E+00 0.  1.
         23    2    1    2    0    0  0.00000000000E+00  0.00000000000E+00  0.24811195492E+03  0.26359883341E+03  0.89021361499E+02 0.  0.
          2    1    3    3  502    0  0.30338147637E+02  0.14507126090E+02  0.21040268022E+03  0.21307310425E+03  0.00000000000E+00 0. -1.
         -2    1    3    3    0  502 -0.30338147637E+02 -0.14507126090E+02  0.37709274696E+02  0.50525729163E+02  0.00000000000E+00 0.  1.
<mgrwt>
<rscale>  0 0.89021361E+02</rscale>
<asrwt>0</asrwt>
<pdfrwt beam="1">  1        1 0.39362362E-01 0.89021361E+02</pdfrwt>
<pdfrwt beam="2">  1       -1 0.11912985E-02 0.89021361E+02</pdfrwt>
<totfact> 0.13240894E+05</totfact>
</mgrwt>
</event>
<event>
 5    1  0.4059427E+001  0.9163109E+02  0.7546771E-02  0.1298949E+00
          1   -1    0    0  501    0  0.00000000000E+00  0.00000000000E+00  0.21934595565E+04  0.21934595565E+04  0.00000000000E+00 0. -1.
         -1   -1    0    0    0  501 -0.00000000000E+00 -0.00000000000E+00 -0.95696514159E+00  0.95696514159E+00  0.00000000000E+00 0.  1.
         23    2    1    2    0    0  0.00000000000E+00  0.00000000000E+00  0.21925025913E+04  0.21944165216E+04  0.91631093741E+02 0.  0.
          2    1    3    3  502    0  0.15881742647E+02  0.39516753906E+02  0.15007314341E+04  0.15013356190E+04  0.00000000000E+00 0. -1.
         -2    1    3    3    0  502 -0.15881742647E+02 -0.39516753906E+02  0.69177115725E+03  0.69308090263E+03  0.00000000000E+00 0.  1.
<mgrwt>
<rscale>  0 0.91631094E+02</rscale>
<asrwt>0</asrwt>
<pdfrwt beam="1">  1        1 0.33745129E+00 0.91631094E+02</pdfrwt>
<pdfrwt beam="2">  1       -1 0.14722716E-03 0.91631094E+02</pdfrwt>
<totfact> 0.67561003E+04</totfact>
</mgrwt>
</event>
<event>
 5    1  0.4059427E+001  0.8997897E+02  0.7546771E-02  0.1302903E+00
          2   -1    0    0  501    0  0.00000000000E+00  0.00000000000E+00  0.42719121846E+02  0.42719121846E+02  0.00000000000E+00 0. -1.
         -2   -1    0    0    0  501 -0.00000000000E+00 -0.00000000000E+00 -0.47380505979E+02  0.47380505979E+02  0.00000000000E+00 0.  1.
         23    2    1    2    0    0  0.00000000000E+00  0.00000000000E+00 -0.46613841334E+01  0.90099627825E+02  0.89978966609E+02 0.  0.
          2    1    3    3  502    0 -0.29862031560E+02 -0.15579807329E+02  0.27535170228E+02  0.43504677046E+02  0.00000000000E+00 0. -1.
         -2    1    3    3    0  502  0.29862031560E+02  0.15579807329E+02 -0.32196554362E+02  0.46594950779E+02  0.00000000000E+00 0.  1.
<mgrwt>
<rscale>  0 0.89978967E+02</rscale>
<asrwt>0</asrwt>
<pdfrwt beam="1">  1        2 0.65721726E-02 0.89978967E+02</pdfrwt>
<pdfrwt beam="2">  1       -2 0.72893086E-02 0.89978967E+02</pdfrwt>
<totfact> 0.10078833E+05</totfact>
</mgrwt>
</event>
<event>
 5    1  0.4059427E+001  0.9138780E+02  0.7546771E-02  0.1299525E+00
         -2   -1    0    0    0  501 -0.00000000000E+00  0.00000000000E+00  0.27421576141E+03  0.27421576141E+03  0.00000000000E+00 0. -1.
          2   -1    0    0  501    0  0.00000000000E+00 -0.00000000000E+00 -0.76141963200E+01  0.76141963200E+01  0.00000000000E+00 0.  1.
         23    2    1    2    0    0  0.00000000000E+00  0.00000000000E+00  0.26660156509E+03  0.28182995773E+03  0.91387803155E+02 0.  0.
          2    1    3    3  502    0 -0.16499752674E+02  0.42487099198E+02  0.14331141759E+03  0.15038469952E+03  0.00000000000E+00 0. -1.
         -2    1    3    3    0  502  0.16499752674E+02 -0.42487099198E+02  0.12329014749E+03  0.13144525821E+03  0.00000000000E+00 0.  1.
<mgrwt>
<rscale>  0 0.91387803E+02</rscale>
<asrwt>0</asrwt>
<pdfrwt beam="2">  1        2 0.11714150E-02 0.91387803E+02</pdfrwt>
<pdfrwt beam="1">  1       -2 0.42187033E-01 0.91387803E+02</pdfrwt>
<totfact> 0.53249326E+04</totfact>
</mgrwt>
</event>
<event>
 5    1  0.4059427E+001  0.9117583E+02  0.7546771E-02  0.1300029E+00
         -4   -1    0    0    0  501 -0.00000000000E+00  0.00000000000E+00  0.34357233697E+03  0.34357233697E+03  0.00000000000E+00 0.  1.
          4   -1    0    0  501    0  0.00000000000E+00 -0.00000000000E+00 -0.60489677370E+01  0.60489677370E+01  0.00000000000E+00 0. -1.
         23    2    1    2    0    0  0.00000000000E+00  0.00000000000E+00  0.33752336924E+03  0.34962130471E+03  0.91175829729E+02 0.  0.
          2    1    3    3  502    0 -0.34203463312E+02  0.28997186765E+02  0.13724704676E+03  0.14438651456E+03  0.00000000000E+00 0. -1.
         -2    1    3    3    0  502  0.34203463312E+02 -0.28997186765E+02  0.20027632247E+03  0.20523479015E+03  0.00000000000E+00 0.  1.
<mgrwt>
<rscale>  0 0.91175830E+02</rscale>
<asrwt>0</asrwt>
<pdfrwt beam="2">  1        4 0.93061069E-03 0.91175830E+02</pdfrwt>
<pdfrwt beam="1">  1       -4 0.52857267E-01 0.91175830E+02</pdfrwt>
<totfact> 0.16407105E+04</totfact>
</mgrwt>
</event>
<event>
 5    1  0.4059427E+001  0.9113407E+02  0.7546771E-02  0.1300128E+00
         -4   -1    0    0    0  501 -0.00000000000E+00  0.00000000000E+00  0.44580852820E+02  0.44580852820E+02  0.00000000000E+00 0.  1.
          4   -1    0    0  501    0  0.00000000000E+00 -0.00000000000E+00 -0.46575027668E+02  0.46575027668E+02  0.00000000000E+00 0. -1.
         23    2    1    2    0    0  0.00000000000E+00  0.00000000000E+00 -0.19941748485E+01  0.91155880488E+02  0.91134065059E+02 0.  0.
          2    1    3    3  502    0  0.36224063406E+02  0.23791026201E+02 -0.15077344416E+02  0.45885967485E+02  0.00000000000E+00 0. -1.
         -2    1    3    3    0  502 -0.36224063406E+02 -0.23791026201E+02  0.13083169568E+02  0.45269913003E+02  0.00000000000E+00 0.  1.
<mgrwt>
<rscale>  0 0.91134065E+02</rscale>
<asrwt>0</asrwt>
<pdfrwt beam="2">  1        4 0.71653889E-02 0.91134065E+02</pdfrwt>
<pdfrwt beam="1">  1       -4 0.68585927E-02 0.91134065E+02</pdfrwt>
<totfact> 0.27052060E+04</totfact>
</mgrwt>
</event>
<event>
 5    1  0.4059427E+001  0.8959307E+02  0.7546771E-02  0.1303840E+00
         -2   -1    0    0    0  501 -0.00000000000E+00  0.00000000000E+00  0.45075021468E+02  0.45075021468E+02  0.00000000000E+00 0.  1.
          2   -1    0    0  501    0  0.00000000000E+00 -0.00000000000E+00 -0.44519773612E+02  0.44519773612E+02  0.00000000000E+00 0. -1.
         23    2    1    2    0    0  0.00000000000E+00  0.00000000000E+00  0.55524785584E+00  0.89594795080E+02  0.89593074538E+02 0.  0.
          2    1    3    3  502    0 -0.18548148073E+02  0.18605897019E+02 -0.36006906049E+02  0.44572530599E+02  0.00000000000E+00 0. -1.
         -2    1    3    3    0  502  0.18548148073E+02 -0.18605897019E+02  0.36562153905E+02  0.45022264481E+02  0.00000000000E+00 0.  1.
<mgrwt>
<rscale>  0 0.89593075E+02</rscale>
<asrwt>0</asrwt>
<pdfrwt beam="2">  1        2 0.68491959E-02 0.89593075E+02</pdfrwt>
<pdfrwt beam="1">  1       -2 0.69346187E-02 0.89593075E+02</pdfrwt>
<totfact> 0.10312198E+05</totfact>
</mgrwt>
</event>
<event>
 5    1  0.4059427E+001  0.8952220E+02  0.7546771E-02  0.1304013E+00
          3   -1    0    0  501    0  0.00000000000E+00  0.00000000000E+00  0.37908493126E+03  0.37908493126E+03  0.00000000000E+00 0. -1.
         -3   -1    0    0    0  501 -0.00000000000E+00 -0.00000000000E+00 -0.52852434154E+01  0.52852434154E+01  0.00000000000E+00 0.  1.
         23    2    1    2    0    0  0.00000000000E+00  0.00000000000E+00  0.37379968784E+03  0.38437017467E+03  0.89522201421E+02 0.  0.
          2    1    3    3  502    0  0.76847576045E-01 -0.40763646404E+02  0.26628747270E+03  0.26938949291E+03  0.00000000000E+00 0. -1.
         -2    1    3    3    0  502 -0.76847576045E-01  0.40763646404E+02  0.10751221514E+03  0.11498068176E+03  0.00000000000E+00 0.  1.
<mgrwt>
<rscale>  0 0.89522201E+02</rscale>
<asrwt>0</asrwt>
<pdfrwt beam="1">  1        3 0.58320737E-01 0.89522201E+02</pdfrwt>
<pdfrwt beam="2">  1       -3 0.81311467E-03 0.89522201E+02</pdfrwt>
<totfact> 0.22152493E+04</totfact>
</mgrwt>
</event>
<event>
 5    1  0.4059427E+001  0.9699461E+02  0.7546771E-02  0.1286746E+00
          1   -1    0    0  501    0  0.00000000000E+00  0.00000000000E+00  0.21677251808E+03  0.21677251808E+03  0.00000000000E+00 0. -1.
         -1   -1    0    0    0  501 -0.00000000000E+00 -0.00000000000E+00 -0.10850031177E+02  0.10850031177E+02  0.00000000000E+00 0.  1.
         23    2    1    2    0    0  0.00000000000E+00  0.00000000000E+00  0.20592248690E+03  0.22762254926E+03  0.96994609736E+02 0.  0.
          2    1    3    3  502    0 -0.24270564259E+02 -0.38020791095E+02  0.14476693232E+03  0.15163147938E+03  0.00000000000E+00 0. -1.
         -2    1    3    3    0  502  0.24270564259E+02  0.38020791095E+02  0.61155554579E+02  0.75991069876E+02  0.00000000000E+00 0.  1.
<mgrwt>
<rscale>  0 0.96994610E+02</rscale>
<asrwt>0</asrwt>
<pdfrwt beam="1">  1        1 0.33349615E-01 0.96994610E+02</pdfrwt>
<pdfrwt beam="2">  1       -1 0.16692357E-02 0.96994610E+02</pdfrwt>
<totfact> 0.10184781E+05</totfact>
</mgrwt>
</event>
<event>
 5    1  0.4059427E+001  0.1115521E+03  0.7546771E-02  0.1257722E+00
         -1   -1    0    0    0  501 -0.00000000000E+00  0.00000000000E+00  0.35714024523E+01  0.35714024523E+01  0.00000000000E+00 0.  1.
          1   -1    0    0  501    0  0.00000000000E+00 -0.00000000000E+00 -0.87107749098E+03  0.87107749098E+03  0.00000000000E+00 0. -1.
         23    2    1    2    0    0  0.00000000000E+00  0.00000000000E+00 -0.86750608853E+03  0.87464889343E+03  0.11155210957E+03 0.  0.
          2    1    3    3  502    0 -0.71798950042E+01 -0.54905811626E+02 -0.48621516562E+03  0.48935813708E+03  0.00000000000E+00 0. -1.
         -2    1    3    3    0  502  0.71798950042E+01  0.54905811626E+02 -0.38129092291E+03  0.38529075635E+03  0.00000000000E+00 0.  1.
<mgrwt>
<rscale>  0 0.11155211E+03</rscale>
<asrwt>0</asrwt>
<pdfrwt beam="2">  1        1 0.13401186E+00 0.11155211E+03</pdfrwt>
<pdfrwt beam="1">  1       -1 0.54944680E-03 0.11155211E+03</pdfrwt>
<totfact> 0.81669214E+04</totfact>
</mgrwt>
</event>
<event>
 5    1  0.4059427E+001  0.8995785E+02  0.7546771E-02  0.1302954E+00
          3   -1    0    0  501    0  0.00000000000E+00  0.00000000000E+00  0.64425121464E+03  0.64425121464E+03  0.00000000000E+00 0. -1.
         -3   -1    0    0    0  501 -0.00000000000E+00 -0.00000000000E+00 -0.31402404420E+01  0.31402404420E+01  0.00000000000E+00 0.  1.
         23    2    1    2    0    0  0.00000000000E+00  0.00000000000E+00  0.64111097420E+03  0.64739145508E+03  0.89957850553E+02 0.  0.
          2    1    3    3  502    0  0.32885742824E+02  0.30497911425E+02  0.34496996149E+03  0.34787335198E+03  0.00000000000E+00 0. -1.
         -2    1    3    3    0  502 -0.32885742824E+02 -0.30497911425E+02  0.29614101271E+03  0.29951810311E+03  0.00000000000E+00 0.  1.
<mgrwt>
<rscale>  0 0.89957851E+02</rscale>
<asrwt>0</asrwt>
<pdfrwt beam="1">  1        3 0.99115466E-01 0.89957851E+02</pdfrwt>
<pdfrwt beam="2">  1       -3 0.48311443E-03 0.89957851E+02</pdfrwt>
<totfact> 0.15372191E+04</totfact>
</mgrwt>
</event>
<event>
 5    1  0.4059427E+001  0.9215991E+02  0.7546771E-02  0.1297704E+00
         -3   -1    0    0    0  501 -0.00000000000E+00  0.00000000000E+00  0.19457832571E+03  0.19457832571E+03  0.00000000000E+00 0.  1.
          3   -1    0    0  501    0  0.00000000000E+00 -0.00000000000E+00 -0.10912634216E+02  0.10912634216E+02  0.00000000000E+00 0. -1.
         23    2    1    2    0    0  0.00000000000E+00  0.00000000000E+00  0.18366569150E+03  0.20549095993E+03  0.92159906571E+02 0.  0.
          2    1    3    3  502    0  0.24533040749E+02  0.29330147431E+02  0.34496708142E+02  0.51499034062E+02  0.00000000000E+00 0. -1.
         -2    1    3    3    0  502 -0.24533040749E+02 -0.29330147431E+02  0.14916898336E+03  0.15399192587E+03  0.00000000000E+00 0.  1.
<mgrwt>
<rscale>  0 0.92159907E+02</rscale>
<asrwt>0</asrwt>
<pdfrwt beam="2">  1        3 0.16788669E-02 0.92159907E+02</pdfrwt>
<pdfrwt beam="1">  1       -3 0.29935124E-01 0.92159907E+02</pdfrwt>
<totfact> 0.27409507E+04</totfact>
</mgrwt>
</event>
<event>
 5    1  0.4059427E+001  0.8910260E+02  0.7546771E-02  0.1305040E+00
         -2   -1    0    0    0  501 -0.00000000000E+00  0.00000000000E+00  0.23751026745E+01  0.23751026745E+01  0.00000000000E+00 0.  1.
          2   -1    0    0  501    0  0.00000000000E+00 -0.00000000000E+00 -0.83567691979E+03  0.83567691979E+03  0.00000000000E+00 0. -1.
         23    2    1    2    0    0  0.00000000000E+00  0.00000000000E+00 -0.83330181711E+03  0.83805202246E+03  0.89102603491E+02 0.  0.
          2    1    3    3  502    0 -0.30782957517E+02 -0.29425896202E+02 -0.29353452373E+03  0.29660746866E+03  0.00000000000E+00 0.  1.
         -2    1    3    3    0  502  0.30782957517E+02  0.29425896202E+02 -0.53976729338E+03  0.54144455380E+03  0.00000000000E+00 0. -1.
<mgrwt>
<rscale>  0 0.89102603E+02</rscale>
<asrwt>0</asrwt>
<pdfrwt beam="2">  1        2 0.12856555E+00 0.89102603E+02</pdfrwt>
<pdfrwt beam="1">  1       -2 0.36540077E-03 0.89102603E+02</pdfrwt>
<totfact> 0.26082391E+05</totfact>
</mgrwt>
</event>
<event>
 5    1  0.4059427E+001  0.9528093E+02  0.7546771E-02  0.1290545E+00
         -2   -1    0    0    0  501 -0.00000000000E+00  0.00000000000E+00  0.51805718833E+01  0.51805718833E+01  0.00000000000E+00 0.  1.
          2   -1    0    0  501    0  0.00000000000E+00 -0.00000000000E+00 -0.43810099772E+03  0.43810099772E+03  0.00000000000E+00 0. -1.
         23    2    1    2    0    0  0.00000000000E+00  0.00000000000E+00 -0.43292042584E+03  0.44328156961E+03  0.95280925916E+02 0.  0.
          2    1    3    3  502    0 -0.16822492252E+02  0.14820768056E+02 -0.41202350872E+03  0.41263303691E+03  0.00000000000E+00 0. -1.
         -2    1    3    3    0  502  0.16822492252E+02 -0.14820768056E+02 -0.20896917118E+02  0.30648532695E+02  0.00000000000E+00 0.  1.
<mgrwt>
<rscale>  0 0.95280926E+02</rscale>
<asrwt>0</asrwt>
<pdfrwt beam="2">  1        2 0.67400188E-01 0.95280926E+02</pdfrwt>
<pdfrwt beam="1">  1       -2 0.79701065E-03 0.95280926E+02</pdfrwt>
<totfact> 0.18335758E+05</totfact>
</mgrwt>
</event>
<event>
 5    1  0.4059427E+001  0.9023328E+02  0.7546771E-02  0.1302288E+00
         -2   -1    0    0    0  501 -0.00000000000E+00  0.00000000000E+00  0.25889311823E+01  0.25889311823E+01  0.00000000000E+00 0.  1.
          2   -1    0    0  501    0  0.00000000000E+00 -0.00000000000E+00 -0.78623612379E+03  0.78623612379E+03  0.00000000000E+00 0. -1.
         23    2    1    2    0    0  0.00000000000E+00  0.00000000000E+00 -0.78364719260E+03  0.78882505497E+03  0.90233280280E+02 0.  0.
          2    1    3    3  502    0  0.53928349476E+01  0.23115125250E+02 -0.72724091921E+03  0.72762816483E+03  0.00000000000E+00 0. -1.
         -2    1    3    3    0  502 -0.53928349476E+01 -0.23115125250E+02 -0.56406273393E+02  0.61196890135E+02  0.00000000000E+00 0.  1.
<mgrwt>
<rscale>  0 0.90233280E+02</rscale>
<asrwt>0</asrwt>
<pdfrwt beam="2">  1        2 0.12095961E+00 0.90233280E+02</pdfrwt>
<pdfrwt beam="1">  1       -2 0.39829643E-03 0.90233280E+02</pdfrwt>
<totfact> 0.24972975E+05</totfact>
</mgrwt>
</event>
<event>
 5    1  0.4059427E+001  0.9129591E+02  0.7546771E-02  0.1299743E+00
          2   -1    0    0  501    0  0.00000000000E+00  0.00000000000E+00  0.21992099358E+02  0.21992099358E+02  0.00000000000E+00 0.  1.
         -2   -1    0    0    0  501 -0.00000000000E+00 -0.00000000000E+00 -0.94749293111E+02  0.94749293111E+02  0.00000000000E+00 0. -1.
         23    2    1    2    0    0  0.00000000000E+00  0.00000000000E+00 -0.72757193753E+02  0.11674139247E+03  0.91295911589E+02 0.  0.
          2    1    3    3  502    0 -0.48950239236E+01 -0.32939760336E+02  0.35440611276E+01  0.33489542240E+02  0.00000000000E+00 0.  1.
         -2    1    3    3    0  502  0.48950239236E+01  0.32939760336E+02 -0.76301254880E+02  0.83251850229E+02  0.00000000000E+00 0. -1.
<mgrwt>
<rscale>  0 0.91295912E+02</rscale>
<asrwt>0</asrwt>
<pdfrwt beam="1">  1        2 0.33834000E-02 0.91295912E+02</pdfrwt>
<pdfrwt beam="2">  1       -2 0.14576814E-01 0.91295912E+02</pdfrwt>
<totfact> 0.80825127E+04</totfact>
</mgrwt>
</event>
<event>
 5    1  0.4059427E+001  0.9020787E+02  0.7546771E-02  0.1302349E+00
          2   -1    0    0  501    0  0.00000000000E+00  0.00000000000E+00  0.36936041536E+03  0.36936041536E+03  0.00000000000E+00 0. -1.
         -2   -1    0    0    0  501 -0.00000000000E+00 -0.00000000000E+00 -0.55078048952E+01  0.55078048952E+01  0.00000000000E+00 0.  1.
         23    2    1    2    0    0  0.00000000000E+00  0.00000000000E+00  0.36385261047E+03  0.37486822026E+03  0.90207873355E+02 0.  0.
          2    1    3    3  502    0 -0.33345047115E+02  0.22214117825E+02  0.26799908230E+03  0.27097761404E+03  0.00000000000E+00 0. -1.
         -2    1    3    3    0  502  0.33345047115E+02 -0.22214117825E+02  0.95853528167E+02  0.10389060622E+03  0.00000000000E+00 0.  1.
<mgrwt>
<rscale>  0 0.90207873E+02</rscale>
<asrwt>0</asrwt>
<pdfrwt beam="1">  1        2 0.56824660E-01 0.90207873E+02</pdfrwt>
<pdfrwt beam="2">  1       -2 0.84735489E-03 0.90207873E+02</pdfrwt>
<totfact> 0.19954547E+05</totfact>
</mgrwt>
</event>
<event>
 5    1  0.4059427E+001  0.9073879E+02  0.7546771E-02  0.1301072E+00
          2   -1    0    0  501    0  0.00000000000E+00  0.00000000000E+00  0.71994269927E+03  0.71994269927E+03  0.00000000000E+00 0.  1.
         -2   -1    0    0    0  501 -0.00000000000E+00 -0.00000000000E+00 -0.28590913783E+01  0.28590913783E+01  0.00000000000E+00 0. -1.
         23    2    1    2    0    0  0.00000000000E+00  0.00000000000E+00  0.71708360789E+03  0.72280179064E+03  0.90738789155E+02 0.  0.
          2    1    3    3  502    0  0.19030279984E+02  0.31035318360E+02  0.14287172075E+03  0.14743700734E+03  0.00000000000E+00 0. -1.
         -2    1    3    3    0  502 -0.19030279984E+02 -0.31035318360E+02  0.57421188713E+03  0.57536478331E+03  0.00000000000E+00 0.  1.
<mgrwt>
<rscale>  0 0.90738789E+02</rscale>
<asrwt>0</asrwt>
<pdfrwt beam="1">  1        2 0.11076027E+00 0.90738789E+02</pdfrwt>
<pdfrwt beam="2">  1       -2 0.43986079E-03 0.90738789E+02</pdfrwt>
<totfact> 0.24171292E+05</totfact>
</mgrwt>
</event>
<event>
 5    1  0.4059427E+001  0.9057695E+02  0.7546771E-02  0.1301461E+00
         -2   -1    0    0    0  501 -0.00000000000E+00  0.00000000000E+00  0.19708370312E+01  0.19708370312E+01  0.00000000000E+00 0.  1.
          2   -1    0    0  501    0  0.00000000000E+00 -0.00000000000E+00 -0.10406978840E+04  0.10406978840E+04  0.00000000000E+00 0. -1.
         23    2    1    2    0    0  0.00000000000E+00  0.00000000000E+00 -0.10387270470E+04  0.10426687211E+04  0.90576949124E+02 0.  0.
          2    1    3    3  502    0  0.43030421943E+02 -0.11566693392E+02 -0.61262751539E+03  0.61424577998E+03  0.00000000000E+00 0. -1.
         -2    1    3    3    0  502 -0.43030421943E+02  0.11566693392E+02 -0.42609953161E+03  0.42842294108E+03  0.00000000000E+00 0.  1.
<mgrwt>
<rscale>  0 0.90576949E+02</rscale>
<asrwt>0</asrwt>
<pdfrwt beam="2">  1        2 0.16010763E+00 0.90576949E+02</pdfrwt>
<pdfrwt beam="1">  1       -2 0.30320520E-03 0.90576949E+02</pdfrwt>
<totfact> 0.25468868E+05</totfact>
</mgrwt>
</event>
<event>
 5    1  0.4059427E+001  0.8829448E+02  0.7546771E-02  0.1307035E+00
         -2   -1    0    0    0  501 -0.00000000000E+00  0.00000000000E+00  0.32244384711E+03  0.32244384711E+03  0.00000000000E+00 0.  1.
          2   -1    0    0  501    0  0.00000000000E+00 -0.00000000000E+00 -0.60443978955E+01  0.60443978955E+01  0.00000000000E+00 0. -1.
         23    2    1    2    0    0  0.00000000000E+00  0.00000000000E+00  0.31639944922E+03  0.32848824501E+03  0.88294482521E+02 0.  0.
          2    1    3    3  502    0  0.42253863201E+02 -0.11138573549E+02  0.13481100405E+03  0.14171613736E+03  0.00000000000E+00 0. -1.
         -2    1    3    3    0  502 -0.42253863201E+02  0.11138573549E+02  0.18158844517E+03  0.18677210765E+03  0.00000000000E+00 0.  1.
<mgrwt>
<rscale>  0 0.88294483E+02</rscale>
<asrwt>0</asrwt>
<pdfrwt beam="2">  1        2 0.92990762E-03 0.88294483E+02</pdfrwt>
<pdfrwt beam="1">  1       -2 0.49606732E-01 0.88294483E+02</pdfrwt>
<totfact> 0.53143984E+04</totfact>
</mgrwt>
</event>
<event>
 5    1  0.4059427E+001  0.9275421E+02  0.7546771E-02  0.1296316E+00
          1   -1    0    0  501    0  0.00000000000E+00  0.00000000000E+00  0.55233929010E+02  0.55233929010E+02  0.00000000000E+00 0. -1.
         -1   -1    0    0    0  501 -0.00000000000E+00 -0.00000000000E+00 -0.38940482536E+02  0.38940482536E+02  0.00000000000E+00 0.  1.
         23    2    1    2    0    0  0.00000000000E+00  0.00000000000E+00  0.16293446474E+02  0.94174411545E+02  0.92754209564E+02 0.  0.
          2    1    3    3  502    0 -0.12049614005E+02  0.25616917949E+02  0.45443580679E+02  0.53540066379E+02  0.00000000000E+00 0. -1.
         -2    1    3    3    0  502  0.12049614005E+02 -0.25616917949E+02 -0.29150134205E+02  0.40634345166E+02  0.00000000000E+00 0.  1.
<mgrwt>
<rscale>  0 0.92754210E+02</rscale>
<asrwt>0</asrwt>
<pdfrwt beam="1">  1        1 0.84975275E-02 0.92754210E+02</pdfrwt>
<pdfrwt beam="2">  1       -1 0.59908435E-02 0.92754210E+02</pdfrwt>
<totfact> 0.90729520E+04</totfact>
</mgrwt>
</event>
<event>
 5    1  0.4059427E+001  0.9086322E+02  0.7546771E-02  0.1300775E+00
          2   -1    0    0  501    0  0.00000000000E+00  0.00000000000E+00  0.72816285109E+03  0.72816285109E+03  0.00000000000E+00 0.  1.
         -2   -1    0    0    0  501 -0.00000000000E+00 -0.00000000000E+00 -0.28345733734E+01  0.28345733734E+01  0.00000000000E+00 0. -1.
         23    2    1    2    0    0  0.00000000000E+00  0.00000000000E+00  0.72532827772E+03  0.73099742447E+03  0.90863216522E+02 0.  0.
          2    1    3    3  502    0 -0.31757586865E+02  0.14305295634E+02  0.12799659787E+03  0.13265110204E+03  0.00000000000E+00 0. -1.
         -2    1    3    3    0  502  0.31757586865E+02 -0.14305295634E+02  0.59733167985E+03  0.59834632243E+03  0.00000000000E+00 0.  1.
<mgrwt>
<rscale>  0 0.90863217E+02</rscale>
<asrwt>0</asrwt>
<pdfrwt beam="1">  1        2 0.11202490E+00 0.90863217E+02</pdfrwt>
<pdfrwt beam="2">  1       -2 0.43608879E-03 0.90863217E+02</pdfrwt>
<totfact> 0.24144302E+05</totfact>
</mgrwt>
</event>
<event>
 5    1  0.4059427E+001  0.9402926E+02  0.7546771E-02  0.1293378E+00
          3   -1    0    0  501    0  0.00000000000E+00  0.00000000000E+00  0.19837117972E+01  0.19837117972E+01  0.00000000000E+00 0. -1.
         -3   -1    0    0    0  501 -0.00000000000E+00 -0.00000000000E+00 -0.11142622729E+04  0.11142622729E+04  0.00000000000E+00 0.  1.
         23    2    1    2    0    0  0.00000000000E+00  0.00000000000E+00 -0.11122785611E+04  0.11162459847E+04  0.94029255361E+02 0.  0.
          2    1    3    3  502    0 -0.36717207909E+02  0.24636525192E+02 -0.74580605592E+03  0.74711564351E+03  0.00000000000E+00 0.  1.
         -2    1    3    3    0  502  0.36717207909E+02 -0.24636525192E+02 -0.36647250517E+03  0.36913034118E+03  0.00000000000E+00 0. -1.
<mgrwt>
<rscale>  0 0.94029255E+02</rscale>
<asrwt>0</asrwt>
<pdfrwt beam="1">  1        3 0.30518659E-03 0.94029255E+02</pdfrwt>
<pdfrwt beam="2">  1       -3 0.17142487E+00 0.94029255E+02</pdfrwt>
<totfact> 0.81640378E+03</totfact>
</mgrwt>
</event>
<event>
 5    1  0.4059427E+001  0.8991961E+02  0.7546771E-02  0.1303046E+00
          4   -1    0    0  501    0  0.00000000000E+00  0.00000000000E+00  0.45879710134E+02  0.45879710134E+02  0.00000000000E+00 0. -1.
         -4   -1    0    0    0  501 -0.00000000000E+00 -0.00000000000E+00 -0.44058342316E+02  0.44058342316E+02  0.00000000000E+00 0.  1.
         23    2    1    2    0    0  0.00000000000E+00  0.00000000000E+00  0.18213678187E+01  0.89938052450E+02  0.89919607971E+02 0.  0.
          2    1    3    3  502    0  0.35097326147E+02  0.21056701976E+02  0.19520332084E+02  0.45345896897E+02  0.00000000000E+00 0. -1.
         -2    1    3    3    0  502 -0.35097326147E+02 -0.21056701976E+02 -0.17698964265E+02  0.44592155553E+02  0.00000000000E+00 0.  1.
<mgrwt>
<rscale>  0 0.89919608E+02</rscale>
<asrwt>0</asrwt>
<pdfrwt beam="1">  1        4 0.70584170E-02 0.89919608E+02</pdfrwt>
<pdfrwt beam="2">  1       -4 0.67782065E-02 0.89919608E+02</pdfrwt>
<totfact> 0.28134686E+04</totfact>
</mgrwt>
</event>
<event>
 5    1  0.4059427E+001  0.9084267E+02  0.7546771E-02  0.1300824E+00
         -2   -1    0    0    0  501 -0.00000000000E+00  0.00000000000E+00  0.79617453209E+02  0.79617453209E+02  0.00000000000E+00 0.  1.
          2   -1    0    0  501    0  0.00000000000E+00 -0.00000000000E+00 -0.25912632972E+02  0.25912632972E+02  0.00000000000E+00 0. -1.
         23    2    1    2    0    0  0.00000000000E+00  0.00000000000E+00  0.53704820237E+02  0.10553008618E+03  0.90842673743E+02 0.  0.
          2    1    3    3  502    0 -0.15262255177E+01 -0.35383089515E+02 -0.61851845456E+01  0.35952036045E+02  0.00000000000E+00 0. -1.
         -2    1    3    3    0  502  0.15262255177E+01  0.35383089515E+02  0.59890004783E+02  0.69578050137E+02  0.00000000000E+00 0.  1.
<mgrwt>
<rscale>  0 0.90842674E+02</rscale>
<asrwt>0</asrwt>
<pdfrwt beam="2">  1        2 0.39865590E-02 0.90842674E+02</pdfrwt>
<pdfrwt beam="1">  1       -2 0.12248839E-01 0.90842674E+02</pdfrwt>
<totfact> 0.85963036E+04</totfact>
</mgrwt>
</event>
<event>
 5    1  0.4059427E+001  0.9123527E+02  0.7546771E-02  0.1299888E+00
         -3   -1    0    0    0  501 -0.00000000000E+00  0.00000000000E+00  0.66262162221E+03  0.66262162221E+03  0.00000000000E+00 0.  1.
          3   -1    0    0  501    0  0.00000000000E+00 -0.00000000000E+00 -0.31405084516E+01  0.31405084516E+01  0.00000000000E+00 0. -1.
         23    2    1    2    0    0  0.00000000000E+00  0.00000000000E+00  0.65948111376E+03  0.66576213067E+03  0.91235273985E+02 0.  0.
          2    1    3    3  502    0  0.78222352239E+01 -0.20545021311E+02  0.38063890150E+02  0.43956171329E+02  0.00000000000E+00 0. -1.
         -2    1    3    3    0  502 -0.78222352239E+01  0.20545021311E+02  0.62141722361E+03  0.62180595934E+03  0.00000000000E+00 0.  1.
<mgrwt>
<rscale>  0 0.91235274E+02</rscale>
<asrwt>0</asrwt>
<pdfrwt beam="2">  1        3 0.48315567E-03 0.91235274E+02</pdfrwt>
<pdfrwt beam="1">  1       -3 0.10194168E+00 0.91235274E+02</pdfrwt>
<totfact> 0.14449129E+04</totfact>
</mgrwt>
</event>
<event>
 5    1  0.4059427E+001  0.8698995E+02  0.7546771E-02  0.1310309E+00
         -1   -1    0    0    0  501 -0.00000000000E+00  0.00000000000E+00  0.12835361570E+03  0.12835361570E+03  0.00000000000E+00 0.  1.
          1   -1    0    0  501    0  0.00000000000E+00 -0.00000000000E+00 -0.14739070997E+02  0.14739070997E+02  0.00000000000E+00 0. -1.
         23    2    1    2    0    0  0.00000000000E+00  0.00000000000E+00  0.11361454470E+03  0.14309268669E+03  0.86989954696E+02 0.  0.
          2    1    3    3  502    0 -0.89446707359E-01  0.30050340147E+02  0.50824945588E+01  0.30477248803E+02  0.00000000000E+00 0. -1.
         -2    1    3    3    0  502  0.89446707359E-01 -0.30050340147E+02  0.10853205014E+03  0.11261543789E+03  0.00000000000E+00 0.  1.
<mgrwt>
<rscale>  0 0.86989955E+02</rscale>
<asrwt>0</asrwt>
<pdfrwt beam="2">  1        1 0.22675495E-02 0.86989955E+02</pdfrwt>
<pdfrwt beam="1">  1       -1 0.19746709E-01 0.86989955E+02</pdfrwt>
<totfact> 0.87435535E+04</totfact>
</mgrwt>
</event>
<event>
 5    1  0.4059427E+001  0.9405504E+02  0.7546771E-02  0.1293319E+00
         -1   -1    0    0    0  501 -0.00000000000E+00  0.00000000000E+00  0.44286662972E+01  0.44286662972E+01  0.00000000000E+00 0.  1.
          1   -1    0    0  501    0  0.00000000000E+00 -0.00000000000E+00 -0.49938005145E+03  0.49938005145E+03  0.00000000000E+00 0. -1.
         23    2    1    2    0    0  0.00000000000E+00  0.00000000000E+00 -0.49495138515E+03  0.50380871774E+03  0.94055039276E+02 0.  0.
          2    1    3    3  502    0 -0.25999904881E+02  0.13045777918E+02 -0.44540659034E+03  0.44635548400E+03  0.00000000000E+00 0. -1.
         -2    1    3    3    0  502  0.25999904881E+02 -0.13045777918E+02 -0.49544794809E+02  0.57453233747E+02  0.00000000000E+00 0.  1.
<mgrwt>
<rscale>  0 0.94055039E+02</rscale>
<asrwt>0</asrwt>
<pdfrwt beam="2">  1        1 0.76827737E-01 0.94055039E+02</pdfrwt>
<pdfrwt beam="1">  1       -1 0.68133295E-03 0.94055039E+02</pdfrwt>
<totfact> 0.12821620E+05</totfact>
</mgrwt>
</event>
<event>
 5    1  0.4059427E+001  0.9145185E+02  0.7546771E-02  0.1299373E+00
          2   -1    0    0  501    0  0.00000000000E+00  0.00000000000E+00  0.15829771818E+04  0.15829771818E+04  0.00000000000E+00 0. -1.
         -2   -1    0    0    0  501 -0.00000000000E+00 -0.00000000000E+00 -0.13208402618E+01  0.13208402618E+01  0.00000000000E+00 0.  1.
         23    2    1    2    0    0  0.00000000000E+00  0.00000000000E+00  0.15816563415E+04  0.15842980220E+04  0.91451845147E+02 0.  0.
          2    1    3    3  502    0  0.57873986457E+01  0.31338370341E+02  0.22275577190E+03  0.22502382396E+03  0.00000000000E+00 0.  1.
         -2    1    3    3    0  502 -0.57873986457E+01 -0.31338370341E+02  0.13589005696E+04  0.13592741981E+04  0.00000000000E+00 0. -1.
<mgrwt>
<rscale>  0 0.91451845E+02</rscale>
<asrwt>0</asrwt>
<pdfrwt beam="1">  1        2 0.24353343E+00 0.91451845E+02</pdfrwt>
<pdfrwt beam="2">  1       -2 0.20320746E-03 0.91451845E+02</pdfrwt>
<totfact> 0.22887852E+05</totfact>
</mgrwt>
</event>
<event>
 5    1  0.4059427E+001  0.9113759E+02  0.7546771E-02  0.1300120E+00
         -1   -1    0    0    0  501 -0.00000000000E+00  0.00000000000E+00  0.30406113148E+01  0.30406113148E+01  0.00000000000E+00 0.  1.
          1   -1    0    0  501    0  0.00000000000E+00 -0.00000000000E+00 -0.68292680858E+03  0.68292680858E+03  0.00000000000E+00 0. -1.
         23    2    1    2    0    0  0.00000000000E+00  0.00000000000E+00 -0.67988619727E+03  0.68596741990E+03  0.91137587884E+02 0.  0.
          2    1    3    3  502    0 -0.15766517166E+02  0.38849211950E+02 -0.47430526313E+03  0.47615473007E+03  0.00000000000E+00 0. -1.
         -2    1    3    3    0  502  0.15766517166E+02 -0.38849211950E+02 -0.20558093414E+03  0.20981268983E+03  0.00000000000E+00 0.  1.
<mgrwt>
<rscale>  0 0.91137588E+02</rscale>
<asrwt>0</asrwt>
<pdfrwt beam="2">  1        1 0.10506558E+00 0.91137588E+02</pdfrwt>
<pdfrwt beam="1">  1       -1 0.46778674E-03 0.91137588E+02</pdfrwt>
<totfact> 0.14234766E+05</totfact>
</mgrwt>
</event>
<event>
 5    1  0.4059427E+001  0.9244116E+02  0.7546771E-02  0.1297045E+00
         -4   -1    0    0    0  501 -0.00000000000E+00  0.00000000000E+00  0.37554412236E+01  0.37554412236E+01  0.00000000000E+00 0. -1.
          4   -1    0    0  501    0  0.00000000000E+00 -0.00000000000E+00 -0.56886572997E+03  0.56886572997E+03  0.00000000000E+00 0.  1.
         23    2    1    2    0    0  0.00000000000E+00  0.00000000000E+00 -0.56511028875E+03  0.57262117120E+03  0.92441155619E+02 0.  0.
          2    1    3    3  502    0  0.25248958396E+02 -0.11983193185E+01 -0.42853860014E+02  0.49753383678E+02  0.00000000000E+00 0. -1.
         -2    1    3    3    0  502 -0.25248958396E+02  0.11983193185E+01 -0.52225642874E+03  0.52286778752E+03  0.00000000000E+00 0.  1.
<mgrwt>
<rscale>  0 0.92441156E+02</rscale>
<asrwt>0</asrwt>
<pdfrwt beam="2">  1        4 0.87517771E-01 0.92441156E+02</pdfrwt>
<pdfrwt beam="1">  1       -4 0.57776041E-03 0.92441156E+02</pdfrwt>
<totfact> 0.11406595E+04</totfact>
</mgrwt>
</event>
<event>
 5    1  0.4059427E+001  0.9109237E+02  0.7546771E-02  0.1300228E+00
         -2   -1    0    0    0  501 -0.00000000000E+00  0.00000000000E+00  0.21711777123E+01  0.21711777123E+01  0.00000000000E+00 0.  1.
          2   -1    0    0  501    0  0.00000000000E+00 -0.00000000000E+00 -0.95545142592E+03  0.95545142592E+03  0.00000000000E+00 0. -1.
         23    2    1    2    0    0  0.00000000000E+00  0.00000000000E+00 -0.95328024821E+03  0.95762260363E+03  0.91092367213E+02 0.  0.
          2    1    3    3  502    0  0.17407397375E+02 -0.27443870952E+02 -0.81210275841E+03  0.81275277530E+03  0.00000000000E+00 0. -1.
         -2    1    3    3    0  502 -0.17407397375E+02  0.27443870952E+02 -0.14117748979E+03  0.14486982833E+03  0.00000000000E+00 0.  1.
<mgrwt>
<rscale>  0 0.91092367E+02</rscale>
<asrwt>0</asrwt>
<pdfrwt beam="2">  1        2 0.14699214E+00 0.91092367E+02</pdfrwt>
<pdfrwt beam="1">  1       -2 0.33402823E-03 0.91092367E+02</pdfrwt>
<totfact> 0.24994764E+05</totfact>
</mgrwt>
</event>
<event>
 5    1  0.4059427E+001  0.9238845E+02  0.7546771E-02  0.1297169E+00
          1   -1    0    0  501    0  0.00000000000E+00  0.00000000000E+00  0.15464303593E+03  0.15464303593E+03  0.00000000000E+00 0. -1.
         -1   -1    0    0    0  501 -0.00000000000E+00 -0.00000000000E+00 -0.13798916868E+02  0.13798916868E+02  0.00000000000E+00 0.  1.
         23    2    1    2    0    0  0.00000000000E+00  0.00000000000E+00  0.14084411906E+03  0.16844195279E+03  0.92388449430E+02 0.  0.
          2    1    3    3  502    0  0.85425428157E+01 -0.20520707884E+02  0.14425195535E+03  0.14595444875E+03  0.00000000000E+00 0. -1.
         -2    1    3    3    0  502 -0.85425428157E+01  0.20520707884E+02 -0.34078362883E+01  0.22487504041E+02  0.00000000000E+00 0.  1.
<mgrwt>
<rscale>  0 0.92388449E+02</rscale>
<asrwt>0</asrwt>
<pdfrwt beam="1">  1        1 0.23791235E-01 0.92388449E+02</pdfrwt>
<pdfrwt beam="2">  1       -1 0.21229104E-02 0.92388449E+02</pdfrwt>
<totfact> 0.10881603E+05</totfact>
</mgrwt>
</event>
<event>
 5    1  0.4059427E+001  0.9110741E+02  0.7546771E-02  0.1300192E+00
          2   -1    0    0  501    0  0.00000000000E+00  0.00000000000E+00  0.11265487715E+03  0.11265487715E+03  0.00000000000E+00 0. -1.
         -2   -1    0    0    0  501 -0.00000000000E+00 -0.00000000000E+00 -0.18420328840E+02  0.18420328840E+02  0.00000000000E+00 0.  1.
         23    2    1    2    0    0  0.00000000000E+00  0.00000000000E+00  0.94234548308E+02  0.13107520599E+03  0.91107406561E+02 0.  0.
          2    1    3    3  502    0 -0.35231970346E+02  0.27709413830E+02  0.58808471667E+02  0.73942813640E+02  0.00000000000E+00 0. -1.
         -2    1    3    3    0  502  0.35231970346E+02 -0.27709413830E+02  0.35426076641E+02  0.57132392348E+02  0.00000000000E+00 0.  1.
<mgrwt>
<rscale>  0 0.91107407E+02</rscale>
<asrwt>0</asrwt>
<pdfrwt beam="1">  1        2 0.17331519E-01 0.91107407E+02</pdfrwt>
<pdfrwt beam="2">  1       -2 0.28338968E-02 0.91107407E+02</pdfrwt>
<totfact> 0.12755260E+05</totfact>
</mgrwt>
</event>
<event>
 5    1  0.4059427E+001  0.8585339E+02  0.7546771E-02  0.1313216E+00
         -1   -1    0    0    0  501 -0.00000000000E+00  0.00000000000E+00  0.10910671531E+03  0.10910671531E+03  0.00000000000E+00 0.  1.
          1   -1    0    0  501    0  0.00000000000E+00 -0.00000000000E+00 -0.16888979152E+02  0.16888979152E+02  0.00000000000E+00 0. -1.
         23    2    1    2    0    0  0.00000000000E+00  0.00000000000E+00  0.92217736158E+02  0.12599569446E+03  0.85853387591E+02 0.  0.
          2    1    3    3  502    0  0.23844771359E+02 -0.34273753790E+02  0.31474504256E+02  0.52286783590E+02  0.00000000000E+00 0.  1.
         -2    1    3    3    0  502 -0.23844771359E+02  0.34273753790E+02  0.60743231901E+02  0.73708910872E+02  0.00000000000E+00 0. -1.
<mgrwt>
<rscale>  0 0.85853388E+02</rscale>
<asrwt>0</asrwt>
<pdfrwt beam="2">  1        1 0.25983046E-02 0.85853388E+02</pdfrwt>
<pdfrwt beam="1">  1       -1 0.16785648E-01 0.85853388E+02</pdfrwt>
<totfact> 0.93444328E+04</totfact>
</mgrwt>
</event>
<event>
 5    1  0.4059427E+001  0.9269308E+02  0.7546771E-02  0.1296458E+00
         -2   -1    0    0    0  501 -0.00000000000E+00  0.00000000000E+00  0.46984795224E+03  0.46984795224E+03  0.00000000000E+00 0. -1.
          2   -1    0    0  501    0  0.00000000000E+00 -0.00000000000E+00 -0.45716955499E+01  0.45716955499E+01  0.00000000000E+00 0.  1.
         23    2    1    2    0    0  0.00000000000E+00  0.00000000000E+00  0.46527625669E+03  0.47441964779E+03  0.92693080484E+02 0.  0.
          2    1    3    3  502    0  0.43793201739E+02 -0.90862729287E+01  0.29481859773E+03  0.29819190204E+03  0.00000000000E+00 0. -1.
         -2    1    3    3    0  502 -0.43793201739E+02  0.90862729287E+01  0.17045765896E+03  0.17622774575E+03  0.00000000000E+00 0.  1.
<mgrwt>
<rscale>  0 0.92693080E+02</rscale>
<asrwt>0</asrwt>
<pdfrwt beam="2">  1        2 0.70333815E-03 0.92693080E+02</pdfrwt>
<pdfrwt beam="1">  1       -2 0.72284262E-01 0.92693080E+02</pdfrwt>
<totfact> 0.36476529E+04</totfact>
</mgrwt>
</event>
<event>
 5    1  0.4059427E+001  0.8967652E+02  0.7546771E-02  0.1303637E+00
         -4   -1    0    0    0  501 -0.00000000000E+00  0.00000000000E+00  0.46075464088E+02  0.46075464088E+02  0.00000000000E+00 0.  1.
          4   -1    0    0  501    0  0.00000000000E+00 -0.00000000000E+00 -0.43634278447E+02  0.43634278447E+02  0.00000000000E+00 0. -1.
         23    2    1    2    0    0  0.00000000000E+00  0.00000000000E+00  0.24411856412E+01  0.89709742536E+02  0.89676521556E+02 0.  0.
          2    1    3    3  502    0  0.36589378296E+02 -0.70195968604E+01 -0.23736841351E+02  0.44175728421E+02  0.00000000000E+00 0. -1.
         -2    1    3    3    0  502 -0.36589378296E+02  0.70195968604E+01  0.26178026992E+02  0.45534014115E+02  0.00000000000E+00 0.  1.
<mgrwt>
<rscale>  0 0.89676522E+02</rscale>
<asrwt>0</asrwt>
<pdfrwt beam="2">  1        4 0.67129659E-02 0.89676522E+02</pdfrwt>
<pdfrwt beam="1">  1       -4 0.70885329E-02 0.89676522E+02</pdfrwt>
<totfact> 0.28356959E+04</totfact>
</mgrwt>
</event>
<event>
 5    1  0.4059427E+001  0.9166361E+02  0.7546771E-02  0.1298872E+00
         -1   -1    0    0    0  501 -0.00000000000E+00  0.00000000000E+00  0.56097342556E+01  0.56097342556E+01  0.00000000000E+00 0.  1.
          1   -1    0    0  501    0  0.00000000000E+00 -0.00000000000E+00 -0.37444807407E+03  0.37444807407E+03  0.00000000000E+00 0. -1.
         23    2    1    2    0    0  0.00000000000E+00  0.00000000000E+00 -0.36883833982E+03  0.38005780833E+03  0.91663606476E+02 0.  0.
          2    1    3    3  502    0  0.44885598417E+02 -0.92420468734E+01 -0.18711202144E+03  0.19264226157E+03  0.00000000000E+00 0. -1.
         -2    1    3    3    0  502 -0.44885598417E+02  0.92420468734E+01 -0.18172631837E+03  0.18741554675E+03  0.00000000000E+00 0.  1.
<mgrwt>
<rscale>  0 0.91663606E+02</rscale>
<asrwt>0</asrwt>
<pdfrwt beam="2">  1        1 0.57607400E-01 0.91663606E+02</pdfrwt>
<pdfrwt beam="1">  1       -1 0.86303598E-03 0.91663606E+02</pdfrwt>
<totfact> 0.13152474E+05</totfact>
</mgrwt>
</event>
<event>
 5    1  0.4059427E+001  0.9062649E+02  0.7546771E-02  0.1301342E+00
          2   -1    0    0  501    0  0.00000000000E+00  0.00000000000E+00  0.70625149617E+02  0.70625149617E+02  0.00000000000E+00 0. -1.
         -2   -1    0    0    0  501 -0.00000000000E+00 -0.00000000000E+00 -0.29073073995E+02  0.29073073995E+02  0.00000000000E+00 0.  1.
         23    2    1    2    0    0  0.00000000000E+00  0.00000000000E+00  0.41552075622E+02  0.99698223612E+02  0.90626490625E+02 0.  0.
          2    1    3    3  502    0 -0.37571997152E+02 -0.24169307351E+02  0.12435579223E+02  0.46372988026E+02  0.00000000000E+00 0.  1.
         -2    1    3    3    0  502  0.37571997152E+02  0.24169307351E+02  0.29116496399E+02  0.53325235587E+02  0.00000000000E+00 0. -1.
<mgrwt>
<rscale>  0 0.90626491E+02</rscale>
<asrwt>0</asrwt>
<pdfrwt beam="1">  1        2 0.10865408E-01 0.90626491E+02</pdfrwt>
<pdfrwt beam="2">  1       -2 0.44727806E-02 0.90626491E+02</pdfrwt>
<totfact> 0.11278417E+05</totfact>
</mgrwt>
</event>
<event>
 5    1  0.4059427E+001  0.9412764E+02  0.7546771E-02  0.1293153E+00
         -1   -1    0    0    0  501 -0.00000000000E+00  0.00000000000E+00  0.17153033781E+01  0.17153033781E+01  0.00000000000E+00 0.  1.
          1   -1    0    0  501    0  0.00000000000E+00 -0.00000000000E+00 -0.12913185128E+04  0.12913185128E+04  0.00000000000E+00 0. -1.
         23    2    1    2    0    0  0.00000000000E+00  0.00000000000E+00 -0.12896032094E+04  0.12930338161E+04  0.94127636900E+02 0.  0.
          2    1    3    3  502    0  0.43087811057E+02  0.15713799603E+02 -0.78986879511E+03  0.79119921414E+03  0.00000000000E+00 0. -1.
         -2    1    3    3    0  502 -0.43087811057E+02 -0.15713799603E+02 -0.49973441427E+03  0.50183460200E+03  0.00000000000E+00 0.  1.
<mgrwt>
<rscale>  0 0.94127637E+02</rscale>
<asrwt>0</asrwt>
<pdfrwt beam="2">  1        1 0.19866424E+00 0.94127637E+02</pdfrwt>
<pdfrwt beam="1">  1       -1 0.26389302E-03 0.94127637E+02</pdfrwt>
<totfact> 0.11262643E+05</totfact>
</mgrwt>
</event>
<event>
 5    1  0.4059427E+001  0.9091461E+02  0.7546771E-02  0.1300652E+00
         -2   -1    0    0    0  501 -0.00000000000E+00  0.00000000000E+00  0.45141425612E+01  0.45141425612E+01  0.00000000000E+00 0. -1.
          2   -1    0    0  501    0  0.00000000000E+00 -0.00000000000E+00 -0.45775394795E+03  0.45775394795E+03  0.00000000000E+00 0.  1.
         23    2    1    2    0    0  0.00000000000E+00  0.00000000000E+00 -0.45323980538E+03  0.46226809051E+03  0.90914610025E+02 0.  0.
          2    1    3    3  502    0 -0.14010654966E+02 -0.36968374509E+02 -0.11253713761E+03  0.11927936330E+03  0.00000000000E+00 0. -1.
         -2    1    3    3    0  502  0.14010654966E+02  0.36968374509E+02 -0.34070266777E+03  0.34298872721E+03  0.00000000000E+00 0.  1.
<mgrwt>
<rscale>  0 0.90914610E+02</rscale>
<asrwt>0</asrwt>
<pdfrwt beam="2">  1        2 0.70423695E-01 0.90914610E+02</pdfrwt>
<pdfrwt beam="1">  1       -2 0.69448336E-03 0.90914610E+02</pdfrwt>
<totfact> 0.21086032E+05</totfact>
</mgrwt>
</event>
<event>
 5    1  0.4059427E+001  0.9145012E+02  0.7546771E-02  0.1299378E+00
         -1   -1    0    0    0  501 -0.00000000000E+00  0.00000000000E+00  0.48189511088E+01  0.48189511088E+01  0.00000000000E+00 0.  1.
          1   -1    0    0  501    0  0.00000000000E+00 -0.00000000000E+00 -0.43386640053E+03  0.43386640053E+03  0.00000000000E+00 0. -1.
         23    2    1    2    0    0  0.00000000000E+00  0.00000000000E+00 -0.42904744942E+03  0.43868535163E+03  0.91450116936E+02 0.  0.
          2    1    3    3  502    0  0.11203771251E+02  0.35039809645E+02 -0.34479255789E+03  0.34674950717E+03  0.00000000000E+00 0. -1.
         -2    1    3    3    0  502 -0.11203771251E+02 -0.35039809645E+02 -0.84254891531E+02  0.91935844463E+02  0.00000000000E+00 0.  1.
<mgrwt>
<rscale>  0 0.91450117E+02</rscale>
<asrwt>0</asrwt>
<pdfrwt beam="2">  1        1 0.66748688E-01 0.91450117E+02</pdfrwt>
<pdfrwt beam="1">  1       -1 0.74137698E-03 0.91450117E+02</pdfrwt>
<totfact> 0.13554380E+05</totfact>
</mgrwt>
</event>
<event>
 5    1  0.4059427E+001  0.9095327E+02  0.7546771E-02  0.1300559E+00
          1   -1    0    0  501    0  0.00000000000E+00  0.00000000000E+00  0.10441143682E+04  0.10441143682E+04  0.00000000000E+00 0. -1.
         -1   -1    0    0    0  501 -0.00000000000E+00 -0.00000000000E+00 -0.19807451084E+01  0.19807451084E+01  0.00000000000E+00 0.  1.
         23    2    1    2    0    0  0.00000000000E+00  0.00000000000E+00  0.10421336231E+04  0.10460951133E+04  0.90953272123E+02 0.  0.
          2    1    3    3  502    0 -0.22314506047E+02  0.60688881081E+00  0.97676534080E+03  0.97702038694E+03  0.00000000000E+00 0. -1.
         -2    1    3    3    0  502  0.22314506047E+02 -0.60688881081E+00  0.65368282292E+02  0.69074726376E+02  0.00000000000E+00 0.  1.
<mgrwt>
<rscale>  0 0.90953272E+02</rscale>
<asrwt>0</asrwt>
<pdfrwt beam="1">  1        1 0.16063254E+00 0.90953272E+02</pdfrwt>
<pdfrwt beam="2">  1       -1 0.30473085E-03 0.90953272E+02</pdfrwt>
<totfact> 0.13521374E+05</totfact>
</mgrwt>
</event>
<event>
 5    1  0.4059427E+001  0.9654175E+02  0.7546771E-02  0.1287741E+00
         -1   -1    0    0    0  501 -0.00000000000E+00  0.00000000000E+00  0.67584925597E+02  0.67584925597E+02  0.00000000000E+00 0.  1.
          1   -1    0    0  501    0  0.00000000000E+00 -0.00000000000E+00 -0.34476291520E+02  0.34476291520E+02  0.00000000000E+00 0. -1.
         23    2    1    2    0    0  0.00000000000E+00  0.00000000000E+00  0.33108634077E+02  0.10206121712E+03  0.96541754639E+02 0.  0.
          2    1    3    3  502    0 -0.32773527124E+02  0.72184382775E+01  0.53234790296E+02  0.62929745186E+02  0.00000000000E+00 0.  1.
         -2    1    3    3    0  502  0.32773527124E+02 -0.72184382775E+01 -0.20126156219E+02  0.39131471931E+02  0.00000000000E+00 0. -1.
<mgrwt>
<rscale>  0 0.96541755E+02</rscale>
<asrwt>0</asrwt>
<pdfrwt beam="2">  1        1 0.53040449E-02 0.96541755E+02</pdfrwt>
<pdfrwt beam="1">  1       -1 0.10397681E-01 0.96541755E+02</pdfrwt>
<totfact> 0.75226438E+04</totfact>
</mgrwt>
</event>
<event>
 5    1  0.4059427E+001  0.9064258E+02  0.7546771E-02  0.1301303E+00
          2   -1    0    0  501    0  0.00000000000E+00  0.00000000000E+00  0.29490495788E+03  0.29490495788E+03  0.00000000000E+00 0.  1.
         -2   -1    0    0    0  501 -0.00000000000E+00 -0.00000000000E+00 -0.69650208870E+01  0.69650208870E+01  0.00000000000E+00 0. -1.
         23    2    1    2    0    0  0.00000000000E+00  0.00000000000E+00  0.28793993699E+03  0.30186997877E+03  0.90642577001E+02 0.  0.
          2    1    3    3  502    0 -0.39797837336E+02  0.99167815036E+01  0.20818659695E+03  0.21218828799E+03  0.00000000000E+00 0.  1.
         -2    1    3    3    0  502  0.39797837336E+02 -0.99167815036E+01  0.79753340043E+02  0.89681690773E+02  0.00000000000E+00 0. -1.
<mgrwt>
<rscale>  0 0.90642577E+02</rscale>
<asrwt>0</asrwt>
<pdfrwt beam="1">  1        2 0.45369984E-01 0.90642577E+02</pdfrwt>
<pdfrwt beam="2">  1       -2 0.10715419E-02 0.90642577E+02</pdfrwt>
<totfact> 0.18133775E+05</totfact>
</mgrwt>
</event>
<event>
 5    1  0.4059427E+001  0.9000135E+02  0.7546771E-02  0.1302848E+00
         -1   -1    0    0    0  501 -0.00000000000E+00  0.00000000000E+00  0.29105662339E+02  0.29105662339E+02  0.00000000000E+00 0.  1.
          1   -1    0    0  501    0  0.00000000000E+00 -0.00000000000E+00 -0.69576171948E+02  0.69576171948E+02  0.00000000000E+00 0. -1.
         23    2    1    2    0    0  0.00000000000E+00  0.00000000000E+00 -0.40470509609E+02  0.98681834287E+02  0.90001345936E+02 0.  0.
          2    1    3    3  502    0 -0.26246339192E+02  0.46574730043E+01 -0.59988098934E+02  0.65643997361E+02  0.00000000000E+00 0. -1.
         -2    1    3    3    0  502  0.26246339192E+02 -0.46574730043E+01  0.19517589325E+02  0.33037836927E+02  0.00000000000E+00 0.  1.
<mgrwt>
<rscale>  0 0.90001346E+02</rscale>
<asrwt>0</asrwt>
<pdfrwt beam="2">  1        1 0.10704026E-01 0.90001346E+02</pdfrwt>
<pdfrwt beam="1">  1       -1 0.44777942E-02 0.90001346E+02</pdfrwt>
<totfact> 0.10216078E+05</totfact>
</mgrwt>
</event>
<event>
 5    1  0.4059427E+001  0.9126405E+02  0.7546771E-02  0.1299819E+00
         -2   -1    0    0    0  501 -0.00000000000E+00  0.00000000000E+00  0.28834673537E+03  0.28834673537E+03  0.00000000000E+00 0.  1.
          2   -1    0    0  501    0  0.00000000000E+00 -0.00000000000E+00 -0.72214504343E+01  0.72214504343E+01  0.00000000000E+00 0. -1.
         23    2    1    2    0    0  0.00000000000E+00  0.00000000000E+00  0.28112528493E+03  0.29556818580E+03  0.91264048943E+02 0.  0.
          2    1    3    3  502    0  0.43282292338E+01  0.30699359765E+02  0.32125110123E+02  0.44645346440E+02  0.00000000000E+00 0. -1.
         -2    1    3    3    0  502 -0.43282292338E+01 -0.30699359765E+02  0.24900017481E+03  0.25092283936E+03  0.00000000000E+00 0.  1.
<mgrwt>
<rscale>  0 0.91264049E+02</rscale>
<asrwt>0</asrwt>
<pdfrwt beam="2">  1        2 0.11109926E-02 0.91264049E+02</pdfrwt>
<pdfrwt beam="1">  1       -2 0.44361027E-01 0.91264049E+02</pdfrwt>
<totfact> 0.52007187E+04</totfact>
</mgrwt>
</event>
<event>
 5    1  0.4059427E+001  0.8842368E+02  0.7546771E-02  0.1306715E+00
         -2   -1    0    0    0  501 -0.00000000000E+00  0.00000000000E+00  0.16515451220E+03  0.16515451220E+03  0.00000000000E+00 0.  1.
          2   -1    0    0  501    0  0.00000000000E+00 -0.00000000000E+00 -0.11835502741E+02  0.11835502741E+02  0.00000000000E+00 0. -1.
         23    2    1    2    0    0  0.00000000000E+00  0.00000000000E+00  0.15331900946E+03  0.17699001494E+03  0.88423677414E+02 0.  0.
          2    1    3    3  502    0 -0.43886068490E+02 -0.43029035040E+01  0.70271661877E+02  0.82961487746E+02  0.00000000000E+00 0. -1.
         -2    1    3    3    0  502  0.43886068490E+02  0.43029035040E+01  0.83047347581E+02  0.94028527194E+02  0.00000000000E+00 0.  1.
<mgrwt>
<rscale>  0 0.88423677E+02</rscale>
<asrwt>0</asrwt>
<pdfrwt beam="2">  1        2 0.18208467E-02 0.88423677E+02</pdfrwt>
<pdfrwt beam="1">  1       -2 0.25408385E-01 0.88423677E+02</pdfrwt>
<totfact> 0.72835823E+04</totfact>
</mgrwt>
</event>
<event>
 5    1  0.4059427E+001  0.9048392E+02  0.7546771E-02  0.1301684E+00
          1   -1    0    0  501    0  0.00000000000E+00  0.00000000000E+00  0.14353881237E+02  0.14353881237E+02  0.00000000000E+00 0.  1.
         -1   -1    0    0    0  501 -0.00000000000E+00 -0.00000000000E+00 -0.14259801403E+03  0.14259801403E+03  0.00000000000E+00 0. -1.
         23    2    1    2    0    0  0.00000000000E+00  0.00000000000E+00 -0.12824413279E+03  0.15695189526E+03  0.90483920294E+02 0.  0.
          2    1    3    3  502    0 -0.43390452620E+02 -0.93585690851E+01 -0.48948600089E+02  0.66077830205E+02  0.00000000000E+00 0.  1.
         -2    1    3    3    0  502  0.43390452620E+02  0.93585690851E+01 -0.79295532702E+02  0.90874065059E+02  0.00000000000E+00 0. -1.
<mgrwt>
<rscale>  0 0.90483920E+02</rscale>
<asrwt>0</asrwt>
<pdfrwt beam="1">  1        1 0.22082893E-02 0.90483920E+02</pdfrwt>
<pdfrwt beam="2">  1       -1 0.21938157E-01 0.90483920E+02</pdfrwt>
<totfact> 0.77176453E+04</totfact>
</mgrwt>
</event>
<event>
 5    1  0.4059427E+001  0.9281377E+02  0.7546771E-02  0.1296177E+00
         -2   -1    0    0    0  501 -0.00000000000E+00  0.00000000000E+00  0.18232109876E+01  0.18232109876E+01  0.00000000000E+00 0. -1.
          2   -1    0    0  501    0  0.00000000000E+00 -0.00000000000E+00 -0.11812122779E+04  0.11812122779E+04  0.00000000000E+00 0.  1.
         23    2    1    2    0    0  0.00000000000E+00  0.00000000000E+00 -0.11793890669E+04  0.11830354889E+04  0.92813774921E+02 0.  0.
          2    1    3    3  502    0  0.98068787259E+01 -0.43718871821E+02 -0.74375369307E+03  0.74510205380E+03  0.00000000000E+00 0.  1.
         -2    1    3    3    0  502 -0.98068787259E+01  0.43718871821E+02 -0.43563537382E+03  0.43793343507E+03  0.00000000000E+00 0. -1.
<mgrwt>
<rscale>  0 0.92813775E+02</rscale>
<asrwt>0</asrwt>
<pdfrwt beam="2">  1        2 0.18172497E+00 0.92813775E+02</pdfrwt>
<pdfrwt beam="1">  1       -2 0.28049400E-03 0.92813775E+02</pdfrwt>
<totfact> 0.23767793E+05</totfact>
</mgrwt>
</event>
<event>
 5    1  0.4059427E+001  0.9010291E+02  0.7546771E-02  0.1302603E+00
          2   -1    0    0  501    0  0.00000000000E+00  0.00000000000E+00  0.85332382921E+03  0.85332382921E+03  0.00000000000E+00 0. -1.
         -2   -1    0    0    0  501 -0.00000000000E+00 -0.00000000000E+00 -0.23785032903E+01  0.23785032903E+01  0.00000000000E+00 0.  1.
         23    2    1    2    0    0  0.00000000000E+00  0.00000000000E+00  0.85094532592E+03  0.85570233250E+03  0.90102908621E+02 0.  0.
          2    1    3    3  502    0  0.40228393885E+02  0.74081008178E+01  0.60476881596E+03  0.60615057898E+03  0.00000000000E+00 0.  1.
         -2    1    3    3    0  502 -0.40228393885E+02 -0.74081008178E+01  0.24617650995E+03  0.24955175352E+03  0.00000000000E+00 0. -1.
<mgrwt>
<rscale>  0 0.90102909E+02</rscale>
<asrwt>0</asrwt>
<pdfrwt beam="1">  1        2 0.13128034E+00 0.90102909E+02</pdfrwt>
<pdfrwt beam="2">  1       -2 0.36592426E-03 0.90102909E+02</pdfrwt>
<totfact> 0.25406287E+05</totfact>
</mgrwt>
</event>
<event>
 5    1  0.4059427E+001  0.1082881E+03  0.7546771E-02  0.1263773E+00
          1   -1    0    0  501    0  0.00000000000E+00  0.00000000000E+00  0.85515038533E+02  0.85515038533E+02  0.00000000000E+00 0. -1.
         -1   -1    0    0    0  501 -0.00000000000E+00 -0.00000000000E+00 -0.34281426883E+02  0.34281426883E+02  0.00000000000E+00 0.  1.
         23    2    1    2    0    0  0.00000000000E+00  0.00000000000E+00  0.51233611651E+02  0.11979646542E+03  0.10828808874E+03 0.  0.
          2    1    3    3  502    0 -0.20281188443E+02  0.20889592939E+02  0.76117719545E+02  0.81496066939E+02  0.00000000000E+00 0. -1.
         -2    1    3    3    0  502  0.20281188443E+02 -0.20889592939E+02 -0.24884107894E+02  0.38300398477E+02  0.00000000000E+00 0.  1.
<mgrwt>
<rscale>  0 0.10828809E+03</rscale>
<asrwt>0</asrwt>
<pdfrwt beam="1">  1        1 0.13156160E-01 0.10828809E+03</pdfrwt>
<pdfrwt beam="2">  1       -1 0.52740657E-02 0.10828809E+03</pdfrwt>
<totfact> 0.63194970E+04</totfact>
</mgrwt>
</event>
<event>
 5    1  0.4059427E+001  0.8764692E+02  0.7546771E-02  0.1308652E+00
         -4   -1    0    0    0  501 -0.00000000000E+00  0.00000000000E+00  0.74314805287E+02  0.74314805287E+02  0.00000000000E+00 0.  1.
          4   -1    0    0  501    0  0.00000000000E+00 -0.00000000000E+00 -0.25842704950E+02  0.25842704950E+02  0.00000000000E+00 0. -1.
         23    2    1    2    0    0  0.00000000000E+00  0.00000000000E+00  0.48472100337E+02  0.10015751024E+03  0.87646918632E+02 0.  0.
          2    1    3    3  502    0 -0.13932870111E+02 -0.25458640333E+02 -0.13287354835E+02  0.31918976106E+02  0.00000000000E+00 0. -1.
         -2    1    3    3    0  502  0.13932870111E+02  0.25458640333E+02  0.61759455172E+02  0.68238534131E+02  0.00000000000E+00 0.  1.
<mgrwt>
<rscale>  0 0.87646919E+02</rscale>
<asrwt>0</asrwt>
<pdfrwt beam="2">  1        4 0.39758008E-02 0.87646919E+02</pdfrwt>
<pdfrwt beam="1">  1       -4 0.11433047E-01 0.87646919E+02</pdfrwt>
<totfact> 0.29421387E+04</totfact>
</mgrwt>
</event>
<event>
 5    1  0.4059427E+001  0.9257452E+02  0.7546771E-02  0.1296734E+00
         -2   -1    0    0    0  501 -0.00000000000E+00  0.00000000000E+00  0.53254307287E+02  0.53254307287E+02  0.00000000000E+00 0.  1.
          2   -1    0    0  501    0  0.00000000000E+00 -0.00000000000E+00 -0.40231685663E+02  0.40231685663E+02  0.00000000000E+00 0. -1.
         23    2    1    2    0    0  0.00000000000E+00  0.00000000000E+00  0.13022621623E+02  0.93485992950E+02  0.92574522434E+02 0.  0.
          2    1    3    3  502    0  0.60208178990E+01  0.40063432402E+02 -0.16096195548E+02  0.43593765324E+02  0.00000000000E+00 0. -1.
         -2    1    3    3    0  502 -0.60208178990E+01 -0.40063432402E+02  0.29118817172E+02  0.49892227626E+02  0.00000000000E+00 0.  1.
<mgrwt>
<rscale>  0 0.92574522E+02</rscale>
<asrwt>0</asrwt>
<pdfrwt beam="2">  1        2 0.61894901E-02 0.92574522E+02</pdfrwt>
<pdfrwt beam="1">  1       -2 0.81929703E-02 0.92574522E+02</pdfrwt>
<totfact> 0.91404057E+04</totfact>
</mgrwt>
</event>
<event>
 5    1  0.4059427E+001  0.8853386E+02  0.7546771E-02  0.1306441E+00
         -3   -1    0    0    0  501 -0.00000000000E+00  0.00000000000E+00  0.10399421357E+02  0.10399421357E+02  0.00000000000E+00 0.  1.
          3   -1    0    0  501    0  0.00000000000E+00 -0.00000000000E+00 -0.18842983735E+03  0.18842983735E+03  0.00000000000E+00 0. -1.
         23    2    1    2    0    0  0.00000000000E+00  0.00000000000E+00 -0.17803041600E+03  0.19882925871E+03  0.88533864141E+02 0.  0.
          2    1    3    3  502    0 -0.31986116906E+02 -0.15474072062E+02 -0.14830611608E+03  0.15250332012E+03  0.00000000000E+00 0. -1.
         -2    1    3    3    0  502  0.31986116906E+02  0.15474072062E+02 -0.29724299919E+02  0.46325938594E+02  0.00000000000E+00 0.  1.
<mgrwt>
<rscale>  0 0.88533864E+02</rscale>
<asrwt>0</asrwt>
<pdfrwt beam="2">  1        3 0.28989203E-01 0.88533864E+02</pdfrwt>
<pdfrwt beam="1">  1       -3 0.15999111E-02 0.88533864E+02</pdfrwt>
<totfact> 0.30910630E+04</totfact>
</mgrwt>
</event>
<event>
 5    1  0.4059427E+001  0.9038831E+02  0.7546771E-02  0.1301914E+00
         -1   -1    0    0    0  501 -0.00000000000E+00  0.00000000000E+00  0.13917300017E+02  0.13917300017E+02  0.00000000000E+00 0.  1.
          1   -1    0    0  501    0  0.00000000000E+00 -0.00000000000E+00 -0.14676063417E+03  0.14676063417E+03  0.00000000000E+00 0. -1.
         23    2    1    2    0    0  0.00000000000E+00  0.00000000000E+00 -0.13284333416E+03  0.16067793419E+03  0.90388312882E+02 0.  0.
          2    1    3    3  502    0  0.34917628718E+02  0.27835528316E+02 -0.78795673023E+02  0.90569396150E+02  0.00000000000E+00 0. -1.
         -2    1    3    3    0  502 -0.34917628718E+02 -0.27835528316E+02 -0.54047661133E+02  0.70108538038E+02  0.00000000000E+00 0.  1.
<mgrwt>
<rscale>  0 0.90388313E+02</rscale>
<asrwt>0</asrwt>
<pdfrwt beam="2">  1        1 0.22578559E-01 0.90388313E+02</pdfrwt>
<pdfrwt beam="1">  1       -1 0.21411231E-02 0.90388313E+02</pdfrwt>
<totfact> 0.11433100E+05</totfact>
</mgrwt>
</event>
<event>
 5    1  0.4059427E+001  0.9155849E+02  0.7546771E-02  0.1299121E+00
          2   -1    0    0  501    0  0.00000000000E+00  0.00000000000E+00  0.44381382380E+03  0.44381382380E+03  0.00000000000E+00 0. -1.
         -2   -1    0    0    0  501 -0.00000000000E+00 -0.00000000000E+00 -0.47221137420E+01  0.47221137420E+01  0.00000000000E+00 0.  1.
         23    2    1    2    0    0  0.00000000000E+00  0.00000000000E+00  0.43909171006E+03  0.44853593754E+03  0.91558491824E+02 0.  0.
          2    1    3    3  502    0  0.13423833068E+02  0.42303295475E+02  0.27452960314E+03  0.27809399688E+03  0.00000000000E+00 0. -1.
         -2    1    3    3    0  502 -0.13423833068E+02 -0.42303295475E+02  0.16456210692E+03  0.17044194066E+03  0.00000000000E+00 0.  1.
<mgrwt>
<rscale>  0 0.91558492E+02</rscale>
<asrwt>0</asrwt>
<pdfrwt beam="1">  1        2 0.68279017E-01 0.91558492E+02</pdfrwt>
<pdfrwt beam="2">  1       -2 0.72647939E-03 0.91558492E+02</pdfrwt>
<totfact> 0.20477077E+05</totfact>
</mgrwt>
</event>
<event>
 5    1  0.4059427E+001  0.9189526E+02  0.7546771E-02  0.1298326E+00
         -1   -1    0    0    0  501 -0.00000000000E+00  0.00000000000E+00  0.29147293473E+02  0.29147293473E+02  0.00000000000E+00 0.  1.
          1   -1    0    0  501    0  0.00000000000E+00 -0.00000000000E+00 -0.72431584821E+02  0.72431584821E+02  0.00000000000E+00 0. -1.
         23    2    1    2    0    0  0.00000000000E+00  0.00000000000E+00 -0.43284291348E+02  0.10157887829E+03  0.91895259061E+02 0.  0.
          2    1    3    3  502    0 -0.20598319434E+02 -0.36939666558E+02 -0.41488350303E+02  0.59246206122E+02  0.00000000000E+00 0. -1.
         -2    1    3    3    0  502  0.20598319434E+02  0.36939666558E+02 -0.17959410449E+01  0.42332672172E+02  0.00000000000E+00 0.  1.
<mgrwt>
<rscale>  0 0.91895259E+02</rscale>
<asrwt>0</asrwt>
<pdfrwt beam="2">  1        1 0.11143321E-01 0.91895259E+02</pdfrwt>
<pdfrwt beam="1">  1       -1 0.44841991E-02 0.91895259E+02</pdfrwt>
<totfact> 0.97065180E+04</totfact>
</mgrwt>
</event>
<event>
 5    1  0.4059427E+001  0.9013227E+02  0.7546771E-02  0.1302532E+00
         -2   -1    0    0    0  501 -0.00000000000E+00  0.00000000000E+00  0.19650810205E+01  0.19650810205E+01  0.00000000000E+00 0.  1.
          2   -1    0    0  501    0  0.00000000000E+00 -0.00000000000E+00 -0.10335230270E+04  0.10335230270E+04  0.00000000000E+00 0. -1.
         23    2    1    2    0    0  0.00000000000E+00  0.00000000000E+00 -0.10315579460E+04  0.10354881080E+04  0.90132269128E+02 0.  0.
          2    1    3    3  502    0 -0.62735864529E+01 -0.23995673049E+02 -0.94806054971E+03  0.94838491982E+03  0.00000000000E+00 0. -1.
         -2    1    3    3    0  502  0.62735864529E+01  0.23995673049E+02 -0.83497396258E+02  0.87103188196E+02  0.00000000000E+00 0.  1.
<mgrwt>
<rscale>  0 0.90132269E+02</rscale>
<asrwt>0</asrwt>
<pdfrwt beam="2">  1        2 0.15900383E+00 0.90132269E+02</pdfrwt>
<pdfrwt beam="1">  1       -2 0.30231961E-03 0.90132269E+02</pdfrwt>
<totfact> 0.25797778E+05</totfact>
</mgrwt>
</event>
<event>
 5    1  0.4059427E+001  0.9128017E+02  0.7546771E-02  0.1299781E+00
         -2   -1    0    0    0  501 -0.00000000000E+00  0.00000000000E+00  0.81367174244E+01  0.81367174244E+01  0.00000000000E+00 0.  1.
          2   -1    0    0  501    0  0.00000000000E+00 -0.00000000000E+00 -0.25600220292E+03  0.25600220292E+03  0.00000000000E+00 0. -1.
         23    2    1    2    0    0  0.00000000000E+00  0.00000000000E+00 -0.24786548550E+03  0.26413892035E+03  0.91280174961E+02 0.  0.
          2    1    3    3  502    0 -0.43145908148E+02  0.13985353780E+02 -0.10921795406E+03  0.11826124048E+03  0.00000000000E+00 0. -1.
         -2    1    3    3    0  502  0.43145908148E+02 -0.13985353780E+02 -0.13864753143E+03  0.14587767987E+03  0.00000000000E+00 0.  1.
<mgrwt>
<rscale>  0 0.91280175E+02</rscale>
<asrwt>0</asrwt>
<pdfrwt beam="2">  1        2 0.39384950E-01 0.91280175E+02</pdfrwt>
<pdfrwt beam="1">  1       -2 0.12518028E-02 0.91280175E+02</pdfrwt>
<totfact> 0.16882864E+05</totfact>
</mgrwt>
</event>
<event>
 5    1  0.4059427E+001  0.8644444E+02  0.7546771E-02  0.1311698E+00
          2   -1    0    0  501    0  0.00000000000E+00  0.00000000000E+00  0.85977257752E+03  0.85977257752E+03  0.00000000000E+00 0. -1.
         -2   -1    0    0    0  501 -0.00000000000E+00 -0.00000000000E+00 -0.21728538288E+01  0.21728538288E+01  0.00000000000E+00 0.  1.
         23    2    1    2    0    0  0.00000000000E+00  0.00000000000E+00  0.85759972369E+03  0.86194543135E+03  0.86444436188E+02 0.  0.
          2    1    3    3  502    0  0.26267412859E+02  0.18521886216E+02  0.71694939457E+03  0.71766947241E+03  0.00000000000E+00 0. -1.
         -2    1    3    3    0  502 -0.26267412859E+02 -0.18521886216E+02  0.14065032912E+03  0.14427595894E+03  0.00000000000E+00 0.  1.
<mgrwt>
<rscale>  0 0.86444436E+02</rscale>
<asrwt>0</asrwt>
<pdfrwt beam="1">  1        2 0.13227243E+00 0.86444436E+02</pdfrwt>
<pdfrwt beam="2">  1       -2 0.33428589E-03 0.86444436E+02</pdfrwt>
<totfact> 0.28357286E+05</totfact>
</mgrwt>
</event>
<event>
 5    1  0.4059427E+001  0.8989949E+02  0.7546771E-02  0.1303095E+00
         -1   -1    0    0    0  501 -0.00000000000E+00  0.00000000000E+00  0.68355402393E+02  0.68355402393E+02  0.00000000000E+00 0.  1.
          1   -1    0    0  501    0  0.00000000000E+00 -0.00000000000E+00 -0.29558445215E+02  0.29558445215E+02  0.00000000000E+00 0. -1.
         23    2    1    2    0    0  0.00000000000E+00  0.00000000000E+00  0.38796957178E+02  0.97913847608E+02  0.89899486468E+02 0.  0.
          2    1    3    3  502    0  0.17358116560E+02 -0.29920154983E+02 -0.11865183433E+02  0.36569146321E+02  0.00000000000E+00 0. -1.
         -2    1    3    3    0  502 -0.17358116560E+02  0.29920154983E+02  0.50662140611E+02  0.61344701287E+02  0.00000000000E+00 0.  1.
<mgrwt>
<rscale>  0 0.89899486E+02</rscale>
<asrwt>0</asrwt>
<pdfrwt beam="2">  1        1 0.45474531E-02 0.89899486E+02</pdfrwt>
<pdfrwt beam="1">  1       -1 0.10516216E-01 0.89899486E+02</pdfrwt>
<totfact> 0.90047433E+04</totfact>
</mgrwt>
</event>
<event>
 5    1  0.4059427E+001  0.9277052E+02  0.7546771E-02  0.1296278E+00
         -4   -1    0    0    0  501 -0.00000000000E+00  0.00000000000E+00  0.80336373761E+01  0.80336373761E+01  0.00000000000E+00 0. -1.
          4   -1    0    0  501    0  0.00000000000E+00 -0.00000000000E+00 -0.26782291725E+03  0.26782291725E+03  0.00000000000E+00 0.  1.
         23    2    1    2    0    0  0.00000000000E+00  0.00000000000E+00 -0.25978927988E+03  0.27585655463E+03  0.92770516830E+02 0.  0.
          2    1    3    3  502    0 -0.41547392394E+02  0.79030333360E-01 -0.68564755741E+02  0.80170554385E+02  0.00000000000E+00 0. -1.
         -2    1    3    3    0  502  0.41547392394E+02 -0.79030333360E-01 -0.19122452414E+03  0.19568600025E+03  0.00000000000E+00 0.  1.
<mgrwt>
<rscale>  0 0.92770517E+02</rscale>
<asrwt>0</asrwt>
<pdfrwt beam="2">  1        4 0.41203529E-01 0.92770517E+02</pdfrwt>
<pdfrwt beam="1">  1       -4 0.12359441E-02 0.92770517E+02</pdfrwt>
<totfact> 0.17743154E+04</totfact>
</mgrwt>
</event>
<event>
 5    1  0.4059427E+001  0.9088459E+02  0.7546771E-02  0.1300724E+00
         -1   -1    0    0    0  501 -0.00000000000E+00  0.00000000000E+00  0.86401472051E+02  0.86401472051E+02  0.00000000000E+00 0.  1.
          1   -1    0    0  501    0  0.00000000000E+00 -0.00000000000E+00 -0.23900078655E+02  0.23900078655E+02  0.00000000000E+00 0. -1.
         23    2    1    2    0    0  0.00000000000E+00  0.00000000000E+00  0.62501393396E+02  0.11030155071E+03  0.90884585666E+02 0.  0.
          2    1    3    3  502    0 -0.30495113065E+01  0.35556047105E+02 -0.28928481225E+01  0.35803639133E+02  0.00000000000E+00 0. -1.
         -2    1    3    3    0  502  0.30495113065E+01 -0.35556047105E+02  0.65394241518E+02  0.74497911572E+02  0.00000000000E+00 0.  1.
<mgrwt>
<rscale>  0 0.90884586E+02</rscale>
<asrwt>0</asrwt>
<pdfrwt beam="2">  1        1 0.36769352E-02 0.90884586E+02</pdfrwt>
<pdfrwt beam="1">  1       -1 0.13292534E-01 0.90884586E+02</pdfrwt>
<totfact> 0.84230326E+04</totfact>
</mgrwt>
</event>
<event>
 5    1  0.4059427E+001  0.8581995E+02  0.7546771E-02  0.1313302E+00
         -1   -1    0    0    0  501 -0.00000000000E+00  0.00000000000E+00  0.90137367496E+03  0.90137367496E+03  0.00000000000E+00 0.  1.
          1   -1    0    0  501    0  0.00000000000E+00 -0.00000000000E+00 -0.20427333711E+01  0.20427333711E+01  0.00000000000E+00 0. -1.
         23    2    1    2    0    0  0.00000000000E+00  0.00000000000E+00  0.89933094159E+03  0.90341640833E+03  0.85819953058E+02 0.  0.
          2    1    3    3  502    0 -0.37475908757E+02  0.17919358001E+02  0.33642492404E+03  0.33897975845E+03  0.00000000000E+00 0. -1.
         -2    1    3    3    0  502  0.37475908757E+02 -0.17919358001E+02  0.56290601755E+03  0.56443664987E+03  0.00000000000E+00 0.  1.
<mgrwt>
<rscale>  0 0.85819953E+02</rscale>
<asrwt>0</asrwt>
<pdfrwt beam="2">  1        1 0.31426739E-03 0.85819953E+02</pdfrwt>
<pdfrwt beam="1">  1       -1 0.13867256E+00 0.85819953E+02</pdfrwt>
<totfact> 0.33866853E+04</totfact>
</mgrwt>
</event>
<event>
 5    1  0.4059427E+001  0.9391895E+02  0.7546771E-02  0.1293630E+00
          3   -1    0    0  501    0  0.00000000000E+00  0.00000000000E+00  0.13070823382E+01  0.13070823382E+01  0.00000000000E+00 0. -1.
         -3   -1    0    0    0  501 -0.00000000000E+00 -0.00000000000E+00 -0.16871103374E+04  0.16871103374E+04  0.00000000000E+00 0.  1.
         23    2    1    2    0    0  0.00000000000E+00  0.00000000000E+00 -0.16858032550E+04  0.16884174197E+04  0.93918946429E+02 0.  0.
          2    1    3    3  502    0  0.12686605128E+01 -0.46742136810E+02 -0.92075694676E+03  0.92194348626E+03  0.00000000000E+00 0. -1.
         -2    1    3    3    0  502 -0.12686605128E+01  0.46742136810E+02 -0.76504630825E+03  0.76647393343E+03  0.00000000000E+00 0.  1.
<mgrwt>
<rscale>  0 0.93918946E+02</rscale>
<asrwt>0</asrwt>
<pdfrwt beam="1">  1        3 0.20108902E-03 0.93918946E+02</pdfrwt>
<pdfrwt beam="2">  1       -3 0.25955618E+00 0.93918946E+02</pdfrwt>
<totfact> 0.46342411E+03</totfact>
</mgrwt>
</event>
<event>
 5    1  0.4059427E+001  0.9591707E+02  0.7546771E-02  0.1289124E+00
          1   -1    0    0  501    0  0.00000000000E+00  0.00000000000E+00  0.42162400954E+03  0.42162400954E+03  0.00000000000E+00 0. -1.
         -1   -1    0    0    0  501 -0.00000000000E+00 -0.00000000000E+00 -0.54551476501E+01  0.54551476501E+01  0.00000000000E+00 0.  1.
         23    2    1    2    0    0  0.00000000000E+00  0.00000000000E+00  0.41616886189E+03  0.42707915719E+03  0.95917073035E+02 0.  0.
          2    1    3    3  502    0 -0.31773907000E+02  0.72512249483E+01  0.51428014285E+02  0.60885154862E+02  0.00000000000E+00 0.  1.
         -2    1    3    3    0  502  0.31773907000E+02 -0.72512249483E+01  0.36474084761E+03  0.36619400233E+03  0.00000000000E+00 0. -1.
<mgrwt>
<rscale>  0 0.95917073E+02</rscale>
<asrwt>0</asrwt>
<pdfrwt beam="1">  1        1 0.64865207E-01 0.95917073E+02</pdfrwt>
<pdfrwt beam="2">  1       -1 0.83925381E-03 0.95917073E+02</pdfrwt>
<totfact> 0.11886269E+05</totfact>
</mgrwt>
</event>
<event>
 5    1  0.4059427E+001  0.9245257E+02  0.7546771E-02  0.1297019E+00
         -1   -1    0    0    0  501 -0.00000000000E+00  0.00000000000E+00  0.27833715821E+01  0.27833715821E+01  0.00000000000E+00 0.  1.
          1   -1    0    0  501    0  0.00000000000E+00 -0.00000000000E+00 -0.76772692311E+03  0.76772692311E+03  0.00000000000E+00 0. -1.
         23    2    1    2    0    0  0.00000000000E+00  0.00000000000E+00 -0.76494355153E+03  0.77051029469E+03  0.92452567311E+02 0.  0.
          2    1    3    3  502    0 -0.21772808575E+02  0.28682335397E+02 -0.62403716950E+03  0.62507529184E+03  0.00000000000E+00 0. -1.
         -2    1    3    3    0  502  0.21772808575E+02 -0.28682335397E+02 -0.14090638203E+03  0.14543500285E+03  0.00000000000E+00 0.  1.
<mgrwt>
<rscale>  0 0.92452567E+02</rscale>
<asrwt>0</asrwt>
<pdfrwt beam="2">  1        1 0.11811215E+00 0.92452567E+02</pdfrwt>
<pdfrwt beam="1">  1       -1 0.42820988E-03 0.92452567E+02</pdfrwt>
<totfact> 0.13661416E+05</totfact>
</mgrwt>
</event>
<event>
 5    1  0.4059427E+001  0.9143287E+02  0.7546771E-02  0.1299418E+00
          3   -1    0    0  501    0  0.00000000000E+00  0.00000000000E+00  0.37303689274E+02  0.37303689274E+02  0.00000000000E+00 0. -1.
         -3   -1    0    0    0  501 -0.00000000000E+00 -0.00000000000E+00 -0.56026422052E+02  0.56026422052E+02  0.00000000000E+00 0.  1.
         23    2    1    2    0    0  0.00000000000E+00  0.00000000000E+00 -0.18722732778E+02  0.93330111327E+02  0.91432865850E+02 0.  0.
          2    1    3    3  502    0 -0.10348707566E+02  0.22619156503E+02  0.29791690748E+02  0.38810653522E+02  0.00000000000E+00 0. -1.
         -2    1    3    3    0  502  0.10348707566E+02 -0.22619156503E+02 -0.48514423526E+02  0.54519457804E+02  0.00000000000E+00 0.  1.
<mgrwt>
<rscale>  0 0.91432866E+02</rscale>
<asrwt>0</asrwt>
<pdfrwt beam="1">  1        3 0.57390292E-02 0.91432866E+02</pdfrwt>
<pdfrwt beam="2">  1       -3 0.86194495E-02 0.91432866E+02</pdfrwt>
<totfact> 0.34906412E+04</totfact>
</mgrwt>
</event>
<event>
 5    1  0.4059427E+001  0.9207671E+02  0.7546771E-02  0.1297899E+00
          2   -1    0    0  501    0  0.00000000000E+00  0.00000000000E+00  0.97654679833E+03  0.97654679833E+03  0.00000000000E+00 0. -1.
         -2   -1    0    0    0  501 -0.00000000000E+00 -0.00000000000E+00 -0.21704338094E+01  0.21704338094E+01  0.00000000000E+00 0.  1.
         23    2    1    2    0    0  0.00000000000E+00  0.00000000000E+00  0.97437636452E+03  0.97871723214E+03  0.92076711226E+02 0.  0.
          2    1    3    3  502    0 -0.22153116224E+02 -0.15796439620E+02  0.88194323039E+03  0.88236282202E+03  0.00000000000E+00 0. -1.
         -2    1    3    3    0  502  0.22153116224E+02  0.15796439620E+02  0.92433134133E+02  0.96354410116E+02  0.00000000000E+00 0.  1.
<mgrwt>
<rscale>  0 0.92076711E+02</rscale>
<asrwt>0</asrwt>
<pdfrwt beam="1">  1        2 0.15023762E+00 0.92076711E+02</pdfrwt>
<pdfrwt beam="2">  1       -2 0.33391367E-03 0.92076711E+02</pdfrwt>
<totfact> 0.24332826E+05</totfact>
</mgrwt>
</event>
<event>
 5    1  0.4059427E+001  0.9075613E+02  0.7546771E-02  0.1301031E+00
         -2   -1    0    0    0  501 -0.00000000000E+00  0.00000000000E+00  0.19974504073E+02  0.19974504073E+02  0.00000000000E+00 0.  1.
          2   -1    0    0  501    0  0.00000000000E+00 -0.00000000000E+00 -0.10308985741E+03  0.10308985741E+03  0.00000000000E+00 0. -1.
         23    2    1    2    0    0  0.00000000000E+00  0.00000000000E+00 -0.83115353332E+02  0.12306436148E+03  0.90756129856E+02 0.  0.
          2    1    3    3  502    0  0.33666978422E+02 -0.68704310488E+01 -0.81748540965E+02  0.88676333984E+02  0.00000000000E+00 0. -1.
         -2    1    3    3    0  502 -0.33666978422E+02  0.68704310488E+01 -0.13668123670E+01  0.34388027494E+02  0.00000000000E+00 0.  1.
<mgrwt>
<rscale>  0 0.90756130E+02</rscale>
<asrwt>0</asrwt>
<pdfrwt beam="2">  1        2 0.15859978E-01 0.90756130E+02</pdfrwt>
<pdfrwt beam="1">  1       -2 0.30730006E-02 0.90756130E+02</pdfrwt>
<totfact> 0.12540685E+05</totfact>
</mgrwt>
</event>
<event>
 5    1  0.4059427E+001  0.9087924E+02  0.7546771E-02  0.1300736E+00
         -4   -1    0    0    0  501 -0.00000000000E+00  0.00000000000E+00  0.37389534724E+02  0.37389534724E+02  0.00000000000E+00 0.  1.
          4   -1    0    0  501    0  0.00000000000E+00 -0.00000000000E+00 -0.55222915211E+02  0.55222915211E+02  0.00000000000E+00 0. -1.
         23    2    1    2    0    0  0.00000000000E+00  0.00000000000E+00 -0.17833380487E+02  0.92612449935E+02  0.90879240883E+02 0.  0.
          2    1    3    3  502    0  0.13936614260E+02 -0.42596916171E+02 -0.12884361092E+01  0.44837334354E+02  0.00000000000E+00 0. -1.
         -2    1    3    3    0  502 -0.13936614260E+02  0.42596916171E+02 -0.16544944378E+02  0.47775115581E+02  0.00000000000E+00 0.  1.
<mgrwt>
<rscale>  0 0.90879241E+02</rscale>
<asrwt>0</asrwt>
<pdfrwt beam="2">  1        4 0.84958331E-02 0.90879241E+02</pdfrwt>
<pdfrwt beam="1">  1       -4 0.57522361E-02 0.90879241E+02</pdfrwt>
<totfact> 0.27164106E+04</totfact>
</mgrwt>
</event>
<event>
 5    1  0.4059427E+001  0.8950286E+02  0.7546771E-02  0.1304060E+00
          3   -1    0    0  501    0  0.00000000000E+00  0.00000000000E+00  0.11151022843E+04  0.11151022843E+04  0.00000000000E+00 0. -1.
         -3   -1    0    0    0  501 -0.00000000000E+00 -0.00000000000E+00 -0.17959700999E+01  0.17959700999E+01  0.00000000000E+00 0.  1.
         23    2    1    2    0    0  0.00000000000E+00  0.00000000000E+00  0.11133063142E+04  0.11168982544E+04  0.89502857180E+02 0.  0.
          2    1    3    3  502    0  0.31397480056E+02 -0.31360005985E+02  0.48449241991E+03  0.48652045864E+03  0.00000000000E+00 0.  1.
         -2    1    3    3    0  502 -0.31397480056E+02  0.31360005985E+02  0.62881389425E+03  0.63037779572E+03  0.00000000000E+00 0. -1.
<mgrwt>
<rscale>  0 0.89502857E+02</rscale>
<asrwt>0</asrwt>
<pdfrwt beam="1">  1        3 0.17155364E+00 0.89502857E+02</pdfrwt>
<pdfrwt beam="2">  1       -3 0.27630398E-03 0.89502857E+02</pdfrwt>
<totfact> 0.93478269E+03</totfact>
</mgrwt>
</event>
<event>
 5    1  0.4059427E+001  0.9138386E+02  0.7546771E-02  0.1299535E+00
          1   -1    0    0  501    0  0.00000000000E+00  0.00000000000E+00  0.94174048181E+01  0.94174048181E+01  0.00000000000E+00 0. -1.
         -1   -1    0    0    0  501 -0.00000000000E+00 -0.00000000000E+00 -0.22169085153E+03  0.22169085153E+03  0.00000000000E+00 0.  1.
         23    2    1    2    0    0  0.00000000000E+00  0.00000000000E+00 -0.21227344671E+03  0.23110825634E+03  0.91383860573E+02 0.  0.
          2    1    3    3  502    0  0.27782815612E+02  0.34919107808E+02 -0.81290371839E+02  0.92732699125E+02  0.00000000000E+00 0. -1.
         -2    1    3    3    0  502 -0.27782815612E+02 -0.34919107808E+02 -0.13098307487E+03  0.13837555722E+03  0.00000000000E+00 0.  1.
<mgrwt>
<rscale>  0 0.91383861E+02</rscale>
<asrwt>0</asrwt>
<pdfrwt beam="1">  1        1 0.14488315E-02 0.91383861E+02</pdfrwt>
<pdfrwt beam="2">  1       -1 0.34106285E-01 0.91383861E+02</pdfrwt>
<totfact> 0.66934814E+04</totfact>
</mgrwt>
</event>
<event>
 5    1  0.4059427E+001  0.9183127E+02  0.7546771E-02  0.1298477E+00
          1   -1    0    0  501    0  0.00000000000E+00  0.00000000000E+00  0.56979928015E+02  0.56979928015E+02  0.00000000000E+00 0. -1.
         -1   -1    0    0    0  501 -0.00000000000E+00 -0.00000000000E+00 -0.36999791908E+02  0.36999791908E+02  0.00000000000E+00 0.  1.
         23    2    1    2    0    0  0.00000000000E+00  0.00000000000E+00  0.19980136107E+02  0.93979719922E+02  0.91831268737E+02 0.  0.
          2    1    3    3  502    0  0.37198585941E+02 -0.72867439184E+00  0.37526442678E+02  0.52844107169E+02  0.00000000000E+00 0. -1.
         -2    1    3    3    0  502 -0.37198585941E+02  0.72867439184E+00 -0.17546306571E+02  0.41135612754E+02  0.00000000000E+00 0.  1.
<mgrwt>
<rscale>  0 0.91831269E+02</rscale>
<asrwt>0</asrwt>
<pdfrwt beam="1">  1        1 0.87661428E-02 0.91831269E+02</pdfrwt>
<pdfrwt beam="2">  1       -1 0.56922757E-02 0.91831269E+02</pdfrwt>
<totfact> 0.93737730E+04</totfact>
</mgrwt>
</event>
<event>
 5    1  0.4059427E+001  0.9077577E+02  0.7546771E-02  0.1300984E+00
          2   -1    0    0  501    0  0.00000000000E+00  0.00000000000E+00  0.89263586474E+02  0.89263586474E+02  0.00000000000E+00 0. -1.
         -2   -1    0    0    0  501 -0.00000000000E+00 -0.00000000000E+00 -0.23078392760E+02  0.23078392760E+02  0.00000000000E+00 0.  1.
         23    2    1    2    0    0  0.00000000000E+00  0.00000000000E+00  0.66185193713E+02  0.11234197923E+03  0.90775770067E+02 0.  0.
          2    1    3    3  502    0 -0.41168154616E+02 -0.13676318010E+01  0.56683702694E+02  0.70069462124E+02  0.00000000000E+00 0. -1.
         -2    1    3    3    0  502  0.41168154616E+02  0.13676318010E+01  0.95014910192E+01  0.42272517110E+02  0.00000000000E+00 0.  1.
<mgrwt>
<rscale>  0 0.90775770E+02</rscale>
<asrwt>0</asrwt>
<pdfrwt beam="1">  1        2 0.13732859E-01 0.90775770E+02</pdfrwt>
<pdfrwt beam="2">  1       -2 0.35505220E-02 0.90775770E+02</pdfrwt>
<totfact> 0.12002398E+05</totfact>
</mgrwt>
</event>
<event>
 5    1  0.4059427E+001  0.8852050E+02  0.7546771E-02  0.1306475E+00
          2   -1    0    0  501    0  0.00000000000E+00  0.00000000000E+00  0.65105496214E+03  0.65105496214E+03  0.00000000000E+00 0. -1.
         -2   -1    0    0    0  501 -0.00000000000E+00 -0.00000000000E+00 -0.30089161677E+01  0.30089161677E+01  0.00000000000E+00 0.  1.
         23    2    1    2    0    0  0.00000000000E+00  0.00000000000E+00  0.64804604597E+03  0.65406387831E+03  0.88520501618E+02 0.  0.
          2    1    3    3  502    0 -0.43331186250E+02  0.29606436397E+01  0.38698560929E+03  0.38941522686E+03  0.00000000000E+00 0. -1.
         -2    1    3    3    0  502  0.43331186250E+02 -0.29606436397E+01  0.26106043669E+03  0.26464865145E+03  0.00000000000E+00 0.  1.
<mgrwt>
<rscale>  0 0.88520502E+02</rscale>
<asrwt>0</asrwt>
<pdfrwt beam="1">  1        2 0.10016219E+00 0.88520502E+02</pdfrwt>
<pdfrwt beam="2">  1       -2 0.46291070E-03 0.88520502E+02</pdfrwt>
<totfact> 0.25182500E+05</totfact>
</mgrwt>
</event>
<event>
 5    1  0.4059427E+001  0.9355725E+02  0.7546771E-02  0.1294459E+00
          2   -1    0    0  501    0  0.00000000000E+00  0.00000000000E+00  0.24141155635E+03  0.24141155635E+03  0.00000000000E+00 0.  1.
         -2   -1    0    0    0  501 -0.00000000000E+00 -0.00000000000E+00 -0.90643535294E+01  0.90643535294E+01  0.00000000000E+00 0. -1.
         23    2    1    2    0    0  0.00000000000E+00  0.00000000000E+00  0.23234720282E+03  0.25047590988E+03  0.93557248630E+02 0.  0.
          2    1    3    3  502    0  0.52462429295E+01  0.19480175810E+02  0.31810890183E+01  0.20423507089E+02  0.00000000000E+00 0. -1.
         -2    1    3    3    0  502 -0.52462429295E+01 -0.19480175810E+02  0.22916611380E+03  0.23005240279E+03  0.00000000000E+00 0.  1.
<mgrwt>
<rscale>  0 0.93557249E+02</rscale>
<asrwt>0</asrwt>
<pdfrwt beam="1">  1        2 0.37140235E-01 0.93557249E+02</pdfrwt>
<pdfrwt beam="2">  1       -2 0.13945161E-02 0.93557249E+02</pdfrwt>
<totfact> 0.15462246E+05</totfact>
</mgrwt>
</event>
<event>
 5    1  0.4059427E+001  0.8957887E+02  0.7546771E-02  0.1303875E+00
          2   -1    0    0  501    0  0.00000000000E+00  0.00000000000E+00  0.57459344635E+03  0.57459344635E+03  0.00000000000E+00 0. -1.
         -2   -1    0    0    0  501 -0.00000000000E+00 -0.00000000000E+00 -0.34913265561E+01  0.34913265561E+01  0.00000000000E+00 0.  1.
         23    2    1    2    0    0  0.00000000000E+00  0.00000000000E+00  0.57110211979E+03  0.57808477290E+03  0.89578867110E+02 0.  0.
          2    1    3    3  502    0  0.21679083830E+02  0.28615742449E+02  0.11272022313E+03  0.11829916354E+03  0.00000000000E+00 0.  1.
         -2    1    3    3    0  502 -0.21679083830E+02 -0.28615742449E+02  0.45838189666E+03  0.45978560936E+03  0.00000000000E+00 0. -1.
<mgrwt>
<rscale>  0 0.89578867E+02</rscale>
<asrwt>0</asrwt>
<pdfrwt beam="1">  1        2 0.88398917E-01 0.89578867E+02</pdfrwt>
<pdfrwt beam="2">  1       -2 0.53712762E-03 0.89578867E+02</pdfrwt>
<totfact> 0.23576442E+05</totfact>
</mgrwt>
</event>
<event>
 5    1  0.4059427E+001  0.8909354E+02  0.7546771E-02  0.1305062E+00
          1   -1    0    0  501    0  0.00000000000E+00  0.00000000000E+00  0.72028179089E+03  0.72028179089E+03  0.00000000000E+00 0. -1.
         -1   -1    0    0    0  501 -0.00000000000E+00 -0.00000000000E+00 -0.27550531625E+01  0.27550531625E+01  0.00000000000E+00 0.  1.
         23    2    1    2    0    0  0.00000000000E+00  0.00000000000E+00  0.71752673773E+03  0.72303684406E+03  0.89093537945E+02 0.  0.
          2    1    3    3  502    0  0.24157210830E+02  0.16486295493E+02  0.86072866022E+02  0.90906034120E+02  0.00000000000E+00 0.  1.
         -2    1    3    3    0  502 -0.24157210830E+02 -0.16486295493E+02  0.63145387171E+03  0.63213080994E+03  0.00000000000E+00 0. -1.
<mgrwt>
<rscale>  0 0.89093538E+02</rscale>
<asrwt>0</asrwt>
<pdfrwt beam="1">  1        1 0.11081243E+00 0.89093538E+02</pdfrwt>
<pdfrwt beam="2">  1       -1 0.42385491E-03 0.89093538E+02</pdfrwt>
<totfact> 0.15105426E+05</totfact>
</mgrwt>
</event>
<event>
 5    1  0.4059427E+001  0.9098505E+02  0.7546771E-02  0.1300484E+00
         -2   -1    0    0    0  501 -0.00000000000E+00  0.00000000000E+00  0.31204666825E+01  0.31204666825E+01  0.00000000000E+00 0.  1.
          2   -1    0    0  501    0  0.00000000000E+00 -0.00000000000E+00 -0.66322439871E+03  0.66322439871E+03  0.00000000000E+00 0. -1.
         23    2    1    2    0    0  0.00000000000E+00  0.00000000000E+00 -0.66010393203E+03  0.66634486539E+03  0.90985045786E+02 0.  0.
          2    1    3    3  502    0  0.22874133602E+02 -0.28217174940E+02 -0.53063706282E+03  0.53187886533E+03  0.00000000000E+00 0. -1.
         -2    1    3    3    0  502 -0.22874133602E+02  0.28217174940E+02 -0.12946686921E+03  0.13446600006E+03  0.00000000000E+00 0.  1.
<mgrwt>
<rscale>  0 0.90985046E+02</rscale>
<asrwt>0</asrwt>
<pdfrwt beam="2">  1        2 0.10203458E+00 0.90985046E+02</pdfrwt>
<pdfrwt beam="1">  1       -2 0.48007155E-03 0.90985046E+02</pdfrwt>
<totfact> 0.23536126E+05</totfact>
</mgrwt>
</event>
<event>
 5    1  0.4059427E+001  0.9134969E+02  0.7546771E-02  0.1299616E+00
         -2   -1    0    0    0  501 -0.00000000000E+00  0.00000000000E+00  0.18612018518E+01  0.18612018518E+01  0.00000000000E+00 0.  1.
          2   -1    0    0  501    0  0.00000000000E+00 -0.00000000000E+00 -0.11208840878E+04  0.11208840878E+04  0.00000000000E+00 0. -1.
         23    2    1    2    0    0  0.00000000000E+00  0.00000000000E+00 -0.11190228859E+04  0.11227452896E+04  0.91349691621E+02 0.  0.
          2    1    3    3  502    0 -0.16703686476E+01 -0.44765151199E+02 -0.44993673652E+03  0.45216122762E+03  0.00000000000E+00 0. -1.
         -2    1    3    3    0  502  0.16703686476E+01  0.44765151199E+02 -0.66908614942E+03  0.67058406202E+03  0.00000000000E+00 0.  1.
<mgrwt>
<rscale>  0 0.91349692E+02</rscale>
<asrwt>0</asrwt>
<pdfrwt beam="2">  1        2 0.17244406E+00 0.91349692E+02</pdfrwt>
<pdfrwt beam="1">  1       -2 0.28633816E-03 0.91349692E+02</pdfrwt>
<totfact> 0.24876371E+05</totfact>
</mgrwt>
</event>
<event>
 5    1  0.4059427E+001  0.9064286E+02  0.7546771E-02  0.1301302E+00
         -1   -1    0    0    0  501 -0.00000000000E+00  0.00000000000E+00  0.35438651989E+03  0.35438651989E+03  0.00000000000E+00 0.  1.
          1   -1    0    0  501    0  0.00000000000E+00 -0.00000000000E+00 -0.57960220758E+01  0.57960220758E+01  0.00000000000E+00 0. -1.
         23    2    1    2    0    0  0.00000000000E+00  0.00000000000E+00  0.34859049781E+03  0.36018254196E+03  0.90642861663E+02 0.  0.
          2    1    3    3  502    0  0.32640671919E+02  0.31306589867E+02  0.18589125440E+03  0.19131407291E+03  0.00000000000E+00 0. -1.
         -2    1    3    3    0  502 -0.32640671919E+02 -0.31306589867E+02  0.16269924341E+03  0.16886846905E+03  0.00000000000E+00 0.  1.
<mgrwt>
<rscale>  0 0.90642862E+02</rscale>
<asrwt>0</asrwt>
<pdfrwt beam="2">  1        1 0.89169598E-03 0.90642862E+02</pdfrwt>
<pdfrwt beam="1">  1       -1 0.54520986E-01 0.90642862E+02</pdfrwt>
<totfact> 0.57343957E+04</totfact>
</mgrwt>
</event>
<event>
 5    1  0.4059427E+001  0.8619715E+02  0.7546771E-02  0.1312331E+00
          2   -1    0    0  501    0  0.00000000000E+00  0.00000000000E+00  0.20667120505E+01  0.20667120505E+01  0.00000000000E+00 0. -1.
         -2   -1    0    0    0  501 -0.00000000000E+00 -0.00000000000E+00 -0.89876430369E+03  0.89876430369E+03  0.00000000000E+00 0.  1.
         23    2    1    2    0    0  0.00000000000E+00  0.00000000000E+00 -0.89669759164E+03  0.90083101574E+03  0.86197146520E+02 0.  0.
          2    1    3    3  502    0 -0.11959947676E+02  0.30332020381E+02 -0.74290909773E+03  0.74362423260E+03  0.00000000000E+00 0. -1.
         -2    1    3    3    0  502  0.11959947676E+02 -0.30332020381E+02 -0.15378849391E+03  0.15720678315E+03  0.00000000000E+00 0.  1.
<mgrwt>
<rscale>  0 0.86197147E+02</rscale>
<asrwt>0</asrwt>
<pdfrwt beam="1">  1        2 0.31795584E-03 0.86197147E+02</pdfrwt>
<pdfrwt beam="2">  1       -2 0.13827137E+00 0.86197147E+02</pdfrwt>
<totfact> 0.24392969E+04</totfact>
</mgrwt>
</event>
<event>
 5    1  0.4059427E+001  0.9900801E+02  0.7546771E-02  0.1282396E+00
          1   -1    0    0  501    0  0.00000000000E+00  0.00000000000E+00  0.10026744464E+04  0.10026744464E+04  0.00000000000E+00 0. -1.
         -1   -1    0    0    0  501 -0.00000000000E+00 -0.00000000000E+00 -0.24441099278E+01  0.24441099278E+01  0.00000000000E+00 0.  1.
         23    2    1    2    0    0  0.00000000000E+00  0.00000000000E+00  0.10002303365E+04  0.10051185563E+04  0.99008011168E+02 0.  0.
          2    1    3    3  502    0  0.24896221045E+02 -0.37901091951E+02  0.70170933039E+03  0.70317302206E+03  0.00000000000E+00 0. -1.
         -2    1    3    3    0  502 -0.24896221045E+02  0.37901091951E+02  0.29852100608E+03  0.30194553427E+03  0.00000000000E+00 0.  1.
<mgrwt>
<rscale>  0 0.99008011E+02</rscale>
<asrwt>0</asrwt>
<pdfrwt beam="1">  1        1 0.15425728E+00 0.99008011E+02</pdfrwt>
<pdfrwt beam="2">  1       -1 0.37601771E-03 0.99008011E+02</pdfrwt>
<totfact> 0.10922197E+05</totfact>
</mgrwt>
</event>
<event>
 5    1  0.4059427E+001  0.8637790E+02  0.7546771E-02  0.1311868E+00
          3   -1    0    0  501    0  0.00000000000E+00  0.00000000000E+00  0.18626825015E+03  0.18626825015E+03  0.00000000000E+00 0. -1.
         -3   -1    0    0    0  501 -0.00000000000E+00 -0.00000000000E+00 -0.10013974956E+02  0.10013974956E+02  0.00000000000E+00 0.  1.
         23    2    1    2    0    0  0.00000000000E+00  0.00000000000E+00  0.17625427520E+03  0.19628222511E+03  0.86377904398E+02 0.  0.
          2    1    3    3  502    0 -0.32333088613E+02 -0.28624375548E+02  0.86516965716E+02  0.96695236964E+02  0.00000000000E+00 0.  1.
         -2    1    3    3    0  502  0.32333088613E+02  0.28624375548E+02  0.89737309479E+02  0.99586988143E+02  0.00000000000E+00 0. -1.
<mgrwt>
<rscale>  0 0.86377904E+02</rscale>
<asrwt>0</asrwt>
<pdfrwt beam="1">  1        3 0.28656651E-01 0.86377904E+02</pdfrwt>
<pdfrwt beam="2">  1       -3 0.15406117E-02 0.86377904E+02</pdfrwt>
<totfact> 0.33177391E+04</totfact>
</mgrwt>
</event>
<event>
 5    1  0.4059427E+001  0.9263499E+02  0.7546771E-02  0.1296593E+00
         -2   -1    0    0    0  501 -0.00000000000E+00  0.00000000000E+00  0.98498973264E+02  0.98498973264E+02  0.00000000000E+00 0.  1.
          2   -1    0    0  501    0  0.00000000000E+00 -0.00000000000E+00 -0.21780027371E+02  0.21780027371E+02  0.00000000000E+00 0. -1.
         23    2    1    2    0    0  0.00000000000E+00  0.00000000000E+00  0.76718945893E+02  0.12027900064E+03  0.92634989798E+02 0.  0.
          2    1    3    3  502    0  0.12843185976E+02  0.20389916576E+02 -0.12999743347E+02  0.27380457466E+02  0.00000000000E+00 0. -1.
         -2    1    3    3    0  502 -0.12843185976E+02 -0.20389916576E+02  0.89718689240E+02  0.92898543169E+02  0.00000000000E+00 0.  1.
<mgrwt>
<rscale>  0 0.92634990E+02</rscale>
<asrwt>0</asrwt>
<pdfrwt beam="2">  1        2 0.33507735E-02 0.92634990E+02</pdfrwt>
<pdfrwt beam="1">  1       -2 0.15153688E-01 0.92634990E+02</pdfrwt>
<totfact> 0.77062700E+04</totfact>
</mgrwt>
</event>
<event>
 5    1  0.4059427E+001  0.9261347E+02  0.7546771E-02  0.1296643E+00
          2   -1    0    0  501    0  0.00000000000E+00  0.00000000000E+00  0.21097545080E+03  0.21097545080E+03  0.00000000000E+00 0. -1.
         -2   -1    0    0    0  501 -0.00000000000E+00 -0.00000000000E+00 -0.10163807422E+02  0.10163807422E+02  0.00000000000E+00 0.  1.
         23    2    1    2    0    0  0.00000000000E+00  0.00000000000E+00  0.20081164338E+03  0.22113925822E+03  0.92613473163E+02 0.  0.
          2    1    3    3  502    0  0.39914169033E+02  0.11944801416E+02  0.14866555092E+03  0.15439321618E+03  0.00000000000E+00 0. -1.
         -2    1    3    3    0  502 -0.39914169033E+02 -0.11944801416E+02  0.52146092459E+02  0.66746042049E+02  0.00000000000E+00 0.  1.
<mgrwt>
<rscale>  0 0.92613473E+02</rscale>
<asrwt>0</asrwt>
<pdfrwt beam="1">  1        2 0.32457758E-01 0.92613473E+02</pdfrwt>
<pdfrwt beam="2">  1       -2 0.15636628E-02 0.92613473E+02</pdfrwt>
<totfact> 0.15120599E+05</totfact>
</mgrwt>
</event>
<event>
 5    1  0.4059427E+001  0.8706921E+02  0.7546771E-02  0.1310108E+00
          4   -1    0    0  501    0  0.00000000000E+00  0.00000000000E+00  0.20497411498E+03  0.20497411498E+03  0.00000000000E+00 0.  1.
         -4   -1    0    0    0  501 -0.00000000000E+00 -0.00000000000E+00 -0.92463466955E+01  0.92463466955E+01  0.00000000000E+00 0. -1.
         23    2    1    2    0    0  0.00000000000E+00  0.00000000000E+00  0.19572776829E+03  0.21422046168E+03  0.87069207662E+02 0.  0.
          2    1    3    3  502    0 -0.24040959241E+02  0.14519171045E+02  0.16023124794E+02  0.32334417843E+02  0.00000000000E+00 0. -1.
         -2    1    3    3    0  502  0.24040959241E+02 -0.14519171045E+02  0.17970464349E+03  0.18188604384E+03  0.00000000000E+00 0.  1.
<mgrwt>
<rscale>  0 0.87069208E+02</rscale>
<asrwt>0</asrwt>
<pdfrwt beam="1">  1        4 0.31534476E-01 0.87069208E+02</pdfrwt>
<pdfrwt beam="2">  1       -4 0.14225150E-02 0.87069208E+02</pdfrwt>
<totfact> 0.23522023E+04</totfact>
</mgrwt>
</event>
<event>
 5    1  0.4059427E+001  0.9119369E+02  0.7546771E-02  0.1299986E+00
         -3   -1    0    0    0  501 -0.00000000000E+00  0.00000000000E+00  0.28631900132E+03  0.28631900132E+03  0.00000000000E+00 0.  1.
          3   -1    0    0  501    0  0.00000000000E+00 -0.00000000000E+00 -0.72613849100E+01  0.72613849100E+01  0.00000000000E+00 0. -1.
         23    2    1    2    0    0  0.00000000000E+00  0.00000000000E+00  0.27905761641E+03  0.29358038623E+03  0.91193694424E+02 0.  0.
          2    1    3    3  502    0  0.16051908930E+02  0.18974239845E+02  0.16460895451E+02  0.29810176736E+02  0.00000000000E+00 0. -1.
         -2    1    3    3    0  502 -0.16051908930E+02 -0.18974239845E+02  0.26259672096E+03  0.26377020950E+03  0.00000000000E+00 0.  1.
<mgrwt>
<rscale>  0 0.91193694E+02</rscale>
<asrwt>0</asrwt>
<pdfrwt beam="2">  1        3 0.11171364E-02 0.91193694E+02</pdfrwt>
<pdfrwt beam="1">  1       -3 0.44049068E-01 0.91193694E+02</pdfrwt>
<totfact> 0.24262389E+04</totfact>
</mgrwt>
</event>
<event>
 5    1  0.4059427E+001  0.8749388E+02  0.7546771E-02  0.1309037E+00
         -1   -1    0    0    0  501 -0.00000000000E+00  0.00000000000E+00  0.18059747200E+02  0.18059747200E+02  0.00000000000E+00 0.  1.
          1   -1    0    0  501    0  0.00000000000E+00 -0.00000000000E+00 -0.10597019592E+03  0.10597019592E+03  0.00000000000E+00 0. -1.
         23    2    1    2    0    0  0.00000000000E+00  0.00000000000E+00 -0.87910448720E+02  0.12402994312E+03  0.87493884337E+02 0.  0.
          2    1    3    3  502    0  0.18796670171E+02 -0.27527387872E+02 -0.84118739496E+02  0.90482231554E+02  0.00000000000E+00 0. -1.
         -2    1    3    3    0  502 -0.18796670171E+02  0.27527387872E+02 -0.37917092247E+01  0.33547711568E+02  0.00000000000E+00 0.  1.
<mgrwt>
<rscale>  0 0.87493884E+02</rscale>
<asrwt>0</asrwt>
<pdfrwt beam="2">  1        1 0.16303107E-01 0.87493884E+02</pdfrwt>
<pdfrwt beam="1">  1       -1 0.27784226E-02 0.87493884E+02</pdfrwt>
<totfact> 0.11794966E+05</totfact>
</mgrwt>
</event>
<event>
 5    1  0.4059427E+001  0.8646053E+02  0.7546771E-02  0.1311657E+00
          2   -1    0    0  501    0  0.00000000000E+00  0.00000000000E+00  0.14676156623E+04  0.14676156623E+04  0.00000000000E+00 0. -1.
         -2   -1    0    0    0  501 -0.00000000000E+00 -0.00000000000E+00 -0.12733958251E+01  0.12733958251E+01  0.00000000000E+00 0.  1.
         23    2    1    2    0    0  0.00000000000E+00  0.00000000000E+00  0.14663422664E+04  0.14688890581E+04  0.86460526420E+02 0.  0.
          2    1    3    3  502    0 -0.42574375282E+00 -0.34123895275E+02  0.11840186348E+04  0.11845103414E+04  0.00000000000E+00 0. -1.
         -2    1    3    3    0  502  0.42574375282E+00  0.34123895275E+02  0.28232363167E+03  0.28437871666E+03  0.00000000000E+00 0.  1.
<mgrwt>
<rscale>  0 0.86460526E+02</rscale>
<asrwt>0</asrwt>
<pdfrwt beam="1">  1        2 0.22578567E+00 0.86460526E+02</pdfrwt>
<pdfrwt beam="2">  1       -2 0.19590822E-03 0.86460526E+02</pdfrwt>
<totfact> 0.27347379E+05</totfact>
</mgrwt>
</event>
<event>
 5    1  0.4059427E+001  0.9200395E+02  0.7546771E-02  0.1298070E+00
          2   -1    0    0  501    0  0.00000000000E+00  0.00000000000E+00  0.40989043108E+03  0.40989043108E+03  0.00000000000E+00 0. -1.
         -2   -1    0    0    0  501 -0.00000000000E+00 -0.00000000000E+00 -0.51627982892E+01  0.51627982892E+01  0.00000000000E+00 0.  1.
         23    2    1    2    0    0  0.00000000000E+00  0.00000000000E+00  0.40472763279E+03  0.41505322937E+03  0.92003948097E+02 0.  0.
          2    1    3    3  502    0 -0.34249766980E+02  0.10887953957E+02  0.33190734311E+03  0.33384738803E+03  0.00000000000E+00 0. -1.
         -2    1    3    3    0  502  0.34249766980E+02 -0.10887953957E+02  0.72820289681E+02  0.81205841347E+02  0.00000000000E+00 0.  1.
<mgrwt>
<rscale>  0 0.92003948E+02</rscale>
<asrwt>0</asrwt>
<pdfrwt beam="1">  1        2 0.63060041E-01 0.92003948E+02</pdfrwt>
<pdfrwt beam="2">  1       -2 0.79427698E-03 0.92003948E+02</pdfrwt>
<totfact> 0.19659588E+05</totfact>
</mgrwt>
</event>
<event>
 5    1  0.4059427E+001  0.8985650E+02  0.7546771E-02  0.1303200E+00
          4   -1    0    0  501    0  0.00000000000E+00  0.00000000000E+00  0.54487379268E+03  0.54487379268E+03  0.00000000000E+00 0. -1.
         -4   -1    0    0    0  501 -0.00000000000E+00 -0.00000000000E+00 -0.37046154268E+01  0.37046154268E+01  0.00000000000E+00 0.  1.
         23    2    1    2    0    0  0.00000000000E+00  0.00000000000E+00  0.54116917725E+03  0.54857840811E+03  0.89856504674E+02 0.  0.
          2    1    3    3  502    0  0.37402666327E+02  0.55056301987E-01  0.42254825711E+03  0.42420041497E+03  0.00000000000E+00 0. -1.
         -2    1    3    3    0  502 -0.37402666327E+02 -0.55056301987E-01  0.11862092015E+03  0.12437799313E+03  0.00000000000E+00 0.  1.
<mgrwt>
<rscale>  0 0.89856505E+02</rscale>
<asrwt>0</asrwt>
<pdfrwt beam="1">  1        4 0.83826674E-01 0.89856505E+02</pdfrwt>
<pdfrwt beam="2">  1       -4 0.56994127E-03 0.89856505E+02</pdfrwt>
<totfact> 0.12695484E+04</totfact>
</mgrwt>
</event>
<event>
 5    1  0.4059427E+001  0.9196300E+02  0.7546771E-02  0.1298166E+00
          4   -1    0    0  501    0  0.00000000000E+00  0.00000000000E+00  0.51387782495E+03  0.51387782495E+03  0.00000000000E+00 0. -1.
         -4   -1    0    0    0  501 -0.00000000000E+00 -0.00000000000E+00 -0.41143991504E+01  0.41143991504E+01  0.00000000000E+00 0.  1.
         23    2    1    2    0    0  0.00000000000E+00  0.00000000000E+00  0.50976342580E+03  0.51799222410E+03  0.91963003134E+02 0.  0.
          2    1    3    3  502    0  0.95923164398E+01 -0.37788779121E+02  0.39219444660E+03  0.39412750260E+03  0.00000000000E+00 0. -1.
         -2    1    3    3    0  502 -0.95923164398E+01  0.37788779121E+02  0.11756897919E+03  0.12386472149E+03  0.00000000000E+00 0.  1.
<mgrwt>
<rscale>  0 0.91963003E+02</rscale>
<asrwt>0</asrwt>
<pdfrwt beam="1">  1        4 0.79058076E-01 0.91963003E+02</pdfrwt>
<pdfrwt beam="2">  1       -4 0.63298489E-03 0.91963003E+02</pdfrwt>
<totfact> 0.12458420E+04</totfact>
</mgrwt>
</event>
<event>
 5    1  0.4059427E+001  0.7950752E+02  0.7546771E-02  0.1330455E+00
          2   -1    0    0  501    0  0.00000000000E+00  0.00000000000E+00  0.22052121603E+04  0.22052121603E+04  0.00000000000E+00 0. -1.
         -2   -1    0    0    0  501 -0.00000000000E+00 -0.00000000000E+00 -0.71664818982E+00  0.71664818982E+00  0.00000000000E+00 0.  1.
         23    2    1    2    0    0  0.00000000000E+00  0.00000000000E+00  0.22044955121E+04  0.22059288085E+04  0.79507516698E+02 0.  0.
          2    1    3    3  502    0 -0.38780734418E+02 -0.86618583084E+01  0.10695587485E+04  0.10702966363E+04  0.00000000000E+00 0. -1.
         -2    1    3    3    0  502  0.38780734418E+02  0.86618583084E+01  0.11349367636E+04  0.11356321722E+04  0.00000000000E+00 0.  1.
<mgrwt>
<rscale>  0 0.79507517E+02</rscale>
<asrwt>0</asrwt>
<pdfrwt beam="1">  1        2 0.33925798E+00 0.79507517E+02</pdfrwt>
<pdfrwt beam="2">  1       -2 0.11025533E-03 0.79507517E+02</pdfrwt>
<totfact> 0.25434217E+05</totfact>
</mgrwt>
</event>
<event>
 5    1  0.4059427E+001  0.9082076E+02  0.7546771E-02  0.1300876E+00
          2   -1    0    0  501    0  0.00000000000E+00  0.00000000000E+00  0.91293928423E+03  0.91293928423E+03  0.00000000000E+00 0. -1.
         -2   -1    0    0    0  501 -0.00000000000E+00 -0.00000000000E+00 -0.22587512332E+01  0.22587512332E+01  0.00000000000E+00 0.  1.
         23    2    1    2    0    0  0.00000000000E+00  0.00000000000E+00  0.91068053300E+03  0.91519803546E+03  0.90820762694E+02 0.  0.
          2    1    3    3  502    0  0.33411548023E+02  0.13667965202E+02  0.73295261697E+03  0.73384104787E+03  0.00000000000E+00 0. -1.
         -2    1    3    3    0  502 -0.33411548023E+02 -0.13667965202E+02  0.17772791602E+03  0.18135698759E+03  0.00000000000E+00 0.  1.
<mgrwt>
<rscale>  0 0.90820763E+02</rscale>
<asrwt>0</asrwt>
<pdfrwt beam="1">  1        2 0.14045190E+00 0.90820763E+02</pdfrwt>
<pdfrwt beam="2">  1       -2 0.34750092E-03 0.90820763E+02</pdfrwt>
<totfact> 0.25089632E+05</totfact>
</mgrwt>
</event>
<event>
 5    1  0.4059427E+001  0.9449940E+02  0.7546771E-02  0.1292308E+00
          2   -1    0    0  501    0  0.00000000000E+00  0.00000000000E+00  0.63899714993E+03  0.63899714993E+03  0.00000000000E+00 0. -1.
         -2   -1    0    0    0  501 -0.00000000000E+00 -0.00000000000E+00 -0.34938089428E+01  0.34938089428E+01  0.00000000000E+00 0.  1.
         23    2    1    2    0    0  0.00000000000E+00  0.00000000000E+00  0.63550334098E+03  0.64249095887E+03  0.94499395910E+02 0.  0.
          2    1    3    3  502    0 -0.33441223993E+02 -0.10482445305E+02  0.53321714195E+03  0.53436758659E+03  0.00000000000E+00 0.  1.
         -2    1    3    3    0  502  0.33441223993E+02  0.10482445305E+02  0.10228619903E+03  0.10812337228E+03  0.00000000000E+00 0. -1.
<mgrwt>
<rscale>  0 0.94499396E+02</rscale>
<asrwt>0</asrwt>
<pdfrwt beam="1">  1        2 0.98307161E-01 0.94499396E+02</pdfrwt>
<pdfrwt beam="2">  1       -2 0.53750958E-03 0.94499396E+02</pdfrwt>
<totfact> 0.21087520E+05</totfact>
</mgrwt>
</event>
<event>
 5    1  0.4059427E+001  0.9175419E+02  0.7546771E-02  0.1298658E+00
          1   -1    0    0  501    0  0.00000000000E+00  0.00000000000E+00  0.24608380350E+01  0.24608380350E+01  0.00000000000E+00 0. -1.
         -1   -1    0    0    0  501 -0.00000000000E+00 -0.00000000000E+00 -0.85528101760E+03  0.85528101760E+03  0.00000000000E+00 0.  1.
         23    2    1    2    0    0  0.00000000000E+00  0.00000000000E+00 -0.85282017956E+03  0.85774185563E+03  0.91754194645E+02 0.  0.
          2    1    3    3  502    0  0.29546542815E+02 -0.28434046967E+01 -0.99404759900E+02  0.10374193671E+03  0.00000000000E+00 0. -1.
         -2    1    3    3    0  502 -0.29546542815E+02  0.28434046967E+01 -0.75341541966E+03  0.75399991892E+03  0.00000000000E+00 0.  1.
<mgrwt>
<rscale>  0 0.91754195E+02</rscale>
<asrwt>0</asrwt>
<pdfrwt beam="1">  1        1 0.37858992E-03 0.91754195E+02</pdfrwt>
<pdfrwt beam="2">  1       -1 0.13158189E+00 0.91754195E+02</pdfrwt>
<totfact> 0.30040866E+04</totfact>
</mgrwt>
</event>
<event>
 5    1  0.4059427E+001  0.8993685E+02  0.7546771E-02  0.1303005E+00
          2   -1    0    0  501    0  0.00000000000E+00  0.00000000000E+00  0.21453701010E+04  0.21453701010E+04  0.00000000000E+00 0.  1.
         -2   -1    0    0    0  501 -0.00000000000E+00 -0.00000000000E+00 -0.94256901619E+00  0.94256901619E+00  0.00000000000E+00 0. -1.
         23    2    1    2    0    0  0.00000000000E+00  0.00000000000E+00  0.21444275320E+04  0.21463126700E+04  0.89936853080E+02 0.  0.
          2    1    3    3  502    0  0.20758491433E+02  0.24872351381E+02  0.32795357303E+03  0.32954983673E+03  0.00000000000E+00 0. -1.
         -2    1    3    3    0  502 -0.20758491433E+02 -0.24872351381E+02  0.18164739590E+04  0.18167628333E+04  0.00000000000E+00 0.  1.
<mgrwt>
<rscale>  0 0.89936853E+02</rscale>
<asrwt>0</asrwt>
<pdfrwt beam="1">  1        2 0.33005303E+00 0.89936853E+02</pdfrwt>
<pdfrwt beam="2">  1       -2 0.14501233E-03 0.89936853E+02</pdfrwt>
<totfact> 0.18990663E+05</totfact>
</mgrwt>
</event>
<event>
 5    1  0.4059427E+001  0.9296524E+02  0.7546771E-02  0.1295826E+00
         -1   -1    0    0    0  501 -0.00000000000E+00  0.00000000000E+00  0.11454138512E+02  0.11454138512E+02  0.00000000000E+00 0.  1.
          1   -1    0    0  501    0  0.00000000000E+00 -0.00000000000E+00 -0.18863349490E+03  0.18863349490E+03  0.00000000000E+00 0. -1.
         23    2    1    2    0    0  0.00000000000E+00  0.00000000000E+00 -0.17717935639E+03  0.20008763341E+03  0.92965244661E+02 0.  0.
          2    1    3    3  502    0  0.29590380595E+02  0.34168800960E+02 -0.65255839828E+02  0.79381497935E+02  0.00000000000E+00 0. -1.
         -2    1    3    3    0  502 -0.29590380595E+02 -0.34168800960E+02 -0.11192351656E+03  0.12070613548E+03  0.00000000000E+00 0.  1.
<mgrwt>
<rscale>  0 0.92965245E+02</rscale>
<asrwt>0</asrwt>
<pdfrwt beam="2">  1        1 0.29020538E-01 0.92965245E+02</pdfrwt>
<pdfrwt beam="1">  1       -1 0.17621752E-02 0.92965245E+02</pdfrwt>
<totfact> 0.11111454E+05</totfact>
</mgrwt>
</event>
<event>
 5    1  0.4059427E+001  0.9058327E+02  0.7546771E-02  0.1301445E+00
          2   -1    0    0  501    0  0.00000000000E+00  0.00000000000E+00  0.18073691087E+04  0.18073691087E+04  0.00000000000E+00 0.  1.
         -2   -1    0    0    0  501 -0.00000000000E+00 -0.00000000000E+00 -0.11349823461E+01  0.11349823461E+01  0.00000000000E+00 0. -1.
         23    2    1    2    0    0  0.00000000000E+00  0.00000000000E+00  0.18062341263E+04  0.18085040910E+04  0.90583266250E+02 0.  0.
          2    1    3    3  502    0 -0.44976308627E+02 -0.24897800270E+01  0.80891078764E+03  0.81016401407E+03  0.00000000000E+00 0. -1.
         -2    1    3    3    0  502  0.44976308627E+02  0.24897800270E+01  0.99732333868E+03  0.99834007694E+03  0.00000000000E+00 0.  1.
<mgrwt>
<rscale>  0 0.90583266E+02</rscale>
<asrwt>0</asrwt>
<pdfrwt beam="1">  1        2 0.27805448E+00 0.90583266E+02</pdfrwt>
<pdfrwt beam="2">  1       -2 0.17461411E-03 0.90583266E+02</pdfrwt>
<totfact> 0.21743690E+05</totfact>
</mgrwt>
</event>
<event>
 5    1  0.4059427E+001  0.8620152E+02  0.7546771E-02  0.1312320E+00
         -2   -1    0    0    0  501 -0.00000000000E+00  0.00000000000E+00  0.98966477099E+00  0.98966477099E+00  0.00000000000E+00 0.  1.
          2   -1    0    0  501    0  0.00000000000E+00 -0.00000000000E+00 -0.18770755035E+04  0.18770755035E+04  0.00000000000E+00 0. -1.
         23    2    1    2    0    0  0.00000000000E+00  0.00000000000E+00 -0.18760858388E+04  0.18780651683E+04  0.86201519670E+02 0.  0.
          2    1    3    3  502    0  0.20689562781E+02  0.17715721309E+02 -0.16657945948E+04  0.16660172679E+04  0.00000000000E+00 0. -1.
         -2    1    3    3    0  502 -0.20689562781E+02 -0.17715721309E+02 -0.21029124393E+03  0.21204790039E+03  0.00000000000E+00 0.  1.
<mgrwt>
<rscale>  0 0.86201520E+02</rscale>
<asrwt>0</asrwt>
<pdfrwt beam="2">  1        2 0.28878031E+00 0.86201520E+02</pdfrwt>
<pdfrwt beam="1">  1       -2 0.15225640E-03 0.86201520E+02</pdfrwt>
<totfact> 0.24091207E+05</totfact>
</mgrwt>
</event>
<event>
 5    1  0.4059427E+001  0.8996910E+02  0.7546771E-02  0.1302927E+00
          1   -1    0    0  501    0  0.00000000000E+00  0.00000000000E+00  0.12026581885E+04  0.12026581885E+04  0.00000000000E+00 0. -1.
         -1   -1    0    0    0  501 -0.00000000000E+00 -0.00000000000E+00 -0.16826140822E+01  0.16826140822E+01  0.00000000000E+00 0.  1.
         23    2    1    2    0    0  0.00000000000E+00  0.00000000000E+00  0.12009755744E+04  0.12043408025E+04  0.89969097005E+02 0.  0.
          2    1    3    3  502    0 -0.65908485095E+01 -0.44283892416E+02  0.65900107171E+03  0.66052018510E+03  0.00000000000E+00 0. -1.
         -2    1    3    3    0  502  0.65908485095E+01  0.44283892416E+02  0.54197450267E+03  0.54382061744E+03  0.00000000000E+00 0.  1.
<mgrwt>
<rscale>  0 0.89969097E+02</rscale>
<asrwt>0</asrwt>
<pdfrwt beam="1">  1        1 0.18502365E+00 0.89969097E+02</pdfrwt>
<pdfrwt beam="2">  1       -1 0.25886467E-03 0.89969097E+02</pdfrwt>
<totfact> 0.13173211E+05</totfact>
</mgrwt>
</event>
<event>
 5    1  0.4059427E+001  0.8870391E+02  0.7546771E-02  0.1306021E+00
          2   -1    0    0  501    0  0.00000000000E+00  0.00000000000E+00  0.11509642396E+02  0.11509642396E+02  0.00000000000E+00 0. -1.
         -2   -1    0    0    0  501 -0.00000000000E+00 -0.00000000000E+00 -0.17090850981E+03  0.17090850981E+03  0.00000000000E+00 0.  1.
         23    2    1    2    0    0  0.00000000000E+00  0.00000000000E+00 -0.15939886741E+03  0.18241815220E+03  0.88703908153E+02 0.  0.
          2    1    3    3  502    0 -0.10040097002E+02  0.40609474603E+02 -0.49394169892E+02  0.64728023256E+02  0.00000000000E+00 0. -1.
         -2    1    3    3    0  502  0.10040097002E+02 -0.40609474603E+02 -0.11000469752E+03  0.11769012895E+03  0.00000000000E+00 0.  1.
<mgrwt>
<rscale>  0 0.88703908E+02</rscale>
<asrwt>0</asrwt>
<pdfrwt beam="1">  1        2 0.17707143E-02 0.88703908E+02</pdfrwt>
<pdfrwt beam="2">  1       -2 0.26293616E-01 0.88703908E+02</pdfrwt>
<totfact> 0.71303705E+04</totfact>
</mgrwt>
</event>
<event>
 5    1  0.4059427E+001  0.9045052E+02  0.7546771E-02  0.1301764E+00
         -2   -1    0    0    0  501 -0.00000000000E+00  0.00000000000E+00  0.14388363675E+01  0.14388363675E+01  0.00000000000E+00 0. -1.
          2   -1    0    0  501    0  0.00000000000E+00 -0.00000000000E+00 -0.14215127933E+04  0.14215127933E+04  0.00000000000E+00 0.  1.
         23    2    1    2    0    0  0.00000000000E+00  0.00000000000E+00 -0.14200739570E+04  0.14229516297E+04  0.90450523580E+02 0.  0.
          2    1    3    3  502    0  0.23782114475E+02  0.19521983696E+02 -0.18859705106E+03  0.19109040920E+03  0.00000000000E+00 0. -1.
         -2    1    3    3    0  502 -0.23782114475E+02 -0.19521983696E+02 -0.12314769059E+04  0.12318612205E+04  0.00000000000E+00 0.  1.
<mgrwt>
<rscale>  0 0.90450524E+02</rscale>
<asrwt>0</asrwt>
<pdfrwt beam="2">  1        2 0.21869331E+00 0.90450524E+02</pdfrwt>
<pdfrwt beam="1">  1       -2 0.22136042E-03 0.90450524E+02</pdfrwt>
<totfact> 0.24543719E+05</totfact>
</mgrwt>
</event>
<event>
 5    1  0.4059427E+001  0.9013996E+02  0.7546771E-02  0.1302513E+00
          2   -1    0    0  501    0  0.00000000000E+00  0.00000000000E+00  0.39038760164E+02  0.39038760164E+02  0.00000000000E+00 0. -1.
         -2   -1    0    0    0  501 -0.00000000000E+00 -0.00000000000E+00 -0.52032978324E+02  0.52032978324E+02  0.00000000000E+00 0.  1.
         23    2    1    2    0    0  0.00000000000E+00  0.00000000000E+00 -0.12994218161E+02  0.91071738488E+02  0.90139956987E+02 0.  0.
          2    1    3    3  502    0 -0.35891119141E+02  0.18740201179E+02  0.13504895363E+02  0.42681960735E+02  0.00000000000E+00 0. -1.
         -2    1    3    3    0  502  0.35891119141E+02 -0.18740201179E+02 -0.26499113524E+02  0.48389777753E+02  0.00000000000E+00 0.  1.
<mgrwt>
<rscale>  0 0.90139957E+02</rscale>
<asrwt>0</asrwt>
<pdfrwt beam="1">  1        2 0.60059631E-02 0.90139957E+02</pdfrwt>
<pdfrwt beam="2">  1       -2 0.80050736E-02 0.90139957E+02</pdfrwt>
<totfact> 0.97982179E+04</totfact>
</mgrwt>
</event>
<event>
 5    1  0.4059427E+001  0.8643523E+02  0.7546771E-02  0.1311721E+00
         -1   -1    0    0    0  501 -0.00000000000E+00  0.00000000000E+00  0.75420876565E+02  0.75420876565E+02  0.00000000000E+00 0.  1.
          1   -1    0    0  501    0  0.00000000000E+00 -0.00000000000E+00 -0.24764523819E+02  0.24764523819E+02  0.00000000000E+00 0. -1.
         23    2    1    2    0    0  0.00000000000E+00  0.00000000000E+00  0.50656352746E+02  0.10018540038E+03  0.86435226480E+02 0.  0.
          2    1    3    3  502    0 -0.15717204137E+02  0.39938559105E+02  0.31197645177E+02  0.53060456782E+02  0.00000000000E+00 0. -1.
         -2    1    3    3    0  502  0.15717204137E+02 -0.39938559105E+02  0.19458707569E+02  0.47124943603E+02  0.00000000000E+00 0.  1.
<mgrwt>
<rscale>  0 0.86435226E+02</rscale>
<asrwt>0</asrwt>
<pdfrwt beam="2">  1        1 0.38099268E-02 0.86435226E+02</pdfrwt>
<pdfrwt beam="1">  1       -1 0.11603212E-01 0.86435226E+02</pdfrwt>
<totfact> 0.97970677E+04</totfact>
</mgrwt>
</event>
<event>
 5    1  0.4059427E+001  0.9052240E+02  0.7546771E-02  0.1301592E+00
         -2   -1    0    0    0  501 -0.00000000000E+00  0.00000000000E+00  0.62933054527E+02  0.62933054527E+02  0.00000000000E+00 0.  1.
          2   -1    0    0  501    0  0.00000000000E+00 -0.00000000000E+00 -0.32551675442E+02  0.32551675442E+02  0.00000000000E+00 0. -1.
         23    2    1    2    0    0  0.00000000000E+00  0.00000000000E+00  0.30381379084E+02  0.95484729969E+02  0.90522403096E+02 0.  0.
          2    1    3    3  502    0 -0.22258604350E+02 -0.17280937251E+02 -0.22169855270E+02  0.35854968171E+02  0.00000000000E+00 0. -1.
         -2    1    3    3    0  502  0.22258604350E+02  0.17280937251E+02  0.52551234354E+02  0.59629761798E+02  0.00000000000E+00 0.  1.
<mgrwt>
<rscale>  0 0.90522403E+02</rscale>
<asrwt>0</asrwt>
<pdfrwt beam="2">  1        2 0.50079501E-02 0.90522403E+02</pdfrwt>
<pdfrwt beam="1">  1       -2 0.96820084E-02 0.90522403E+02</pdfrwt>
<totfact> 0.92338098E+04</totfact>
</mgrwt>
</event>
<event>
 5    1  0.4059427E+001  0.9205634E+02  0.7546771E-02  0.1297947E+00
          2   -1    0    0  501    0  0.00000000000E+00  0.00000000000E+00  0.80348013283E+03  0.80348013283E+03  0.00000000000E+00 0. -1.
         -2   -1    0    0    0  501 -0.00000000000E+00 -0.00000000000E+00 -0.26367702375E+01  0.26367702375E+01  0.00000000000E+00 0.  1.
         23    2    1    2    0    0  0.00000000000E+00  0.00000000000E+00  0.80084336260E+03  0.80611690307E+03  0.92056341458E+02 0.  0.
          2    1    3    3  502    0  0.25180950797E+02 -0.93963886862E+00  0.73771443966E+03  0.73814467260E+03  0.00000000000E+00 0. -1.
         -2    1    3    3    0  502 -0.25180950797E+02  0.93963886862E+00  0.63128922939E+02  0.67972230475E+02  0.00000000000E+00 0.  1.
<mgrwt>
<rscale>  0 0.92056341E+02</rscale>
<asrwt>0</asrwt>
<pdfrwt beam="1">  1        2 0.12361213E+00 0.92056341E+02</pdfrwt>
<pdfrwt beam="2">  1       -2 0.40565760E-03 0.92056341E+02</pdfrwt>
<totfact> 0.23782698E+05</totfact>
</mgrwt>
</event>
<event>
 5    1  0.4059427E+001  0.7888860E+02  0.7546771E-02  0.1332235E+00
          1   -1    0    0  501    0  0.00000000000E+00  0.00000000000E+00  0.66289093146E+03  0.66289093146E+03  0.00000000000E+00 0. -1.
         -1   -1    0    0    0  501 -0.00000000000E+00 -0.00000000000E+00 -0.23470721786E+01  0.23470721786E+01  0.00000000000E+00 0.  1.
         23    2    1    2    0    0  0.00000000000E+00  0.00000000000E+00  0.66054385928E+03  0.66523800364E+03  0.78888601525E+02 0.  0.
          2    1    3    3  502    0  0.25905906477E+02 -0.22526890084E+01  0.58037600896E+03  0.58095826216E+03  0.00000000000E+00 0. -1.
         -2    1    3    3    0  502 -0.25905906477E+02  0.22526890084E+01  0.80167850319E+02  0.84279741474E+02  0.00000000000E+00 0.  1.
<mgrwt>
<rscale>  0 0.78888602E+02</rscale>
<asrwt>0</asrwt>
<pdfrwt beam="1">  1        1 0.10198307E+00 0.78888602E+02</pdfrwt>
<pdfrwt beam="2">  1       -1 0.36108856E-03 0.78888602E+02</pdfrwt>
<totfact> 0.20789933E+05</totfact>
</mgrwt>
</event>
<event>
 5    1  0.4059427E+001  0.9084661E+02  0.7546771E-02  0.1300814E+00
          3   -1    0    0  501    0  0.00000000000E+00  0.00000000000E+00  0.22448119616E+02  0.22448119616E+02  0.00000000000E+00 0. -1.
         -3   -1    0    0    0  501 -0.00000000000E+00 -0.00000000000E+00 -0.91913113679E+02  0.91913113679E+02  0.00000000000E+00 0.  1.
         23    2    1    2    0    0  0.00000000000E+00  0.00000000000E+00 -0.69464994063E+02  0.11436123330E+03  0.90846608526E+02 0.  0.
          2    1    3    3  502    0  0.36703838907E+02  0.23661275228E+01 -0.11777434740E+01  0.36798878103E+02  0.00000000000E+00 0. -1.
         -2    1    3    3    0  502 -0.36703838907E+02 -0.23661275228E+01 -0.68287250589E+02  0.77562355192E+02  0.00000000000E+00 0.  1.
<mgrwt>
<rscale>  0 0.90846609E+02</rscale>
<asrwt>0</asrwt>
<pdfrwt beam="1">  1        3 0.34535569E-02 0.90846609E+02</pdfrwt>
<pdfrwt beam="2">  1       -3 0.14140479E-01 0.90846609E+02</pdfrwt>
<totfact> 0.33971347E+04</totfact>
</mgrwt>
</event>
<event>
 5    1  0.4059427E+001  0.8946159E+02  0.7546771E-02  0.1304161E+00
         -4   -1    0    0    0  501 -0.00000000000E+00  0.00000000000E+00  0.17846846822E+02  0.17846846822E+02  0.00000000000E+00 0.  1.
          4   -1    0    0  501    0  0.00000000000E+00 -0.00000000000E+00 -0.11211189911E+03  0.11211189911E+03  0.00000000000E+00 0. -1.
         23    2    1    2    0    0  0.00000000000E+00  0.00000000000E+00 -0.94265052285E+02  0.12995874593E+03  0.89461587071E+02 0.  0.
          2    1    3    3  502    0 -0.10773383082E+02 -0.42990813969E+02 -0.55917078697E+02  0.71351212735E+02  0.00000000000E+00 0. -1.
         -2    1    3    3    0  502  0.10773383082E+02  0.42990813969E+02 -0.38347973587E+02  0.58607533194E+02  0.00000000000E+00 0.  1.
<mgrwt>
<rscale>  0 0.89461587E+02</rscale>
<asrwt>0</asrwt>
<pdfrwt beam="2">  1        4 0.17247985E-01 0.89461587E+02</pdfrwt>
<pdfrwt beam="1">  1       -4 0.27456687E-02 0.89461587E+02</pdfrwt>
<totfact> 0.26015441E+04</totfact>
</mgrwt>
</event>
<event>
 5    1  0.4059427E+001  0.9158567E+02  0.7546771E-02  0.1299057E+00
         -2   -1    0    0    0  501 -0.00000000000E+00  0.00000000000E+00  0.35703590165E+01  0.35703590165E+01  0.00000000000E+00 0.  1.
          2   -1    0    0  501    0  0.00000000000E+00 -0.00000000000E+00 -0.58733132050E+03  0.58733132050E+03  0.00000000000E+00 0. -1.
         23    2    1    2    0    0  0.00000000000E+00  0.00000000000E+00 -0.58376096149E+03  0.59090167952E+03  0.91585668657E+02 0.  0.
          2    1    3    3  502    0 -0.21525200377E+02  0.11974271889E+02 -0.54094945665E+03  0.54150995567E+03  0.00000000000E+00 0. -1.
         -2    1    3    3    0  502  0.21525200377E+02 -0.11974271889E+02 -0.42811504834E+02  0.49391723848E+02  0.00000000000E+00 0.  1.
<mgrwt>
<rscale>  0 0.91585669E+02</rscale>
<asrwt>0</asrwt>
<pdfrwt beam="2">  1        2 0.90358647E-01 0.91585669E+02</pdfrwt>
<pdfrwt beam="1">  1       -2 0.54928611E-03 0.91585669E+02</pdfrwt>
<totfact> 0.22379912E+05</totfact>
</mgrwt>
</event>
<event>
 5    1  0.4059427E+001  0.9224327E+02  0.7546771E-02  0.1297508E+00
          4   -1    0    0  501    0  0.00000000000E+00  0.00000000000E+00  0.15439849089E+03  0.15439849089E+03  0.00000000000E+00 0. -1.
         -4   -1    0    0    0  501 -0.00000000000E+00 -0.00000000000E+00 -0.13777370483E+02  0.13777370483E+02  0.00000000000E+00 0.  1.
         23    2    1    2    0    0  0.00000000000E+00  0.00000000000E+00  0.14062112040E+03  0.16817586137E+03  0.92243269913E+02 0.  0.
          2    1    3    3  502    0  0.27837887296E+02 -0.33564690995E+02  0.97698836001E+02  0.10698877982E+03  0.00000000000E+00 0. -1.
         -2    1    3    3    0  502 -0.27837887296E+02  0.33564690995E+02  0.42922284403E+02  0.61187081554E+02  0.00000000000E+00 0.  1.
<mgrwt>
<rscale>  0 0.92243270E+02</rscale>
<asrwt>0</asrwt>
<pdfrwt beam="1">  1        4 0.23753613E-01 0.92243270E+02</pdfrwt>
<pdfrwt beam="2">  1       -4 0.21195956E-02 0.92243270E+02</pdfrwt>
<totfact> 0.22089982E+04</totfact>
</mgrwt>
</event>
<event>
 5    1  0.4059427E+001  0.9177757E+02  0.7546771E-02  0.1298603E+00
         -2   -1    0    0    0  501 -0.00000000000E+00  0.00000000000E+00  0.44139109357E+02  0.44139109357E+02  0.00000000000E+00 0. -1.
          2   -1    0    0  501    0  0.00000000000E+00 -0.00000000000E+00 -0.47707816040E+02  0.47707816040E+02  0.00000000000E+00 0.  1.
         23    2    1    2    0    0  0.00000000000E+00  0.00000000000E+00 -0.35687066838E+01  0.91846925397E+02  0.91777568270E+02 0.  0.
          2    1    3    3  502    0 -0.17162392242E+02  0.22011877768E+02  0.34667203688E+02  0.44507139674E+02  0.00000000000E+00 0. -1.
         -2    1    3    3    0  502  0.17162392242E+02 -0.22011877768E+02 -0.38235910372E+02  0.47339785723E+02  0.00000000000E+00 0.  1.
<mgrwt>
<rscale>  0 0.91777568E+02</rscale>
<asrwt>0</asrwt>
<pdfrwt beam="2">  1        2 0.73396639E-02 0.91777568E+02</pdfrwt>
<pdfrwt beam="1">  1       -2 0.67906323E-02 0.91777568E+02</pdfrwt>
<totfact> 0.97985664E+04</totfact>
</mgrwt>
</event>
<event>
 5    1  0.4059427E+001  0.8771663E+02  0.7546771E-02  0.1308477E+00
          2   -1    0    0  501    0  0.00000000000E+00  0.00000000000E+00  0.11078355312E+03  0.11078355312E+03  0.00000000000E+00 0. -1.
         -2   -1    0    0    0  501 -0.00000000000E+00 -0.00000000000E+00 -0.17363153260E+02  0.17363153260E+02  0.00000000000E+00 0.  1.
         23    2    1    2    0    0  0.00000000000E+00  0.00000000000E+00  0.93420399860E+02  0.12814670638E+03  0.87716630386E+02 0.  0.
          2    1    3    3  502    0 -0.32666065296E+01  0.20720366380E+02 -0.95597123335E+01  0.23051950049E+02  0.00000000000E+00 0.  1.
         -2    1    3    3    0  502  0.32666065296E+01 -0.20720366380E+02  0.10298011219E+03  0.10509475633E+03  0.00000000000E+00 0. -1.
<mgrwt>
<rscale>  0 0.87716630E+02</rscale>
<asrwt>0</asrwt>
<pdfrwt beam="1">  1        2 0.17043623E-01 0.87716630E+02</pdfrwt>
<pdfrwt beam="2">  1       -2 0.26712544E-02 0.87716630E+02</pdfrwt>
<totfact> 0.14073653E+05</totfact>
</mgrwt>
</event>
<event>
 5    1  0.4059427E+001  0.9107111E+02  0.7546771E-02  0.1300278E+00
          1   -1    0    0  501    0  0.00000000000E+00  0.00000000000E+00  0.49233600765E+01  0.49233600765E+01  0.00000000000E+00 0. -1.
         -1   -1    0    0    0  501 -0.00000000000E+00 -0.00000000000E+00 -0.42115277949E+03  0.42115277949E+03  0.00000000000E+00 0.  1.
         23    2    1    2    0    0  0.00000000000E+00  0.00000000000E+00 -0.41622941942E+03  0.42607613957E+03  0.91071110253E+02 0.  0.
          2    1    3    3  502    0  0.13769238555E+02  0.21484285202E+02 -0.31671360273E+02  0.40672367801E+02  0.00000000000E+00 0. -1.
         -2    1    3    3    0  502 -0.13769238555E+02 -0.21484285202E+02 -0.38455805914E+03  0.38540377177E+03  0.00000000000E+00 0.  1.
<mgrwt>
<rscale>  0 0.91071110E+02</rscale>
<asrwt>0</asrwt>
<pdfrwt beam="1">  1        1 0.75743974E-03 0.91071110E+02</pdfrwt>
<pdfrwt beam="2">  1       -1 0.64792758E-01 0.91071110E+02</pdfrwt>
<totfact> 0.52047423E+04</totfact>
</mgrwt>
</event>
<event>
 5    1  0.4059427E+001  0.9338659E+02  0.7546771E-02  0.1294852E+00
          2   -1    0    0  501    0  0.00000000000E+00  0.00000000000E+00  0.17242660882E+04  0.17242660882E+04  0.00000000000E+00 0. -1.
         -2   -1    0    0    0  501 -0.00000000000E+00 -0.00000000000E+00 -0.12644588888E+01  0.12644588888E+01  0.00000000000E+00 0.  1.
         23    2    1    2    0    0  0.00000000000E+00  0.00000000000E+00  0.17230016293E+04  0.17255305471E+04  0.93386585372E+02 0.  0.
          2    1    3    3  502    0 -0.18535741127E+02  0.20175240333E+02  0.15601400206E+04  0.15603805619E+04  0.00000000000E+00 0. -1.
         -2    1    3    3    0  502  0.18535741127E+02 -0.20175240333E+02  0.16286160867E+03  0.16514998517E+03  0.00000000000E+00 0.  1.
<mgrwt>
<rscale>  0 0.93386585E+02</rscale>
<asrwt>0</asrwt>
<pdfrwt beam="1">  1        2 0.26526982E+00 0.93386585E+02</pdfrwt>
<pdfrwt beam="2">  1       -2 0.19453352E-03 0.93386585E+02</pdfrwt>
<totfact> 0.20691488E+05</totfact>
</mgrwt>
</event>
<event>
 4    1  0.4059427E+001  0.1304927E+03  0.7546771E-02  0.1226726E+00
          2   -1    0    0  501    0  0.00000000000E+00  0.00000000000E+00  0.44643904305E+03  0.44643904305E+03  0.00000000000E+00 0. -1.
         -2   -1    0    0    0  501 -0.00000000000E+00 -0.00000000000E+00 -0.95356514779E+01  0.95356514779E+01  0.00000000000E+00 0.  1.
          2    1    1    2  502    0 -0.31291492909E+02 -0.33329377130E+02  0.38111596638E+03  0.38384812717E+03  0.00000000000E+00 0. -1.
         -2    1    1    2    0  502  0.31291492909E+02  0.33329377130E+02  0.55787425198E+02  0.72126567356E+02  0.00000000000E+00 0.  1.
<mgrwt>
<rscale>  0 0.13049271E+03</rscale>
<asrwt>0</asrwt>
<pdfrwt beam="1">  1        2 0.68682914E-01 0.13049271E+03</pdfrwt>
<pdfrwt beam="2">  1       -2 0.14670236E-02 0.13049271E+03</pdfrwt>
<totfact> 0.78747114E+04</totfact>
</mgrwt>
</event>
<event>
 5    1  0.4059427E+001  0.9132983E+02  0.7546771E-02  0.1299663E+00
          1   -1    0    0  501    0  0.00000000000E+00  0.00000000000E+00  0.77820098561E+03  0.77820098561E+03  0.00000000000E+00 0. -1.
         -1   -1    0    0    0  501 -0.00000000000E+00 -0.00000000000E+00 -0.26796220371E+01  0.26796220371E+01  0.00000000000E+00 0.  1.
         23    2    1    2    0    0  0.00000000000E+00  0.00000000000E+00  0.77552136357E+03  0.78088060765E+03  0.91329831060E+02 0.  0.
          2    1    3    3  502    0 -0.41143058622E+02  0.17676420379E+02  0.31124913785E+03  0.31445386454E+03  0.00000000000E+00 0. -1.
         -2    1    3    3    0  502  0.41143058622E+02 -0.17676420379E+02  0.46427222572E+03  0.46642674311E+03  0.00000000000E+00 0.  1.
<mgrwt>
<rscale>  0 0.91329831E+02</rscale>
<asrwt>0</asrwt>
<pdfrwt beam="1">  1        1 0.11972305E+00 0.91329831E+02</pdfrwt>
<pdfrwt beam="2">  1       -1 0.41225016E-03 0.91329831E+02</pdfrwt>
<totfact> 0.14097871E+05</totfact>
</mgrwt>
</event>
<event>
 5    1  0.4059427E+001  0.9109585E+02  0.7546771E-02  0.1300219E+00
          1   -1    0    0  501    0  0.00000000000E+00  0.00000000000E+00  0.11130640248E+03  0.11130640248E+03  0.00000000000E+00 0. -1.
         -1   -1    0    0    0  501 -0.00000000000E+00 -0.00000000000E+00 -0.18638761385E+02  0.18638761385E+02  0.00000000000E+00 0.  1.
         23    2    1    2    0    0  0.00000000000E+00  0.00000000000E+00  0.92667641093E+02  0.12994516386E+03  0.91095850102E+02 0.  0.
          2    1    3    3  502    0 -0.27714847812E+02 -0.66720047317E+01  0.97008222439E+02  0.10110995825E+03  0.00000000000E+00 0. -1.
         -2    1    3    3    0  502  0.27714847812E+02  0.66720047317E+01 -0.43405813465E+01  0.28835205614E+02  0.00000000000E+00 0.  1.
<mgrwt>
<rscale>  0 0.91095850E+02</rscale>
<asrwt>0</asrwt>
<pdfrwt beam="1">  1        1 0.17124062E-01 0.91095850E+02</pdfrwt>
<pdfrwt beam="2">  1       -1 0.28675018E-02 0.91095850E+02</pdfrwt>
<totfact> 0.10661068E+05</totfact>
</mgrwt>
</event>
<event>
 5    1  0.4059427E+001  0.9147485E+02  0.7546771E-02  0.1299319E+00
         -1   -1    0    0    0  501 -0.00000000000E+00  0.00000000000E+00  0.35494805936E+02  0.35494805936E+02  0.00000000000E+00 0.  1.
          1   -1    0    0  501    0  0.00000000000E+00 -0.00000000000E+00 -0.58935725211E+02  0.58935725211E+02  0.00000000000E+00 0. -1.
         23    2    1    2    0    0  0.00000000000E+00  0.00000000000E+00 -0.23440919275E+02  0.94430531146E+02  0.91474851824E+02 0.  0.
          2    1    3    3  502    0 -0.16081095005E+02  0.19684104455E+02 -0.50973366017E+02  0.56959192655E+02  0.00000000000E+00 0. -1.
         -2    1    3    3    0  502  0.16081095005E+02 -0.19684104455E+02  0.27532446742E+02  0.37471338492E+02  0.00000000000E+00 0.  1.
<mgrwt>
<rscale>  0 0.91474852E+02</rscale>
<asrwt>0</asrwt>
<pdfrwt beam="2">  1        1 0.90670346E-02 0.91474852E+02</pdfrwt>
<pdfrwt beam="1">  1       -1 0.54607394E-02 0.91474852E+02</pdfrwt>
<totfact> 0.95243099E+04</totfact>
</mgrwt>
</event>
<event>
 5    1  0.4059427E+001  0.9089810E+02  0.7546771E-02  0.1300691E+00
         -3   -1    0    0    0  501 -0.00000000000E+00  0.00000000000E+00  0.47171754955E+03  0.47171754955E+03  0.00000000000E+00 0.  1.
          3   -1    0    0  501    0  0.00000000000E+00 -0.00000000000E+00 -0.43789253441E+01  0.43789253441E+01  0.00000000000E+00 0. -1.
         23    2    1    2    0    0  0.00000000000E+00  0.00000000000E+00  0.46733862420E+03  0.47609647489E+03  0.90898095315E+02 0.  0.
          2    1    3    3  502    0 -0.21596894515E+02  0.12215020315E+02  0.34224983233E+02  0.42272710480E+02  0.00000000000E+00 0. -1.
         -2    1    3    3    0  502  0.21596894515E+02 -0.12215020315E+02  0.43311364097E+03  0.43382376441E+03  0.00000000000E+00 0.  1.
<mgrwt>
<rscale>  0 0.90898095E+02</rscale>
<asrwt>0</asrwt>
<pdfrwt beam="2">  1        3 0.67368119E-03 0.90898095E+02</pdfrwt>
<pdfrwt beam="1">  1       -3 0.72571891E-01 0.90898095E+02</pdfrwt>
<totfact> 0.18637527E+04</totfact>
</mgrwt>
</event>
<event>
 5    1  0.4059427E+001  0.9240961E+02  0.7546771E-02  0.1297119E+00
         -1   -1    0    0    0  501 -0.00000000000E+00  0.00000000000E+00  0.56788745354E+01  0.56788745354E+01  0.00000000000E+00 0.  1.
          1   -1    0    0  501    0  0.00000000000E+00 -0.00000000000E+00 -0.37593438886E+03  0.37593438886E+03  0.00000000000E+00 0. -1.
         23    2    1    2    0    0  0.00000000000E+00  0.00000000000E+00 -0.37025551433E+03  0.38161326340E+03  0.92409614822E+02 0.  0.
          2    1    3    3  502    0 -0.43935510142E+02 -0.13770527169E+02 -0.20108300641E+03  0.20628701349E+03  0.00000000000E+00 0. -1.
         -2    1    3    3    0  502  0.43935510142E+02  0.13770527169E+02 -0.16917250792E+03  0.17532624990E+03  0.00000000000E+00 0.  1.
<mgrwt>
<rscale>  0 0.92409615E+02</rscale>
<asrwt>0</asrwt>
<pdfrwt beam="2">  1        1 0.57836064E-01 0.92409615E+02</pdfrwt>
<pdfrwt beam="1">  1       -1 0.87367294E-03 0.92409615E+02</pdfrwt>
<totfact> 0.12880646E+05</totfact>
</mgrwt>
</event>
<event>
 5    1  0.4059427E+001  0.9246870E+02  0.7546771E-02  0.1296981E+00
         -2   -1    0    0    0  501 -0.00000000000E+00  0.00000000000E+00  0.63635897323E+01  0.63635897323E+01  0.00000000000E+00 0.  1.
          2   -1    0    0  501    0  0.00000000000E+00 -0.00000000000E+00 -0.33591344405E+03  0.33591344405E+03  0.00000000000E+00 0. -1.
         23    2    1    2    0    0  0.00000000000E+00  0.00000000000E+00 -0.32954985432E+03  0.34227703378E+03  0.92468704836E+02 0.  0.
          2    1    3    3  502    0  0.27505874898E+02 -0.23689561104E+02 -0.27076113665E+03  0.27318375057E+03  0.00000000000E+00 0. -1.
         -2    1    3    3    0  502 -0.27505874898E+02  0.23689561104E+02 -0.58788717672E+02  0.69093283210E+02  0.00000000000E+00 0.  1.
<mgrwt>
<rscale>  0 0.92468705E+02</rscale>
<asrwt>0</asrwt>
<pdfrwt beam="2">  1        2 0.51678995E-01 0.92468705E+02</pdfrwt>
<pdfrwt beam="1">  1       -2 0.97901373E-03 0.92468705E+02</pdfrwt>
<totfact> 0.18045187E+05</totfact>
</mgrwt>
</event>
<event>
 5    1  0.4059427E+001  0.9014620E+02  0.7546771E-02  0.1302498E+00
         -1   -1    0    0    0  501 -0.00000000000E+00  0.00000000000E+00  0.20147139491E+01  0.20147139491E+01  0.00000000000E+00 0.  1.
          1   -1    0    0  501    0  0.00000000000E+00 -0.00000000000E+00 -0.10083735377E+04  0.10083735377E+04  0.00000000000E+00 0. -1.
         23    2    1    2    0    0  0.00000000000E+00  0.00000000000E+00 -0.10063588238E+04  0.10103882517E+04  0.90146197532E+02 0.  0.
          2    1    3    3  502    0  0.41105819344E+02  0.71106662691E+01 -0.31186985525E+03  0.31464751162E+03  0.00000000000E+00 0. -1.
         -2    1    3    3    0  502 -0.41105819344E+02 -0.71106662691E+01 -0.69448896852E+03  0.69574074004E+03  0.00000000000E+00 0.  1.
<mgrwt>
<rscale>  0 0.90146198E+02</rscale>
<asrwt>0</asrwt>
<pdfrwt beam="2">  1        1 0.15513438E+00 0.90146198E+02</pdfrwt>
<pdfrwt beam="1">  1       -1 0.30995601E-03 0.90146198E+02</pdfrwt>
<totfact> 0.13984787E+05</totfact>
</mgrwt>
</event>
<event>
 5    1  0.4059427E+001  0.9544788E+02  0.7546771E-02  0.1290171E+00
         -1   -1    0    0    0  501 -0.00000000000E+00  0.00000000000E+00  0.45262524955E+00  0.45262524955E+00  0.00000000000E+00 0. -1.
          1   -1    0    0  501    0  0.00000000000E+00 -0.00000000000E+00 -0.50319206652E+04  0.50319206652E+04  0.00000000000E+00 0.  1.
         23    2    1    2    0    0  0.00000000000E+00  0.00000000000E+00 -0.50314680400E+04  0.50323732905E+04  0.95447877856E+02 0.  0.
          2    1    3    3  502    0 -0.39983894131E+02  0.24918514325E+02 -0.21144433262E+04  0.21149681378E+04  0.00000000000E+00 0. -1.
         -2    1    3    3    0  502  0.39983894131E+02 -0.24918514325E+02 -0.29170247138E+04  0.29174051527E+04  0.00000000000E+00 0.  1.
<mgrwt>
<rscale>  0 0.95447878E+02</rscale>
<asrwt>0</asrwt>
<pdfrwt beam="2">  1        1 0.77414157E+00 0.95447878E+02</pdfrwt>
<pdfrwt beam="1">  1       -1 0.69634660E-04 0.95447878E+02</pdfrwt>
<totfact> 0.10064865E+03</totfact>
</mgrwt>
</event>
<event>
 5    1  0.4059427E+001  0.9617625E+02  0.7546771E-02  0.1288549E+00
          1   -1    0    0  501    0  0.00000000000E+00  0.00000000000E+00  0.23994590051E+03  0.23994590051E+03  0.00000000000E+00 0. -1.
         -1   -1    0    0    0  501 -0.00000000000E+00 -0.00000000000E+00 -0.96374538794E+01  0.96374538794E+01  0.00000000000E+00 0.  1.
         23    2    1    2    0    0  0.00000000000E+00  0.00000000000E+00  0.23030844663E+03  0.24958335439E+03  0.96176245502E+02 0.  0.
          2    1    3    3  502    0  0.40921568047E+02  0.23094482595E+02  0.14168709469E+03  0.14927545900E+03  0.00000000000E+00 0. -1.
         -2    1    3    3    0  502 -0.40921568047E+02 -0.23094482595E+02  0.88621351937E+02  0.10030789539E+03  0.00000000000E+00 0.  1.
<mgrwt>
<rscale>  0 0.96176246E+02</rscale>
<asrwt>0</asrwt>
<pdfrwt beam="1">  1        1 0.36914749E-01 0.96176246E+02</pdfrwt>
<pdfrwt beam="2">  1       -1 0.14826854E-02 0.96176246E+02</pdfrwt>
<totfact> 0.10631545E+05</totfact>
</mgrwt>
</event>
<event>
 5    1  0.4059427E+001  0.9016291E+02  0.7546771E-02  0.1302458E+00
         -1   -1    0    0    0  501 -0.00000000000E+00  0.00000000000E+00  0.20084989962E+01  0.20084989962E+01  0.00000000000E+00 0.  1.
          1   -1    0    0  501    0  0.00000000000E+00 -0.00000000000E+00 -0.10118689038E+04  0.10118689038E+04  0.00000000000E+00 0. -1.
         23    2    1    2    0    0  0.00000000000E+00  0.00000000000E+00 -0.10098604048E+04  0.10138774028E+04  0.90162912057E+02 0.  0.
          2    1    3    3  502    0  0.31600485486E+02 -0.77966393101E+00 -0.14348961727E+03  0.14693014947E+03  0.00000000000E+00 0.  1.
         -2    1    3    3    0  502 -0.31600485486E+02  0.77966393101E+00 -0.86637078758E+03  0.86694725337E+03  0.00000000000E+00 0. -1.
<mgrwt>
<rscale>  0 0.90162912E+02</rscale>
<asrwt>0</asrwt>
<pdfrwt beam="2">  1        1 0.15567197E+00 0.90162912E+02</pdfrwt>
<pdfrwt beam="1">  1       -1 0.30900018E-03 0.90162912E+02</pdfrwt>
<totfact> 0.13964614E+05</totfact>
</mgrwt>
</event>
<event>
 5    1  0.4059427E+001  0.9253958E+02  0.7546771E-02  0.1296816E+00
         -2   -1    0    0    0  501 -0.00000000000E+00  0.00000000000E+00  0.11474531514E+01  0.11474531514E+01  0.00000000000E+00 0.  1.
          2   -1    0    0  501    0  0.00000000000E+00 -0.00000000000E+00 -0.18657783712E+04  0.18657783712E+04  0.00000000000E+00 0. -1.
         23    2    1    2    0    0  0.00000000000E+00  0.00000000000E+00 -0.18646309180E+04  0.18669258243E+04  0.92539575790E+02 0.  0.
          2    1    3    3  502    0 -0.26163772374E+02 -0.34371815627E+02 -0.12668257640E+04  0.12675620226E+04  0.00000000000E+00 0. -1.
         -2    1    3    3    0  502  0.26163772374E+02  0.34371815627E+02 -0.59780515398E+03  0.59936380173E+03  0.00000000000E+00 0.  1.
<mgrwt>
<rscale>  0 0.92539576E+02</rscale>
<asrwt>0</asrwt>
<pdfrwt beam="2">  1        2 0.28704199E+00 0.92539576E+02</pdfrwt>
<pdfrwt beam="1">  1       -2 0.17653177E-03 0.92539576E+02</pdfrwt>
<totfact> 0.20075284E+05</totfact>
</mgrwt>
</event>
<event>
 5    1  0.4059427E+001  0.8865753E+02  0.7546771E-02  0.1306136E+00
         -1   -1    0    0    0  501 -0.00000000000E+00  0.00000000000E+00  0.29505942881E+01  0.29505942881E+01  0.00000000000E+00 0.  1.
          1   -1    0    0  501    0  0.00000000000E+00 -0.00000000000E+00 -0.66598087709E+03  0.66598087709E+03  0.00000000000E+00 0. -1.
         23    2    1    2    0    0  0.00000000000E+00  0.00000000000E+00 -0.66303028281E+03  0.66893147138E+03  0.88657529222E+02 0.  0.
          2    1    3    3  502    0  0.95266861561E+01 -0.35537814879E+02 -0.51807117808E+03  0.51937600984E+03  0.00000000000E+00 0. -1.
         -2    1    3    3    0  502 -0.95266861561E+01  0.35537814879E+02 -0.14495910472E+03  0.14955546154E+03  0.00000000000E+00 0.  1.
<mgrwt>
<rscale>  0 0.88657529E+02</rscale>
<asrwt>0</asrwt>
<pdfrwt beam="2">  1        1 0.10245857E+00 0.88657529E+02</pdfrwt>
<pdfrwt beam="1">  1       -1 0.45393768E-03 0.88657529E+02</pdfrwt>
<totfact> 0.15307321E+05</totfact>
</mgrwt>
</event>
<event>
 5    1  0.4059427E+001  0.1081052E+03  0.7546771E-02  0.1264120E+00
         -1   -1    0    0    0  501 -0.00000000000E+00  0.00000000000E+00  0.13141448947E+01  0.13141448947E+01  0.00000000000E+00 0.  1.
          1   -1    0    0  501    0  0.00000000000E+00 -0.00000000000E+00 -0.22232577949E+04  0.22232577949E+04  0.00000000000E+00 0. -1.
         23    2    1    2    0    0  0.00000000000E+00  0.00000000000E+00 -0.22219436500E+04  0.22245719398E+04  0.10810518731E+03 0.  0.
          2    1    3    3  502    0 -0.33133174050E+02  0.21410289244E+02 -0.35057232032E+03  0.35278486289E+03  0.00000000000E+00 0.  1.
         -2    1    3    3    0  502  0.33133174050E+02 -0.21410289244E+02 -0.18713713297E+04  0.18717870769E+04  0.00000000000E+00 0. -1.
<mgrwt>
<rscale>  0 0.10810519E+03</rscale>
<asrwt>0</asrwt>
<pdfrwt beam="2">  1        1 0.34203727E+00 0.10810519E+03</pdfrwt>
<pdfrwt beam="1">  1       -1 0.20217755E-03 0.10810519E+03</pdfrwt>
<totfact> 0.42303038E+04</totfact>
</mgrwt>
</event>
<event>
 5    1  0.4059427E+001  0.9088941E+02  0.7546771E-02  0.1300712E+00
          4   -1    0    0  501    0  0.00000000000E+00  0.00000000000E+00  0.25705965884E+03  0.25705965884E+03  0.00000000000E+00 0. -1.
         -4   -1    0    0    0  501 -0.00000000000E+00 -0.00000000000E+00 -0.80340156563E+01  0.80340156563E+01  0.00000000000E+00 0.  1.
         23    2    1    2    0    0  0.00000000000E+00  0.00000000000E+00  0.24902564319E+03  0.26509367450E+03  0.90889412447E+02 0.  0.
          2    1    3    3  502    0  0.44930409556E+02  0.18601200830E+01  0.14364300450E+03  0.15051748899E+03  0.00000000000E+00 0. -1.
         -2    1    3    3    0  502 -0.44930409556E+02 -0.18601200830E+01  0.10538263869E+03  0.11457618551E+03  0.00000000000E+00 0.  1.
<mgrwt>
<rscale>  0 0.90889412E+02</rscale>
<asrwt>0</asrwt>
<pdfrwt beam="1">  1        4 0.39547634E-01 0.90889412E+02</pdfrwt>
<pdfrwt beam="2">  1       -4 0.12360026E-02 0.90889412E+02</pdfrwt>
<totfact> 0.19101257E+04</totfact>
</mgrwt>
</event>
<event>
 5    1  0.4059427E+001  0.9421020E+02  0.7546771E-02  0.1292965E+00
          1   -1    0    0  501    0  0.00000000000E+00  0.00000000000E+00  0.11027997874E+03  0.11027997874E+03  0.00000000000E+00 0. -1.
         -1   -1    0    0    0  501 -0.00000000000E+00 -0.00000000000E+00 -0.20120518149E+02  0.20120518149E+02  0.00000000000E+00 0.  1.
         23    2    1    2    0    0  0.00000000000E+00  0.00000000000E+00  0.90159460594E+02  0.13040049689E+03  0.94210197191E+02 0.  0.
          2    1    3    3  502    0 -0.20734510229E+02 -0.14523234988E+01 -0.13429816936E+02  0.24746497549E+02  0.00000000000E+00 0.  1.
         -2    1    3    3    0  502  0.20734510229E+02  0.14523234988E+01  0.10358927753E+03  0.10565399934E+03  0.00000000000E+00 0. -1.
<mgrwt>
<rscale>  0 0.94210197E+02</rscale>
<asrwt>0</asrwt>
<pdfrwt beam="1">  1        1 0.16966150E-01 0.94210197E+02</pdfrwt>
<pdfrwt beam="2">  1       -1 0.30954644E-02 0.94210197E+02</pdfrwt>
<totfact> 0.97120898E+04</totfact>
</mgrwt>
</event>
<event>
 5    1  0.4059427E+001  0.9031858E+02  0.7546771E-02  0.1302082E+00
          2   -1    0    0  501    0  0.00000000000E+00  0.00000000000E+00  0.93573595563E+02  0.93573595563E+02  0.00000000000E+00 0. -1.
         -2   -1    0    0    0  501 -0.00000000000E+00 -0.00000000000E+00 -0.21794196727E+02  0.21794196727E+02  0.00000000000E+00 0.  1.
         23    2    1    2    0    0  0.00000000000E+00  0.00000000000E+00  0.71779398836E+02  0.11536779229E+03  0.90318577272E+02 0.  0.
          2    1    3    3  502    0 -0.61335455334E+01  0.22694776147E+02  0.85140968700E+02  0.88326993588E+02  0.00000000000E+00 0. -1.
         -2    1    3    3    0  502  0.61335455334E+01 -0.22694776147E+02 -0.13361569864E+02  0.27040798701E+02  0.00000000000E+00 0.  1.
<mgrwt>
<rscale>  0 0.90318577E+02</rscale>
<asrwt>0</asrwt>
<pdfrwt beam="1">  1        2 0.14395938E-01 0.90318577E+02</pdfrwt>
<pdfrwt beam="2">  1       -2 0.33529534E-02 0.90318577E+02</pdfrwt>
<totfact> 0.12341847E+05</totfact>
</mgrwt>
</event>
<event>
 5    1  0.4059427E+001  0.9108236E+02  0.7546771E-02  0.1300252E+00
          2   -1    0    0  501    0  0.00000000000E+00  0.00000000000E+00  0.97540233682E+03  0.97540233682E+03  0.00000000000E+00 0.  1.
         -2   -1    0    0    0  501 -0.00000000000E+00 -0.00000000000E+00 -0.21263011127E+01  0.21263011127E+01  0.00000000000E+00 0. -1.
         23    2    1    2    0    0  0.00000000000E+00  0.00000000000E+00  0.97327603571E+03  0.97752863793E+03  0.91082359963E+02 0.  0.
          2    1    3    3  502    0  0.24359558463E+02  0.38339614926E+02  0.45155631154E+03  0.45383523073E+03  0.00000000000E+00 0. -1.
         -2    1    3    3    0  502 -0.24359558463E+02 -0.38339614926E+02  0.52171972417E+03  0.52369340721E+03  0.00000000000E+00 0.  1.
<mgrwt>
<rscale>  0 0.91082360E+02</rscale>
<asrwt>0</asrwt>
<pdfrwt beam="1">  1        2 0.15006154E+00 0.91082360E+02</pdfrwt>
<pdfrwt beam="2">  1       -2 0.32712403E-03 0.91082360E+02</pdfrwt>
<totfact> 0.25037119E+05</totfact>
</mgrwt>
</event>
<event>
 5    1  0.4059427E+001  0.9020865E+02  0.7546771E-02  0.1302347E+00
         -1   -1    0    0    0  501 -0.00000000000E+00  0.00000000000E+00  0.78639121194E+02  0.78639121194E+02  0.00000000000E+00 0.  1.
          1   -1    0    0  501    0  0.00000000000E+00 -0.00000000000E+00 -0.25870078206E+02  0.25870078206E+02  0.00000000000E+00 0. -1.
         23    2    1    2    0    0  0.00000000000E+00  0.00000000000E+00  0.52769042989E+02  0.10450919940E+03  0.90208651810E+02 0.  0.
          2    1    3    3  502    0 -0.10323570057E+01 -0.31073359156E+02 -0.11472582086E+02  0.33139697493E+02  0.00000000000E+00 0. -1.
         -2    1    3    3    0  502  0.10323570057E+01  0.31073359156E+02  0.64241625074E+02  0.71369501907E+02  0.00000000000E+00 0.  1.
<mgrwt>
<rscale>  0 0.90208652E+02</rscale>
<asrwt>0</asrwt>
<pdfrwt beam="2">  1        1 0.39800121E-02 0.90208652E+02</pdfrwt>
<pdfrwt beam="1">  1       -1 0.12098326E-01 0.90208652E+02</pdfrwt>
<totfact> 0.87244466E+04</totfact>
</mgrwt>
</event>
<event>
 5    1  0.4059427E+001  0.8811441E+02  0.7546771E-02  0.1307483E+00
         -4   -1    0    0    0  501 -0.00000000000E+00  0.00000000000E+00  0.21434182123E+02  0.21434182123E+02  0.00000000000E+00 0.  1.
          4   -1    0    0  501    0  0.00000000000E+00 -0.00000000000E+00 -0.90558036539E+02  0.90558036539E+02  0.00000000000E+00 0. -1.
         23    2    1    2    0    0  0.00000000000E+00  0.00000000000E+00 -0.69123854416E+02  0.11199221866E+03  0.88114413075E+02 0.  0.
          2    1    3    3  502    0 -0.34863831042E+02 -0.69141361484E+01 -0.67650207988E+02  0.76418863080E+02  0.00000000000E+00 0. -1.
         -2    1    3    3    0  502  0.34863831042E+02  0.69141361484E+01 -0.14736464281E+01  0.35573355583E+02  0.00000000000E+00 0.  1.
<mgrwt>
<rscale>  0 0.88114413E+02</rscale>
<asrwt>0</asrwt>
<pdfrwt beam="2">  1        4 0.13932005E-01 0.88114413E+02</pdfrwt>
<pdfrwt beam="1">  1       -4 0.32975666E-02 0.88114413E+02</pdfrwt>
<totfact> 0.28215690E+04</totfact>
</mgrwt>
</event>
<event>
 5    1  0.4059427E+001  0.9075156E+02  0.7546771E-02  0.1301042E+00
         -1   -1    0    0    0  501 -0.00000000000E+00  0.00000000000E+00  0.16305204121E+01  0.16305204121E+01  0.00000000000E+00 0.  1.
          1   -1    0    0  501    0  0.00000000000E+00 -0.00000000000E+00 -0.12627633432E+04  0.12627633432E+04  0.00000000000E+00 0. -1.
         23    2    1    2    0    0  0.00000000000E+00  0.00000000000E+00 -0.12611328228E+04  0.12643938636E+04  0.90751559913E+02 0.  0.
          2    1    3    3  502    0 -0.27718091662E+02  0.35509335500E+02 -0.55456620368E+03  0.55639273879E+03  0.00000000000E+00 0.  1.
         -2    1    3    3    0  502  0.27718091662E+02 -0.35509335500E+02 -0.70656661910E+03  0.70800112481E+03  0.00000000000E+00 0. -1.
<mgrwt>
<rscale>  0 0.90751560E+02</rscale>
<asrwt>0</asrwt>
<pdfrwt beam="2">  1        1 0.19427071E+00 0.90751560E+02</pdfrwt>
<pdfrwt beam="1">  1       -1 0.25085003E-03 0.90751560E+02</pdfrwt>
<totfact> 0.12561457E+05</totfact>
</mgrwt>
</event>
<event>
 5    1  0.4059427E+001  0.9739580E+02  0.7546771E-02  0.1285870E+00
         -3   -1    0    0    0  501 -0.00000000000E+00  0.00000000000E+00  0.15776686800E+03  0.15776686800E+03  0.00000000000E+00 0.  1.
          3   -1    0    0  501    0  0.00000000000E+00 -0.00000000000E+00 -0.15031582178E+02  0.15031582178E+02  0.00000000000E+00 0. -1.
         23    2    1    2    0    0  0.00000000000E+00  0.00000000000E+00  0.14273528582E+03  0.17279845017E+03  0.97395803632E+02 0.  0.
          2    1    3    3  502    0 -0.25581824307E+02 -0.38480858819E+02  0.44095922403E+02  0.63872189588E+02  0.00000000000E+00 0. -1.
         -2    1    3    3    0  502  0.25581824307E+02  0.38480858819E+02  0.98639363415E+02  0.10892626059E+03  0.00000000000E+00 0.  1.
<mgrwt>
<rscale>  0 0.97395804E+02</rscale>
<asrwt>0</asrwt>
<pdfrwt beam="2">  1        3 0.23125512E-02 0.97395804E+02</pdfrwt>
<pdfrwt beam="1">  1       -3 0.24271825E-01 0.97395804E+02</pdfrwt>
<totfact> 0.25049165E+04</totfact>
</mgrwt>
</event>
<event>
 5    1  0.4059427E+001  0.9149663E+02  0.7546771E-02  0.1299267E+00
         -2   -1    0    0    0  501 -0.00000000000E+00  0.00000000000E+00  0.57982188824E+01  0.57982188824E+01  0.00000000000E+00 0.  1.
          2   -1    0    0  501    0  0.00000000000E+00 -0.00000000000E+00 -0.36095710000E+03  0.36095710000E+03  0.00000000000E+00 0. -1.
         23    2    1    2    0    0  0.00000000000E+00  0.00000000000E+00 -0.35515888112E+03  0.36675531889E+03  0.91496628855E+02 0.  0.
          2    1    3    3  502    0 -0.22202568085E+02  0.12068076681E+02 -0.24717036847E+02  0.35348612630E+02  0.00000000000E+00 0.  1.
         -2    1    3    3    0  502  0.22202568085E+02 -0.12068076681E+02 -0.33044184427E+03  0.33140670626E+03  0.00000000000E+00 0. -1.
<mgrwt>
<rscale>  0 0.91496629E+02</rscale>
<asrwt>0</asrwt>
<pdfrwt beam="2">  1        2 0.55531881E-01 0.91496629E+02</pdfrwt>
<pdfrwt beam="1">  1       -2 0.89203336E-03 0.91496629E+02</pdfrwt>
<totfact> 0.19056517E+05</totfact>
</mgrwt>
</event>
<event>
 5    1  0.4059427E+001  0.9172992E+02  0.7546771E-02  0.1298716E+00
         -2   -1    0    0    0  501 -0.00000000000E+00  0.00000000000E+00  0.15196634590E+01  0.15196634590E+01  0.00000000000E+00 0.  1.
          2   -1    0    0  501    0  0.00000000000E+00 -0.00000000000E+00 -0.13842503996E+04  0.13842503996E+04  0.00000000000E+00 0. -1.
         23    2    1    2    0    0  0.00000000000E+00  0.00000000000E+00 -0.13827307362E+04  0.13857700631E+04  0.91729924242E+02 0.  0.
          2    1    3    3  502    0 -0.16256940703E+02  0.25510137864E+02 -0.12121845238E+04  0.12125619056E+04  0.00000000000E+00 0. -1.
         -2    1    3    3    0  502  0.16256940703E+02 -0.25510137864E+02 -0.17054621238E+03  0.17320815747E+03  0.00000000000E+00 0.  1.
<mgrwt>
<rscale>  0 0.91729924E+02</rscale>
<asrwt>0</asrwt>
<pdfrwt beam="2">  1        2 0.21296091E+00 0.91729924E+02</pdfrwt>
<pdfrwt beam="1">  1       -2 0.23379513E-03 0.91729924E+02</pdfrwt>
<totfact> 0.23832817E+05</totfact>
</mgrwt>
</event>
<event>
 5    1  0.4059427E+001  0.8834402E+02  0.7546771E-02  0.1306912E+00
          2   -1    0    0  501    0  0.00000000000E+00  0.00000000000E+00  0.29682896154E+03  0.29682896154E+03  0.00000000000E+00 0. -1.
         -2   -1    0    0    0  501 -0.00000000000E+00 -0.00000000000E+00 -0.65733700354E+01  0.65733700354E+01  0.00000000000E+00 0.  1.
         23    2    1    2    0    0  0.00000000000E+00  0.00000000000E+00  0.29025559151E+03  0.30340233158E+03  0.88344023033E+02 0.  0.
          2    1    3    3  502    0 -0.35388060495E+01  0.30346197119E+02  0.35565108555E+02  0.46885944315E+02  0.00000000000E+00 0.  1.
         -2    1    3    3    0  502  0.35388060495E+01 -0.30346197119E+02  0.25469048295E+03  0.25651638726E+03  0.00000000000E+00 0. -1.
<mgrwt>
<rscale>  0 0.88344023E+02</rscale>
<asrwt>0</asrwt>
<pdfrwt beam="1">  1        2 0.45665984E-01 0.88344023E+02</pdfrwt>
<pdfrwt beam="2">  1       -2 0.10112879E-02 0.88344023E+02</pdfrwt>
<totfact> 0.19463899E+05</totfact>
</mgrwt>
</event>
<event>
 5    1  0.4059427E+001  0.9041068E+02  0.7546771E-02  0.1301860E+00
         -2   -1    0    0    0  501 -0.00000000000E+00  0.00000000000E+00  0.14333783075E+01  0.14333783075E+01  0.00000000000E+00 0.  1.
          2   -1    0    0  501    0  0.00000000000E+00 -0.00000000000E+00 -0.14256688799E+04  0.14256688799E+04  0.00000000000E+00 0. -1.
         23    2    1    2    0    0  0.00000000000E+00  0.00000000000E+00 -0.14242355015E+04  0.14271022582E+04  0.90410681805E+02 0.  0.
          2    1    3    3  502    0  0.12672154862E+02  0.20518371471E+02 -0.13156486296E+04  0.13158696378E+04  0.00000000000E+00 0. -1.
         -2    1    3    3    0  502 -0.12672154862E+02 -0.20518371471E+02 -0.10858687195E+03  0.11123262038E+03  0.00000000000E+00 0.  1.
<mgrwt>
<rscale>  0 0.90410682E+02</rscale>
<asrwt>0</asrwt>
<pdfrwt beam="2">  1        2 0.21933426E+00 0.90410682E+02</pdfrwt>
<pdfrwt beam="1">  1       -2 0.22051915E-03 0.90410682E+02</pdfrwt>
<totfact> 0.24550260E+05</totfact>
</mgrwt>
</event>
<event>
 5    1  0.4059427E+001  0.8899957E+02  0.7546771E-02  0.1305293E+00
          2   -1    0    0  501    0  0.00000000000E+00  0.00000000000E+00  0.41783994973E+02  0.41783994973E+02  0.00000000000E+00 0. -1.
         -2   -1    0    0    0  501 -0.00000000000E+00 -0.00000000000E+00 -0.47392095042E+02  0.47392095042E+02  0.00000000000E+00 0.  1.
         23    2    1    2    0    0  0.00000000000E+00  0.00000000000E+00 -0.56081000689E+01  0.89176090015E+02  0.88999574403E+02 0.  0.
          2    1    3    3  502    0  0.30708102215E+02  0.26483763483E+00 -0.35073099855E+02  0.46617378885E+02  0.00000000000E+00 0.  1.
         -2    1    3    3    0  502 -0.30708102215E+02 -0.26483763483E+00  0.29464999786E+02  0.42558711130E+02  0.00000000000E+00 0. -1.
<mgrwt>
<rscale>  0 0.88999574E+02</rscale>
<asrwt>0</asrwt>
<pdfrwt beam="1">  1        2 0.64283069E-02 0.88999574E+02</pdfrwt>
<pdfrwt beam="2">  1       -2 0.72910915E-02 0.88999574E+02</pdfrwt>
<totfact> 0.10342026E+05</totfact>
</mgrwt>
</event>
<event>
 5    1  0.4059427E+001  0.9154769E+02  0.7546771E-02  0.1299146E+00
          2   -1    0    0  501    0  0.00000000000E+00  0.00000000000E+00  0.35894795095E+02  0.35894795095E+02  0.00000000000E+00 0. -1.
         -2   -1    0    0    0  501 -0.00000000000E+00 -0.00000000000E+00 -0.58371832137E+02  0.58371832137E+02  0.00000000000E+00 0.  1.
         23    2    1    2    0    0  0.00000000000E+00  0.00000000000E+00 -0.22477037042E+02  0.94266627232E+02  0.91547691481E+02 0.  0.
          2    1    3    3  502    0 -0.33618484322E+02  0.17963530142E+02  0.14858915298E+02  0.40910613135E+02  0.00000000000E+00 0. -1.
         -2    1    3    3    0  502  0.33618484322E+02 -0.17963530142E+02 -0.37335952340E+02  0.53356014097E+02  0.00000000000E+00 0.  1.
<mgrwt>
<rscale>  0 0.91547691E+02</rscale>
<asrwt>0</asrwt>
<pdfrwt beam="1">  1        2 0.55222763E-02 0.91547691E+02</pdfrwt>
<pdfrwt beam="2">  1       -2 0.89802817E-02 0.91547691E+02</pdfrwt>
<totfact> 0.91651443E+04</totfact>
</mgrwt>
</event>
<event>
 5    1  0.4059427E+001  0.9270770E+02  0.7546771E-02  0.1296424E+00
          4   -1    0    0  501    0  0.00000000000E+00  0.00000000000E+00  0.21537360274E+03  0.21537360274E+03  0.00000000000E+00 0. -1.
         -4   -1    0    0    0  501 -0.00000000000E+00 -0.00000000000E+00 -0.99765211416E+01  0.99765211416E+01  0.00000000000E+00 0.  1.
         23    2    1    2    0    0  0.00000000000E+00  0.00000000000E+00  0.20539708160E+03  0.22535012388E+03  0.92707697654E+02 0.  0.
          2    1    3    3  502    0  0.31820101084E+02  0.31402323351E+02  0.13247455746E+03  0.13981463843E+03  0.00000000000E+00 0. -1.
         -2    1    3    3    0  502 -0.31820101084E+02 -0.31402323351E+02  0.72922524139E+02  0.85535485453E+02  0.00000000000E+00 0.  1.
<mgrwt>
<rscale>  0 0.92707698E+02</rscale>
<asrwt>0</asrwt>
<pdfrwt beam="1">  1        4 0.33134397E-01 0.92707698E+02</pdfrwt>
<pdfrwt beam="2">  1       -4 0.15348496E-02 0.92707698E+02</pdfrwt>
<totfact> 0.19483121E+04</totfact>
</mgrwt>
</event>
<event>
 5    1  0.4059427E+001  0.8724191E+02  0.7546771E-02  0.1309672E+00
          3   -1    0    0  501    0  0.00000000000E+00  0.00000000000E+00  0.36265584542E+03  0.36265584542E+03  0.00000000000E+00 0. -1.
         -3   -1    0    0    0  501 -0.00000000000E+00 -0.00000000000E+00 -0.52468139050E+01  0.52468139050E+01  0.00000000000E+00 0.  1.
         23    2    1    2    0    0  0.00000000000E+00  0.00000000000E+00  0.35740903151E+03  0.36790265932E+03  0.87241910398E+02 0.  0.
          2    1    3    3  502    0  0.24306121116E+02  0.57186873592E+01  0.27872539700E+02  0.37421509565E+02  0.00000000000E+00 0.  1.
         -2    1    3    3    0  502 -0.24306121116E+02 -0.57186873592E+01  0.32953649181E+03  0.33048114976E+03  0.00000000000E+00 0. -1.
<mgrwt>
<rscale>  0 0.87241910E+02</rscale>
<asrwt>0</asrwt>
<pdfrwt beam="1">  1        3 0.55793187E-01 0.87241910E+02</pdfrwt>
<pdfrwt beam="2">  1       -3 0.80720243E-03 0.87241910E+02</pdfrwt>
<totfact> 0.24321190E+04</totfact>
</mgrwt>
</event>
<event>
 5    1  0.4059427E+001  0.9243608E+02  0.7546771E-02  0.1297057E+00
          3   -1    0    0  501    0  0.00000000000E+00  0.00000000000E+00  0.56325940990E+02  0.56325940990E+02  0.00000000000E+00 0. -1.
         -3   -1    0    0    0  501 -0.00000000000E+00 -0.00000000000E+00 -0.37924035845E+02  0.37924035845E+02  0.00000000000E+00 0.  1.
         23    2    1    2    0    0  0.00000000000E+00  0.00000000000E+00  0.18401905145E+02  0.94249976834E+02  0.92436075318E+02 0.  0.
          2    1    3    3  502    0 -0.21241598387E+02 -0.40351485041E+02  0.16875889457E+02  0.48623487040E+02  0.00000000000E+00 0. -1.
         -2    1    3    3    0  502  0.21241598387E+02  0.40351485041E+02  0.15260156879E+01  0.45626489794E+02  0.00000000000E+00 0.  1.
<mgrwt>
<rscale>  0 0.92436075E+02</rscale>
<asrwt>0</asrwt>
<pdfrwt beam="1">  1        3 0.86655294E-02 0.92436075E+02</pdfrwt>
<pdfrwt beam="2">  1       -3 0.58344670E-02 0.92436075E+02</pdfrwt>
<totfact> 0.33813633E+04</totfact>
</mgrwt>
</event>
<event>
 5    1  0.4059427E+001  0.8742476E+02  0.7546771E-02  0.1309211E+00
         -1   -1    0    0    0  501 -0.00000000000E+00  0.00000000000E+00  0.11253342191E+01  0.11253342191E+01  0.00000000000E+00 0.  1.
          1   -1    0    0  501    0  0.00000000000E+00 -0.00000000000E+00 -0.16979598328E+04  0.16979598328E+04  0.00000000000E+00 0. -1.
         23    2    1    2    0    0  0.00000000000E+00  0.00000000000E+00 -0.16968344986E+04  0.16990851671E+04  0.87424763139E+02 0.  0.
          2    1    3    3  502    0 -0.20499494004E+02  0.19017718843E+02 -0.15014012466E+04  0.15016616150E+04  0.00000000000E+00 0. -1.
         -2    1    3    3    0  502  0.20499494004E+02 -0.19017718843E+02 -0.19543325206E+03  0.19742355203E+03  0.00000000000E+00 0.  1.
<mgrwt>
<rscale>  0 0.87424763E+02</rscale>
<asrwt>0</asrwt>
<pdfrwt beam="2">  1        1 0.26122414E+00 0.87424763E+02</pdfrwt>
<pdfrwt beam="1">  1       -1 0.17312864E-03 0.87424763E+02</pdfrwt>
<totfact> 0.10989672E+05</totfact>
</mgrwt>
</event>
<event>
 5    1  0.4059427E+001  0.9311631E+02  0.7546771E-02  0.1295476E+00
         -2   -1    0    0    0  501 -0.00000000000E+00  0.00000000000E+00  0.74183223789E+01  0.74183223789E+01  0.00000000000E+00 0.  1.
          2   -1    0    0  501    0  0.00000000000E+00 -0.00000000000E+00 -0.29220375923E+03  0.29220375923E+03  0.00000000000E+00 0. -1.
         23    2    1    2    0    0  0.00000000000E+00  0.00000000000E+00 -0.28478543685E+03  0.29962208161E+03  0.93116307622E+02 0.  0.
          2    1    3    3  502    0 -0.13652410921E+01  0.44689670921E+02 -0.18417738371E+03  0.18952661882E+03  0.00000000000E+00 0. -1.
         -2    1    3    3    0  502  0.13652410921E+01 -0.44689670921E+02 -0.10060805314E+03  0.11009546279E+03  0.00000000000E+00 0.  1.
<mgrwt>
<rscale>  0 0.93116308E+02</rscale>
<asrwt>0</asrwt>
<pdfrwt beam="2">  1        2 0.44954428E-01 0.93116308E+02</pdfrwt>
<pdfrwt beam="1">  1       -2 0.11412803E-02 0.93116308E+02</pdfrwt>
<totfact> 0.16816828E+05</totfact>
</mgrwt>
</event>
<event>
 5    1  0.4059427E+001  0.9078892E+02  0.7546771E-02  0.1300952E+00
          1   -1    0    0  501    0  0.00000000000E+00  0.00000000000E+00  0.89417690782E+03  0.89417690782E+03  0.00000000000E+00 0. -1.
         -1   -1    0    0    0  501 -0.00000000000E+00 -0.00000000000E+00 -0.23045293769E+01  0.23045293769E+01  0.00000000000E+00 0.  1.
         23    2    1    2    0    0  0.00000000000E+00  0.00000000000E+00  0.89187237845E+03  0.89648143720E+03  0.90788918975E+02 0.  0.
          2    1    3    3  502    0 -0.18069500297E+02 -0.17307501314E+02  0.81993820828E+03  0.82031988994E+03  0.00000000000E+00 0. -1.
         -2    1    3    3    0  502  0.18069500297E+02  0.17307501314E+02  0.71934170168E+02  0.76161547256E+02  0.00000000000E+00 0.  1.
<mgrwt>
<rscale>  0 0.90788919E+02</rscale>
<asrwt>0</asrwt>
<pdfrwt beam="1">  1        1 0.13756540E+00 0.90788919E+02</pdfrwt>
<pdfrwt beam="2">  1       -1 0.35454369E-03 0.90788919E+02</pdfrwt>
<totfact> 0.14090930E+05</totfact>
</mgrwt>
</event>
<event>
 5    1  0.4059427E+001  0.9206848E+02  0.7546771E-02  0.1297919E+00
          2   -1    0    0  501    0  0.00000000000E+00  0.00000000000E+00  0.12773240894E+04  0.12773240894E+04  0.00000000000E+00 0. -1.
         -2   -1    0    0    0  501 -0.00000000000E+00 -0.00000000000E+00 -0.16590550910E+01  0.16590550910E+01  0.00000000000E+00 0.  1.
         23    2    1    2    0    0  0.00000000000E+00  0.00000000000E+00  0.12756650343E+04  0.12789831444E+04  0.92068475241E+02 0.  0.
          2    1    3    3  502    0 -0.25604678296E+02  0.37513668160E+02  0.74204414739E+03  0.74343284265E+03  0.00000000000E+00 0. -1.
         -2    1    3    3    0  502  0.25604678296E+02 -0.37513668160E+02  0.53362088688E+03  0.53555030180E+03  0.00000000000E+00 0.  1.
<mgrwt>
<rscale>  0 0.92068475E+02</rscale>
<asrwt>0</asrwt>
<pdfrwt beam="1">  1        2 0.19651061E+00 0.92068475E+02</pdfrwt>
<pdfrwt beam="2">  1       -2 0.25524027E-03 0.92068475E+02</pdfrwt>
<totfact> 0.24025493E+05</totfact>
</mgrwt>
</event>
<event>
 5    1  0.4059427E+001  0.9569199E+02  0.7546771E-02  0.1289625E+00
         -1   -1    0    0    0  501 -0.00000000000E+00  0.00000000000E+00  0.44641383317E+02  0.44641383317E+02  0.00000000000E+00 0.  1.
          1   -1    0    0  501    0  0.00000000000E+00 -0.00000000000E+00 -0.51280647109E+02  0.51280647109E+02  0.00000000000E+00 0. -1.
         23    2    1    2    0    0  0.00000000000E+00  0.00000000000E+00 -0.66392637925E+01  0.95922030426E+02  0.95691985544E+02 0.  0.
          2    1    3    3  502    0  0.81463479082E+01 -0.19308430479E+02 -0.46435364383E+02  0.50945279832E+02  0.00000000000E+00 0. -1.
         -2    1    3    3    0  502 -0.81463479082E+01  0.19308430479E+02  0.39796100590E+02  0.44976750594E+02  0.00000000000E+00 0.  1.
<mgrwt>
<rscale>  0 0.95691986E+02</rscale>
<asrwt>0</asrwt>
<pdfrwt beam="2">  1        1 0.78893303E-02 0.95691986E+02</pdfrwt>
<pdfrwt beam="1">  1       -1 0.68679051E-02 0.95691986E+02</pdfrwt>
<totfact> 0.82186133E+04</totfact>
</mgrwt>
</event>
<event>
 5    1  0.4059427E+001  0.8813261E+02  0.7546771E-02  0.1307438E+00
         -2   -1    0    0    0  501 -0.00000000000E+00  0.00000000000E+00  0.22199800126E+01  0.22199800126E+01  0.00000000000E+00 0.  1.
          2   -1    0    0  501    0  0.00000000000E+00 -0.00000000000E+00 -0.87471015106E+03  0.87471015106E+03  0.00000000000E+00 0. -1.
         23    2    1    2    0    0  0.00000000000E+00  0.00000000000E+00 -0.87249017105E+03  0.87693013107E+03  0.88132605820E+02 0.  0.
          2    1    3    3  502    0  0.36495284456E+02 -0.91302297549E+01 -0.66457211805E+03  0.66563606195E+03  0.00000000000E+00 0. -1.
         -2    1    3    3    0  502 -0.36495284456E+02  0.91302297549E+01 -0.20791805300E+03  0.21129406912E+03  0.00000000000E+00 0.  1.
<mgrwt>
<rscale>  0 0.88132606E+02</rscale>
<asrwt>0</asrwt>
<pdfrwt beam="2">  1        2 0.13457097E+00 0.88132606E+02</pdfrwt>
<pdfrwt beam="1">  1       -2 0.34153495E-03 0.88132606E+02</pdfrwt>
<totfact> 0.27016796E+05</totfact>
</mgrwt>
</event>
<event>
 5    1  0.4059427E+001  0.8973580E+02  0.7546771E-02  0.1303493E+00
         -2   -1    0    0    0  501 -0.00000000000E+00  0.00000000000E+00  0.15584033820E+01  0.15584033820E+01  0.00000000000E+00 0.  1.
          2   -1    0    0  501    0  0.00000000000E+00 -0.00000000000E+00 -0.12917890342E+04  0.12917890342E+04  0.00000000000E+00 0. -1.
         23    2    1    2    0    0  0.00000000000E+00  0.00000000000E+00 -0.12902306308E+04  0.12933474376E+04  0.89735798870E+02 0.  0.
          2    1    3    3  502    0  0.47549369652E+01 -0.43016132694E+02 -0.81573025334E+03  0.81687749590E+03  0.00000000000E+00 0.  1.
         -2    1    3    3    0  502 -0.47549369652E+01  0.43016132694E+02 -0.47450037748E+03  0.47646994168E+03  0.00000000000E+00 0. -1.
<mgrwt>
<rscale>  0 0.89735799E+02</rscale>
<asrwt>0</asrwt>
<pdfrwt beam="2">  1        2 0.19873695E+00 0.89735799E+02</pdfrwt>
<pdfrwt beam="1">  1       -2 0.23975416E-03 0.89735799E+02</pdfrwt>
<totfact> 0.25652362E+05</totfact>
</mgrwt>
</event>
<event>
 5    1  0.4059427E+001  0.8235026E+02  0.7546771E-02  0.1322511E+00
         -4   -1    0    0    0  501 -0.00000000000E+00  0.00000000000E+00  0.21976748447E+03  0.21976748447E+03  0.00000000000E+00 0.  1.
          4   -1    0    0  501    0  0.00000000000E+00 -0.00000000000E+00 -0.77144778982E+01  0.77144778982E+01  0.00000000000E+00 0. -1.
         23    2    1    2    0    0  0.00000000000E+00  0.00000000000E+00  0.21205300657E+03  0.22748196237E+03  0.82350261729E+02 0.  0.
          2    1    3    3  502    0  0.35322149412E+01  0.39095324902E+02  0.71694064046E+02  0.81737138383E+02  0.00000000000E+00 0. -1.
         -2    1    3    3    0  502 -0.35322149412E+01 -0.39095324902E+02  0.14035894253E+03  0.14574482399E+03  0.00000000000E+00 0.  1.
<mgrwt>
<rscale>  0 0.82350262E+02</rscale>
<asrwt>0</asrwt>
<pdfrwt beam="2">  1        4 0.11868429E-02 0.82350262E+02</pdfrwt>
<pdfrwt beam="1">  1       -4 0.33810377E-01 0.82350262E+02</pdfrwt>
<totfact> 0.26571914E+04</totfact>
</mgrwt>
</event>
<event>
 5    1  0.4059427E+001  0.9097150E+02  0.7546771E-02  0.1300516E+00
         -2   -1    0    0    0  501 -0.00000000000E+00  0.00000000000E+00  0.43937585133E+01  0.43937585133E+01  0.00000000000E+00 0.  1.
          2   -1    0    0  501    0  0.00000000000E+00 -0.00000000000E+00 -0.47088464857E+03  0.47088464857E+03  0.00000000000E+00 0. -1.
         23    2    1    2    0    0  0.00000000000E+00  0.00000000000E+00 -0.46649089006E+03  0.47527840709E+03  0.90971499569E+02 0.  0.
          2    1    3    3  502    0 -0.34644886813E+02 -0.75901422947E+01 -0.38203527085E+03  0.38367802468E+03  0.00000000000E+00 0. -1.
         -2    1    3    3    0  502  0.34644886813E+02  0.75901422947E+01 -0.84455619205E+02  0.91600382410E+02  0.00000000000E+00 0.  1.
<mgrwt>
<rscale>  0 0.90971500E+02</rscale>
<asrwt>0</asrwt>
<pdfrwt beam="2">  1        2 0.72443729E-01 0.90971500E+02</pdfrwt>
<pdfrwt beam="1">  1       -2 0.67596344E-03 0.90971500E+02</pdfrwt>
<totfact> 0.21253245E+05</totfact>
</mgrwt>
</event>
<event>
 5    1  0.4059427E+001  0.8760702E+02  0.7546771E-02  0.1308752E+00
          2   -1    0    0  501    0  0.00000000000E+00  0.00000000000E+00  0.67250119811E+02  0.67250119811E+02  0.00000000000E+00 0.  1.
         -2   -1    0    0    0  501 -0.00000000000E+00 -0.00000000000E+00 -0.28531508237E+02  0.28531508237E+02  0.00000000000E+00 0. -1.
         23    2    1    2    0    0  0.00000000000E+00  0.00000000000E+00  0.38718611575E+02  0.95781628048E+02  0.87607016781E+02 0.  0.
          2    1    3    3  502    0 -0.42556545914E+02  0.70775881972E+01  0.11061990924E+02  0.44536720782E+02  0.00000000000E+00 0. -1.
         -2    1    3    3    0  502  0.42556545914E+02 -0.70775881972E+01  0.27656620650E+02  0.51244907265E+02  0.00000000000E+00 0.  1.
<mgrwt>
<rscale>  0 0.87607017E+02</rscale>
<asrwt>0</asrwt>
<pdfrwt beam="1">  1        2 0.10346172E-01 0.87607017E+02</pdfrwt>
<pdfrwt beam="2">  1       -2 0.43894628E-02 0.87607017E+02</pdfrwt>
<totfact> 0.12230765E+05</totfact>
</mgrwt>
</event>
<event>
 5    1  0.4059427E+001  0.9539374E+02  0.7546771E-02  0.1290292E+00
         -2   -1    0    0    0  501 -0.00000000000E+00  0.00000000000E+00  0.36240725270E+03  0.36240725270E+03  0.00000000000E+00 0. -1.
          2   -1    0    0  501    0  0.00000000000E+00 -0.00000000000E+00 -0.62774444200E+01  0.62774444200E+01  0.00000000000E+00 0.  1.
         23    2    1    2    0    0  0.00000000000E+00  0.00000000000E+00  0.35612980828E+03  0.36868469712E+03  0.95393739548E+02 0.  0.
          2    1    3    3  502    0  0.26942359891E+02 -0.64298875543E+01  0.32813734283E+03  0.32930434247E+03  0.00000000000E+00 0. -1.
         -2    1    3    3    0  502 -0.26942359891E+02  0.64298875543E+01  0.27992465454E+02  0.39380354654E+02  0.00000000000E+00 0.  1.
<mgrwt>
<rscale>  0 0.95393740E+02</rscale>
<asrwt>0</asrwt>
<pdfrwt beam="2">  1        2 0.96576097E-03 0.95393740E+02</pdfrwt>
<pdfrwt beam="1">  1       -2 0.55754945E-01 0.95393740E+02</pdfrwt>
<totfact> 0.40520417E+04</totfact>
</mgrwt>
</event>
<event>
 5    1  0.4059427E+001  0.9302064E+02  0.7546771E-02  0.1295697E+00
         -1   -1    0    0    0  501 -0.00000000000E+00  0.00000000000E+00  0.60900314387E+01  0.60900314387E+01  0.00000000000E+00 0.  1.
          1   -1    0    0  501    0  0.00000000000E+00 -0.00000000000E+00 -0.35520503794E+03  0.35520503794E+03  0.00000000000E+00 0. -1.
         23    2    1    2    0    0  0.00000000000E+00  0.00000000000E+00 -0.34911500650E+03  0.36129506938E+03  0.93020639608E+02 0.  0.
          2    1    3    3  502    0 -0.20417184725E+02 -0.41357718485E+02 -0.19782526164E+03  0.20313088503E+03  0.00000000000E+00 0. -1.
         -2    1    3    3    0  502  0.20417184725E+02  0.41357718485E+02 -0.15128974486E+03  0.15816418435E+03  0.00000000000E+00 0.  1.
<mgrwt>
<rscale>  0 0.93020640E+02</rscale>
<asrwt>0</asrwt>
<pdfrwt beam="2">  1        1 0.54646944E-01 0.93020640E+02</pdfrwt>
<pdfrwt beam="1">  1       -1 0.93692766E-03 0.93020640E+02</pdfrwt>
<totfact> 0.12531696E+05</totfact>
</mgrwt>
</event>
<event>
 5    1  0.4059427E+001  0.9326843E+02  0.7546771E-02  0.1295124E+00
         -3   -1    0    0    0  501 -0.00000000000E+00  0.00000000000E+00  0.39230480350E+02  0.39230480350E+02  0.00000000000E+00 0.  1.
          3   -1    0    0  501    0  0.00000000000E+00 -0.00000000000E+00 -0.55435208560E+02  0.55435208560E+02  0.00000000000E+00 0. -1.
         23    2    1    2    0    0  0.00000000000E+00  0.00000000000E+00 -0.16204728210E+02  0.94665688910E+02  0.93268426815E+02 0.  0.
          2    1    3    3  502    0  0.18073469789E+02  0.18535614777E+02 -0.47471732860E+02  0.54072032939E+02  0.00000000000E+00 0. -1.
         -2    1    3    3    0  502 -0.18073469789E+02 -0.18535614777E+02  0.31267004649E+02  0.40593655972E+02  0.00000000000E+00 0.  1.
<mgrwt>
<rscale>  0 0.93268427E+02</rscale>
<asrwt>0</asrwt>
<pdfrwt beam="2">  1        3 0.85284936E-02 0.93268427E+02</pdfrwt>
<pdfrwt beam="1">  1       -3 0.60354585E-02 0.93268427E+02</pdfrwt>
<totfact> 0.32965659E+04</totfact>
</mgrwt>
</event>
<event>
 5    1  0.4059427E+001  0.1201097E+03  0.7546771E-02  0.1242916E+00
          1   -1    0    0  501    0  0.00000000000E+00  0.00000000000E+00  0.23538372855E+03  0.23538372855E+03  0.00000000000E+00 0. -1.
         -1   -1    0    0    0  501 -0.00000000000E+00 -0.00000000000E+00 -0.15322154869E+02  0.15322154869E+02  0.00000000000E+00 0.  1.
         23    2    1    2    0    0  0.00000000000E+00  0.00000000000E+00  0.22006157369E+03  0.25070588342E+03  0.12010971555E+03 0.  0.
          2    1    3    3  502    0 -0.47565248351E+02 -0.29833395245E+02  0.65550977904E+02  0.86309993782E+02  0.00000000000E+00 0.  1.
         -2    1    3    3    0  502  0.47565248351E+02  0.29833395245E+02  0.15451059578E+03  0.16439588964E+03  0.00000000000E+00 0. -1.
<mgrwt>
<rscale>  0 0.12010972E+03</rscale>
<asrwt>0</asrwt>
<pdfrwt beam="1">  1        1 0.36212879E-01 0.12010972E+03</pdfrwt>
<pdfrwt beam="2">  1       -1 0.23572548E-02 0.12010972E+03</pdfrwt>
<totfact> 0.57816944E+04</totfact>
</mgrwt>
</event>
<event>
 5    1  0.4059427E+001  0.9294203E+02  0.7546771E-02  0.1295880E+00
          2   -1    0    0  501    0  0.00000000000E+00  0.00000000000E+00  0.17626615710E+04  0.17626615710E+04  0.00000000000E+00 0. -1.
         -2   -1    0    0    0  501 -0.00000000000E+00 -0.00000000000E+00 -0.12251672807E+01  0.12251672807E+01  0.00000000000E+00 0.  1.
         23    2    1    2    0    0  0.00000000000E+00  0.00000000000E+00  0.17614364037E+04  0.17638867383E+04  0.92942031045E+02 0.  0.
          2    1    3    3  502    0 -0.74686159943E+01  0.45395460170E+02  0.75622938047E+03  0.75762748360E+03  0.00000000000E+00 0. -1.
         -2    1    3    3    0  502  0.74686159943E+01 -0.45395460170E+02  0.10052070233E+04  0.10062592547E+04  0.00000000000E+00 0.  1.
<mgrwt>
<rscale>  0 0.92942031E+02</rscale>
<asrwt>0</asrwt>
<pdfrwt beam="1">  1        2 0.27117667E+00 0.92942031E+02</pdfrwt>
<pdfrwt beam="2">  1       -2 0.18848868E-03 0.92942031E+02</pdfrwt>
<totfact> 0.20664712E+05</totfact>
</mgrwt>
</event>
<event>
 5    1  0.4059427E+001  0.8916561E+02  0.7546771E-02  0.1304885E+00
         -1   -1    0    0    0  501 -0.00000000000E+00  0.00000000000E+00  0.16665375545E+02  0.16665375545E+02  0.00000000000E+00 0.  1.
          1   -1    0    0  501    0  0.00000000000E+00 -0.00000000000E+00 -0.11926683604E+03  0.11926683604E+03  0.00000000000E+00 0. -1.
         23    2    1    2    0    0  0.00000000000E+00  0.00000000000E+00 -0.10260146049E+03  0.13593221158E+03  0.89165612488E+02 0.  0.
          2    1    3    3  502    0 -0.27091572652E+02  0.18031719512E+02 -0.48467374639E+01  0.32902691096E+02  0.00000000000E+00 0.  1.
         -2    1    3    3    0  502  0.27091572652E+02 -0.18031719512E+02 -0.97754723027E+02  0.10302952048E+03  0.00000000000E+00 0. -1.
<mgrwt>
<rscale>  0 0.89165612E+02</rscale>
<asrwt>0</asrwt>
<pdfrwt beam="2">  1        1 0.18348744E-01 0.89165612E+02</pdfrwt>
<pdfrwt beam="1">  1       -1 0.25639040E-02 0.89165612E+02</pdfrwt>
<totfact> 0.11432217E+05</totfact>
</mgrwt>
</event>
<event>
 5    1  0.4059427E+001  0.9101861E+02  0.7546771E-02  0.1300404E+00
         -3   -1    0    0    0  501 -0.00000000000E+00  0.00000000000E+00  0.41124247529E+02  0.41124247529E+02  0.00000000000E+00 0.  1.
          3   -1    0    0  501    0  0.00000000000E+00 -0.00000000000E+00 -0.50361941121E+02  0.50361941121E+02  0.00000000000E+00 0. -1.
         23    2    1    2    0    0  0.00000000000E+00  0.00000000000E+00 -0.92376935912E+01  0.91486188650E+02  0.91018612002E+02 0.  0.
          2    1    3    3  502    0  0.31382839146E+02  0.32857917683E+02 -0.71955263106E+01  0.46003271038E+02  0.00000000000E+00 0. -1.
         -2    1    3    3    0  502 -0.31382839146E+02 -0.32857917683E+02 -0.20421672805E+01  0.45482917612E+02  0.00000000000E+00 0.  1.
<mgrwt>
<rscale>  0 0.91018612E+02</rscale>
<asrwt>0</asrwt>
<pdfrwt beam="2">  1        3 0.77479909E-02 0.91018612E+02</pdfrwt>
<pdfrwt beam="1">  1       -3 0.63268073E-02 0.91018612E+02</pdfrwt>
<totfact> 0.35482757E+04</totfact>
</mgrwt>
</event>
<event>
 5    1  0.4059427E+001  0.8876567E+02  0.7546771E-02  0.1305869E+00
          4   -1    0    0  501    0  0.00000000000E+00  0.00000000000E+00  0.22937194578E+03  0.22937194578E+03  0.00000000000E+00 0. -1.
         -4   -1    0    0    0  501 -0.00000000000E+00 -0.00000000000E+00 -0.85879554244E+01  0.85879554244E+01  0.00000000000E+00 0.  1.
         23    2    1    2    0    0  0.00000000000E+00  0.00000000000E+00  0.22078399036E+03  0.23795990121E+03  0.88765670076E+02 0.  0.
          2    1    3    3  502    0  0.25393220171E+01  0.40794378572E+02  0.64021225509E+02  0.75956216303E+02  0.00000000000E+00 0.  1.
         -2    1    3    3    0  502 -0.25393220171E+01 -0.40794378572E+02  0.15676276485E+03  0.16200368491E+03  0.00000000000E+00 0. -1.
<mgrwt>
<rscale>  0 0.88765670E+02</rscale>
<asrwt>0</asrwt>
<pdfrwt beam="1">  1        4 0.35287987E-01 0.88765670E+02</pdfrwt>
<pdfrwt beam="2">  1       -4 0.13212241E-02 0.88765670E+02</pdfrwt>
<totfact> 0.21368430E+04</totfact>
</mgrwt>
</event>
<event>
 5    1  0.4059427E+001  0.9223699E+02  0.7546771E-02  0.1297523E+00
         -3   -1    0    0    0  501 -0.00000000000E+00  0.00000000000E+00  0.13711554217E+02  0.13711554217E+02  0.00000000000E+00 0.  1.
          3   -1    0    0  501    0  0.00000000000E+00 -0.00000000000E+00 -0.15511850401E+03  0.15511850401E+03  0.00000000000E+00 0. -1.
         23    2    1    2    0    0  0.00000000000E+00  0.00000000000E+00 -0.14140694979E+03  0.16883005822E+03  0.92236994266E+02 0.  0.
          2    1    3    3  502    0 -0.51586873561E+01  0.44680057491E+02 -0.89369563907E+02  0.10004918063E+03  0.00000000000E+00 0. -1.
         -2    1    3    3    0  502  0.51586873561E+01 -0.44680057491E+02 -0.52037385883E+02  0.68780877591E+02  0.00000000000E+00 0.  1.
<mgrwt>
<rscale>  0 0.92236994E+02</rscale>
<asrwt>0</asrwt>
<pdfrwt beam="2">  1        3 0.23864384E-01 0.92236994E+02</pdfrwt>
<pdfrwt beam="1">  1       -3 0.21094700E-02 0.92236994E+02</pdfrwt>
<totfact> 0.29262024E+04</totfact>
</mgrwt>
</event>
<event>
 5    1  0.4059427E+001  0.9501220E+02  0.7546771E-02  0.1291149E+00
          1   -1    0    0  501    0  0.00000000000E+00  0.00000000000E+00  0.16313586861E+04  0.16313586861E+04  0.00000000000E+00 0. -1.
         -1   -1    0    0    0  501 -0.00000000000E+00 -0.00000000000E+00 -0.13834050048E+01  0.13834050048E+01  0.00000000000E+00 0.  1.
         23    2    1    2    0    0  0.00000000000E+00  0.00000000000E+00  0.16299752811E+04  0.16327420911E+04  0.95012204922E+02 0.  0.
          2    1    3    3  502    0 -0.22456183071E+01  0.22670567926E+02  0.15313654537E+04  0.15315349001E+04  0.00000000000E+00 0. -1.
         -2    1    3    3    0  502  0.22456183071E+01 -0.22670567926E+02  0.98609827468E+02  0.10120719107E+03  0.00000000000E+00 0.  1.
<mgrwt>
<rscale>  0 0.95012205E+02</rscale>
<asrwt>0</asrwt>
<pdfrwt beam="1">  1        1 0.25097672E+00 0.95012205E+02</pdfrwt>
<pdfrwt beam="2">  1       -1 0.21283284E-03 0.95012205E+02</pdfrwt>
<totfact> 0.91850961E+04</totfact>
</mgrwt>
</event>
<event>
 5    1  0.4059427E+001  0.8963152E+02  0.7546771E-02  0.1303746E+00
          4   -1    0    0  501    0  0.00000000000E+00  0.00000000000E+00  0.22773041502E+03  0.22773041502E+03  0.00000000000E+00 0. -1.
         -4   -1    0    0    0  501 -0.00000000000E+00 -0.00000000000E+00 -0.88194298408E+01  0.88194298408E+01  0.00000000000E+00 0.  1.
         23    2    1    2    0    0  0.00000000000E+00  0.00000000000E+00  0.21891098518E+03  0.23654984486E+03  0.89631521641E+02 0.  0.
          2    1    3    3  502    0 -0.19734251740E+02  0.10033913116E+02  0.21229152577E+03  0.21344276051E+03  0.00000000000E+00 0. -1.
         -2    1    3    3    0  502  0.19734251740E+02 -0.10033913116E+02  0.66194594174E+01  0.23107084350E+02  0.00000000000E+00 0.  1.
<mgrwt>
<rscale>  0 0.89631522E+02</rscale>
<asrwt>0</asrwt>
<pdfrwt beam="1">  1        4 0.35035444E-01 0.89631522E+02</pdfrwt>
<pdfrwt beam="2">  1       -4 0.13568355E-02 0.89631522E+02</pdfrwt>
<totfact> 0.20879104E+04</totfact>
</mgrwt>
</event>
<event>
 5    1  0.4059427E+001  0.9243903E+02  0.7546771E-02  0.1297050E+00
         -2   -1    0    0    0  501 -0.00000000000E+00  0.00000000000E+00  0.13240117623E+01  0.13240117623E+01  0.00000000000E+00 0.  1.
          2   -1    0    0  501    0  0.00000000000E+00 -0.00000000000E+00 -0.16134627465E+04  0.16134627465E+04  0.00000000000E+00 0. -1.
         23    2    1    2    0    0  0.00000000000E+00  0.00000000000E+00 -0.16121387347E+04  0.16147867583E+04  0.92439031893E+02 0.  0.
          2    1    3    3  502    0 -0.42526686333E+02  0.16775847030E+02 -0.92492765337E+03  0.92605675424E+03  0.00000000000E+00 0. -1.
         -2    1    3    3    0  502  0.42526686333E+02 -0.16775847030E+02 -0.68721108136E+03  0.68873000402E+03  0.00000000000E+00 0.  1.
<mgrwt>
<rscale>  0 0.92439032E+02</rscale>
<asrwt>0</asrwt>
<pdfrwt beam="2">  1        2 0.24822531E+00 0.92439032E+02</pdfrwt>
<pdfrwt beam="1">  1       -2 0.20369390E-03 0.92439032E+02</pdfrwt>
<totfact> 0.22047442E+05</totfact>
</mgrwt>
</event>
<event>
 5    1  0.4059427E+001  0.9101070E+02  0.7546771E-02  0.1300422E+00
          3   -1    0    0  501    0  0.00000000000E+00  0.00000000000E+00  0.31254001513E+01  0.31254001513E+01  0.00000000000E+00 0. -1.
         -3   -1    0    0    0  501 -0.00000000000E+00 -0.00000000000E+00 -0.66255094041E+03  0.66255094041E+03  0.00000000000E+00 0.  1.
         23    2    1    2    0    0  0.00000000000E+00  0.00000000000E+00 -0.65942554026E+03  0.66567634056E+03  0.91010698479E+02 0.  0.
          2    1    3    3  502    0  0.36435565597E+02 -0.26226504609E+01 -0.13124021750E+03  0.13622930457E+03  0.00000000000E+00 0. -1.
         -2    1    3    3    0  502 -0.36435565597E+02  0.26226504609E+01 -0.52818532277E+03  0.52944703599E+03  0.00000000000E+00 0.  1.
<mgrwt>
<rscale>  0 0.91010698E+02</rscale>
<asrwt>0</asrwt>
<pdfrwt beam="1">  1        3 0.48083100E-03 0.91010698E+02</pdfrwt>
<pdfrwt beam="2">  1       -3 0.10193087E+00 0.91010698E+02</pdfrwt>
<totfact> 0.14545799E+04</totfact>
</mgrwt>
</event>
<event>
 5    1  0.4059427E+001  0.9247338E+02  0.7546771E-02  0.1296970E+00
         -1   -1    0    0    0  501 -0.00000000000E+00  0.00000000000E+00  0.97220987820E+01  0.97220987820E+01  0.00000000000E+00 0.  1.
          1   -1    0    0  501    0  0.00000000000E+00 -0.00000000000E+00 -0.21989404668E+03  0.21989404668E+03  0.00000000000E+00 0. -1.
         23    2    1    2    0    0  0.00000000000E+00  0.00000000000E+00 -0.21017194790E+03  0.22961614546E+03  0.92473383055E+02 0.  0.
          2    1    3    3  502    0  0.19326380569E+02  0.31388836793E+02 -0.35779767521E+02  0.51370807128E+02  0.00000000000E+00 0.  1.
         -2    1    3    3    0  502 -0.19326380569E+02 -0.31388836793E+02 -0.17439218038E+03  0.17824533834E+03  0.00000000000E+00 0. -1.
<mgrwt>
<rscale>  0 0.92473383E+02</rscale>
<asrwt>0</asrwt>
<pdfrwt beam="2">  1        1 0.33829852E-01 0.92473383E+02</pdfrwt>
<pdfrwt beam="1">  1       -1 0.14957076E-02 0.92473383E+02</pdfrwt>
<totfact> 0.11613081E+05</totfact>
</mgrwt>
</event>
<event>
 5    1  0.4059427E+001  0.9060617E+02  0.7546771E-02  0.1301390E+00
         -1   -1    0    0    0  501 -0.00000000000E+00  0.00000000000E+00  0.85164941868E+00  0.85164941868E+00  0.00000000000E+00 0.  1.
          1   -1    0    0  501    0  0.00000000000E+00 -0.00000000000E+00 -0.24098762459E+04  0.24098762459E+04  0.00000000000E+00 0. -1.
         23    2    1    2    0    0  0.00000000000E+00  0.00000000000E+00 -0.24090245965E+04  0.24107278953E+04  0.90606174269E+02 0.  0.
          2    1    3    3  502    0 -0.31629020718E+02 -0.25936335205E+01 -0.34431111676E+03  0.34577054098E+03  0.00000000000E+00 0.  1.
         -2    1    3    3    0  502  0.31629020718E+02  0.25936335205E+01 -0.20647134797E+04  0.20649573543E+04  0.00000000000E+00 0. -1.
<mgrwt>
<rscale>  0 0.90606174E+02</rscale>
<asrwt>0</asrwt>
<pdfrwt beam="2">  1        1 0.37074856E+00 0.90606174E+02</pdfrwt>
<pdfrwt beam="1">  1       -1 0.13102356E-03 0.90606174E+02</pdfrwt>
<totfact> 0.57765792E+04</totfact>
</mgrwt>
</event>
<event>
 5    1  0.4059427E+001  0.8278120E+02  0.7546771E-02  0.1321339E+00
         -2   -1    0    0    0  501 -0.00000000000E+00  0.00000000000E+00  0.11654245493E+01  0.11654245493E+01  0.00000000000E+00 0.  1.
          2   -1    0    0  501    0  0.00000000000E+00 -0.00000000000E+00 -0.14700064405E+04  0.14700064405E+04  0.00000000000E+00 0. -1.
         23    2    1    2    0    0  0.00000000000E+00  0.00000000000E+00 -0.14688410160E+04  0.14711718651E+04  0.82781195775E+02 0.  0.
          2    1    3    3  502    0  0.52323197142E+01 -0.21836936202E+02 -0.11649466391E+03  0.11863909841E+03  0.00000000000E+00 0.  1.
         -2    1    3    3    0  502 -0.52323197142E+01  0.21836936202E+02 -0.13523463521E+04  0.13525327667E+04  0.00000000000E+00 0. -1.
<mgrwt>
<rscale>  0 0.82781196E+02</rscale>
<asrwt>0</asrwt>
<pdfrwt beam="2">  1        2 0.22615533E+00 0.82781196E+02</pdfrwt>
<pdfrwt beam="1">  1       -2 0.17929570E-03 0.82781196E+02</pdfrwt>
<totfact> 0.30624331E+05</totfact>
</mgrwt>
</event>
<event>
 5    1  0.4059427E+001  0.8478279E+02  0.7546771E-02  0.1316002E+00
         -3   -1    0    0    0  501 -0.00000000000E+00  0.00000000000E+00  0.25104581088E+02  0.25104581088E+02  0.00000000000E+00 0.  1.
          3   -1    0    0  501    0  0.00000000000E+00 -0.00000000000E+00 -0.71581779059E+02  0.71581779059E+02  0.00000000000E+00 0. -1.
         23    2    1    2    0    0  0.00000000000E+00  0.00000000000E+00 -0.46477197971E+02  0.96686360146E+02  0.84782794877E+02 0.  0.
          2    1    3    3  502    0  0.30267125266E+02  0.12485575764E+01 -0.57056293630E+02  0.64599368501E+02  0.00000000000E+00 0. -1.
         -2    1    3    3    0  502 -0.30267125266E+02 -0.12485575764E+01  0.10579095659E+02  0.32086991646E+02  0.00000000000E+00 0.  1.
<mgrwt>
<rscale>  0 0.84782795E+02</rscale>
<asrwt>0</asrwt>
<pdfrwt beam="2">  1        3 0.11012581E-01 0.84782795E+02</pdfrwt>
<pdfrwt beam="1">  1       -3 0.38622432E-02 0.84782795E+02</pdfrwt>
<totfact> 0.42514659E+04</totfact>
</mgrwt>
</event>
<event>
 5    1  0.4059427E+001  0.8818042E+02  0.7546771E-02  0.1307319E+00
          1   -1    0    0  501    0  0.00000000000E+00  0.00000000000E+00  0.33188790474E+03  0.33188790474E+03  0.00000000000E+00 0. -1.
         -1   -1    0    0    0  501 -0.00000000000E+00 -0.00000000000E+00 -0.58572380735E+01  0.58572380735E+01  0.00000000000E+00 0.  1.
         23    2    1    2    0    0  0.00000000000E+00  0.00000000000E+00  0.32603066667E+03  0.33774514282E+03  0.88180416687E+02 0.  0.
          2    1    3    3  502    0  0.32789135552E+02  0.18461765585E+02  0.25102424208E+03  0.25382894695E+03  0.00000000000E+00 0. -1.
         -2    1    3    3    0  502 -0.32789135552E+02 -0.18461765585E+02  0.75006424591E+02  0.83916195866E+02  0.00000000000E+00 0.  1.
<mgrwt>
<rscale>  0 0.88180417E+02</rscale>
<asrwt>0</asrwt>
<pdfrwt beam="1">  1        1 0.51059663E-01 0.88180417E+02</pdfrwt>
<pdfrwt beam="2">  1       -1 0.90111381E-03 0.88180417E+02</pdfrwt>
<totfact> 0.14268356E+05</totfact>
</mgrwt>
</event>
<event>
 5    1  0.4059427E+001  0.9453101E+02  0.7546771E-02  0.1292236E+00
         -1   -1    0    0    0  501 -0.00000000000E+00  0.00000000000E+00  0.20651513264E+01  0.20651513264E+01  0.00000000000E+00 0.  1.
          1   -1    0    0  501    0  0.00000000000E+00 -0.00000000000E+00 -0.10817744994E+04  0.10817744994E+04  0.00000000000E+00 0. -1.
         23    2    1    2    0    0  0.00000000000E+00  0.00000000000E+00 -0.10797093481E+04  0.10838396508E+04  0.94531011681E+02 0.  0.
          2    1    3    3  502    0  0.27730915663E+02  0.38211914409E+02 -0.56516696970E+03  0.56713566077E+03  0.00000000000E+00 0. -1.
         -2    1    3    3    0  502 -0.27730915663E+02 -0.38211914409E+02 -0.51454237842E+03  0.51670398999E+03  0.00000000000E+00 0.  1.
<mgrwt>
<rscale>  0 0.94531012E+02</rscale>
<asrwt>0</asrwt>
<pdfrwt beam="2">  1        1 0.16642671E+00 0.94531012E+02</pdfrwt>
<pdfrwt beam="1">  1       -1 0.31771586E-03 0.94531012E+02</pdfrwt>
<totfact> 0.12067394E+05</totfact>
</mgrwt>
</event>
<event>
 5    1  0.4059427E+001  0.9081421E+02  0.7546771E-02  0.1300892E+00
          3   -1    0    0  501    0  0.00000000000E+00  0.00000000000E+00  0.56323447310E+01  0.56323447310E+01  0.00000000000E+00 0.  1.
         -3   -1    0    0    0  501 -0.00000000000E+00 -0.00000000000E+00 -0.36606519304E+03  0.36606519304E+03  0.00000000000E+00 0. -1.
         23    2    1    2    0    0  0.00000000000E+00  0.00000000000E+00 -0.36043284831E+03  0.37169753777E+03  0.90814213893E+02 0.  0.
          2    1    3    3  502    0  0.61430794559E+01 -0.37143433631E+02 -0.28411864596E+03  0.28660212328E+03  0.00000000000E+00 0. -1.
         -2    1    3    3    0  502 -0.61430794559E+01  0.37143433631E+02 -0.76314202355E+02  0.85095414496E+02  0.00000000000E+00 0.  1.
<mgrwt>
<rscale>  0 0.90814214E+02</rscale>
<asrwt>0</asrwt>
<pdfrwt beam="1">  1        3 0.86651461E-03 0.90814214E+02</pdfrwt>
<pdfrwt beam="2">  1       -3 0.56317720E-01 0.90814214E+02</pdfrwt>
<totfact> 0.21715817E+04</totfact>
</mgrwt>
</event>
<event>
 5    1  0.4059427E+001  0.8086908E+02  0.7546771E-02  0.1326603E+00
          1   -1    0    0  501    0  0.00000000000E+00  0.00000000000E+00  0.18149757212E+03  0.18149757212E+03  0.00000000000E+00 0. -1.
         -1   -1    0    0    0  501 -0.00000000000E+00 -0.00000000000E+00 -0.90081205974E+01  0.90081205974E+01  0.00000000000E+00 0.  1.
         23    2    1    2    0    0  0.00000000000E+00  0.00000000000E+00  0.17248945152E+03  0.19050569271E+03  0.80869079821E+02 0.  0.
          2    1    3    3  502    0  0.22898037292E+02  0.10698308133E+02  0.11892503507E+02  0.27932159752E+02  0.00000000000E+00 0.  1.
         -2    1    3    3    0  502 -0.22898037292E+02 -0.10698308133E+02  0.16059694801E+03  0.16257353296E+03  0.00000000000E+00 0. -1.
<mgrwt>
<rscale>  0 0.80869080E+02</rscale>
<asrwt>0</asrwt>
<pdfrwt beam="1">  1        1 0.27922701E-01 0.80869080E+02</pdfrwt>
<pdfrwt beam="2">  1       -1 0.13858648E-02 0.80869080E+02</pdfrwt>
<totfact> 0.16003980E+05</totfact>
</mgrwt>
</event>
<event>
 5    1  0.4059427E+001  0.9818397E+02  0.7546771E-02  0.1284162E+00
          1   -1    0    0  501    0  0.00000000000E+00  0.00000000000E+00  0.10521286410E+02  0.10521286410E+02  0.00000000000E+00 0. -1.
         -1   -1    0    0    0  501 -0.00000000000E+00 -0.00000000000E+00 -0.22906162713E+03  0.22906162713E+03  0.00000000000E+00 0.  1.
         23    2    1    2    0    0  0.00000000000E+00  0.00000000000E+00 -0.21854034072E+03  0.23958291355E+03  0.98183969867E+02 0.  0.
          2    1    3    3  502    0 -0.47353885617E+02  0.10653618003E+02 -0.91316799523E+02  0.10341493091E+03  0.00000000000E+00 0.  1.
         -2    1    3    3    0  502  0.47353885617E+02 -0.10653618003E+02 -0.12722354120E+03  0.13616798264E+03  0.00000000000E+00 0. -1.
<mgrwt>
<rscale>  0 0.98183970E+02</rscale>
<asrwt>0</asrwt>
<pdfrwt beam="1">  1        1 0.16186597E-02 0.98183970E+02</pdfrwt>
<pdfrwt beam="2">  1       -1 0.35240245E-01 0.98183970E+02</pdfrwt>
<totfact> 0.54908861E+04</totfact>
</mgrwt>
</event>
<event>
 5    1  0.4059427E+001  0.9290900E+02  0.7546771E-02  0.1295956E+00
          2   -1    0    0  501    0  0.00000000000E+00  0.00000000000E+00  0.15597805830E+04  0.15597805830E+04  0.00000000000E+00 0.  1.
         -2   -1    0    0    0  501 -0.00000000000E+00 -0.00000000000E+00 -0.13835410140E+01  0.13835410140E+01  0.00000000000E+00 0. -1.
         23    2    1    2    0    0  0.00000000000E+00  0.00000000000E+00  0.15583970419E+04  0.15611641240E+04  0.92908996537E+02 0.  0.
          2    1    3    3  502    0 -0.20208777056E+02 -0.23953378403E+01  0.14808962962E+04  0.14810361144E+04  0.00000000000E+00 0.  1.
         -2    1    3    3    0  502  0.20208777056E+02  0.23953378403E+01  0.77500745782E+02  0.80128009524E+02  0.00000000000E+00 0. -1.
<mgrwt>
<rscale>  0 0.92908997E+02</rscale>
<asrwt>0</asrwt>
<pdfrwt beam="1">  1        2 0.23996484E+00 0.92908997E+02</pdfrwt>
<pdfrwt beam="2">  1       -2 0.21285371E-03 0.92908997E+02</pdfrwt>
<totfact> 0.22099293E+05</totfact>
</mgrwt>
</event>
<event>
 5    1  0.4059427E+001  0.9124281E+02  0.7546771E-02  0.1299870E+00
         -4   -1    0    0    0  501 -0.00000000000E+00  0.00000000000E+00  0.51777320784E+02  0.51777320784E+02  0.00000000000E+00 0.  1.
          4   -1    0    0  501    0  0.00000000000E+00 -0.00000000000E+00 -0.40197375615E+02  0.40197375615E+02  0.00000000000E+00 0. -1.
         23    2    1    2    0    0  0.00000000000E+00  0.00000000000E+00  0.11579945170E+02  0.91974696399E+02  0.91242806005E+02 0.  0.
          2    1    3    3  502    0  0.36552477734E+02  0.32740377194E+00 -0.21725900898E+02  0.42523000736E+02  0.00000000000E+00 0. -1.
         -2    1    3    3    0  502 -0.36552477734E+02 -0.32740377194E+00  0.33305846068E+02  0.49451695664E+02  0.00000000000E+00 0.  1.
<mgrwt>
<rscale>  0 0.91242806E+02</rscale>
<asrwt>0</asrwt>
<pdfrwt beam="2">  1        4 0.61842116E-02 0.91242806E+02</pdfrwt>
<pdfrwt beam="1">  1       -4 0.79657417E-02 0.91242806E+02</pdfrwt>
<totfact> 0.26912248E+04</totfact>
</mgrwt>
</event>
<event>
 5    1  0.4059427E+001  0.9081811E+02  0.7546771E-02  0.1300883E+00
          3   -1    0    0  501    0  0.00000000000E+00  0.00000000000E+00  0.15545029058E+03  0.15545029058E+03  0.00000000000E+00 0. -1.
         -3   -1    0    0    0  501 -0.00000000000E+00 -0.00000000000E+00 -0.13264577642E+02  0.13264577642E+02  0.00000000000E+00 0.  1.
         23    2    1    2    0    0  0.00000000000E+00  0.00000000000E+00  0.14218571294E+03  0.16871486823E+03  0.90818113808E+02 0.  0.
          2    1    3    3  502    0  0.43596372520E+02  0.12181492152E+02  0.64407635300E+02  0.78723414134E+02  0.00000000000E+00 0. -1.
         -2    1    3    3    0  502 -0.43596372520E+02 -0.12181492152E+02  0.77778077641E+02  0.89991454092E+02  0.00000000000E+00 0.  1.
<mgrwt>
<rscale>  0 0.90818114E+02</rscale>
<asrwt>0</asrwt>
<pdfrwt beam="1">  1        3 0.23915428E-01 0.90818114E+02</pdfrwt>
<pdfrwt beam="2">  1       -3 0.20407044E-02 0.90818114E+02</pdfrwt>
<totfact> 0.30523373E+04</totfact>
</mgrwt>
</event>
<event>
 5    1  0.4059427E+001  0.9173929E+02  0.7546771E-02  0.1298694E+00
          1   -1    0    0  501    0  0.00000000000E+00  0.00000000000E+00  0.81777462776E+02  0.81777462776E+02  0.00000000000E+00 0. -1.
         -1   -1    0    0    0  501 -0.00000000000E+00 -0.00000000000E+00 -0.25728656597E+02  0.25728656597E+02  0.00000000000E+00 0.  1.
         23    2    1    2    0    0  0.00000000000E+00  0.00000000000E+00  0.56048806179E+02  0.10750611937E+03  0.91739288359E+02 0.  0.
          2    1    3    3  502    0 -0.25186241605E+02  0.24149697077E+02  0.62915108294E+02  0.71943488146E+02  0.00000000000E+00 0. -1.
         -2    1    3    3    0  502  0.25186241605E+02 -0.24149697077E+02 -0.68663021149E+01  0.35562631227E+02  0.00000000000E+00 0.  1.
<mgrwt>
<rscale>  0 0.91739288E+02</rscale>
<asrwt>0</asrwt>
<pdfrwt beam="1">  1        1 0.12581148E-01 0.91739288E+02</pdfrwt>
<pdfrwt beam="2">  1       -1 0.39582549E-02 0.91739288E+02</pdfrwt>
<totfact> 0.99401708E+04</totfact>
</mgrwt>
</event>
<event>
 5    1  0.4059427E+001  0.9104054E+02  0.7546771E-02  0.1300351E+00
          3   -1    0    0  501    0  0.00000000000E+00  0.00000000000E+00  0.26330222153E+02  0.26330222153E+02  0.00000000000E+00 0. -1.
         -3   -1    0    0    0  501 -0.00000000000E+00 -0.00000000000E+00 -0.78696447354E+02  0.78696447354E+02  0.00000000000E+00 0.  1.
         23    2    1    2    0    0  0.00000000000E+00  0.00000000000E+00 -0.52366225202E+02  0.10502666951E+03  0.91040539134E+02 0.  0.
          2    1    3    3  502    0 -0.93280393369E+01 -0.39924194451E+02 -0.33675269036E+01  0.41137499412E+02  0.00000000000E+00 0. -1.
         -2    1    3    3    0  502  0.93280393369E+01  0.39924194451E+02 -0.48998698298E+02  0.63889170095E+02  0.00000000000E+00 0.  1.
<mgrwt>
<rscale>  0 0.91040539E+02</rscale>
<asrwt>0</asrwt>
<pdfrwt beam="1">  1        3 0.40508034E-02 0.91040539E+02</pdfrwt>
<pdfrwt beam="2">  1       -3 0.12107146E-01 0.91040539E+02</pdfrwt>
<totfact> 0.34444039E+04</totfact>
</mgrwt>
</event>
<event>
 5    1  0.4059427E+001  0.9699710E+02  0.7546771E-02  0.1286740E+00
         -1   -1    0    0    0  501 -0.00000000000E+00  0.00000000000E+00  0.71482955508E+02  0.71482955508E+02  0.00000000000E+00 0.  1.
          1   -1    0    0  501    0  0.00000000000E+00 -0.00000000000E+00 -0.32904480862E+02  0.32904480862E+02  0.00000000000E+00 0. -1.
         23    2    1    2    0    0  0.00000000000E+00  0.00000000000E+00  0.38578474646E+02  0.10438743637E+03  0.96997103904E+02 0.  0.
          2    1    3    3  502    0 -0.23964516104E+02  0.71233764369E+01 -0.25435140856E+02  0.35664925548E+02  0.00000000000E+00 0. -1.
         -2    1    3    3    0  502  0.23964516104E+02 -0.71233764369E+01  0.64013615502E+02  0.68722510821E+02  0.00000000000E+00 0.  1.
<mgrwt>
<rscale>  0 0.96997104E+02</rscale>
<asrwt>0</asrwt>
<pdfrwt beam="2">  1        1 0.50622278E-02 0.96997104E+02</pdfrwt>
<pdfrwt beam="1">  1       -1 0.10997378E-01 0.96997104E+02</pdfrwt>
<totfact> 0.73636674E+04</totfact>
</mgrwt>
</event>
<event>
 5    1  0.4059427E+001  0.9019906E+02  0.7546771E-02  0.1302370E+00
          1   -1    0    0  501    0  0.00000000000E+00  0.00000000000E+00  0.65794176951E+03  0.65794176951E+03  0.00000000000E+00 0. -1.
         -1   -1    0    0    0  501 -0.00000000000E+00 -0.00000000000E+00 -0.30914100456E+01  0.30914100456E+01  0.00000000000E+00 0.  1.
         23    2    1    2    0    0  0.00000000000E+00  0.00000000000E+00  0.65485035946E+03  0.66103317955E+03  0.90199064201E+02 0.  0.
          2    1    3    3  502    0 -0.36814166416E+02 -0.26047102953E+02  0.32388481515E+03  0.32700933917E+03  0.00000000000E+00 0. -1.
         -2    1    3    3    0  502  0.36814166416E+02  0.26047102953E+02  0.33096554431E+03  0.33402384038E+03  0.00000000000E+00 0.  1.
<mgrwt>
<rscale>  0 0.90199064E+02</rscale>
<asrwt>0</asrwt>
<pdfrwt beam="1">  1        1 0.10122170E+00 0.90199064E+02</pdfrwt>
<pdfrwt beam="2">  1       -1 0.47560207E-03 0.90199064E+02</pdfrwt>
<totfact> 0.14623192E+05</totfact>
</mgrwt>
</event>
<event>
 5    1  0.4059427E+001  0.8972462E+02  0.7546771E-02  0.1303520E+00
         -2   -1    0    0    0  501 -0.00000000000E+00  0.00000000000E+00  0.14059756587E+01  0.14059756587E+01  0.00000000000E+00 0.  1.
          2   -1    0    0  501    0  0.00000000000E+00 -0.00000000000E+00 -0.14314804515E+04  0.14314804515E+04  0.00000000000E+00 0. -1.
         23    2    1    2    0    0  0.00000000000E+00  0.00000000000E+00 -0.14300744758E+04  0.14328864271E+04  0.89724615812E+02 0.  0.
          2    1    3    3  502    0 -0.18306712685E+02  0.40669958327E+02 -0.79236390154E+03  0.79361812839E+03  0.00000000000E+00 0. -1.
         -2    1    3    3    0  502  0.18306712685E+02 -0.40669958327E+02 -0.63771057428E+03  0.63926829875E+03  0.00000000000E+00 0.  1.
<mgrwt>
<rscale>  0 0.89724616E+02</rscale>
<asrwt>0</asrwt>
<pdfrwt beam="2">  1        2 0.22022720E+00 0.89724616E+02</pdfrwt>
<pdfrwt beam="1">  1       -2 0.21630450E-03 0.89724616E+02</pdfrwt>
<totfact> 0.25015928E+05</totfact>
</mgrwt>
</event>
<event>
 5    1  0.4059427E+001  0.9329603E+02  0.7546771E-02  0.1295061E+00
          1   -1    0    0  501    0  0.00000000000E+00  0.00000000000E+00  0.64315333089E+02  0.64315333089E+02  0.00000000000E+00 0. -1.
         -1   -1    0    0    0  501 -0.00000000000E+00 -0.00000000000E+00 -0.33833879907E+02  0.33833879907E+02  0.00000000000E+00 0.  1.
         23    2    1    2    0    0  0.00000000000E+00  0.00000000000E+00  0.30481453182E+02  0.98149212996E+02  0.93296028981E+02 0.  0.
          2    1    3    3  502    0  0.19810823987E+02 -0.35468842630E+02  0.39357671970E+02  0.56564422453E+02  0.00000000000E+00 0. -1.
         -2    1    3    3    0  502 -0.19810823987E+02  0.35468842630E+02 -0.88762187879E+01  0.41584790543E+02  0.00000000000E+00 0.  1.
<mgrwt>
<rscale>  0 0.93296029E+02</rscale>
<asrwt>0</asrwt>
<pdfrwt beam="1">  1        1 0.98946666E-02 0.93296029E+02</pdfrwt>
<pdfrwt beam="2">  1       -1 0.52052123E-02 0.93296029E+02</pdfrwt>
<totfact> 0.91380115E+04</totfact>
</mgrwt>
</event>
<event>
 5    1  0.4059427E+001  0.9039438E+02  0.7546771E-02  0.1301899E+00
         -2   -1    0    0    0  501 -0.00000000000E+00  0.00000000000E+00  0.12544924927E+01  0.12544924927E+01  0.00000000000E+00 0.  1.
          2   -1    0    0  501    0  0.00000000000E+00 -0.00000000000E+00 -0.16283763383E+04  0.16283763383E+04  0.00000000000E+00 0. -1.
         23    2    1    2    0    0  0.00000000000E+00  0.00000000000E+00 -0.16271218458E+04  0.16296308308E+04  0.90394377961E+02 0.  0.
          2    1    3    3  502    0  0.34654226025E+02  0.28124552560E+02 -0.68496666040E+03  0.68641913705E+03  0.00000000000E+00 0. -1.
         -2    1    3    3    0  502 -0.34654226025E+02 -0.28124552560E+02 -0.94215518544E+03  0.94321169378E+03  0.00000000000E+00 0.  1.
<mgrwt>
<rscale>  0 0.90394378E+02</rscale>
<asrwt>0</asrwt>
<pdfrwt beam="2">  1        2 0.25051984E+00 0.90394378E+02</pdfrwt>
<pdfrwt beam="1">  1       -2 0.19299853E-03 0.90394378E+02</pdfrwt>
<totfact> 0.23279530E+05</totfact>
</mgrwt>
</event>
<event>
 5    1  0.4059427E+001  0.8822930E+02  0.7546771E-02  0.1307197E+00
          2   -1    0    0  501    0  0.00000000000E+00  0.00000000000E+00  0.27527300482E+03  0.27527300482E+03  0.00000000000E+00 0. -1.
         -2   -1    0    0    0  501 -0.00000000000E+00 -0.00000000000E+00 -0.70697178239E+01  0.70697178239E+01  0.00000000000E+00 0.  1.
         23    2    1    2    0    0  0.00000000000E+00  0.00000000000E+00  0.26820328700E+03  0.28234272265E+03  0.88229302811E+02 0.  0.
          2    1    3    3  502    0  0.12493947068E+02 -0.19508020058E+02  0.25424152167E+03  0.25529475690E+03  0.00000000000E+00 0. -1.
         -2    1    3    3    0  502 -0.12493947068E+02  0.19508020058E+02  0.13961765330E+02  0.27047965747E+02  0.00000000000E+00 0.  1.
<mgrwt>
<rscale>  0 0.88229303E+02</rscale>
<asrwt>0</asrwt>
<pdfrwt beam="1">  1        2 0.42349685E-01 0.88229303E+02</pdfrwt>
<pdfrwt beam="2">  1       -2 0.10876491E-02 0.88229303E+02</pdfrwt>
<totfact> 0.18991994E+05</totfact>
</mgrwt>
</event>
<event>
 5    1  0.4059427E+001  0.9009588E+02  0.7546771E-02  0.1302620E+00
          2   -1    0    0  501    0  0.00000000000E+00  0.00000000000E+00  0.81338943713E+03  0.81338943713E+03  0.00000000000E+00 0. -1.
         -2   -1    0    0    0  501 -0.00000000000E+00 -0.00000000000E+00 -0.24948896952E+01  0.24948896952E+01  0.00000000000E+00 0.  1.
         23    2    1    2    0    0  0.00000000000E+00  0.00000000000E+00  0.81089454744E+03  0.81588432683E+03  0.90095880592E+02 0.  0.
          2    1    3    3  502    0  0.28304206890E+02 -0.58744088182E+01  0.71831994934E+03  0.71890137461E+03  0.00000000000E+00 0. -1.
         -2    1    3    3    0  502 -0.28304206890E+02  0.58744088182E+01  0.92574598102E+02  0.96982952215E+02  0.00000000000E+00 0.  1.
<mgrwt>
<rscale>  0 0.90095881E+02</rscale>
<asrwt>0</asrwt>
<pdfrwt beam="1">  1        2 0.12513663E+00 0.90095881E+02</pdfrwt>
<pdfrwt beam="2">  1       -2 0.38382983E-03 0.90095881E+02</pdfrwt>
<totfact> 0.25223280E+05</totfact>
</mgrwt>
</event>
<event>
 5    1  0.4059427E+001  0.9037019E+02  0.7546771E-02  0.1301958E+00
          2   -1    0    0  501    0  0.00000000000E+00  0.00000000000E+00  0.59028812213E+02  0.59028812213E+02  0.00000000000E+00 0. -1.
         -2   -1    0    0    0  501 -0.00000000000E+00 -0.00000000000E+00 -0.34588074712E+02  0.34588074712E+02  0.00000000000E+00 0.  1.
         23    2    1    2    0    0  0.00000000000E+00  0.00000000000E+00  0.24440737501E+02  0.93616886925E+02  0.90370193471E+02 0.  0.
          2    1    3    3  502    0  0.43873302654E+02  0.78474901636E+01  0.45207660561E+01  0.44798293644E+02  0.00000000000E+00 0. -1.
         -2    1    3    3    0  502 -0.43873302654E+02 -0.78474901636E+01  0.19919971445E+02  0.48818593282E+02  0.00000000000E+00 0.  1.
<mgrwt>
<rscale>  0 0.90370193E+02</rscale>
<asrwt>0</asrwt>
<pdfrwt beam="1">  1        2 0.90813557E-02 0.90370193E+02</pdfrwt>
<pdfrwt beam="2">  1       -2 0.53212423E-02 0.90370193E+02</pdfrwt>
<totfact> 0.10828571E+05</totfact>
</mgrwt>
</event>
<event>
 5    1  0.4059427E+001  0.9111974E+02  0.7546771E-02  0.1300163E+00
          2   -1    0    0  501    0  0.00000000000E+00  0.00000000000E+00  0.95241284308E+01  0.95241284308E+01  0.00000000000E+00 0.  1.
         -2   -1    0    0    0  501 -0.00000000000E+00 -0.00000000000E+00 -0.21794136258E+03  0.21794136258E+03  0.00000000000E+00 0. -1.
         23    2    1    2    0    0  0.00000000000E+00  0.00000000000E+00 -0.20841723415E+03  0.22746549101E+03  0.91119735021E+02 0.  0.
          2    1    3    3  502    0  0.21993156406E+02  0.38448964304E+02 -0.13082472885E+03  0.13811998937E+03  0.00000000000E+00 0. -1.
         -2    1    3    3    0  502 -0.21993156406E+02 -0.38448964304E+02 -0.77592505291E+02  0.89345501633E+02  0.00000000000E+00 0.  1.
<mgrwt>
<rscale>  0 0.91119735E+02</rscale>
<asrwt>0</asrwt>
<pdfrwt beam="1">  1        2 0.14652506E-02 0.91119735E+02</pdfrwt>
<pdfrwt beam="2">  1       -2 0.33529438E-01 0.91119735E+02</pdfrwt>
<totfact> 0.60078989E+04</totfact>
</mgrwt>
</event>
<event>
 5    1  0.4059427E+001  0.9267864E+02  0.7546771E-02  0.1296492E+00
          2   -1    0    0  501    0  0.00000000000E+00  0.00000000000E+00  0.10552751635E+04  0.10552751635E+04  0.00000000000E+00 0. -1.
         -2   -1    0    0    0  501 -0.00000000000E+00 -0.00000000000E+00 -0.20348556680E+01  0.20348556680E+01  0.00000000000E+00 0.  1.
         23    2    1    2    0    0  0.00000000000E+00  0.00000000000E+00  0.10532403079E+04  0.10573100192E+04  0.92678641506E+02 0.  0.
          2    1    3    3  502    0  0.34827199583E+02  0.14829240667E+02  0.83156514691E+03  0.83242623323E+03  0.00000000000E+00 0. -1.
         -2    1    3    3    0  502 -0.34827199583E+02 -0.14829240667E+02  0.22167516097E+03  0.22488378599E+03  0.00000000000E+00 0.  1.
<mgrwt>
<rscale>  0 0.92678642E+02</rscale>
<asrwt>0</asrwt>
<pdfrwt beam="1">  1        2 0.16234959E+00 0.92678642E+02</pdfrwt>
<pdfrwt beam="2">  1       -2 0.31305556E-03 0.92678642E+02</pdfrwt>
<totfact> 0.23978489E+05</totfact>
</mgrwt>
</event>
<event>
 5    1  0.4059427E+001  0.8794961E+02  0.7546771E-02  0.1307894E+00
         -1   -1    0    0    0  501 -0.00000000000E+00  0.00000000000E+00  0.12970371665E+01  0.12970371665E+01  0.00000000000E+00 0.  1.
          1   -1    0    0  501    0  0.00000000000E+00 -0.00000000000E+00 -0.14909237330E+04  0.14909237330E+04  0.00000000000E+00 0. -1.
         23    2    1    2    0    0  0.00000000000E+00  0.00000000000E+00 -0.14896266959E+04  0.14922207702E+04  0.87949610439E+02 0.  0.
          2    1    3    3  502    0 -0.15095481406E+02 -0.14341394358E+02 -0.87641861293E+02  0.90081324379E+02  0.00000000000E+00 0.  1.
         -2    1    3    3    0  502  0.15095481406E+02  0.14341394358E+02 -0.14019848346E+04  0.14021394458E+04  0.00000000000E+00 0. -1.
<mgrwt>
<rscale>  0 0.87949610E+02</rscale>
<asrwt>0</asrwt>
<pdfrwt beam="2">  1        1 0.22937414E+00 0.87949610E+02</pdfrwt>
<pdfrwt beam="1">  1       -1 0.19954309E-03 0.87949610E+02</pdfrwt>
<totfact> 0.12216042E+05</totfact>
</mgrwt>
</event>
<event>
 5    1  0.4059427E+001  0.9209153E+02  0.7546771E-02  0.1297864E+00
          1   -1    0    0  501    0  0.00000000000E+00  0.00000000000E+00  0.28527409789E+03  0.28527409789E+03  0.00000000000E+00 0. -1.
         -1   -1    0    0    0  501 -0.00000000000E+00 -0.00000000000E+00 -0.74321939115E+01  0.74321939115E+01  0.00000000000E+00 0.  1.
         23    2    1    2    0    0  0.00000000000E+00  0.00000000000E+00  0.27784190398E+03  0.29270629180E+03  0.92091528676E+02 0.  0.
          2    1    3    3  502    0 -0.38756025766E+02  0.18974758877E+02  0.18998805379E+03  0.19482692727E+03  0.00000000000E+00 0. -1.
         -2    1    3    3    0  502  0.38756025766E+02 -0.18974758877E+02  0.87853850190E+02  0.97879364530E+02  0.00000000000E+00 0.  1.
<mgrwt>
<rscale>  0 0.92091529E+02</rscale>
<asrwt>0</asrwt>
<pdfrwt beam="1">  1        1 0.43888314E-01 0.92091529E+02</pdfrwt>
<pdfrwt beam="2">  1       -1 0.11434147E-02 0.92091529E+02</pdfrwt>
<totfact> 0.12355375E+05</totfact>
</mgrwt>
</event>
<event>
 5    1  0.4059427E+001  0.9130542E+02  0.7546771E-02  0.1299721E+00
          1   -1    0    0  501    0  0.00000000000E+00  0.00000000000E+00  0.12118188117E+04  0.12118188117E+04  0.00000000000E+00 0. -1.
         -1   -1    0    0    0  501 -0.00000000000E+00 -0.00000000000E+00 -0.17198691280E+01  0.17198691280E+01  0.00000000000E+00 0.  1.
         23    2    1    2    0    0  0.00000000000E+00  0.00000000000E+00  0.12100989425E+04  0.12135386808E+04  0.91305416333E+02 0.  0.
          2    1    3    3  502    0  0.19730015249E+02 -0.23916885317E+02  0.10504221123E+04  0.10508795863E+04  0.00000000000E+00 0. -1.
         -2    1    3    3    0  502 -0.19730015249E+02  0.23916885317E+02  0.15967683025E+03  0.16265909450E+03  0.00000000000E+00 0.  1.
<mgrwt>
<rscale>  0 0.91305416E+02</rscale>
<asrwt>0</asrwt>
<pdfrwt beam="1">  1        1 0.18643298E+00 0.91305416E+02</pdfrwt>
<pdfrwt beam="2">  1       -1 0.26459622E-03 0.91305416E+02</pdfrwt>
<totfact> 0.12623730E+05</totfact>
</mgrwt>
</event>
<event>
 5    1  0.4059427E+001  0.8360000E+02  0.7546771E-02  0.1319135E+00
          2   -1    0    0  501    0  0.00000000000E+00  0.00000000000E+00  0.23424780919E+04  0.23424780919E+04  0.00000000000E+00 0.  1.
         -2   -1    0    0    0  501 -0.00000000000E+00 -0.00000000000E+00 -0.74589392308E+00  0.74589392308E+00  0.00000000000E+00 0. -1.
         23    2    1    2    0    0  0.00000000000E+00  0.00000000000E+00  0.23417321980E+04  0.23432239859E+04  0.83600004156E+02 0.  0.
          2    1    3    3  502    0  0.15010081686E+01  0.39308954278E+02  0.77468119467E+03  0.77567931536E+03  0.00000000000E+00 0. -1.
         -2    1    3    3    0  502 -0.15010081686E+01 -0.39308954278E+02  0.15670510034E+04  0.15675446705E+04  0.00000000000E+00 0.  1.
<mgrwt>
<rscale>  0 0.83600004E+02</rscale>
<asrwt>0</asrwt>
<pdfrwt beam="1">  1        2 0.36037536E+00 0.83600004E+02</pdfrwt>
<pdfrwt beam="2">  1       -2 0.11475479E-03 0.83600004E+02</pdfrwt>
<totfact> 0.20623480E+05</totfact>
</mgrwt>
</event>
<event>
 5    1  0.4059427E+001  0.9174822E+02  0.7546771E-02  0.1298673E+00
         -1   -1    0    0    0  501 -0.00000000000E+00  0.00000000000E+00  0.80537921449E+00  0.80537921449E+00  0.00000000000E+00 0.  1.
          1   -1    0    0  501    0  0.00000000000E+00 -0.00000000000E+00 -0.26129726815E+04  0.26129726815E+04  0.00000000000E+00 0. -1.
         23    2    1    2    0    0  0.00000000000E+00  0.00000000000E+00 -0.26121673023E+04  0.26137780607E+04  0.91748218200E+02 0.  0.
          2    1    3    3  502    0 -0.37245832861E+02  0.24180054072E+02 -0.97814684607E+03  0.97915431856E+03  0.00000000000E+00 0. -1.
         -2    1    3    3    0  502  0.37245832861E+02 -0.24180054072E+02 -0.16340204562E+04  0.16346237422E+04  0.00000000000E+00 0.  1.
<mgrwt>
<rscale>  0 0.91748218E+02</rscale>
<asrwt>0</asrwt>
<pdfrwt beam="2">  1        1 0.40199229E+00 0.91748218E+02</pdfrwt>
<pdfrwt beam="1">  1       -1 0.12390558E-03 0.91748218E+02</pdfrwt>
<totfact> 0.46203040E+04</totfact>
</mgrwt>
</event>
<event>
 5    1  0.4059427E+001  0.8707769E+02  0.7546771E-02  0.1310087E+00
         -2   -1    0    0    0  501 -0.00000000000E+00  0.00000000000E+00  0.23112714398E+02  0.23112714398E+02  0.00000000000E+00 0. -1.
          2   -1    0    0  501    0  0.00000000000E+00 -0.00000000000E+00 -0.82016806352E+02  0.82016806352E+02  0.00000000000E+00 0.  1.
         23    2    1    2    0    0  0.00000000000E+00  0.00000000000E+00 -0.58904091955E+02  0.10512952075E+03  0.87077689933E+02 0.  0.
          2    1    3    3  502    0 -0.33066564425E+02  0.11229217636E+02  0.19411449075E+01  0.34975149108E+02  0.00000000000E+00 0. -1.
         -2    1    3    3    0  502  0.33066564425E+02 -0.11229217636E+02 -0.60845236862E+02  0.70154371641E+02  0.00000000000E+00 0.  1.
<mgrwt>
<rscale>  0 0.87077690E+02</rscale>
<asrwt>0</asrwt>
<pdfrwt beam="2">  1        2 0.12617970E-01 0.87077690E+02</pdfrwt>
<pdfrwt beam="1">  1       -2 0.35558022E-02 0.87077690E+02</pdfrwt>
<totfact> 0.13136256E+05</totfact>
</mgrwt>
</event>
<event>
 5    1  0.4059427E+001  0.9026078E+02  0.7546771E-02  0.1302221E+00
          2   -1    0    0  501    0  0.00000000000E+00  0.00000000000E+00  0.81775762074E+03  0.81775762074E+03  0.00000000000E+00 0. -1.
         -2   -1    0    0    0  501 -0.00000000000E+00 -0.00000000000E+00 -0.24906552266E+01  0.24906552266E+01  0.00000000000E+00 0.  1.
         23    2    1    2    0    0  0.00000000000E+00  0.00000000000E+00  0.81526696551E+03  0.82024827596E+03  0.90260784225E+02 0.  0.
          2    1    3    3  502    0 -0.42863329080E+02  0.17596040135E+01  0.53498588217E+03  0.53670313518E+03  0.00000000000E+00 0. -1.
         -2    1    3    3    0  502  0.42863329080E+02 -0.17596040135E+01  0.28028108334E+03  0.28354514079E+03  0.00000000000E+00 0.  1.
<mgrwt>
<rscale>  0 0.90260784E+02</rscale>
<asrwt>0</asrwt>
<pdfrwt beam="1">  1        2 0.12580865E+00 0.90260784E+02</pdfrwt>
<pdfrwt beam="2">  1       -2 0.38317838E-03 0.90260784E+02</pdfrwt>
<totfact> 0.25124519E+05</totfact>
</mgrwt>
</event>
<event>
 5    1  0.4059427E+001  0.8800490E+02  0.7546771E-02  0.1307756E+00
         -1   -1    0    0    0  501 -0.00000000000E+00  0.00000000000E+00  0.10577669921E+01  0.10577669921E+01  0.00000000000E+00 0.  1.
          1   -1    0    0  501    0  0.00000000000E+00 -0.00000000000E+00 -0.18304747405E+04  0.18304747405E+04  0.00000000000E+00 0. -1.
         23    2    1    2    0    0  0.00000000000E+00  0.00000000000E+00 -0.18294169735E+04  0.18315325075E+04  0.88004903510E+02 0.  0.
          2    1    3    3  502    0  0.33269937435E+02  0.25166214075E+02 -0.12060640185E+04  0.12067852518E+04  0.00000000000E+00 0. -1.
         -2    1    3    3    0  502 -0.33269937435E+02 -0.25166214075E+02 -0.62335295502E+03  0.62474725578E+03  0.00000000000E+00 0.  1.
<mgrwt>
<rscale>  0 0.88004904E+02</rscale>
<asrwt>0</asrwt>
<pdfrwt beam="2">  1        1 0.28161069E+00 0.88004904E+02</pdfrwt>
<pdfrwt beam="1">  1       -1 0.16273385E-03 0.88004904E+02</pdfrwt>
<totfact> 0.98954773E+04</totfact>
</mgrwt>
</event>
<event>
 5    1  0.4059427E+001  0.9488529E+02  0.7546771E-02  0.1291435E+00
         -2   -1    0    0    0  501 -0.00000000000E+00  0.00000000000E+00  0.76344528093E+02  0.76344528093E+02  0.00000000000E+00 0.  1.
          2   -1    0    0  501    0  0.00000000000E+00 -0.00000000000E+00 -0.29482196466E+02  0.29482196466E+02  0.00000000000E+00 0. -1.
         23    2    1    2    0    0  0.00000000000E+00  0.00000000000E+00  0.46862331627E+02  0.10582672456E+03  0.94885286031E+02 0.  0.
          2    1    3    3  502    0 -0.43896639834E+02  0.13969876515E+02  0.36085509824E+02  0.58516975809E+02  0.00000000000E+00 0.  1.
         -2    1    3    3    0  502  0.43896639834E+02 -0.13969876515E+02  0.10776821803E+02  0.47309748749E+02  0.00000000000E+00 0. -1.
<mgrwt>
<rscale>  0 0.94885286E+02</rscale>
<asrwt>0</asrwt>
<pdfrwt beam="2">  1        2 0.45357225E-02 0.94885286E+02</pdfrwt>
<pdfrwt beam="1">  1       -2 0.11745312E-01 0.94885286E+02</pdfrwt>
<totfact> 0.78159600E+04</totfact>
</mgrwt>
</event>
<event>
 5    1  0.4059427E+001  0.9218098E+02  0.7546771E-02  0.1297654E+00
          1   -1    0    0  501    0  0.00000000000E+00  0.00000000000E+00  0.38396634260E+02  0.38396634260E+02  0.00000000000E+00 0. -1.
         -1   -1    0    0    0  501 -0.00000000000E+00 -0.00000000000E+00 -0.55326033114E+02  0.55326033114E+02  0.00000000000E+00 0.  1.
         23    2    1    2    0    0  0.00000000000E+00  0.00000000000E+00 -0.16929398854E+02  0.93722667374E+02  0.92180984125E+02 0.  0.
          2    1    3    3  502    0  0.23439528938E+02  0.27059541296E+02 -0.37979551631E+02  0.52192687554E+02  0.00000000000E+00 0.  1.
         -2    1    3    3    0  502 -0.23439528938E+02 -0.27059541296E+02  0.21050152776E+02  0.41529979821E+02  0.00000000000E+00 0. -1.
<mgrwt>
<rscale>  0 0.92180984E+02</rscale>
<asrwt>0</asrwt>
<pdfrwt beam="1">  1        1 0.59071745E-02 0.92180984E+02</pdfrwt>
<pdfrwt beam="2">  1       -1 0.85116974E-02 0.92180984E+02</pdfrwt>
<totfact> 0.87344303E+04</totfact>
</mgrwt>
</event>
<event>
 5    1  0.4059427E+001  0.9253839E+02  0.7546771E-02  0.1296818E+00
          3   -1    0    0  501    0  0.00000000000E+00  0.00000000000E+00  0.25134675927E+02  0.25134675927E+02  0.00000000000E+00 0. -1.
         -3   -1    0    0    0  501 -0.00000000000E+00 -0.00000000000E+00 -0.85174691066E+02  0.85174691066E+02  0.00000000000E+00 0.  1.
         23    2    1    2    0    0  0.00000000000E+00  0.00000000000E+00 -0.60040015139E+02  0.11030936699E+03  0.92538386784E+02 0.  0.
          2    1    3    3  502    0 -0.78708877983E+00 -0.43399740236E+02 -0.10922021166E+02  0.44759887261E+02  0.00000000000E+00 0. -1.
         -2    1    3    3    0  502  0.78708877983E+00  0.43399740236E+02 -0.49117993973E+02  0.65549479733E+02  0.00000000000E+00 0.  1.
<mgrwt>
<rscale>  0 0.92538387E+02</rscale>
<asrwt>0</asrwt>
<pdfrwt beam="1">  1        3 0.38668732E-02 0.92538387E+02</pdfrwt>
<pdfrwt beam="2">  1       -3 0.13103799E-01 0.92538387E+02</pdfrwt>
<totfact> 0.32581402E+04</totfact>
</mgrwt>
</event>
<event>
 5    1  0.4059427E+001  0.9185172E+02  0.7546771E-02  0.1298428E+00
         -3   -1    0    0    0  501 -0.00000000000E+00  0.00000000000E+00  0.27545346051E+03  0.27545346051E+03  0.00000000000E+00 0.  1.
          3   -1    0    0  501    0  0.00000000000E+00 -0.00000000000E+00 -0.76571364761E+01  0.76571364761E+01  0.00000000000E+00 0. -1.
         23    2    1    2    0    0  0.00000000000E+00  0.00000000000E+00  0.26779632403E+03  0.28311059699E+03  0.91851722683E+02 0.  0.
          2    1    3    3  502    0  0.33047789468E+02  0.30483345133E+01  0.36052357603E+02  0.49002257303E+02  0.00000000000E+00 0. -1.
         -2    1    3    3    0  502 -0.33047789468E+02 -0.30483345133E+01  0.23174396643E+03  0.23410833968E+03  0.00000000000E+00 0.  1.
<mgrwt>
<rscale>  0 0.91851723E+02</rscale>
<asrwt>0</asrwt>
<pdfrwt beam="2">  1        3 0.11780212E-02 0.91851723E+02</pdfrwt>
<pdfrwt beam="1">  1       -3 0.42377448E-01 0.91851723E+02</pdfrwt>
<totfact> 0.24207975E+04</totfact>
</mgrwt>
</event>
<event>
 5    1  0.4059427E+001  0.9308099E+02  0.7546771E-02  0.1295558E+00
          2   -1    0    0  501    0  0.00000000000E+00  0.00000000000E+00  0.19043375432E+04  0.19043375432E+04  0.00000000000E+00 0. -1.
         -2   -1    0    0    0  501 -0.00000000000E+00 -0.00000000000E+00 -0.11374127802E+01  0.11374127802E+01  0.00000000000E+00 0.  1.
         23    2    1    2    0    0  0.00000000000E+00  0.00000000000E+00  0.19032001305E+04  0.19054749560E+04  0.93080993967E+02 0.  0.
          2    1    3    3  502    0  0.43853283835E+02  0.14643563585E+02  0.84236504032E+03  0.84363286186E+03  0.00000000000E+00 0. -1.
         -2    1    3    3    0  502 -0.43853283835E+02 -0.14643563585E+02  0.10608350901E+04  0.10618420942E+04  0.00000000000E+00 0.  1.
<mgrwt>
<rscale>  0 0.93080994E+02</rscale>
<asrwt>0</asrwt>
<pdfrwt beam="1">  1        2 0.29297245E+00 0.93080994E+02</pdfrwt>
<pdfrwt beam="2">  1       -2 0.17498811E-03 0.93080994E+02</pdfrwt>
<totfact> 0.19449871E+05</totfact>
</mgrwt>
</event>
<event>
 5    1  0.4059427E+001  0.9068686E+02  0.7546771E-02  0.1301197E+00
         -1   -1    0    0    0  501 -0.00000000000E+00  0.00000000000E+00  0.20418005510E+02  0.20418005510E+02  0.00000000000E+00 0.  1.
          1   -1    0    0  501    0  0.00000000000E+00 -0.00000000000E+00 -0.10069674453E+03  0.10069674453E+03  0.00000000000E+00 0. -1.
         23    2    1    2    0    0  0.00000000000E+00  0.00000000000E+00 -0.80278739024E+02  0.12111475004E+03  0.90686860895E+02 0.  0.
          2    1    3    3  502    0 -0.30848858268E+02 -0.29708500792E-01 -0.84521761505E+02  0.89975447245E+02  0.00000000000E+00 0. -1.
         -2    1    3    3    0  502  0.30848858268E+02  0.29708500792E-01  0.42430224808E+01  0.31139302799E+02  0.00000000000E+00 0.  1.
<mgrwt>
<rscale>  0 0.90686861E+02</rscale>
<asrwt>0</asrwt>
<pdfrwt beam="2">  1        1 0.15491807E-01 0.90686861E+02</pdfrwt>
<pdfrwt beam="1">  1       -1 0.31412316E-02 0.90686861E+02</pdfrwt>
<totfact> 0.10611843E+05</totfact>
</mgrwt>
</event>
<event>
 5    1  0.4059427E+001  0.1010743E+03  0.7546771E-02  0.1278053E+00
          1   -1    0    0  501    0  0.00000000000E+00  0.00000000000E+00  0.16204465930E+03  0.16204465930E+03  0.00000000000E+00 0. -1.
         -1   -1    0    0    0  501 -0.00000000000E+00 -0.00000000000E+00 -0.15761112719E+02  0.15761112719E+02  0.00000000000E+00 0.  1.
         23    2    1    2    0    0  0.00000000000E+00  0.00000000000E+00  0.14628354658E+03  0.17780577202E+03  0.10107431208E+03 0.  0.
          2    1    3    3  502    0  0.45494897733E+02 -0.20871144247E+02  0.85407256481E+02  0.98993887899E+02  0.00000000000E+00 0. -1.
         -2    1    3    3    0  502 -0.45494897733E+02  0.20871144247E+02  0.60876290099E+02  0.78811884118E+02  0.00000000000E+00 0.  1.
<mgrwt>
<rscale>  0 0.10107431E+03</rscale>
<asrwt>0</asrwt>
<pdfrwt beam="1">  1        1 0.24929946E-01 0.10107431E+03</pdfrwt>
<pdfrwt beam="2">  1       -1 0.24247867E-02 0.10107431E+03</pdfrwt>
<totfact> 0.86023435E+04</totfact>
</mgrwt>
</event>
<event>
 5    1  0.4059427E+001  0.1130496E+03  0.7546771E-02  0.1255024E+00
         -1   -1    0    0    0  501 -0.00000000000E+00  0.00000000000E+00  0.26956769197E+02  0.26956769197E+02  0.00000000000E+00 0.  1.
          1   -1    0    0  501    0  0.00000000000E+00 -0.00000000000E+00 -0.11852509797E+03  0.11852509797E+03  0.00000000000E+00 0. -1.
         23    2    1    2    0    0  0.00000000000E+00  0.00000000000E+00 -0.91568328768E+02  0.14548186716E+03  0.11304961229E+03 0.  0.
          2    1    3    3  502    0  0.28470475983E+01 -0.25555318636E+02 -0.11056287101E+03  0.11351356058E+03  0.00000000000E+00 0. -1.
         -2    1    3    3    0  502 -0.28470475983E+01  0.25555318636E+02  0.18994542241E+02  0.31968306579E+02  0.00000000000E+00 0.  1.
<mgrwt>
<rscale>  0 0.11304961E+03</rscale>
<asrwt>0</asrwt>
<pdfrwt beam="2">  1        1 0.18234631E-01 0.11304961E+03</pdfrwt>
<pdfrwt beam="1">  1       -1 0.41471952E-02 0.11304961E+03</pdfrwt>
<totfact> 0.59489870E+04</totfact>
</mgrwt>
</event>
<event>
 5    1  0.4059427E+001  0.9638093E+02  0.7546771E-02  0.1288096E+00
         -2   -1    0    0    0  501 -0.00000000000E+00  0.00000000000E+00  0.11184866886E+02  0.11184866886E+02  0.00000000000E+00 0.  1.
          2   -1    0    0  501    0  0.00000000000E+00 -0.00000000000E+00 -0.20763062015E+03  0.20763062015E+03  0.00000000000E+00 0. -1.
         23    2    1    2    0    0  0.00000000000E+00  0.00000000000E+00 -0.19644575327E+03  0.21881548704E+03  0.96380928569E+02 0.  0.
          2    1    3    3  502    0  0.36118754696E+02  0.92175275762E+01 -0.16756222048E+03  0.17165845446E+03  0.00000000000E+00 0. -1.
         -2    1    3    3    0  502 -0.36118754696E+02 -0.92175275762E+01 -0.28883532783E+02  0.47157032577E+02  0.00000000000E+00 0.  1.
<mgrwt>
<rscale>  0 0.96380929E+02</rscale>
<asrwt>0</asrwt>
<pdfrwt beam="2">  1        2 0.31943172E-01 0.96380929E+02</pdfrwt>
<pdfrwt beam="1">  1       -2 0.17207488E-02 0.96380929E+02</pdfrwt>
<totfact> 0.13496749E+05</totfact>
</mgrwt>
</event>
<event>
 5    1  0.4059427E+001  0.8346307E+02  0.7546771E-02  0.1319501E+00
         -1   -1    0    0    0  501 -0.00000000000E+00  0.00000000000E+00  0.70497923400E+02  0.70497923400E+02  0.00000000000E+00 0.  1.
          1   -1    0    0  501    0  0.00000000000E+00 -0.00000000000E+00 -0.24703150743E+02  0.24703150743E+02  0.00000000000E+00 0. -1.
         23    2    1    2    0    0  0.00000000000E+00  0.00000000000E+00  0.45794772657E+02  0.95201074143E+02  0.83463065575E+02 0.  0.
          2    1    3    3  502    0  0.24190275254E+02  0.30810931691E+02  0.64849730791E+01  0.39705639453E+02  0.00000000000E+00 0. -1.
         -2    1    3    3    0  502 -0.24190275254E+02 -0.30810931691E+02  0.39309799578E+02  0.55495434689E+02  0.00000000000E+00 0.  1.
<mgrwt>
<rscale>  0 0.83463066E+02</rscale>
<asrwt>0</asrwt>
<pdfrwt beam="2">  1        1 0.38004847E-02 0.83463066E+02</pdfrwt>
<pdfrwt beam="1">  1       -1 0.10845834E-01 0.83463066E+02</pdfrwt>
<totfact> 0.10825558E+05</totfact>
</mgrwt>
</event>
<event>
 5    1  0.4059427E+001  0.9015324E+02  0.7546771E-02  0.1302481E+00
          1   -1    0    0  501    0  0.00000000000E+00  0.00000000000E+00  0.79587404293E+01  0.79587404293E+01  0.00000000000E+00 0. -1.
         -1   -1    0    0    0  501 -0.00000000000E+00 -0.00000000000E+00 -0.25530440966E+03  0.25530440966E+03  0.00000000000E+00 0.  1.
         23    2    1    2    0    0  0.00000000000E+00  0.00000000000E+00 -0.24734566923E+03  0.26326315009E+03  0.90153236812E+02 0.  0.
          2    1    3    3  502    0  0.27837052072E+02  0.33030266211E+01 -0.20590684682E+02  0.34782003229E+02  0.00000000000E+00 0. -1.
         -2    1    3    3    0  502 -0.27837052072E+02 -0.33030266211E+01 -0.22675498455E+03  0.22848114686E+03  0.00000000000E+00 0.  1.
<mgrwt>
<rscale>  0 0.90153237E+02</rscale>
<asrwt>0</asrwt>
<pdfrwt beam="1">  1        1 0.12244217E-02 0.90153237E+02</pdfrwt>
<pdfrwt beam="2">  1       -1 0.39277600E-01 0.90153237E+02</pdfrwt>
<totfact> 0.66224534E+04</totfact>
</mgrwt>
</event>
<event>
 5    1  0.4059427E+001  0.9329572E+02  0.7546771E-02  0.1295061E+00
         -4   -1    0    0    0  501 -0.00000000000E+00  0.00000000000E+00  0.20181127089E+03  0.20181127089E+03  0.00000000000E+00 0.  1.
          4   -1    0    0  501    0  0.00000000000E+00 -0.00000000000E+00 -0.10782465388E+02  0.10782465388E+02  0.00000000000E+00 0. -1.
         23    2    1    2    0    0  0.00000000000E+00  0.00000000000E+00  0.19102880550E+03  0.21259373628E+03  0.93295724301E+02 0.  0.
          2    1    3    3  502    0  0.20926362009E+02 -0.41669009214E+02  0.98575079859E+02  0.10904707848E+03  0.00000000000E+00 0. -1.
         -2    1    3    3    0  502 -0.20926362009E+02  0.41669009214E+02  0.92453725646E+02  0.10354665780E+03  0.00000000000E+00 0.  1.
<mgrwt>
<rscale>  0 0.93295724E+02</rscale>
<asrwt>0</asrwt>
<pdfrwt beam="2">  1        4 0.16588410E-02 0.93295724E+02</pdfrwt>
<pdfrwt beam="1">  1       -4 0.31047885E-01 0.93295724E+02</pdfrwt>
<totfact> 0.19623831E+04</totfact>
</mgrwt>
</event>
<event>
 5    1  0.4059427E+001  0.9112443E+02  0.7546771E-02  0.1300151E+00
          3   -1    0    0  501    0  0.00000000000E+00  0.00000000000E+00  0.43786249569E+02  0.43786249569E+02  0.00000000000E+00 0. -1.
         -3   -1    0    0    0  501 -0.00000000000E+00 -0.00000000000E+00 -0.47410214417E+02  0.47410214417E+02  0.00000000000E+00 0.  1.
         23    2    1    2    0    0  0.00000000000E+00  0.00000000000E+00 -0.36239648477E+01  0.91196463985E+02  0.91124430984E+02 0.  0.
          2    1    3    3  502    0  0.72303352321E+01 -0.26655471814E+02  0.34453709344E+02  0.44157106028E+02  0.00000000000E+00 0. -1.
         -2    1    3    3    0  502 -0.72303352321E+01  0.26655471814E+02 -0.38077674191E+02  0.47039357957E+02  0.00000000000E+00 0.  1.
<mgrwt>
<rscale>  0 0.91124431E+02</rscale>
<asrwt>0</asrwt>
<pdfrwt beam="1">  1        3 0.67363461E-02 0.91124431E+02</pdfrwt>
<pdfrwt beam="2">  1       -3 0.72938791E-02 0.91124431E+02</pdfrwt>
<totfact> 0.35392677E+04</totfact>
</mgrwt>
</event>
<event>
 5    1  0.4059427E+001  0.9268209E+02  0.7546771E-02  0.1296484E+00
          1   -1    0    0  501    0  0.00000000000E+00  0.00000000000E+00  0.83319334381E+03  0.83319334381E+03  0.00000000000E+00 0. -1.
         -1   -1    0    0    0  501 -0.00000000000E+00 -0.00000000000E+00 -0.25774239937E+01  0.25774239937E+01  0.00000000000E+00 0.  1.
         23    2    1    2    0    0  0.00000000000E+00  0.00000000000E+00  0.83061591982E+03  0.83577076781E+03  0.92682091381E+02 0.  0.
          2    1    3    3  502    0  0.37209582367E+02  0.27402162444E+02  0.44662515196E+03  0.44900941849E+03  0.00000000000E+00 0. -1.
         -2    1    3    3    0  502 -0.37209582367E+02 -0.27402162444E+02  0.38399076786E+03  0.38676134932E+03  0.00000000000E+00 0.  1.
<mgrwt>
<rscale>  0 0.92682091E+02</rscale>
<asrwt>0</asrwt>
<pdfrwt beam="1">  1        1 0.12818338E+00 0.92682091E+02</pdfrwt>
<pdfrwt beam="2">  1       -1 0.39652743E-03 0.92682091E+02</pdfrwt>
<totfact> 0.13475425E+05</totfact>
</mgrwt>
</event>
<event>
 5    1  0.4059427E+001  0.9017054E+02  0.7546771E-02  0.1302439E+00
          4   -1    0    0  501    0  0.00000000000E+00  0.00000000000E+00  0.84329870652E+03  0.84329870652E+03  0.00000000000E+00 0. -1.
         -4   -1    0    0    0  501 -0.00000000000E+00 -0.00000000000E+00 -0.24103934349E+01  0.24103934349E+01  0.00000000000E+00 0.  1.
         23    2    1    2    0    0  0.00000000000E+00  0.00000000000E+00  0.84088831308E+03  0.84570909995E+03  0.90170542104E+02 0.  0.
          2    1    3    3  502    0  0.31537936925E+02  0.18237509508E+02  0.66955024750E+03  0.67054066405E+03  0.00000000000E+00 0. -1.
         -2    1    3    3    0  502 -0.31537936925E+02 -0.18237509508E+02  0.17133806558E+03  0.17516843590E+03  0.00000000000E+00 0.  1.
<mgrwt>
<rscale>  0 0.90170542E+02</rscale>
<asrwt>0</asrwt>
<pdfrwt beam="1">  1        4 0.12973803E+00 0.90170542E+02</pdfrwt>
<pdfrwt beam="2">  1       -4 0.37083043E-03 0.90170542E+02</pdfrwt>
<totfact> 0.86976545E+03</totfact>
</mgrwt>
</event>
<event>
 5    1  0.4059427E+001  0.9026105E+02  0.7546771E-02  0.1302221E+00
          1   -1    0    0  501    0  0.00000000000E+00  0.00000000000E+00  0.13937410148E+03  0.13937410148E+03  0.00000000000E+00 0.  1.
         -1   -1    0    0    0  501 -0.00000000000E+00 -0.00000000000E+00 -0.14613648725E+02  0.14613648725E+02  0.00000000000E+00 0. -1.
         23    2    1    2    0    0  0.00000000000E+00  0.00000000000E+00  0.12476045275E+03  0.15398775020E+03  0.90261047199E+02 0.  0.
          2    1    3    3  502    0  0.34684988504E+01  0.42990552006E+02  0.85048314261E+02  0.95359497716E+02  0.00000000000E+00 0.  1.
         -2    1    3    3    0  502 -0.34684988504E+01 -0.42990552006E+02  0.39712138489E+02  0.58628252485E+02  0.00000000000E+00 0. -1.
<mgrwt>
<rscale>  0 0.90261047E+02</rscale>
<asrwt>0</asrwt>
<pdfrwt beam="1">  1        1 0.21442169E-01 0.90261047E+02</pdfrwt>
<pdfrwt beam="2">  1       -1 0.22482537E-02 0.90261047E+02</pdfrwt>
<totfact> 0.11369626E+05</totfact>
</mgrwt>
</event>
<event>
 5    1  0.4059427E+001  0.9127502E+02  0.7546771E-02  0.1299793E+00
         -2   -1    0    0    0  501 -0.00000000000E+00  0.00000000000E+00  0.22359941627E+02  0.22359941627E+02  0.00000000000E+00 0.  1.
          2   -1    0    0  501    0  0.00000000000E+00 -0.00000000000E+00 -0.93147927651E+02  0.93147927651E+02  0.00000000000E+00 0. -1.
         23    2    1    2    0    0  0.00000000000E+00  0.00000000000E+00 -0.70787986024E+02  0.11550786928E+03  0.91275017940E+02 0.  0.
          2    1    3    3  502    0 -0.19248755117E+02  0.34647138229E+02 -0.67635395480E+01  0.40208011991E+02  0.00000000000E+00 0.  1.
         -2    1    3    3    0  502  0.19248755117E+02 -0.34647138229E+02 -0.64024446476E+02  0.75299857288E+02  0.00000000000E+00 0. -1.
<mgrwt>
<rscale>  0 0.91275018E+02</rscale>
<asrwt>0</asrwt>
<pdfrwt beam="2">  1        2 0.14330450E-01 0.91275018E+02</pdfrwt>
<pdfrwt beam="1">  1       -2 0.34399911E-02 0.91275018E+02</pdfrwt>
<totfact> 0.11972202E+05</totfact>
</mgrwt>
</event>
<event>
 5    1  0.4059427E+001  0.9196332E+02  0.7546771E-02  0.1298166E+00
         -2   -1    0    0    0  501 -0.00000000000E+00  0.00000000000E+00  0.64399639313E+02  0.64399639313E+02  0.00000000000E+00 0.  1.
          2   -1    0    0  501    0  0.00000000000E+00 -0.00000000000E+00 -0.32831135500E+02  0.32831135500E+02  0.00000000000E+00 0. -1.
         23    2    1    2    0    0  0.00000000000E+00  0.00000000000E+00  0.31568503813E+02  0.97230774814E+02  0.91963324961E+02 0.  0.
          2    1    3    3  502    0  0.45373224464E+02 -0.72572184541E+01  0.13978637444E+02  0.48029147637E+02  0.00000000000E+00 0. -1.
         -2    1    3    3    0  502 -0.45373224464E+02  0.72572184541E+01  0.17589866368E+02  0.49201627176E+02  0.00000000000E+00 0.  1.
<mgrwt>
<rscale>  0 0.91963325E+02</rscale>
<asrwt>0</asrwt>
<pdfrwt beam="2">  1        2 0.50509439E-02 0.91963325E+02</pdfrwt>
<pdfrwt beam="1">  1       -2 0.99076368E-02 0.91963325E+02</pdfrwt>
<totfact> 0.88338705E+04</totfact>
</mgrwt>
</event>
<event>
 5    1  0.4059427E+001  0.8753157E+02  0.7546771E-02  0.1308942E+00
         -1   -1    0    0    0  501 -0.00000000000E+00  0.00000000000E+00  0.58964382279E+03  0.58964382279E+03  0.00000000000E+00 0.  1.
          1   -1    0    0  501    0  0.00000000000E+00 -0.00000000000E+00 -0.32484765786E+01  0.32484765786E+01  0.00000000000E+00 0. -1.
         23    2    1    2    0    0  0.00000000000E+00  0.00000000000E+00  0.58639534621E+03  0.59289229936E+03  0.87531574829E+02 0.  0.
          2    1    3    3  502    0 -0.34267374366E+02  0.26040317036E+02  0.34700011274E+03  0.34965901862E+03  0.00000000000E+00 0. -1.
         -2    1    3    3    0  502  0.34267374366E+02 -0.26040317036E+02  0.23939523347E+03  0.24323328075E+03  0.00000000000E+00 0.  1.
<mgrwt>
<rscale>  0 0.87531575E+02</rscale>
<asrwt>0</asrwt>
<pdfrwt beam="2">  1        1 0.49976610E-03 0.87531575E+02</pdfrwt>
<pdfrwt beam="1">  1       -1 0.90714349E-01 0.87531575E+02</pdfrwt>
<totfact> 0.46899519E+04</totfact>
</mgrwt>
</event>
<event>
 5    1  0.4059427E+001  0.9590069E+02  0.7546771E-02  0.1289160E+00
          2   -1    0    0  501    0  0.00000000000E+00  0.00000000000E+00  0.39518155589E+03  0.39518155589E+03  0.00000000000E+00 0. -1.
         -2   -1    0    0    0  501 -0.00000000000E+00 -0.00000000000E+00 -0.58181752473E+01  0.58181752473E+01  0.00000000000E+00 0.  1.
         23    2    1    2    0    0  0.00000000000E+00  0.00000000000E+00  0.38936338065E+03  0.40099973114E+03  0.95900689188E+02 0.  0.
          2    1    3    3  502    0  0.25109874511E+01 -0.38770940385E+02  0.77174158284E+02  0.86402208208E+02  0.00000000000E+00 0.  1.
         -2    1    3    3    0  502 -0.25109874511E+01  0.38770940385E+02  0.31218922236E+03  0.31459752293E+03  0.00000000000E+00 0. -1.
<mgrwt>
<rscale>  0 0.95900689E+02</rscale>
<asrwt>0</asrwt>
<pdfrwt beam="1">  1        2 0.60797142E-01 0.95900689E+02</pdfrwt>
<pdfrwt beam="2">  1       -2 0.89510419E-03 0.95900689E+02</pdfrwt>
<totfact> 0.17373851E+05</totfact>
</mgrwt>
</event>
<event>
 5    1  0.4059427E+001  0.9012746E+02  0.7546771E-02  0.1302543E+00
          1   -1    0    0  501    0  0.00000000000E+00  0.00000000000E+00  0.69751674887E+02  0.69751674887E+02  0.00000000000E+00 0. -1.
         -1   -1    0    0    0  501 -0.00000000000E+00 -0.00000000000E+00 -0.29113851766E+02  0.29113851766E+02  0.00000000000E+00 0.  1.
         23    2    1    2    0    0  0.00000000000E+00  0.00000000000E+00  0.40637823121E+02  0.98865526653E+02  0.90127463586E+02 0.  0.
          2    1    3    3  502    0 -0.44165367940E+02  0.18798083405E+01  0.29921256035E+02  0.53379724310E+02  0.00000000000E+00 0. -1.
         -2    1    3    3    0  502  0.44165367940E+02 -0.18798083405E+01  0.10716567085E+02  0.45485802343E+02  0.00000000000E+00 0.  1.
<mgrwt>
<rscale>  0 0.90127464E+02</rscale>
<asrwt>0</asrwt>
<pdfrwt beam="1">  1        1 0.10731027E-01 0.90127464E+02</pdfrwt>
<pdfrwt beam="2">  1       -1 0.44790541E-02 0.90127464E+02</pdfrwt>
<totfact> 0.10180725E+05</totfact>
</mgrwt>
</event>
<event>
 5    1  0.4059427E+001  0.9144146E+02  0.7546771E-02  0.1299398E+00
         -1   -1    0    0    0  501 -0.00000000000E+00  0.00000000000E+00  0.32294132911E+01  0.32294132911E+01  0.00000000000E+00 0.  1.
          1   -1    0    0  501    0  0.00000000000E+00 -0.00000000000E+00 -0.64729561095E+03  0.64729561095E+03  0.00000000000E+00 0. -1.
         23    2    1    2    0    0  0.00000000000E+00  0.00000000000E+00 -0.64406619765E+03  0.65052502424E+03  0.91441457759E+02 0.  0.
          2    1    3    3  502    0  0.34083235684E+02  0.30162312373E+02 -0.29106176374E+03  0.29459868016E+03  0.00000000000E+00 0. -1.
         -2    1    3    3    0  502 -0.34083235684E+02 -0.30162312373E+02 -0.35300443392E+03  0.35592634407E+03  0.00000000000E+00 0.  1.
<mgrwt>
<rscale>  0 0.91441458E+02</rscale>
<asrwt>0</asrwt>
<pdfrwt beam="2">  1        1 0.99583937E-01 0.91441458E+02</pdfrwt>
<pdfrwt beam="1">  1       -1 0.49683283E-03 0.91441458E+02</pdfrwt>
<totfact> 0.14098048E+05</totfact>
</mgrwt>
</event>
<event>
 5    1  0.4059427E+001  0.9319487E+02  0.7546771E-02  0.1295294E+00
         -2   -1    0    0    0  501 -0.00000000000E+00  0.00000000000E+00  0.61334788494E+03  0.61334788494E+03  0.00000000000E+00 0.  1.
          2   -1    0    0  501    0  0.00000000000E+00 -0.00000000000E+00 -0.35401135353E+01  0.35401135353E+01  0.00000000000E+00 0. -1.
         23    2    1    2    0    0  0.00000000000E+00  0.00000000000E+00  0.60980777141E+03  0.61688799848E+03  0.93194874308E+02 0.  0.
          2    1    3    3  502    0  0.15510365579E+02  0.20567653782E+02  0.56192856931E+03  0.56251872576E+03  0.00000000000E+00 0.  1.
         -2    1    3    3    0  502 -0.15510365579E+02 -0.20567653782E+02  0.47879202097E+02  0.54369272718E+02  0.00000000000E+00 0. -1.
<mgrwt>
<rscale>  0 0.93194874E+02</rscale>
<asrwt>0</asrwt>
<pdfrwt beam="2">  1        2 0.54463334E-03 0.93194874E+02</pdfrwt>
<pdfrwt beam="1">  1       -2 0.94361128E-01 0.93194874E+02</pdfrwt>
<totfact> 0.28975082E+04</totfact>
</mgrwt>
</event>
<event>
 5    1  0.4059427E+001  0.9137445E+02  0.7546771E-02  0.1299557E+00
          1   -1    0    0  501    0  0.00000000000E+00  0.00000000000E+00  0.30229000766E+01  0.30229000766E+01  0.00000000000E+00 0. -1.
         -1   -1    0    0    0  501 -0.00000000000E+00 -0.00000000000E+00 -0.69050335773E+03  0.69050335773E+03  0.00000000000E+00 0.  1.
         23    2    1    2    0    0  0.00000000000E+00  0.00000000000E+00 -0.68748045765E+03  0.69352625781E+03  0.91374452731E+02 0.  0.
          2    1    3    3  502    0 -0.19882457580E+02  0.39005562109E+02 -0.24461186896E+03  0.24849891837E+03  0.00000000000E+00 0. -1.
         -2    1    3    3    0  502  0.19882457580E+02 -0.39005562109E+02 -0.44286858869E+03  0.44502733944E+03  0.00000000000E+00 0.  1.
<mgrwt>
<rscale>  0 0.91374453E+02</rscale>
<asrwt>0</asrwt>
<pdfrwt beam="1">  1        1 0.46506113E-03 0.91374453E+02</pdfrwt>
<pdfrwt beam="2">  1       -1 0.10623138E+00 0.91374453E+02</pdfrwt>
<totfact> 0.37061832E+04</totfact>
</mgrwt>
</event>
<event>
 5    1  0.4059427E+001  0.9131603E+02  0.7546771E-02  0.1299696E+00
         -1   -1    0    0    0  501 -0.00000000000E+00  0.00000000000E+00  0.25215897121E+01  0.25215897121E+01  0.00000000000E+00 0.  1.
          1   -1    0    0  501    0  0.00000000000E+00 -0.00000000000E+00 -0.82672219531E+03  0.82672219531E+03  0.00000000000E+00 0. -1.
         23    2    1    2    0    0  0.00000000000E+00  0.00000000000E+00 -0.82420060560E+03  0.82924378503E+03  0.91316026686E+02 0.  0.
          2    1    3    3  502    0 -0.25438859290E+02  0.28904557996E+02 -0.63491803467E+03  0.63608452251E+03  0.00000000000E+00 0. -1.
         -2    1    3    3    0  502  0.25438859290E+02 -0.28904557996E+02 -0.18928257093E+03  0.19315926251E+03  0.00000000000E+00 0.  1.
<mgrwt>
<rscale>  0 0.91316027E+02</rscale>
<asrwt>0</asrwt>
<pdfrwt beam="2">  1        1 0.12718813E+00 0.91316027E+02</pdfrwt>
<pdfrwt beam="1">  1       -1 0.38793656E-03 0.91316027E+02</pdfrwt>
<totfact> 0.14027661E+05</totfact>
</mgrwt>
</event>
