<event>
 4    1  0.3974123E+000  0.2075535E+03  0.7546771E-02  0.1143518E+00
         21   -1    0    0  501  502  0.00000000000E+00  0.00000000000E+00  0.38823179441E+03  0.38823179441E+03  0.00000000000E+00 0.  1.
         21   -1    0    0  502  503 -0.00000000000E+00 -0.00000000000E+00 -0.11625664151E+03  0.11625664151E+03  0.00000000000E+00 0.  1.
          6    1    1    2  501    0 -0.83977461123E+02  0.78084798714E+02  0.18982524408E+03  0.28126868481E+03  0.17300000000E+03 0.  1.
         -6    1    1    2    0  503  0.83977461123E+02 -0.78084798714E+02  0.82149908819E+02  0.22321975111E+03  0.17300000000E+03 0.  1.
<mgrwt>
<rscale>  2 0.20755349E+03</rscale>
<asrwt>0</asrwt>
<pdfrwt beam="1">  1       21 0.59727968E-01 0.20755349E+03</pdfrwt>
<pdfrwt beam="2">  1       21 0.17885637E-01 0.20755349E+03</pdfrwt>
<totfact> 0.73845147E+04</totfact>
</mgrwt>
</event>
<event>
 4    1  0.3974123E+000  0.3005766E+03  0.7546771E-02  0.1084953E+00
         21   -1    0    0  501  502  0.00000000000E+00  0.00000000000E+00  0.27709154473E+03  0.27709154473E+03  0.00000000000E+00 0. -1.
         21   -1    0    0  502  503 -0.00000000000E+00 -0.00000000000E+00 -0.17189998712E+04  0.17189998712E+04  0.00000000000E+00 0.  1.
          6    1    1    2  501    0  0.11688464248E+03 -0.21622970487E+03  0.17746687181E+03  0.34905700896E+03  0.17300000000E+03 0. -1.
         -6    1    1    2    0  503 -0.11688464248E+03  0.21622970487E+03 -0.16193751983E+04  0.16470344070E+04  0.17300000000E+03 0.  1.
<mgrwt>
<rscale>  2 0.30057662E+03</rscale>
<asrwt>0</asrwt>
<pdfrwt beam="1">  1       21 0.42629468E-01 0.30057662E+03</pdfrwt>
<pdfrwt beam="2">  1       21 0.26446152E+00 0.30057662E+03</pdfrwt>
<totfact> 0.25632059E+02</totfact>
</mgrwt>
</event>
<event>
 4    1  0.3974123E+000  0.1862784E+03  0.7546771E-02  0.1161861E+00
         21   -1    0    0  503  502  0.00000000000E+00  0.00000000000E+00  0.73760346704E+03  0.73760346704E+03  0.00000000000E+00 0.  1.
         21   -1    0    0  501  503 -0.00000000000E+00 -0.00000000000E+00 -0.55903275331E+02  0.55903275331E+02  0.00000000000E+00 0. -1.
          6    1    1    2  501    0 -0.18353756908E+02 -0.66586628692E+02  0.18290468464E+03  0.26106275716E+03  0.17300000000E+03 0. -1.
         -6    1    1    2    0  502  0.18353756908E+02  0.66586628692E+02  0.49879550707E+03  0.53244398521E+03  0.17300000000E+03 0.  1.
<mgrwt>
<rscale>  2 0.18627839E+03</rscale>
<asrwt>0</asrwt>
<pdfrwt beam="1">  1       21 0.11347745E+00 0.18627839E+03</pdfrwt>
<pdfrwt beam="2">  1       21 0.86005044E-02 0.18627839E+03</pdfrwt>
<totfact> 0.64247843E+04</totfact>
</mgrwt>
</event>
<event>
 4    1  0.3974123E+000  0.2200965E+03  0.7546771E-02  0.1133811E+00
         21   -1    0    0  501  502  0.00000000000E+00  0.00000000000E+00  0.12209338388E+03  0.12209338388E+03  0.00000000000E+00 0.  1.
         21   -1    0    0  502  503 -0.00000000000E+00 -0.00000000000E+00 -0.61663343337E+03  0.61663343337E+03  0.00000000000E+00 0.  1.
          6    1    1    2  501    0  0.63962455782E+02  0.12009276926E+03 -0.26712911796E+02  0.22171163396E+03  0.17300000000E+03 0.  1.
         -6    1    1    2    0  503 -0.63962455782E+02 -0.12009276926E+03 -0.46782713770E+03  0.51701518328E+03  0.17300000000E+03 0.  1.
<mgrwt>
<rscale>  2 0.22009650E+03</rscale>
<asrwt>0</asrwt>
<pdfrwt beam="1">  1       21 0.18783598E-01 0.22009650E+03</pdfrwt>
<pdfrwt beam="2">  1       21 0.94866681E-01 0.22009650E+03</pdfrwt>
<totfact> 0.23732786E+04</totfact>
</mgrwt>
</event>
<event>
 4    1  0.3974123E+000  0.1982199E+03  0.7546771E-02  0.1151250E+00
         21   -1    0    0  501  502  0.00000000000E+00  0.00000000000E+00  0.20123945415E+03  0.20123945415E+03  0.00000000000E+00 0. -1.
         21   -1    0    0  502  503 -0.00000000000E+00 -0.00000000000E+00 -0.44055735085E+03  0.44055735085E+03  0.00000000000E+00 0. -1.
          6    1    1    2  501    0  0.55926814680E+02  0.78957827369E+02  0.11979686059E+03  0.23160836537E+03  0.17300000000E+03 0. -1.
         -6    1    1    2    0  503 -0.55926814680E+02 -0.78957827369E+02 -0.35911475729E+03  0.41018843963E+03  0.17300000000E+03 0. -1.
<mgrwt>
<rscale>  2 0.19821995E+03</rscale>
<asrwt>0</asrwt>
<pdfrwt beam="1">  1       21 0.30959917E-01 0.19821995E+03</pdfrwt>
<pdfrwt beam="2">  1       21 0.67778053E-01 0.19821995E+03</pdfrwt>
<totfact> 0.19864813E+04</totfact>
</mgrwt>
</event>
<event>
 4    1  0.3974123E+000  0.2409849E+03  0.7546771E-02  0.1119138E+00
         21   -1    0    0  501  502  0.00000000000E+00  0.00000000000E+00  0.16223095899E+03  0.16223095899E+03  0.00000000000E+00 0.  1.
         21   -1    0    0  502  503 -0.00000000000E+00 -0.00000000000E+00 -0.36101050636E+03  0.36101050636E+03  0.00000000000E+00 0. -1.
          6    1    1    2  501    0  0.14632257181E+03  0.82063438690E+02 -0.75377399044E+02  0.25249842629E+03  0.17300000000E+03 0.  1.
         -6    1    1    2    0  503 -0.14632257181E+03 -0.82063438690E+02 -0.12340214832E+03  0.27074303906E+03  0.17300000000E+03 0.  1.
<mgrwt>
<rscale>  2 0.24098486E+03</rscale>
<asrwt>0</asrwt>
<pdfrwt beam="1">  1       21 0.24958609E-01 0.24098486E+03</pdfrwt>
<pdfrwt beam="2">  1       21 0.55540078E-01 0.24098486E+03</pdfrwt>
<totfact> 0.45391908E+04</totfact>
</mgrwt>
</event>
<event>
 4    1  0.3974123E+000  0.2189733E+03  0.7546771E-02  0.1134651E+00
         21   -1    0    0  501  502  0.00000000000E+00  0.00000000000E+00  0.67253803146E+03  0.67253803146E+03  0.00000000000E+00 0.  1.
         21   -1    0    0  502  503 -0.00000000000E+00 -0.00000000000E+00 -0.75007434112E+02  0.75007434112E+02  0.00000000000E+00 0.  1.
          6    1    1    2  501    0 -0.13118294881E+03 -0.28483683016E+02  0.38190817680E+03  0.44023078239E+03  0.17300000000E+03 0.  1.
         -6    1    1    2    0  503  0.13118294881E+03  0.28483683016E+02  0.21562242055E+03  0.30731468318E+03  0.17300000000E+03 0.  1.
<mgrwt>
<rscale>  2 0.21897325E+03</rscale>
<asrwt>0</asrwt>
<pdfrwt beam="1">  1       21 0.10346739E+00 0.21897325E+03</pdfrwt>
<pdfrwt beam="2">  1       21 0.11539606E-01 0.21897325E+03</pdfrwt>
<totfact> 0.46993178E+04</totfact>
</mgrwt>
</event>
<event>
 4    1  0.3974123E+000  0.2076385E+03  0.7546771E-02  0.1143450E+00
         21   -1    0    0  501  502  0.00000000000E+00  0.00000000000E+00  0.14655180211E+04  0.14655180211E+04  0.00000000000E+00 0.  1.
         21   -1    0    0  502  503 -0.00000000000E+00 -0.00000000000E+00 -0.47231957822E+02  0.47231957822E+02  0.00000000000E+00 0.  1.
          6    1    1    2  501    0  0.16611496301E+02  0.11361700880E+03  0.11736473641E+04  0.11918732742E+04  0.17300000000E+03 0.  1.
         -6    1    1    2    0  503 -0.16611496301E+02 -0.11361700880E+03  0.24463869919E+03  0.32087670474E+03  0.17300000000E+03 0.  1.
<mgrwt>
<rscale>  2 0.20763855E+03</rscale>
<asrwt>0</asrwt>
<pdfrwt beam="1">  1       21 0.22546428E+00 0.20763855E+03</pdfrwt>
<pdfrwt beam="2">  1       21 0.72664562E-02 0.20763855E+03</pdfrwt>
<totfact> 0.13043395E+04</totfact>
</mgrwt>
</event>
<event>
 4    1  0.3974123E+000  0.1747796E+03  0.7546771E-02  0.1172953E+00
         21   -1    0    0  501  502  0.00000000000E+00  0.00000000000E+00  0.34412088930E+03  0.34412088930E+03  0.00000000000E+00 0.  1.
         21   -1    0    0  502  503 -0.00000000000E+00 -0.00000000000E+00 -0.71069001809E+03  0.71069001809E+03  0.00000000000E+00 0.  1.
          6    1    1    2  501    0 -0.23258737699E+02 -0.88277312337E+01  0.31008401307E+03  0.35594942461E+03  0.17300000000E+03 0.  1.
         -6    1    1    2    0  503  0.23258737699E+02  0.88277312337E+01 -0.67665314186E+03  0.69886148278E+03  0.17300000000E+03 0.  1.
<mgrwt>
<rscale>  2 0.17477957E+03</rscale>
<asrwt>0</asrwt>
<pdfrwt beam="1">  1       21 0.52941676E-01 0.17477957E+03</pdfrwt>
<pdfrwt beam="2">  1       21 0.10933693E+00 0.17477957E+03</pdfrwt>
<totfact> 0.22780659E+03</totfact>
</mgrwt>
</event>
<event>
 4    1  0.3974123E+000  0.1767833E+03  0.7546771E-02  0.1170953E+00
         21   -1    0    0  501  502  0.00000000000E+00  0.00000000000E+00  0.42273587157E+03  0.42273587157E+03  0.00000000000E+00 0.  1.
         21   -1    0    0  502  503 -0.00000000000E+00 -0.00000000000E+00 -0.23292806510E+03  0.23292806510E+03  0.00000000000E+00 0.  1.
          6    1    1    2  501    0 -0.10476915054E+02  0.34836329006E+02  0.36575962554E+03  0.40624184822E+03  0.17300000000E+03 0.  1.
         -6    1    1    2    0  503  0.10476915054E+02 -0.34836329006E+02 -0.17595181908E+03  0.24942208844E+03  0.17300000000E+03 0.  1.
<mgrwt>
<rscale>  2 0.17678330E+03</rscale>
<asrwt>0</asrwt>
<pdfrwt beam="1">  1       21 0.65036288E-01 0.17678330E+03</pdfrwt>
<pdfrwt beam="2">  1       21 0.35835087E-01 0.17678330E+03</pdfrwt>
<totfact> 0.16510276E+04</totfact>
</mgrwt>
</event>
<event>
 4    1  0.3974123E+000  0.1730252E+03  0.7546771E-02  0.1174729E+00
         21   -1    0    0  503  502  0.00000000000E+00  0.00000000000E+00  0.10698350652E+04  0.10698350652E+04  0.00000000000E+00 0. -1.
         21   -1    0    0  501  503 -0.00000000000E+00 -0.00000000000E+00 -0.36580968084E+02  0.36580968084E+02  0.00000000000E+00 0. -1.
          6    1    1    2  501    0 -0.24427212871E+01  0.16611581920E+01  0.24843479495E+03  0.30275001846E+03  0.17300000000E+03 0. -1.
         -6    1    1    2    0  502  0.24427212871E+01 -0.16611581920E+01  0.78481930212E+03  0.80366601478E+03  0.17300000000E+03 0. -1.
<mgrwt>
<rscale>  2 0.17302522E+03</rscale>
<asrwt>0</asrwt>
<pdfrwt beam="1">  1       21 0.16458999E+00 0.17302522E+03</pdfrwt>
<pdfrwt beam="2">  1       21 0.56278421E-02 0.17302522E+03</pdfrwt>
<totfact> 0.51880908E+04</totfact>
</mgrwt>
</event>
<event>
 4    1  0.3974123E+000  0.2034106E+03  0.7546771E-02  0.1146893E+00
         21   -1    0    0  501  502  0.00000000000E+00  0.00000000000E+00  0.32799913158E+03  0.32799913158E+03  0.00000000000E+00 0. -1.
         21   -1    0    0  502  503 -0.00000000000E+00 -0.00000000000E+00 -0.13521715371E+03  0.13521715371E+03  0.00000000000E+00 0. -1.
          6    1    1    2  501    0  0.96965012203E+02 -0.45217725662E+02  0.15637886836E+03  0.25657397915E+03  0.17300000000E+03 0. -1.
         -6    1    1    2    0  503 -0.96965012203E+02  0.45217725662E+02  0.36403109510E+02  0.20664230614E+03  0.17300000000E+03 0. -1.
<mgrwt>
<rscale>  2 0.20341056E+03</rscale>
<asrwt>0</asrwt>
<pdfrwt beam="1">  1       21 0.50461405E-01 0.20341056E+03</pdfrwt>
<pdfrwt beam="2">  1       21 0.20802639E-01 0.20341056E+03</pdfrwt>
<totfact> 0.79789111E+04</totfact>
</mgrwt>
</event>
<event>
 4    1  0.3974123E+000  0.1756752E+03  0.7546771E-02  0.1172055E+00
         21   -1    0    0  503  502  0.00000000000E+00  0.00000000000E+00  0.43204450473E+02  0.43204450473E+02  0.00000000000E+00 0.  1.
         21   -1    0    0  501  503 -0.00000000000E+00 -0.00000000000E+00 -0.77424553493E+03  0.77424553493E+03  0.00000000000E+00 0.  1.
          6    1    1    2  501    0 -0.15827688317E+02  0.26120132717E+02 -0.47923088833E+03  0.51041553795E+03  0.17300000000E+03 0.  1.
         -6    1    1    2    0  502  0.15827688317E+02 -0.26120132717E+02 -0.25181019613E+03  0.30703444746E+03  0.17300000000E+03 0.  1.
<mgrwt>
<rscale>  2 0.17567520E+03</rscale>
<asrwt>0</asrwt>
<pdfrwt beam="1">  1       21 0.66468387E-02 0.17567520E+03</pdfrwt>
<pdfrwt beam="2">  1       21 0.11911469E+00 0.17567520E+03</pdfrwt>
<totfact> 0.89642342E+04</totfact>
</mgrwt>
</event>
<event>
 4    1  0.3974123E+000  0.2615147E+03  0.7546771E-02  0.1106237E+00
         21   -1    0    0  501  502  0.00000000000E+00  0.00000000000E+00  0.78000410142E+03  0.78000410142E+03  0.00000000000E+00 0. -1.
         21   -1    0    0  502  503 -0.00000000000E+00 -0.00000000000E+00 -0.16050819093E+03  0.16050819093E+03  0.00000000000E+00 0. -1.
          6    1    1    2  501    0  0.19147908212E+03 -0.42387760220E+02  0.62651405251E+03  0.67890339452E+03  0.17300000000E+03 0. -1.
         -6    1    1    2    0  503 -0.19147908212E+03  0.42387760220E+02 -0.70181420202E+01  0.26160889783E+03  0.17300000000E+03 0. -1.
<mgrwt>
<rscale>  2 0.26151474E+03</rscale>
<asrwt>0</asrwt>
<pdfrwt beam="1">  1       21 0.12000063E+00 0.26151474E+03</pdfrwt>
<pdfrwt beam="2">  1       21 0.24693568E-01 0.26151474E+03</pdfrwt>
<totfact> 0.78244125E+03</totfact>
</mgrwt>
</event>
<event>
 4    1  0.3974123E+000  0.1924756E+03  0.7546771E-02  0.1156247E+00
         21   -1    0    0  503  502  0.00000000000E+00  0.00000000000E+00  0.82707248361E+02  0.82707248361E+02  0.00000000000E+00 0. -1.
         21   -1    0    0  501  503 -0.00000000000E+00 -0.00000000000E+00 -0.51965996268E+03  0.51965996268E+03  0.00000000000E+00 0. -1.
          6    1    1    2  501    0 -0.18180214385E+02 -0.82385383574E+02 -0.33037602941E+03  0.38235479915E+03  0.17300000000E+03 0. -1.
         -6    1    1    2    0  502  0.18180214385E+02  0.82385383574E+02 -0.10657668491E+03  0.22001241189E+03  0.17300000000E+03 0. -1.
<mgrwt>
<rscale>  2 0.19247564E+03</rscale>
<asrwt>0</asrwt>
<pdfrwt beam="1">  1       21 0.12724192E-01 0.19247564E+03</pdfrwt>
<pdfrwt beam="2">  1       21 0.79947687E-01 0.19247564E+03</pdfrwt>
<totfact> 0.72776733E+04</totfact>
</mgrwt>
</event>
<event>
 4    1  0.3974123E+000  0.2003074E+03  0.7546771E-02  0.1149480E+00
         21   -1    0    0  501  502  0.00000000000E+00  0.00000000000E+00  0.26688632260E+03  0.26688632260E+03  0.00000000000E+00 0. -1.
         21   -1    0    0  502  503 -0.00000000000E+00 -0.00000000000E+00 -0.15378382092E+03  0.15378382092E+03  0.00000000000E+00 0.  1.
          6    1    1    2  501    0 -0.88210907145E+02  0.49121257434E+02  0.88037787385E+02  0.21880062632E+03  0.17300000000E+03 0. -1.
         -6    1    1    2    0  503  0.88210907145E+02 -0.49121257434E+02  0.25064714293E+02  0.20186951720E+03  0.17300000000E+03 0.  1.
<mgrwt>
<rscale>  2 0.20030742E+03</rscale>
<asrwt>0</asrwt>
<pdfrwt beam="1">  1       21 0.41059434E-01 0.20030742E+03</pdfrwt>
<pdfrwt beam="2">  1       21 0.23659049E-01 0.20030742E+03</pdfrwt>
<totfact> 0.95810463E+04</totfact>
</mgrwt>
</event>
<event>
 4    1  0.3974123E+000  0.1855539E+03  0.7546771E-02  0.1162534E+00
         21   -1    0    0  503  502  0.00000000000E+00  0.00000000000E+00  0.44197593233E+03  0.44197593233E+03  0.00000000000E+00 0.  1.
         21   -1    0    0  501  503 -0.00000000000E+00 -0.00000000000E+00 -0.78221165508E+02  0.78221165508E+02  0.00000000000E+00 0.  1.
          6    1    1    2  501    0  0.32703928219E+02  0.58580732470E+02  0.19852469123E+03  0.27173940120E+03  0.17300000000E+03 0.  1.
         -6    1    1    2    0  502 -0.32703928219E+02 -0.58580732470E+02  0.16523007560E+03  0.24845769664E+03  0.17300000000E+03 0.  1.
<mgrwt>
<rscale>  2 0.18555390E+03</rscale>
<asrwt>0</asrwt>
<pdfrwt beam="1">  1       21 0.67996296E-01 0.18555390E+03</pdfrwt>
<pdfrwt beam="2">  1       21 0.12034026E-01 0.18555390E+03</pdfrwt>
<totfact> 0.11561836E+05</totfact>
</mgrwt>
</event>
<event>
 4    1  0.3974123E+000  0.3294991E+03  0.7546771E-02  0.1071359E+00
         21   -1    0    0  501  502  0.00000000000E+00  0.00000000000E+00  0.40817709046E+02  0.40817709046E+02  0.00000000000E+00 0. -1.
         21   -1    0    0  502  503 -0.00000000000E+00 -0.00000000000E+00 -0.29241889631E+04  0.29241889631E+04  0.00000000000E+00 0. -1.
          6    1    1    2  501    0 -0.16237201296E+03 -0.22863936977E+03 -0.99596729165E+03  0.10490569470E+04  0.17300000000E+03 0. -1.
         -6    1    1    2    0  503  0.16237201296E+03  0.22863936977E+03 -0.18874039624E+04  0.19159497252E+04  0.17300000000E+03 0. -1.
<mgrwt>
<rscale>  2 0.32949906E+03</rscale>
<asrwt>0</asrwt>
<pdfrwt beam="1">  1       21 0.62796468E-02 0.32949906E+03</pdfrwt>
<pdfrwt beam="2">  1       21 0.44987528E+00 0.32949906E+03</pdfrwt>
<totfact> 0.64401817E+02</totfact>
</mgrwt>
</event>
<event>
 4    1  0.3974123E+000  0.1826769E+03  0.7546771E-02  0.1165237E+00
         21   -1    0    0  501  502  0.00000000000E+00  0.00000000000E+00  0.51694761745E+03  0.51694761745E+03  0.00000000000E+00 0. -1.
         21   -1    0    0  502  503 -0.00000000000E+00 -0.00000000000E+00 -0.76195730056E+02  0.76195730056E+02  0.00000000000E+00 0. -1.
          6    1    1    2  501    0 -0.24864213991E+02  0.53137637542E+02  0.33630179335E+03  0.38271364474E+03  0.17300000000E+03 0. -1.
         -6    1    1    2    0  503  0.24864213991E+02 -0.53137637542E+02  0.10445009405E+03  0.21042970277E+03  0.17300000000E+03 0. -1.
<mgrwt>
<rscale>  2 0.18267687E+03</rscale>
<asrwt>0</asrwt>
<pdfrwt beam="1">  1       21 0.79530401E-01 0.18267687E+03</pdfrwt>
<pdfrwt beam="2">  1       21 0.11722420E-01 0.18267687E+03</pdfrwt>
<totfact> 0.85634669E+04</totfact>
</mgrwt>
</event>
<event>
 4    1  0.3974123E+000  0.1899100E+03  0.7546771E-02  0.1158542E+00
         21   -1    0    0  503  502  0.00000000000E+00  0.00000000000E+00  0.10957927278E+03  0.10957927278E+03  0.00000000000E+00 0.  1.
         21   -1    0    0  501  503 -0.00000000000E+00 -0.00000000000E+00 -0.70447432354E+03  0.70447432354E+03  0.00000000000E+00 0.  1.
          6    1    1    2  501    0 -0.72535585250E+02  0.29587396738E+02 -0.59454937122E+03  0.62414323676E+03  0.17300000000E+03 0.  1.
         -6    1    1    2    0  502  0.72535585250E+02 -0.29587396738E+02 -0.34567953651E+00  0.18991035956E+03  0.17300000000E+03 0.  1.
<mgrwt>
<rscale>  2 0.18991004E+03</rscale>
<asrwt>0</asrwt>
<pdfrwt beam="1">  1       21 0.16858350E-01 0.18991004E+03</pdfrwt>
<pdfrwt beam="2">  1       21 0.10838066E+00 0.18991004E+03</pdfrwt>
<totfact> 0.21482459E+04</totfact>
</mgrwt>
</event>
<event>
 4    1  0.3974123E+000  0.1951661E+03  0.7546771E-02  0.1153883E+00
         21   -1    0    0  503  502  0.00000000000E+00  0.00000000000E+00  0.98703195391E+03  0.98703195391E+03  0.00000000000E+00 0.  1.
         21   -1    0    0  501  503 -0.00000000000E+00 -0.00000000000E+00 -0.58369421086E+02  0.58369421086E+02  0.00000000000E+00 0.  1.
          6    1    1    2  501    0 -0.71954879895E+02  0.54619446543E+02  0.16005739698E+03  0.25240475235E+03  0.17300000000E+03 0.  1.
         -6    1    1    2    0  502  0.71954879895E+02 -0.54619446543E+02  0.76860513584E+03  0.79299662264E+03  0.17300000000E+03 0.  1.
<mgrwt>
<rscale>  2 0.19516605E+03</rscale>
<asrwt>0</asrwt>
<pdfrwt beam="1">  1       21 0.15185106E+00 0.19516605E+03</pdfrwt>
<pdfrwt beam="2">  1       21 0.89799117E-02 0.19516605E+03</pdfrwt>
<totfact> 0.28334631E+04</totfact>
</mgrwt>
</event>
<event>
 4    1  0.3974123E+000  0.1811691E+03  0.7546771E-02  0.1166676E+00
         21   -1    0    0  501  502  0.00000000000E+00  0.00000000000E+00  0.31437042302E+02  0.31437042302E+02  0.00000000000E+00 0. -1.
         21   -1    0    0  502  503 -0.00000000000E+00 -0.00000000000E+00 -0.11727463855E+04  0.11727463855E+04  0.00000000000E+00 0. -1.
          6    1    1    2  501    0 -0.29835625810E+02  0.44755663740E+02 -0.37120981486E+03  0.41306048062E+03  0.17300000000E+03 0. -1.
         -6    1    1    2    0  503  0.29835625810E+02 -0.44755663740E+02 -0.77009952832E+03  0.79112294716E+03  0.17300000000E+03 0. -1.
<mgrwt>
<rscale>  2 0.18116908E+03</rscale>
<asrwt>0</asrwt>
<pdfrwt beam="1">  1       21 0.48364677E-02 0.18116908E+03</pdfrwt>
<pdfrwt beam="2">  1       21 0.18042253E+00 0.18116908E+03</pdfrwt>
<totfact> 0.51803236E+04</totfact>
</mgrwt>
</event>
<event>
 4    1  0.3974123E+000  0.1909271E+03  0.7546771E-02  0.1157628E+00
         21   -1    0    0  501  502  0.00000000000E+00  0.00000000000E+00  0.14368709045E+03  0.14368709045E+03  0.00000000000E+00 0. -1.
         21   -1    0    0  502  503 -0.00000000000E+00 -0.00000000000E+00 -0.36962759005E+03  0.36962759005E+03  0.00000000000E+00 0.  1.
          6    1    1    2  501    0  0.54335776509E+02 -0.59764382142E+02  0.30766642651E+02  0.19339013491E+03  0.17300000000E+03 0. -1.
         -6    1    1    2    0  503 -0.54335776509E+02  0.59764382142E+02 -0.25670714226E+03  0.31992454559E+03  0.17300000000E+03 0.  1.
<mgrwt>
<rscale>  2 0.19092710E+03</rscale>
<asrwt>0</asrwt>
<pdfrwt beam="1">  1       21 0.22105707E-01 0.19092710E+03</pdfrwt>
<pdfrwt beam="2">  1       21 0.56865782E-01 0.19092710E+03</pdfrwt>
<totfact> 0.55637710E+04</totfact>
</mgrwt>
</event>
<event>
 4    1  0.3974123E+000  0.1944761E+03  0.7546771E-02  0.1154485E+00
         21   -1    0    0  503  502  0.00000000000E+00  0.00000000000E+00  0.12150675426E+04  0.12150675426E+04  0.00000000000E+00 0. -1.
         21   -1    0    0  501  503 -0.00000000000E+00 -0.00000000000E+00 -0.46948449374E+02  0.46948449374E+02  0.00000000000E+00 0. -1.
          6    1    1    2  501    0  0.19579945983E+02 -0.86652143422E+02  0.21774654829E+03  0.29194952909E+03  0.17300000000E+03 0. -1.
         -6    1    1    2    0  502 -0.19579945983E+02  0.86652143422E+02  0.95037254495E+03  0.97006646290E+03  0.17300000000E+03 0. -1.
<mgrwt>
<rscale>  2 0.19447614E+03</rscale>
<asrwt>0</asrwt>
<pdfrwt beam="1">  1       21 0.18693344E+00 0.19447614E+03</pdfrwt>
<pdfrwt beam="2">  1       21 0.72228393E-02 0.19447614E+03</pdfrwt>
<totfact> 0.23387882E+04</totfact>
</mgrwt>
</event>
<event>
 4    1  0.3974123E+000  0.1821523E+03  0.7546771E-02  0.1165736E+00
         21   -1    0    0  501  502  0.00000000000E+00  0.00000000000E+00  0.16938483941E+03  0.16938483941E+03  0.00000000000E+00 0. -1.
         21   -1    0    0  502  503 -0.00000000000E+00 -0.00000000000E+00 -0.12537330659E+04  0.12537330659E+04  0.00000000000E+00 0. -1.
          6    1    1    2  501    0  0.15257509985E+02 -0.54933168686E+02  0.11143877450E+03  0.21353698765E+03  0.17300000000E+03 0. -1.
         -6    1    1    2    0  503 -0.15257509985E+02  0.54933168686E+02 -0.11957870010E+04  0.12095809176E+04  0.17300000000E+03 0. -1.
<mgrwt>
<rscale>  2 0.18215226E+03</rscale>
<asrwt>0</asrwt>
<pdfrwt beam="1">  1       21 0.26059205E-01 0.18215226E+03</pdfrwt>
<pdfrwt beam="2">  1       21 0.19288202E+00 0.18215226E+03</pdfrwt>
<totfact> 0.21121471E+03</totfact>
</mgrwt>
</event>
<event>
 4    1  0.3974123E+000  0.3076561E+03  0.7546771E-02  0.1081475E+00
         21   -1    0    0  503  502  0.00000000000E+00  0.00000000000E+00  0.60755074350E+02  0.60755074350E+02  0.00000000000E+00 0. -1.
         21   -1    0    0  501  503 -0.00000000000E+00 -0.00000000000E+00 -0.16830371566E+04  0.16830371566E+04  0.00000000000E+00 0.  1.
          6    1    1    2  501    0 -0.11561221938E+03  0.22662098879E+03 -0.10488557046E+04  0.10930464523E+04  0.17300000000E+03 0.  1.
         -6    1    1    2    0  502  0.11561221938E+03 -0.22662098879E+03 -0.57342637760E+03  0.65074577860E+03  0.17300000000E+03 0. -1.
<mgrwt>
<rscale>  2 0.30765607E+03</rscale>
<asrwt>0</asrwt>
<pdfrwt beam="1">  1       21 0.93469346E-02 0.30765607E+03</pdfrwt>
<pdfrwt beam="2">  1       21 0.25892879E+00 0.30765607E+03</pdfrwt>
<totfact> 0.48947926E+03</totfact>
</mgrwt>
</event>
<event>
 4    1  0.3974123E+000  0.1939965E+03  0.7546771E-02  0.1154905E+00
         21   -1    0    0  501  502  0.00000000000E+00  0.00000000000E+00  0.31733531061E+03  0.31733531061E+03  0.00000000000E+00 0. -1.
         21   -1    0    0  502  503 -0.00000000000E+00 -0.00000000000E+00 -0.12057199500E+03  0.12057199500E+03  0.00000000000E+00 0.  1.
          6    1    1    2  501    0 -0.82665383102E+02 -0.29531180046E+02  0.12641252626E+03  0.23154866217E+03  0.17300000000E+03 0.  1.
         -6    1    1    2    0  503  0.82665383102E+02  0.29531180046E+02  0.70350789344E+02  0.20635864343E+03  0.17300000000E+03 0.  1.
<mgrwt>
<rscale>  2 0.19399654E+03</rscale>
<asrwt>0</asrwt>
<pdfrwt beam="1">  1       21 0.48820817E-01 0.19399654E+03</pdfrwt>
<pdfrwt beam="2">  1       21 0.18549538E-01 0.19399654E+03</pdfrwt>
<totfact> 0.10629059E+05</totfact>
</mgrwt>
</event>
<event>
 4    1  0.3974123E+000  0.1930846E+03  0.7546771E-02  0.1155708E+00
         21   -1    0    0  503  502  0.00000000000E+00  0.00000000000E+00  0.20043585560E+03  0.20043585560E+03  0.00000000000E+00 0. -1.
         21   -1    0    0  501  503 -0.00000000000E+00 -0.00000000000E+00 -0.31307796852E+03  0.31307796852E+03  0.00000000000E+00 0. -1.
          6    1    1    2  501    0  0.16926345147E+02 -0.84060447170E+02 -0.21989946754E+03  0.29263874618E+03  0.17300000000E+03 0. -1.
         -6    1    1    2    0  502 -0.16926345147E+02  0.84060447170E+02  0.10725735462E+03  0.22087507795E+03  0.17300000000E+03 0. -1.
<mgrwt>
<rscale>  2 0.19308459E+03</rscale>
<asrwt>0</asrwt>
<pdfrwt beam="1">  1       21 0.30836286E-01 0.19308459E+03</pdfrwt>
<pdfrwt beam="2">  1       21 0.48165841E-01 0.19308459E+03</pdfrwt>
<totfact> 0.41586840E+04</totfact>
</mgrwt>
</event>
<event>
 4    1  0.3974123E+000  0.1988813E+03  0.7546771E-02  0.1150686E+00
         21   -1    0    0  501  502  0.00000000000E+00  0.00000000000E+00  0.83841005647E+03  0.83841005647E+03  0.00000000000E+00 0.  1.
         21   -1    0    0  502  503 -0.00000000000E+00 -0.00000000000E+00 -0.11960369673E+03  0.11960369673E+03  0.00000000000E+00 0. -1.
          6    1    1    2  501    0 -0.61676741995E+02 -0.76293752222E+02  0.73215388916E+03  0.75868509577E+03  0.17300000000E+03 0.  1.
         -6    1    1    2    0  503  0.61676741995E+02  0.76293752222E+02 -0.13347529420E+02  0.19932865743E+03  0.17300000000E+03 0. -1.
<mgrwt>
<rscale>  2 0.19888126E+03</rscale>
<asrwt>0</asrwt>
<pdfrwt beam="1">  1       21 0.12898616E+00 0.19888126E+03</pdfrwt>
<pdfrwt beam="2">  1       21 0.18400569E-01 0.19888126E+03</pdfrwt>
<totfact> 0.11831067E+04</totfact>
</mgrwt>
</event>
<event>
 4    1  0.3974123E+000  0.2364303E+03  0.7546771E-02  0.1122194E+00
         21   -1    0    0  503  502  0.00000000000E+00  0.00000000000E+00  0.81586676295E+02  0.81586676295E+02  0.00000000000E+00 0.  1.
         21   -1    0    0  501  503 -0.00000000000E+00 -0.00000000000E+00 -0.76370562289E+03  0.76370562289E+03  0.00000000000E+00 0.  1.
          6    1    1    2  501    0 -0.29108940083E+02  0.15850220146E+03 -0.47660865586E+03  0.53202921828E+03  0.17300000000E+03 0.  1.
         -6    1    1    2    0  502  0.29108940083E+02 -0.15850220146E+03 -0.20551029073E+03  0.31326308090E+03  0.17300000000E+03 0.  1.
<mgrwt>
<rscale>  2 0.23643028E+03</rscale>
<asrwt>0</asrwt>
<pdfrwt beam="1">  1       21 0.12551797E-01 0.23643028E+03</pdfrwt>
<pdfrwt beam="2">  1       21 0.11749317E+00 0.23643028E+03</pdfrwt>
<totfact> 0.29398863E+04</totfact>
</mgrwt>
</event>
<event>
 4    1  0.3974123E+000  0.2097031E+03  0.7546771E-02  0.1141801E+00
         21   -1    0    0  501  502  0.00000000000E+00  0.00000000000E+00  0.14549899824E+03  0.14549899824E+03  0.00000000000E+00 0. -1.
         21   -1    0    0  502  503 -0.00000000000E+00 -0.00000000000E+00 -0.32693283027E+03  0.32693283027E+03  0.00000000000E+00 0.  1.
          6    1    1    2  501    0  0.11771718927E+03 -0.13749675603E+02 -0.25796836785E+02  0.21128385413E+03  0.17300000000E+03 0. -1.
         -6    1    1    2    0  503 -0.11771718927E+03  0.13749675603E+02 -0.15563699525E+03  0.26114797438E+03  0.17300000000E+03 0.  1.
<mgrwt>
<rscale>  2 0.20970310E+03</rscale>
<asrwt>0</asrwt>
<pdfrwt beam="1">  1       21 0.22384462E-01 0.20970310E+03</pdfrwt>
<pdfrwt beam="2">  1       21 0.50297358E-01 0.20970310E+03</pdfrwt>
<totfact> 0.69781749E+04</totfact>
</mgrwt>
</event>
<event>
 4    1  0.3974123E+000  0.1748121E+03  0.7546771E-02  0.1172921E+00
         21   -1    0    0  503  502  0.00000000000E+00  0.00000000000E+00  0.44134710496E+02  0.44134710496E+02  0.00000000000E+00 0. -1.
         21   -1    0    0  501  503 -0.00000000000E+00 -0.00000000000E+00 -0.86758903876E+03  0.86758903876E+03  0.00000000000E+00 0. -1.
          6    1    1    2  501    0 -0.22263141311E+02  0.11602347965E+02 -0.61656906659E+03  0.64087180919E+03  0.17300000000E+03 0. -1.
         -6    1    1    2    0  502  0.22263141311E+02 -0.11602347965E+02 -0.20688526167E+03  0.27085194007E+03  0.17300000000E+03 0. -1.
<mgrwt>
<rscale>  2 0.17481208E+03</rscale>
<asrwt>0</asrwt>
<pdfrwt beam="1">  1       21 0.67899558E-02 0.17481208E+03</pdfrwt>
<pdfrwt beam="2">  1       21 0.13347523E+00 0.17481208E+03</pdfrwt>
<totfact> 0.65053036E+04</totfact>
</mgrwt>
</event>
<event>
 4    1  0.3974123E+000  0.2148527E+03  0.7546771E-02  0.1137780E+00
         21   -1    0    0  503  502  0.00000000000E+00  0.00000000000E+00  0.15067983173E+03  0.15067983173E+03  0.00000000000E+00 0.  1.
         21   -1    0    0  501  503 -0.00000000000E+00 -0.00000000000E+00 -0.72152092437E+03  0.72152092437E+03  0.00000000000E+00 0. -1.
          6    1    1    2  501    0 -0.12736950164E+03  0.31142851960E+01 -0.61622569639E+03  0.65260692427E+03  0.17300000000E+03 0. -1.
         -6    1    1    2    0  502  0.12736950164E+03 -0.31142851960E+01  0.45384603742E+02  0.21959383183E+03  0.17300000000E+03 0.  1.
<mgrwt>
<rscale>  2 0.21485271E+03</rscale>
<asrwt>0</asrwt>
<pdfrwt beam="1">  1       21 0.23181513E-01 0.21485271E+03</pdfrwt>
<pdfrwt beam="2">  1       21 0.11100322E+00 0.21485271E+03</pdfrwt>
<totfact> 0.11002907E+04</totfact>
</mgrwt>
</event>
<event>
 4    1  0.3974123E+000  0.1979525E+03  0.7546771E-02  0.1151478E+00
         21   -1    0    0  503  502  0.00000000000E+00  0.00000000000E+00  0.85285196079E+02  0.85285196079E+02  0.00000000000E+00 0. -1.
         21   -1    0    0  501  503 -0.00000000000E+00 -0.00000000000E+00 -0.60656975853E+03  0.60656975853E+03  0.00000000000E+00 0. -1.
          6    1    1    2  501    0 -0.53686986627E+02  0.79836592814E+02 -0.43100115806E+03  0.47428596051E+03  0.17300000000E+03 0. -1.
         -6    1    1    2    0  502  0.53686986627E+02 -0.79836592814E+02 -0.90283404386E+02  0.21756899410E+03  0.17300000000E+03 0. -1.
<mgrwt>
<rscale>  2 0.19795245E+03</rscale>
<asrwt>0</asrwt>
<pdfrwt beam="1">  1       21 0.13120800E-01 0.19795245E+03</pdfrwt>
<pdfrwt beam="2">  1       21 0.93318423E-01 0.19795245E+03</pdfrwt>
<totfact> 0.48151808E+04</totfact>
</mgrwt>
</event>
<event>
 4    1  0.3974123E+000  0.2095065E+03  0.7546771E-02  0.1141957E+00
         21   -1    0    0  501  502  0.00000000000E+00  0.00000000000E+00  0.32739037824E+02  0.32739037824E+02  0.00000000000E+00 0. -1.
         21   -1    0    0  502  503 -0.00000000000E+00 -0.00000000000E+00 -0.19045295608E+04  0.19045295608E+04  0.00000000000E+00 0.  1.
          6    1    1    2  501    0  0.14515292020E+02 -0.11727429711E+03 -0.40885581297E+03  0.45940834805E+03  0.17300000000E+03 0. -1.
         -6    1    1    2    0  503 -0.14515292020E+02  0.11727429711E+03 -0.14629347100E+04  0.14778602506E+04  0.17300000000E+03 0.  1.
<mgrwt>
<rscale>  2 0.20950645E+03</rscale>
<asrwt>0</asrwt>
<pdfrwt beam="1">  1       21 0.50367750E-02 0.20950645E+03</pdfrwt>
<pdfrwt beam="2">  1       21 0.29300455E+00 0.20950645E+03</pdfrwt>
<totfact> 0.97786360E+03</totfact>
</mgrwt>
</event>
<event>
 4    1  0.3974123E+000  0.2356784E+03  0.7546771E-02  0.1122706E+00
         21   -1    0    0  503  502  0.00000000000E+00  0.00000000000E+00  0.12115696346E+04  0.12115696346E+04  0.00000000000E+00 0. -1.
         21   -1    0    0  501  503 -0.00000000000E+00 -0.00000000000E+00 -0.11313814836E+03  0.11313814836E+03  0.00000000000E+00 0. -1.
          6    1    1    2  501    0  0.15160900104E+03 -0.51283703627E+02  0.38391787802E+02  0.23878491750E+03  0.17300000000E+03 0. -1.
         -6    1    1    2    0  502 -0.15160900104E+03  0.51283703627E+02  0.10600396984E+04  0.10859228654E+04  0.17300000000E+03 0. -1.
<mgrwt>
<rscale>  2 0.23567840E+03</rscale>
<asrwt>0</asrwt>
<pdfrwt beam="1">  1       21 0.18639532E+00 0.23567840E+03</pdfrwt>
<pdfrwt beam="2">  1       21 0.17405870E-01 0.23567840E+03</pdfrwt>
<totfact> 0.47472167E+03</totfact>
</mgrwt>
</event>
<event>
 4    1  0.3974123E+000  0.2508468E+03  0.7546771E-02  0.1112771E+00
         21   -1    0    0  501  502  0.00000000000E+00  0.00000000000E+00  0.71712754167E+03  0.71712754167E+03  0.00000000000E+00 0.  1.
         21   -1    0    0  502  503 -0.00000000000E+00 -0.00000000000E+00 -0.22458979537E+03  0.22458979537E+03  0.00000000000E+00 0.  1.
          6    1    1    2  501    0  0.16924392651E+03  0.65966845910E+02  0.61381360310E+03  0.66309220382E+03  0.17300000000E+03 0.  1.
         -6    1    1    2    0  503 -0.16924392651E+03 -0.65966845910E+02 -0.12127585680E+03  0.27862513322E+03  0.17300000000E+03 0.  1.
<mgrwt>
<rscale>  2 0.25084683E+03</rscale>
<asrwt>0</asrwt>
<pdfrwt beam="1">  1       21 0.11032731E+00 0.25084683E+03</pdfrwt>
<pdfrwt beam="2">  1       21 0.34552277E-01 0.25084683E+03</pdfrwt>
<totfact> 0.50203945E+03</totfact>
</mgrwt>
</event>
<event>
 4    1  0.3974123E+000  0.2462143E+03  0.7546771E-02  0.1115721E+00
         21   -1    0    0  501  502  0.00000000000E+00  0.00000000000E+00  0.57884507821E+02  0.57884507821E+02  0.00000000000E+00 0.  1.
         21   -1    0    0  502  503 -0.00000000000E+00 -0.00000000000E+00 -0.13729161597E+04  0.13729161597E+04  0.00000000000E+00 0. -1.
          6    1    1    2  501    0 -0.16069088370E+03  0.69791861263E+02 -0.30910518770E+03  0.39518031463E+03  0.17300000000E+03 0.  1.
         -6    1    1    2    0  503  0.16069088370E+03 -0.69791861263E+02 -0.10059264642E+04  0.10356203529E+04  0.17300000000E+03 0. -1.
<mgrwt>
<rscale>  2 0.24621426E+03</rscale>
<asrwt>0</asrwt>
<pdfrwt beam="1">  1       21 0.89053094E-02 0.24621426E+03</pdfrwt>
<pdfrwt beam="2">  1       21 0.21121786E+00 0.24621426E+03</pdfrwt>
<totfact> 0.10885588E+04</totfact>
</mgrwt>
</event>
<event>
 4    1  0.3974123E+000  0.1966707E+03  0.7546771E-02  0.1152579E+00
         21   -1    0    0  501  502  0.00000000000E+00  0.00000000000E+00  0.78633115042E+03  0.78633115042E+03  0.00000000000E+00 0. -1.
         21   -1    0    0  502  503 -0.00000000000E+00 -0.00000000000E+00 -0.79856568745E+02  0.79856568745E+02  0.00000000000E+00 0.  1.
          6    1    1    2  501    0  0.52869764465E+02  0.77169609637E+02  0.62162443898E+03  0.65199409797E+03  0.17300000000E+03 0. -1.
         -6    1    1    2    0  503 -0.52869764465E+02 -0.77169609637E+02  0.84850142693E+02  0.21419362120E+03  0.17300000000E+03 0.  1.
<mgrwt>
<rscale>  2 0.19667069E+03</rscale>
<asrwt>0</asrwt>
<pdfrwt beam="1">  1       21 0.12097402E+00 0.19667069E+03</pdfrwt>
<pdfrwt beam="2">  1       21 0.12285627E-01 0.19667069E+03</pdfrwt>
<totfact> 0.29052014E+04</totfact>
</mgrwt>
</event>
<event>
 4    1  0.3974123E+000  0.2420541E+03  0.7546771E-02  0.1118432E+00
         21   -1    0    0  503  502  0.00000000000E+00  0.00000000000E+00  0.84920510894E+02  0.84920510894E+02  0.00000000000E+00 0.  1.
         21   -1    0    0  501  503 -0.00000000000E+00 -0.00000000000E+00 -0.78951136114E+03  0.78951136114E+03  0.00000000000E+00 0.  1.
          6    1    1    2  501    0  0.20132505863E+02 -0.16809480671E+03 -0.50756301600E+03  0.56232588154E+03  0.17300000000E+03 0.  1.
         -6    1    1    2    0  502 -0.20132505863E+02  0.16809480671E+03 -0.19702783425E+03  0.31210599050E+03  0.17300000000E+03 0.  1.
<mgrwt>
<rscale>  2 0.24205409E+03</rscale>
<asrwt>0</asrwt>
<pdfrwt beam="1">  1       21 0.13064694E-01 0.24205409E+03</pdfrwt>
<pdfrwt beam="2">  1       21 0.12146329E+00 0.24205409E+03</pdfrwt>
<totfact> 0.25103250E+04</totfact>
</mgrwt>
</event>
<event>
 4    1  0.3974123E+000  0.2043891E+03  0.7546771E-02  0.1146088E+00
         21   -1    0    0  503  502  0.00000000000E+00  0.00000000000E+00  0.47048682894E+03  0.47048682894E+03  0.00000000000E+00 0.  1.
         21   -1    0    0  501  503 -0.00000000000E+00 -0.00000000000E+00 -0.92540008006E+02  0.92540008006E+02  0.00000000000E+00 0. -1.
          6    1    1    2  501    0 -0.20478890990E+02  0.10689481032E+03  0.13230955372E+03  0.24347628931E+03  0.17300000000E+03 0.  1.
         -6    1    1    2    0  502  0.20478890990E+02 -0.10689481032E+03  0.24563726722E+03  0.31955054764E+03  0.17300000000E+03 0.  1.
<mgrwt>
<rscale>  2 0.20438905E+03</rscale>
<asrwt>0</asrwt>
<pdfrwt beam="1">  1       21 0.72382588E-01 0.20438905E+03</pdfrwt>
<pdfrwt beam="2">  1       21 0.14236925E-01 0.20438905E+03</pdfrwt>
<totfact> 0.73827716E+04</totfact>
</mgrwt>
</event>
<event>
 4    1  0.3974123E+000  0.2027494E+03  0.7546771E-02  0.1147440E+00
         21   -1    0    0  501  502  0.00000000000E+00  0.00000000000E+00  0.31318047171E+04  0.31318047171E+04  0.00000000000E+00 0.  1.
         21   -1    0    0  502  503 -0.00000000000E+00 -0.00000000000E+00 -0.13181714943E+02  0.13181714943E+02  0.00000000000E+00 0.  1.
          6    1    1    2  501    0  0.73829153376E+02 -0.75680655273E+02  0.16617672752E+04  0.16740901357E+04  0.17300000000E+03 0.  1.
         -6    1    1    2    0  503 -0.73829153376E+02  0.75680655273E+02  0.14568557269E+04  0.14708962963E+04  0.17300000000E+03 0.  1.
<mgrwt>
<rscale>  2 0.20274937E+03</rscale>
<asrwt>0</asrwt>
<pdfrwt beam="1">  1       21 0.48181552E+00 0.20274937E+03</pdfrwt>
<pdfrwt beam="2">  1       21 0.20279586E-02 0.20274937E+03</pdfrwt>
<totfact> 0.30069673E+03</totfact>
</mgrwt>
</event>
<event>
 4    1  0.3974123E+000  0.2367925E+03  0.7546771E-02  0.1121948E+00
         21   -1    0    0  501  502  0.00000000000E+00  0.00000000000E+00  0.23852058467E+03  0.23852058467E+03  0.00000000000E+00 0. -1.
         21   -1    0    0  502  503 -0.00000000000E+00 -0.00000000000E+00 -0.35861850303E+03  0.35861850303E+03  0.00000000000E+00 0.  1.
          6    1    1    2  501    0  0.15874022959E+03  0.30712192077E+02  0.11519200324E+03  0.26332469851E+03  0.17300000000E+03 0. -1.
         -6    1    1    2    0  503 -0.15874022959E+03 -0.30712192077E+02 -0.23528992160E+03  0.33381438920E+03  0.17300000000E+03 0.  1.
<mgrwt>
<rscale>  2 0.23679252E+03</rscale>
<asrwt>0</asrwt>
<pdfrwt beam="1">  1       21 0.36695475E-01 0.23679252E+03</pdfrwt>
<pdfrwt beam="2">  1       21 0.55172077E-01 0.23679252E+03</pdfrwt>
<totfact> 0.21657785E+04</totfact>
</mgrwt>
</event>
<event>
 4    1  0.3974123E+000  0.2159299E+03  0.7546771E-02  0.1136954E+00
         21   -1    0    0  503  502  0.00000000000E+00  0.00000000000E+00  0.29067254505E+03  0.29067254505E+03  0.00000000000E+00 0. -1.
         21   -1    0    0  501  503 -0.00000000000E+00 -0.00000000000E+00 -0.16412736680E+03  0.16412736680E+03  0.00000000000E+00 0. -1.
          6    1    1    2  501    0 -0.10510636669E+03 -0.75162267475E+02  0.29032716452E+02  0.21787292947E+03  0.17300000000E+03 0. -1.
         -6    1    1    2    0  502  0.10510636669E+03  0.75162267475E+02  0.97512461800E+02  0.23692698238E+03  0.17300000000E+03 0. -1.
<mgrwt>
<rscale>  2 0.21592988E+03</rscale>
<asrwt>0</asrwt>
<pdfrwt beam="1">  1       21 0.44718853E-01 0.21592988E+03</pdfrwt>
<pdfrwt beam="2">  1       21 0.25250364E-01 0.21592988E+03</pdfrwt>
<totfact> 0.70611929E+04</totfact>
</mgrwt>
</event>
<event>
 4    1  0.3974123E+000  0.2277050E+03  0.7546771E-02  0.1128266E+00
         21   -1    0    0  501  502  0.00000000000E+00  0.00000000000E+00  0.12763055778E+03  0.12763055778E+03  0.00000000000E+00 0. -1.
         21   -1    0    0  502  503 -0.00000000000E+00 -0.00000000000E+00 -0.94824100055E+03  0.94824100055E+03  0.00000000000E+00 0. -1.
          6    1    1    2  501    0 -0.84513838779E+02  0.12156467771E+03 -0.36107992570E+01  0.22773361123E+03  0.17300000000E+03 0. -1.
         -6    1    1    2    0  503  0.84513838779E+02 -0.12156467771E+03 -0.81699964352E+03  0.84813794710E+03  0.17300000000E+03 0. -1.
<mgrwt>
<rscale>  2 0.22770498E+03</rscale>
<asrwt>0</asrwt>
<pdfrwt beam="1">  1       21 0.19635471E-01 0.22770498E+03</pdfrwt>
<pdfrwt beam="2">  1       21 0.14588323E+00 0.22770498E+03</pdfrwt>
<totfact> 0.74825621E+03</totfact>
</mgrwt>
</event>
<event>
 4    1  0.3974123E+000  0.2106267E+03  0.7546771E-02  0.1141071E+00
         21   -1    0    0  503  502  0.00000000000E+00  0.00000000000E+00  0.10554195897E+04  0.10554195897E+04  0.00000000000E+00 0.  1.
         21   -1    0    0  501  503 -0.00000000000E+00 -0.00000000000E+00 -0.64440070197E+02  0.64440070197E+02  0.00000000000E+00 0.  1.
          6    1    1    2  501    0 -0.84764316266E+02 -0.85144593313E+02  0.16531970874E+03  0.26775772104E+03  0.17300000000E+03 0.  1.
         -6    1    1    2    0  502  0.84764316266E+02  0.85144593313E+02  0.82565981080E+03  0.85210193888E+03  0.17300000000E+03 0.  1.
<mgrwt>
<rscale>  2 0.21062666E+03</rscale>
<asrwt>0</asrwt>
<pdfrwt beam="1">  1       21 0.16237223E+00 0.21062666E+03</pdfrwt>
<pdfrwt beam="2">  1       21 0.99138578E-02 0.21062666E+03</pdfrwt>
<totfact> 0.19685560E+04</totfact>
</mgrwt>
</event>
<event>
 4    1  0.3974123E+000  0.1858036E+03  0.7546771E-02  0.1162302E+00
         21   -1    0    0  501  502  0.00000000000E+00  0.00000000000E+00  0.17856228890E+03  0.17856228890E+03  0.00000000000E+00 0.  1.
         21   -1    0    0  502  503 -0.00000000000E+00 -0.00000000000E+00 -0.58976324475E+03  0.58976324475E+03  0.00000000000E+00 0.  1.
          6    1    1    2  501    0 -0.63887662719E+02 -0.22634927696E+02  0.10936051526E+03  0.21559845940E+03  0.17300000000E+03 0.  1.
         -6    1    1    2    0  503  0.63887662719E+02  0.22634927696E+02 -0.52056147111E+03  0.55272707424E+03  0.17300000000E+03 0.  1.
<mgrwt>
<rscale>  2 0.18580359E+03</rscale>
<asrwt>0</asrwt>
<pdfrwt beam="1">  1       21 0.27471122E-01 0.18580359E+03</pdfrwt>
<pdfrwt beam="2">  1       21 0.90732806E-01 0.18580359E+03</pdfrwt>
<totfact> 0.13092315E+04</totfact>
</mgrwt>
</event>
<event>
 4    1  0.3974123E+000  0.1934305E+03  0.7546771E-02  0.1155403E+00
         21   -1    0    0  501  502  0.00000000000E+00  0.00000000000E+00  0.13672565920E+03  0.13672565920E+03  0.00000000000E+00 0.  1.
         21   -1    0    0  502  503 -0.00000000000E+00 -0.00000000000E+00 -0.53861923175E+03  0.53861923175E+03  0.00000000000E+00 0.  1.
          6    1    1    2  501    0 -0.86045593280E+02  0.90832992599E+01  0.35890555344E+02  0.19673200658E+03  0.17300000000E+03 0.  1.
         -6    1    1    2    0  503  0.86045593280E+02 -0.90832992599E+01 -0.43778412789E+03  0.47861288437E+03  0.17300000000E+03 0.  1.
<mgrwt>
<rscale>  2 0.19343048E+03</rscale>
<asrwt>0</asrwt>
<pdfrwt beam="1">  1       21 0.21034717E-01 0.19343048E+03</pdfrwt>
<pdfrwt beam="2">  1       21 0.82864498E-01 0.19343048E+03</pdfrwt>
<totfact> 0.26660992E+04</totfact>
</mgrwt>
</event>
<event>
 4    1  0.3974123E+000  0.1855050E+03  0.7546771E-02  0.1162579E+00
         21   -1    0    0  501  502  0.00000000000E+00  0.00000000000E+00  0.70437323076E+02  0.70437323076E+02  0.00000000000E+00 0. -1.
         21   -1    0    0  502  503 -0.00000000000E+00 -0.00000000000E+00 -0.96935660828E+03  0.96935660828E+03  0.00000000000E+00 0. -1.
          6    1    1    2  501    0  0.18393927774E+02 -0.64379853627E+02 -0.83307952707E+02  0.20335269144E+03  0.17300000000E+03 0. -1.
         -6    1    1    2    0  503 -0.18393927774E+02  0.64379853627E+02 -0.81561133249E+03  0.83644123991E+03  0.17300000000E+03 0. -1.
<mgrwt>
<rscale>  2 0.18550499E+03</rscale>
<asrwt>0</asrwt>
<pdfrwt beam="1">  1       21 0.10836512E-01 0.18550499E+03</pdfrwt>
<pdfrwt beam="2">  1       21 0.14913177E+00 0.18550499E+03</pdfrwt>
<totfact> 0.21462055E+04</totfact>
</mgrwt>
</event>
<event>
 4    1  0.3974123E+000  0.1887576E+03  0.7546771E-02  0.1159587E+00
         21   -1    0    0  501  502  0.00000000000E+00  0.00000000000E+00  0.47309784142E+02  0.47309784142E+02  0.00000000000E+00 0. -1.
         21   -1    0    0  502  503 -0.00000000000E+00 -0.00000000000E+00 -0.89588968953E+03  0.89588968953E+03  0.00000000000E+00 0. -1.
          6    1    1    2  501    0  0.11226009203E+02  0.74661934302E+02 -0.23602004482E+03  0.30221662640E+03  0.17300000000E+03 0. -1.
         -6    1    1    2    0  503 -0.11226009203E+02 -0.74661934302E+02 -0.61255986057E+03  0.64098284727E+03  0.17300000000E+03 0. -1.
<mgrwt>
<rscale>  2 0.18875759E+03</rscale>
<asrwt>0</asrwt>
<pdfrwt beam="1">  1       21 0.72784287E-02 0.18875759E+03</pdfrwt>
<pdfrwt beam="2">  1       21 0.13782918E+00 0.18875759E+03</pdfrwt>
<totfact> 0.52787973E+04</totfact>
</mgrwt>
</event>
<event>
 4    1  0.3974123E+000  0.2082545E+03  0.7546771E-02  0.1142956E+00
         21   -1    0    0  501  502  0.00000000000E+00  0.00000000000E+00  0.44022238996E+02  0.44022238996E+02  0.00000000000E+00 0.  1.
         21   -1    0    0  502  503 -0.00000000000E+00 -0.00000000000E+00 -0.11192103904E+04  0.11192103904E+04  0.00000000000E+00 0. -1.
          6    1    1    2  501    0 -0.11573588279E+03 -0.67915171505E+01 -0.33632407511E+03  0.39558033669E+03  0.17300000000E+03 0.  1.
         -6    1    1    2    0  503  0.11573588279E+03  0.67915171505E+01 -0.73886407629E+03  0.76765229271E+03  0.17300000000E+03 0. -1.
<mgrwt>
<rscale>  2 0.20825446E+03</rscale>
<asrwt>0</asrwt>
<pdfrwt beam="1">  1       21 0.67726516E-02 0.20825446E+03</pdfrwt>
<pdfrwt beam="2">  1       21 0.17218623E+00 0.20825446E+03</pdfrwt>
<totfact> 0.32655788E+04</totfact>
</mgrwt>
</event>
<event>
 4    1  0.3974123E+000  0.1923931E+03  0.7546771E-02  0.1156320E+00
         21   -1    0    0  503  502  0.00000000000E+00  0.00000000000E+00  0.53367787877E+03  0.53367787877E+03  0.00000000000E+00 0.  1.
         21   -1    0    0  501  503 -0.00000000000E+00 -0.00000000000E+00 -0.13810235309E+03  0.13810235309E+03  0.00000000000E+00 0.  1.
          6    1    1    2  501    0  0.71844955736E+02 -0.43868234740E+02 -0.39193214936E+02  0.19634466578E+03  0.17300000000E+03 0.  1.
         -6    1    1    2    0  502 -0.71844955736E+02  0.43868234740E+02  0.43476874061E+03  0.47543556609E+03  0.17300000000E+03 0.  1.
<mgrwt>
<rscale>  2 0.19239314E+03</rscale>
<asrwt>0</asrwt>
<pdfrwt beam="1">  1       21 0.82104288E-01 0.19239314E+03</pdfrwt>
<pdfrwt beam="2">  1       21 0.21246516E-01 0.19239314E+03</pdfrwt>
<totfact> 0.26733819E+04</totfact>
</mgrwt>
</event>
<event>
 4    1  0.3974123E+000  0.1790694E+03  0.7546771E-02  0.1168707E+00
         21   -1    0    0  501  502  0.00000000000E+00  0.00000000000E+00  0.54246646832E+02  0.54246646832E+02  0.00000000000E+00 0. -1.
         21   -1    0    0  502  503 -0.00000000000E+00 -0.00000000000E+00 -0.61404976499E+03  0.61404976499E+03  0.00000000000E+00 0. -1.
          6    1    1    2  501    0 -0.36514433723E+02  0.28346966380E+02 -0.21531962143E+03  0.28005069853E+03  0.17300000000E+03 0. -1.
         -6    1    1    2    0  503  0.36514433723E+02 -0.28346966380E+02 -0.34448349673E+03  0.38824571330E+03  0.17300000000E+03 0. -1.
<mgrwt>
<rscale>  2 0.17906941E+03</rscale>
<asrwt>0</asrwt>
<pdfrwt beam="1">  1       21 0.83456378E-02 0.17906941E+03</pdfrwt>
<pdfrwt beam="2">  1       21 0.94469196E-01 0.17906941E+03</pdfrwt>
<totfact> 0.10519602E+05</totfact>
</mgrwt>
</event>
<event>
 4    1  0.3974123E+000  0.1814725E+03  0.7546771E-02  0.1166385E+00
         21   -1    0    0  503  502  0.00000000000E+00  0.00000000000E+00  0.53809737058E+03  0.53809737058E+03  0.00000000000E+00 0. -1.
         21   -1    0    0  501  503 -0.00000000000E+00 -0.00000000000E+00 -0.94193659368E+02  0.94193659368E+02  0.00000000000E+00 0.  1.
          6    1    1    2  501    0  0.50384375141E+02 -0.21556896857E+02  0.34848078889E+02  0.18478818594E+03  0.17300000000E+03 0.  1.
         -6    1    1    2    0  502 -0.50384375141E+02  0.21556896857E+02  0.40905563232E+03  0.44750284401E+03  0.17300000000E+03 0. -1.
<mgrwt>
<rscale>  2 0.18147255E+03</rscale>
<asrwt>0</asrwt>
<pdfrwt beam="1">  1       21 0.82784209E-01 0.18147255E+03</pdfrwt>
<pdfrwt beam="2">  1       21 0.14491333E-01 0.18147255E+03</pdfrwt>
<totfact> 0.53441343E+04</totfact>
</mgrwt>
</event>
<event>
 4    1  0.3974123E+000  0.1968298E+03  0.7546771E-02  0.1152442E+00
         21   -1    0    0  501  502  0.00000000000E+00  0.00000000000E+00  0.70379123360E+02  0.70379123360E+02  0.00000000000E+00 0.  1.
         21   -1    0    0  502  503 -0.00000000000E+00 -0.00000000000E+00 -0.72815586529E+03  0.72815586529E+03  0.00000000000E+00 0.  1.
          6    1    1    2  501    0 -0.93798525664E+02  0.38480062391E+01 -0.13165894286E+03  0.23680381712E+03  0.17300000000E+03 0.  1.
         -6    1    1    2    0  503  0.93798525664E+02 -0.38480062391E+01 -0.52611779907E+03  0.56173117153E+03  0.17300000000E+03 0.  1.
<mgrwt>
<rscale>  2 0.19682980E+03</rscale>
<asrwt>0</asrwt>
<pdfrwt beam="1">  1       21 0.10827557E-01 0.19682980E+03</pdfrwt>
<pdfrwt beam="2">  1       21 0.11202398E+00 0.19682980E+03</pdfrwt>
<totfact> 0.43945559E+04</totfact>
</mgrwt>
</event>
<event>
 4    1  0.3974123E+000  0.1950191E+03  0.7546771E-02  0.1154011E+00
         21   -1    0    0  503  502  0.00000000000E+00  0.00000000000E+00  0.10099758975E+04  0.10099758975E+04  0.00000000000E+00 0.  1.
         21   -1    0    0  501  503 -0.00000000000E+00 -0.00000000000E+00 -0.53806527873E+02  0.53806527873E+02  0.00000000000E+00 0.  1.
          6    1    1    2  501    0 -0.59714279562E+02 -0.67362036529E+02  0.18668557653E+03  0.26997026435E+03  0.17300000000E+03 0.  1.
         -6    1    1    2    0  502  0.59714279562E+02  0.67362036529E+02  0.76948379310E+03  0.79381216102E+03  0.17300000000E+03 0.  1.
<mgrwt>
<rscale>  2 0.19501907E+03</rscale>
<asrwt>0</asrwt>
<pdfrwt beam="1">  1       21 0.15538089E+00 0.19501907E+03</pdfrwt>
<pdfrwt beam="2">  1       21 0.82779281E-02 0.19501907E+03</pdfrwt>
<totfact> 0.30741953E+04</totfact>
</mgrwt>
</event>
<event>
 4    1  0.3974123E+000  0.2143418E+03  0.7546771E-02  0.1138173E+00
         21   -1    0    0  503  502  0.00000000000E+00  0.00000000000E+00  0.52540274162E+03  0.52540274162E+03  0.00000000000E+00 0.  1.
         21   -1    0    0  501  503 -0.00000000000E+00 -0.00000000000E+00 -0.10812136522E+03  0.10812136522E+03  0.00000000000E+00 0. -1.
          6    1    1    2  501    0  0.11527042036E+03  0.52212532139E+02  0.70110967936E+02  0.22551710832E+03  0.17300000000E+03 0. -1.
         -6    1    1    2    0  502 -0.11527042036E+03 -0.52212532139E+02  0.34717040847E+03  0.40800699851E+03  0.17300000000E+03 0.  1.
<mgrwt>
<rscale>  2 0.21434183E+03</rscale>
<asrwt>0</asrwt>
<pdfrwt beam="1">  1       21 0.80831189E-01 0.21434183E+03</pdfrwt>
<pdfrwt beam="2">  1       21 0.16634057E-01 0.21434183E+03</pdfrwt>
<totfact> 0.43147525E+04</totfact>
</mgrwt>
</event>
<event>
 4    1  0.3974123E+000  0.1759284E+03  0.7546771E-02  0.1171803E+00
         21   -1    0    0  501  502  0.00000000000E+00  0.00000000000E+00  0.63568122669E+02  0.63568122669E+02  0.00000000000E+00 0. -1.
         21   -1    0    0  502  503 -0.00000000000E+00 -0.00000000000E+00 -0.62185829061E+03  0.62185829061E+03  0.00000000000E+00 0. -1.
          6    1    1    2  501    0 -0.21220091898E+02  0.23906261282E+02 -0.11948439327E+03  0.21266716217E+03  0.17300000000E+03 0. -1.
         -6    1    1    2    0  503  0.21220091898E+02 -0.23906261282E+02 -0.43880577467E+03  0.47275925112E+03  0.17300000000E+03 0. -1.
<mgrwt>
<rscale>  2 0.17592840E+03</rscale>
<asrwt>0</asrwt>
<pdfrwt beam="1">  1       21 0.97797112E-02 0.17592840E+03</pdfrwt>
<pdfrwt beam="2">  1       21 0.95670506E-01 0.17592840E+03</pdfrwt>
<totfact> 0.77477262E+04</totfact>
</mgrwt>
</event>
<event>
 4    1  0.3974123E+000  0.2435979E+03  0.7546771E-02  0.1117419E+00
         21   -1    0    0  503  502  0.00000000000E+00  0.00000000000E+00  0.38950308611E+03  0.38950308611E+03  0.00000000000E+00 0. -1.
         21   -1    0    0  501  503 -0.00000000000E+00 -0.00000000000E+00 -0.26645669000E+03  0.26645669000E+03  0.00000000000E+00 0.  1.
          6    1    1    2  501    0  0.17149597970E+03 -0.21266271839E+00 -0.15310844329E+03  0.28771880663E+03  0.17300000000E+03 0.  1.
         -6    1    1    2    0  502 -0.17149597970E+03  0.21266271839E+00  0.27615483940E+03  0.36824096948E+03  0.17300000000E+03 0. -1.
<mgrwt>
<rscale>  2 0.24359786E+03</rscale>
<asrwt>0</asrwt>
<pdfrwt beam="1">  1       21 0.59923551E-01 0.24359786E+03</pdfrwt>
<pdfrwt beam="2">  1       21 0.40993337E-01 0.24359786E+03</pdfrwt>
<totfact> 0.14451709E+04</totfact>
</mgrwt>
</event>
<event>
 4    1  0.3974123E+000  0.2035553E+03  0.7546771E-02  0.1146774E+00
         21   -1    0    0  501  502  0.00000000000E+00  0.00000000000E+00  0.15671787924E+03  0.15671787924E+03  0.00000000000E+00 0.  1.
         21   -1    0    0  502  503 -0.00000000000E+00 -0.00000000000E+00 -0.46343361317E+03  0.46343361317E+03  0.00000000000E+00 0.  1.
          6    1    1    2  501    0  0.26530981690E+02 -0.10393212162E+03  0.49853122016E+02  0.20957125917E+03  0.17300000000E+03 0.  1.
         -6    1    1    2    0  503 -0.26530981690E+02  0.10393212162E+03 -0.35656885595E+03  0.41058023324E+03  0.17300000000E+03 0.  1.
<mgrwt>
<rscale>  2 0.20355535E+03</rscale>
<asrwt>0</asrwt>
<pdfrwt beam="1">  1       21 0.24110443E-01 0.20355535E+03</pdfrwt>
<pdfrwt beam="2">  1       21 0.71297479E-01 0.20355535E+03</pdfrwt>
<totfact> 0.28700047E+04</totfact>
</mgrwt>
</event>
<event>
 4    1  0.3974123E+000  0.1916798E+03  0.7546771E-02  0.1156955E+00
         21   -1    0    0  501  502  0.00000000000E+00  0.00000000000E+00  0.77344898785E+02  0.77344898785E+02  0.00000000000E+00 0. -1.
         21   -1    0    0  502  503 -0.00000000000E+00 -0.00000000000E+00 -0.51255920339E+03  0.51255920339E+03  0.00000000000E+00 0.  1.
          6    1    1    2  501    0  0.16769290968E+02  0.80814092569E+02 -0.13779562604E+03  0.23606939919E+03  0.17300000000E+03 0. -1.
         -6    1    1    2    0  503 -0.16769290968E+02 -0.80814092569E+02 -0.29741867857E+03  0.35383470299E+03  0.17300000000E+03 0.  1.
<mgrwt>
<rscale>  2 0.19167975E+03</rscale>
<asrwt>0</asrwt>
<pdfrwt beam="1">  1       21 0.11899215E-01 0.19167975E+03</pdfrwt>
<pdfrwt beam="2">  1       21 0.78855260E-01 0.19167975E+03</pdfrwt>
<totfact> 0.84682156E+04</totfact>
</mgrwt>
</event>
<event>
 4    1  0.3974123E+000  0.1833214E+03  0.7546771E-02  0.1164627E+00
         21   -1    0    0  503  502  0.00000000000E+00  0.00000000000E+00  0.36022528429E+03  0.36022528429E+03  0.00000000000E+00 0. -1.
         21   -1    0    0  501  503 -0.00000000000E+00 -0.00000000000E+00 -0.93570392750E+02  0.93570392750E+02  0.00000000000E+00 0.  1.
          6    1    1    2  501    0 -0.38737402379E+02 -0.46659744729E+02  0.12098706378E+03  0.21964650629E+03  0.17300000000E+03 0.  1.
         -6    1    1    2    0  502  0.38737402379E+02  0.46659744729E+02  0.14566782776E+03  0.23414917075E+03  0.17300000000E+03 0. -1.
<mgrwt>
<rscale>  2 0.18332135E+03</rscale>
<asrwt>0</asrwt>
<pdfrwt beam="1">  1       21 0.55419274E-01 0.18332135E+03</pdfrwt>
<pdfrwt beam="2">  1       21 0.14395445E-01 0.18332135E+03</pdfrwt>
<totfact> 0.13017734E+05</totfact>
</mgrwt>
</event>
<event>
 4    1  0.3974123E+000  0.1882808E+03  0.7546771E-02  0.1160021E+00
         21   -1    0    0  503  502  0.00000000000E+00  0.00000000000E+00  0.26456783824E+03  0.26456783824E+03  0.00000000000E+00 0.  1.
         21   -1    0    0  501  503 -0.00000000000E+00 -0.00000000000E+00 -0.19149962356E+03  0.19149962356E+03  0.00000000000E+00 0.  1.
          6    1    1    2  501    0  0.32934433889E+02  0.66603178669E+02 -0.88429143505E+02  0.20801291730E+03  0.17300000000E+03 0.  1.
         -6    1    1    2    0  502 -0.32934433889E+02 -0.66603178669E+02  0.16149735818E+03  0.24805454449E+03  0.17300000000E+03 0.  1.
<mgrwt>
<rscale>  2 0.18828080E+03</rscale>
<asrwt>0</asrwt>
<pdfrwt beam="1">  1       21 0.40702744E-01 0.18828080E+03</pdfrwt>
<pdfrwt beam="2">  1       21 0.29461481E-01 0.18828080E+03</pdfrwt>
<totfact> 0.64312445E+04</totfact>
</mgrwt>
</event>
<event>
 4    1  0.3974123E+000  0.1998966E+03  0.7546771E-02  0.1149826E+00
         21   -1    0    0  501  502  0.00000000000E+00  0.00000000000E+00  0.19853724633E+03  0.19853724633E+03  0.00000000000E+00 0.  1.
         21   -1    0    0  502  503 -0.00000000000E+00 -0.00000000000E+00 -0.17573228635E+04  0.17573228635E+04  0.00000000000E+00 0. -1.
          6    1    1    2  501    0  0.98020619922E+02 -0.20533000585E+02  0.14083393813E+03  0.24452575360E+03  0.17300000000E+03 0.  1.
         -6    1    1    2    0  503 -0.98020619922E+02  0.20533000585E+02 -0.16996195553E+04  0.17113343563E+04  0.17300000000E+03 0. -1.
<mgrwt>
<rscale>  2 0.19989659E+03</rscale>
<asrwt>0</asrwt>
<pdfrwt beam="1">  1       21 0.30544192E-01 0.19989659E+03</pdfrwt>
<pdfrwt beam="2">  1       21 0.27035736E+00 0.19989659E+03</pdfrwt>
<totfact> 0.51549620E+02</totfact>
</mgrwt>
</event>
<event>
 4    1  0.3974123E+000  0.1840460E+03  0.7546771E-02  0.1163944E+00
         21   -1    0    0  503  502  0.00000000000E+00  0.00000000000E+00  0.49913328741E+03  0.49913328741E+03  0.00000000000E+00 0.  1.
         21   -1    0    0  501  503 -0.00000000000E+00 -0.00000000000E+00 -0.11328089041E+03  0.11328089041E+03  0.00000000000E+00 0.  1.
          6    1    1    2  501    0 -0.59714153407E+02 -0.19445640417E+02 -0.96057442602E+00  0.18404846033E+03  0.17300000000E+03 0.  1.
         -6    1    1    2    0  502  0.59714153407E+02  0.19445640417E+02  0.38681297143E+03  0.42836571749E+03  0.17300000000E+03 0.  1.
<mgrwt>
<rscale>  2 0.18404595E+03</rscale>
<asrwt>0</asrwt>
<pdfrwt beam="1">  1       21 0.76789735E-01 0.18404595E+03</pdfrwt>
<pdfrwt beam="2">  1       21 0.17427830E-01 0.18404595E+03</pdfrwt>
<totfact> 0.45136977E+04</totfact>
</mgrwt>
</event>
<event>
 4    1  0.3974123E+000  0.1978447E+03  0.7546771E-02  0.1151570E+00
         21   -1    0    0  503  502  0.00000000000E+00  0.00000000000E+00  0.60029387883E+03  0.60029387883E+03  0.00000000000E+00 0. -1.
         21   -1    0    0  501  503 -0.00000000000E+00 -0.00000000000E+00 -0.69480019592E+02  0.69480019592E+02  0.00000000000E+00 0. -1.
          6    1    1    2  501    0 -0.95883732433E+02 -0.44557232024E+01  0.18234441976E+03  0.26905767232E+03  0.17300000000E+03 0. -1.
         -6    1    1    2    0  502  0.95883732433E+02  0.44557232024E+01  0.34846943948E+03  0.40071622611E+03  0.17300000000E+03 0. -1.
<mgrwt>
<rscale>  2 0.19784475E+03</rscale>
<asrwt>0</asrwt>
<pdfrwt beam="1">  1       21 0.92352901E-01 0.19784475E+03</pdfrwt>
<pdfrwt beam="2">  1       21 0.10689234E-01 0.19784475E+03</pdfrwt>
<totfact> 0.71183967E+04</totfact>
</mgrwt>
</event>
<event>
 4    1  0.3974123E+000  0.1851978E+03  0.7546771E-02  0.1162865E+00
         21   -1    0    0  503  502  0.00000000000E+00  0.00000000000E+00  0.16917412139E+04  0.16917412139E+04  0.00000000000E+00 0. -1.
         21   -1    0    0  501  503 -0.00000000000E+00 -0.00000000000E+00 -0.27720614098E+02  0.27720614098E+02  0.00000000000E+00 0. -1.
          6    1    1    2  501    0  0.56213487310E+02  0.34774729976E+02  0.38641287705E+03  0.42850104965E+03  0.17300000000E+03 0. -1.
         -6    1    1    2    0  502 -0.56213487310E+02 -0.34774729976E+02  0.12776077227E+04  0.12909607783E+04  0.17300000000E+03 0. -1.
<mgrwt>
<rscale>  2 0.18519783E+03</rscale>
<asrwt>0</asrwt>
<pdfrwt beam="1">  1       21 0.26026780E+00 0.18519783E+03</pdfrwt>
<pdfrwt beam="2">  1       21 0.42647112E-02 0.18519783E+03</pdfrwt>
<totfact> 0.20512598E+04</totfact>
</mgrwt>
</event>
<event>
 4    1  0.3974123E+000  0.2046110E+03  0.7546771E-02  0.1145906E+00
         21   -1    0    0  503  502  0.00000000000E+00  0.00000000000E+00  0.27177391116E+03  0.27177391116E+03  0.00000000000E+00 0.  1.
         21   -1    0    0  501  503 -0.00000000000E+00 -0.00000000000E+00 -0.36973554254E+03  0.36973554254E+03  0.00000000000E+00 0.  1.
          6    1    1    2  501    0 -0.10623829622E+03 -0.25497112821E+02 -0.29396724613E+03  0.35816535307E+03  0.17300000000E+03 0.  1.
         -6    1    1    2    0  502  0.10623829622E+03  0.25497112821E+02  0.19600561475E+03  0.28334410063E+03  0.17300000000E+03 0.  1.
<mgrwt>
<rscale>  2 0.20461104E+03</rscale>
<asrwt>0</asrwt>
<pdfrwt beam="1">  1       21 0.41811371E-01 0.20461104E+03</pdfrwt>
<pdfrwt beam="2">  1       21 0.56882391E-01 0.20461104E+03</pdfrwt>
<totfact> 0.15872275E+04</totfact>
</mgrwt>
</event>
<event>
 4    1  0.3974123E+000  0.2098524E+03  0.7546771E-02  0.1141683E+00
         21   -1    0    0  501  502  0.00000000000E+00  0.00000000000E+00  0.28115375597E+03  0.28115375597E+03  0.00000000000E+00 0. -1.
         21   -1    0    0  502  503 -0.00000000000E+00 -0.00000000000E+00 -0.18618727097E+03  0.18618727097E+03  0.00000000000E+00 0. -1.
          6    1    1    2  501    0 -0.10685285367E+03 -0.51879611646E+02  0.14058056935E+03  0.25258844574E+03  0.17300000000E+03 0. -1.
         -6    1    1    2    0  503  0.10685285367E+03  0.51879611646E+02 -0.45614084356E+02  0.21475258120E+03  0.17300000000E+03 0. -1.
<mgrwt>
<rscale>  2 0.20985239E+03</rscale>
<asrwt>0</asrwt>
<pdfrwt beam="1">  1       21 0.43254424E-01 0.20985239E+03</pdfrwt>
<pdfrwt beam="2">  1       21 0.28644196E-01 0.20985239E+03</pdfrwt>
<totfact> 0.59433847E+04</totfact>
</mgrwt>
</event>
<event>
 4    1  0.3974123E+000  0.2020561E+03  0.7546771E-02  0.1148016E+00
         21   -1    0    0  501  502  0.00000000000E+00  0.00000000000E+00  0.53615226582E+03  0.53615226582E+03  0.00000000000E+00 0. -1.
         21   -1    0    0  502  503 -0.00000000000E+00 -0.00000000000E+00 -0.95865903266E+02  0.95865903266E+02  0.00000000000E+00 0.  1.
          6    1    1    2  501    0 -0.10597378916E+02  0.10385267436E+03  0.36346185666E+03  0.41584997735E+03  0.17300000000E+03 0. -1.
         -6    1    1    2    0  503  0.10597378916E+02 -0.10385267436E+03  0.76824505886E+02  0.21616819173E+03  0.17300000000E+03 0.  1.
<mgrwt>
<rscale>  2 0.20205614E+03</rscale>
<asrwt>0</asrwt>
<pdfrwt beam="1">  1       21 0.82484962E-01 0.20205614E+03</pdfrwt>
<pdfrwt beam="2">  1       21 0.14748601E-01 0.20205614E+03</pdfrwt>
<totfact> 0.51668250E+04</totfact>
</mgrwt>
</event>
<event>
 4    1  0.3974123E+000  0.2577626E+03  0.7546771E-02  0.1108495E+00
         21   -1    0    0  503  502  0.00000000000E+00  0.00000000000E+00  0.16028729075E+04  0.16028729075E+04  0.00000000000E+00 0.  1.
         21   -1    0    0  501  503 -0.00000000000E+00 -0.00000000000E+00 -0.10642519796E+03  0.10642519796E+03  0.00000000000E+00 0. -1.
          6    1    1    2  501    0  0.17419833383E+03  0.78533574547E+02  0.80442674005E+02  0.27002334277E+03  0.17300000000E+03 0. -1.
         -6    1    1    2    0  502 -0.17419833383E+03 -0.78533574547E+02  0.14160050355E+04  0.14392747627E+04  0.17300000000E+03 0.  1.
<mgrwt>
<rscale>  2 0.25776265E+03</rscale>
<asrwt>0</asrwt>
<pdfrwt beam="1">  1       21 0.24659582E+00 0.25776265E+03</pdfrwt>
<pdfrwt beam="2">  1       21 0.16373108E-01 0.25776265E+03</pdfrwt>
<totfact> 0.21833108E+03</totfact>
</mgrwt>
</event>
<event>
 4    1  0.3974123E+000  0.1867862E+03  0.7546771E-02  0.1161392E+00
         21   -1    0    0  501  502  0.00000000000E+00  0.00000000000E+00  0.35198026296E+03  0.35198026296E+03  0.00000000000E+00 0.  1.
         21   -1    0    0  502  503 -0.00000000000E+00 -0.00000000000E+00 -0.99897634156E+02  0.99897634156E+02  0.00000000000E+00 0.  1.
          6    1    1    2  501    0 -0.52071934617E+02  0.47419269281E+02  0.14594684097E+03  0.23704335861E+03  0.17300000000E+03 0.  1.
         -6    1    1    2    0  503  0.52071934617E+02 -0.47419269281E+02  0.10613578783E+03  0.21483453850E+03  0.17300000000E+03 0.  1.
<mgrwt>
<rscale>  2 0.18678617E+03</rscale>
<asrwt>0</asrwt>
<pdfrwt beam="1">  1       21 0.54150809E-01 0.18678617E+03</pdfrwt>
<pdfrwt beam="2">  1       21 0.15368867E-01 0.18678617E+03</pdfrwt>
<totfact> 0.12122507E+05</totfact>
</mgrwt>
</event>
<event>
 4    1  0.3974123E+000  0.1904709E+03  0.7546771E-02  0.1158037E+00
         21   -1    0    0  503  502  0.00000000000E+00  0.00000000000E+00  0.10704275232E+03  0.10704275232E+03  0.00000000000E+00 0.  1.
         21   -1    0    0  501  503 -0.00000000000E+00 -0.00000000000E+00 -0.53859418599E+03  0.53859418599E+03  0.00000000000E+00 0.  1.
          6    1    1    2  501    0  0.81105856937E+01 -0.79274148042E+02 -0.41233159690E+03  0.45419876481E+03  0.17300000000E+03 0.  1.
         -6    1    1    2    0  502 -0.81105856937E+01  0.79274148042E+02 -0.19219836772E+02  0.19143817350E+03  0.17300000000E+03 0.  1.
<mgrwt>
<rscale>  2 0.19047092E+03</rscale>
<asrwt>0</asrwt>
<pdfrwt beam="1">  1       21 0.16468116E-01 0.19047092E+03</pdfrwt>
<pdfrwt beam="2">  1       21 0.82860644E-01 0.19047092E+03</pdfrwt>
<totfact> 0.42051184E+04</totfact>
</mgrwt>
</event>
<event>
 4    1  0.3974123E+000  0.2159340E+03  0.7546771E-02  0.1136951E+00
         21   -1    0    0  503  502  0.00000000000E+00  0.00000000000E+00  0.12804601432E+04  0.12804601432E+04  0.00000000000E+00 0.  1.
         21   -1    0    0  501  503 -0.00000000000E+00 -0.00000000000E+00 -0.41287692868E+02  0.41287692868E+02  0.00000000000E+00 0. -1.
          6    1    1    2  501    0  0.77185532126E+02 -0.10363815692E+03  0.39254244742E+03  0.44801456111E+03  0.17300000000E+03 0.  1.
         -6    1    1    2    0  502 -0.77185532126E+02  0.10363815692E+03  0.84663000291E+03  0.87373327496E+03  0.17300000000E+03 0. -1.
<mgrwt>
<rscale>  2 0.21593396E+03</rscale>
<asrwt>0</asrwt>
<pdfrwt beam="1">  1       21 0.19699384E+00 0.21593396E+03</pdfrwt>
<pdfrwt beam="2">  1       21 0.63519537E-02 0.21593396E+03</pdfrwt>
<totfact> 0.24693494E+04</totfact>
</mgrwt>
</event>
<event>
 4    1  0.3974123E+000  0.1816173E+03  0.7546771E-02  0.1166247E+00
         21   -1    0    0  503  502  0.00000000000E+00  0.00000000000E+00  0.19569251060E+03  0.19569251060E+03  0.00000000000E+00 0.  1.
         21   -1    0    0  501  503 -0.00000000000E+00 -0.00000000000E+00 -0.18630910555E+03  0.18630910555E+03  0.00000000000E+00 0.  1.
          6    1    1    2  501    0 -0.55235791194E+02 -0.22045657970E+01 -0.54270501869E+02  0.18955247324E+03  0.17300000000E+03 0. -1.
         -6    1    1    2    0  502  0.55235791194E+02  0.22045657970E+01  0.63653906924E+02  0.19244914291E+03  0.17300000000E+03 0. -1.
<mgrwt>
<rscale>  2 0.18161732E+03</rscale>
<asrwt>0</asrwt>
<pdfrwt beam="1">  1       21 0.30106540E-01 0.18161732E+03</pdfrwt>
<pdfrwt beam="2">  1       21 0.28662939E-01 0.18161732E+03</pdfrwt>
<totfact> 0.12369477E+05</totfact>
</mgrwt>
</event>
<event>
 4    1  0.3974123E+000  0.1859426E+03  0.7546771E-02  0.1162173E+00
         21   -1    0    0  501  502  0.00000000000E+00  0.00000000000E+00  0.22731849103E+04  0.22731849103E+04  0.00000000000E+00 0. -1.
         21   -1    0    0  502  503 -0.00000000000E+00 -0.00000000000E+00 -0.16296267634E+02  0.16296267634E+02  0.00000000000E+00 0.  1.
          6    1    1    2  501    0  0.64973936988E+02  0.20592392564E+02  0.14240235628E+04  0.14361120313E+04  0.17300000000E+03 0. -1.
         -6    1    1    2    0  503 -0.64973936988E+02 -0.20592392564E+02  0.83286507990E+03  0.85336914663E+03  0.17300000000E+03 0.  1.
<mgrwt>
<rscale>  2 0.18594262E+03</rscale>
<asrwt>0</asrwt>
<pdfrwt beam="1">  1       21 0.34972051E+00 0.18594262E+03</pdfrwt>
<pdfrwt beam="2">  1       21 0.25071199E-02 0.18594262E+03</pdfrwt>
<totfact> 0.15048971E+04</totfact>
</mgrwt>
</event>
<event>
 4    1  0.3974123E+000  0.1844183E+03  0.7546771E-02  0.1163594E+00
         21   -1    0    0  503  502  0.00000000000E+00  0.00000000000E+00  0.31878303665E+02  0.31878303665E+02  0.00000000000E+00 0.  1.
         21   -1    0    0  501  503 -0.00000000000E+00 -0.00000000000E+00 -0.11622344589E+04  0.11622344589E+04  0.00000000000E+00 0.  1.
          6    1    1    2  501    0  0.53997148978E+02  0.34138006234E+02 -0.73620139855E+03  0.75894834791E+03  0.17300000000E+03 0.  1.
         -6    1    1    2    0  502 -0.53997148978E+02 -0.34138006234E+02 -0.39415475671E+03  0.43516441468E+03  0.17300000000E+03 0.  1.
<mgrwt>
<rscale>  2 0.18441826E+03</rscale>
<asrwt>0</asrwt>
<pdfrwt beam="1">  1       21 0.49043547E-02 0.18441826E+03</pdfrwt>
<pdfrwt beam="2">  1       21 0.17880529E+00 0.18441826E+03</pdfrwt>
<totfact> 0.51789366E+04</totfact>
</mgrwt>
</event>
<event>
 4    1  0.3974123E+000  0.2418298E+03  0.7546771E-02  0.1118580E+00
         21   -1    0    0  501  502  0.00000000000E+00  0.00000000000E+00  0.78947490393E+03  0.78947490393E+03  0.00000000000E+00 0. -1.
         21   -1    0    0  502  503 -0.00000000000E+00 -0.00000000000E+00 -0.15245002580E+03  0.15245002580E+03  0.00000000000E+00 0.  1.
          6    1    1    2  501    0 -0.15377701553E+03  0.70037679910E+02  0.65619361629E+03  0.69933662079E+03  0.17300000000E+03 0. -1.
         -6    1    1    2    0  503  0.15377701553E+03 -0.70037679910E+02 -0.19168738166E+02  0.24258830894E+03  0.17300000000E+03 0.  1.
<mgrwt>
<rscale>  2 0.24182979E+03</rscale>
<asrwt>0</asrwt>
<pdfrwt beam="1">  1       21 0.12145768E+00 0.24182979E+03</pdfrwt>
<pdfrwt beam="2">  1       21 0.23453851E-01 0.24182979E+03</pdfrwt>
<totfact> 0.84753763E+03</totfact>
</mgrwt>
</event>
<event>
 4    1  0.3974123E+000  0.3240670E+03  0.7546771E-02  0.1073793E+00
         21   -1    0    0  503  502  0.00000000000E+00  0.00000000000E+00  0.10967010179E+04  0.10967010179E+04  0.00000000000E+00 0.  1.
         21   -1    0    0  501  503 -0.00000000000E+00 -0.00000000000E+00 -0.11233033038E+03  0.11233033038E+03  0.00000000000E+00 0. -1.
          6    1    1    2  501    0  0.22292320211E+03 -0.15936020833E+03  0.26000122493E+03  0.41547571169E+03  0.17300000000E+03 0. -1.
         -6    1    1    2    0  502 -0.22292320211E+03  0.15936020833E+03  0.72436946261E+03  0.79355563661E+03  0.17300000000E+03 0.  1.
<mgrwt>
<rscale>  2 0.32406701E+03</rscale>
<asrwt>0</asrwt>
<pdfrwt beam="1">  1       21 0.16872323E+00 0.32406701E+03</pdfrwt>
<pdfrwt beam="2">  1       21 0.17281590E-01 0.32406701E+03</pdfrwt>
<totfact> 0.60487907E+03</totfact>
</mgrwt>
</event>
<event>
 4    1  0.3974123E+000  0.1755686E+03  0.7546771E-02  0.1172162E+00
         21   -1    0    0  501  502  0.00000000000E+00  0.00000000000E+00  0.18397870170E+04  0.18397870170E+04  0.00000000000E+00 0.  1.
         21   -1    0    0  502  503 -0.00000000000E+00 -0.00000000000E+00 -0.17010241163E+02  0.17010241163E+02  0.00000000000E+00 0.  1.
          6    1    1    2  501    0  0.29324881510E+02  0.59487784170E+01  0.10252697213E+04  0.10401934138E+04  0.17300000000E+03 0.  1.
         -6    1    1    2    0  503 -0.29324881510E+02 -0.59487784170E+01  0.79750705456E+03  0.81660384441E+03  0.17300000000E+03 0.  1.
<mgrwt>
<rscale>  2 0.17556861E+03</rscale>
<asrwt>0</asrwt>
<pdfrwt beam="1">  1       21 0.28304400E+00 0.17556861E+03</pdfrwt>
<pdfrwt beam="2">  1       21 0.26169616E-02 0.17556861E+03</pdfrwt>
<totfact> 0.34421438E+04</totfact>
</mgrwt>
</event>
<event>
 4    1  0.3974123E+000  0.2508035E+03  0.7546771E-02  0.1112798E+00
         21   -1    0    0  501  502  0.00000000000E+00  0.00000000000E+00  0.24814429374E+03  0.24814429374E+03  0.00000000000E+00 0.  1.
         21   -1    0    0  502  503 -0.00000000000E+00 -0.00000000000E+00 -0.26381885459E+03  0.26381885459E+03  0.00000000000E+00 0.  1.
          6    1    1    2  501    0 -0.15700318023E+03  0.91232784656E+02  0.42809814616E+02  0.25443093331E+03  0.17300000000E+03 0.  1.
         -6    1    1    2    0  503  0.15700318023E+03 -0.91232784656E+02 -0.58484375473E+02  0.25753221502E+03  0.17300000000E+03 0.  1.
<mgrwt>
<rscale>  2 0.25080355E+03</rscale>
<asrwt>0</asrwt>
<pdfrwt beam="1">  1       21 0.38176045E-01 0.25080355E+03</pdfrwt>
<pdfrwt beam="2">  1       21 0.40587516E-01 0.25080355E+03</pdfrwt>
<totfact> 0.37647393E+04</totfact>
</mgrwt>
</event>
<event>
 4    1  0.3974123E+000  0.1780700E+03  0.7546771E-02  0.1169684E+00
         21   -1    0    0  503  502  0.00000000000E+00  0.00000000000E+00  0.26623806016E+03  0.26623806016E+03  0.00000000000E+00 0.  1.
         21   -1    0    0  501  503 -0.00000000000E+00 -0.00000000000E+00 -0.14361112054E+03  0.14361112054E+03  0.00000000000E+00 0.  1.
          6    1    1    2  501    0 -0.24737182342E+00  0.42188520573E+02 -0.23347317973E+02  0.17959406927E+03  0.17300000000E+03 0.  1.
         -6    1    1    2    0  502  0.24737182342E+00 -0.42188520573E+02  0.14597425759E+03  0.23025511143E+03  0.17300000000E+03 0.  1.
<mgrwt>
<rscale>  2 0.17807002E+03</rscale>
<asrwt>0</asrwt>
<pdfrwt beam="1">  1       21 0.40959702E-01 0.17807002E+03</pdfrwt>
<pdfrwt beam="2">  1       21 0.22094019E-01 0.17807002E+03</pdfrwt>
<totfact> 0.11052334E+05</totfact>
</mgrwt>
</event>
<event>
 4    1  0.3974123E+000  0.3249958E+03  0.7546771E-02  0.1073373E+00
         21   -1    0    0  501  502  0.00000000000E+00  0.00000000000E+00  0.62030226132E+03  0.62030226132E+03  0.00000000000E+00 0.  1.
         21   -1    0    0  502  503 -0.00000000000E+00 -0.00000000000E+00 -0.17029218910E+03  0.17029218910E+03  0.00000000000E+00 0.  1.
          6    1    1    2  501    0 -0.89556518903E+01  0.27497836012E+03  0.22109637925E+03  0.39307239938E+03  0.17300000000E+03 0.  1.
         -6    1    1    2    0  503  0.89556518903E+01 -0.27497836012E+03  0.22891369297E+03  0.39752205104E+03  0.17300000000E+03 0.  1.
<mgrwt>
<rscale>  2 0.32499585E+03</rscale>
<asrwt>0</asrwt>
<pdfrwt beam="1">  1       21 0.95431116E-01 0.32499585E+03</pdfrwt>
<pdfrwt beam="2">  1       21 0.26198799E-01 0.32499585E+03</pdfrwt>
<totfact> 0.11829274E+04</totfact>
</mgrwt>
</event>
<event>
 4    1  0.3974123E+000  0.2070255E+03  0.7546771E-02  0.1143943E+00
         21   -1    0    0  501  502  0.00000000000E+00  0.00000000000E+00  0.14699396729E+03  0.14699396729E+03  0.00000000000E+00 0. -1.
         21   -1    0    0  502  503 -0.00000000000E+00 -0.00000000000E+00 -0.30036725786E+03  0.30036725786E+03  0.00000000000E+00 0.  1.
          6    1    1    2  501    0  0.88552134265E+02  0.71337723472E+02 -0.38414012893E+02  0.21055922601E+03  0.17300000000E+03 0.  1.
         -6    1    1    2    0  503 -0.88552134265E+02 -0.71337723472E+02 -0.11495927768E+03  0.23680199914E+03  0.17300000000E+03 0. -1.
<mgrwt>
<rscale>  2 0.20702548E+03</rscale>
<asrwt>0</asrwt>
<pdfrwt beam="1">  1       21 0.22614457E-01 0.20702548E+03</pdfrwt>
<pdfrwt beam="2">  1       21 0.46210347E-01 0.20702548E+03</pdfrwt>
<totfact> 0.81718656E+04</totfact>
</mgrwt>
</event>
<event>
 4    1  0.3974123E+000  0.1730025E+03  0.7546771E-02  0.1174752E+00
         21   -1    0    0  501  502  0.00000000000E+00  0.00000000000E+00  0.26428534277E+02  0.26428534277E+02  0.00000000000E+00 0.  1.
         21   -1    0    0  502  503 -0.00000000000E+00 -0.00000000000E+00 -0.11351359152E+04  0.11351359152E+04  0.00000000000E+00 0.  1.
          6    1    1    2  501    0  0.18034786660E+00  0.91569081394E+00 -0.58242966639E+03  0.60758060149E+03  0.17300000000E+03 0.  1.
         -6    1    1    2    0  503 -0.18034786660E+00 -0.91569081394E+00 -0.52627771450E+03  0.55398384796E+03  0.17300000000E+03 0.  1.
<mgrwt>
<rscale>  2 0.17300252E+03</rscale>
<asrwt>0</asrwt>
<pdfrwt beam="1">  1       21 0.40659282E-02 0.17300252E+03</pdfrwt>
<pdfrwt beam="2">  1       21 0.17463630E+00 0.17300252E+03</pdfrwt>
<totfact> 0.76354589E+04</totfact>
</mgrwt>
</event>
<event>
 4    1  0.3974123E+000  0.1818032E+03  0.7546771E-02  0.1166069E+00
         21   -1    0    0  501  502  0.00000000000E+00  0.00000000000E+00  0.60917932666E+03  0.60917932666E+03  0.00000000000E+00 0.  1.
         21   -1    0    0  502  503 -0.00000000000E+00 -0.00000000000E+00 -0.99448760479E+02  0.99448760479E+02  0.00000000000E+00 0.  1.
          6    1    1    2  501    0  0.39295673244E+02  0.39740015157E+02  0.49371070467E+03  0.52612040318E+03  0.17300000000E+03 0.  1.
         -6    1    1    2    0  503 -0.39295673244E+02 -0.39740015157E+02  0.16019861513E+02  0.18250768396E+03  0.17300000000E+03 0.  1.
<mgrwt>
<rscale>  2 0.18180324E+03</rscale>
<asrwt>0</asrwt>
<pdfrwt beam="1">  1       21 0.93719895E-01 0.18180324E+03</pdfrwt>
<pdfrwt beam="2">  1       21 0.15299810E-01 0.18180324E+03</pdfrwt>
<totfact> 0.36391437E+04</totfact>
</mgrwt>
</event>
<event>
 4    1  0.3974123E+000  0.1900518E+03  0.7546771E-02  0.1158415E+00
         21   -1    0    0  501  502  0.00000000000E+00  0.00000000000E+00  0.75936097704E+02  0.75936097704E+02  0.00000000000E+00 0.  1.
         21   -1    0    0  502  503 -0.00000000000E+00 -0.00000000000E+00 -0.55950338552E+03  0.55950338552E+03  0.00000000000E+00 0.  1.
          6    1    1    2  501    0  0.78474523047E+02  0.56964217745E+01 -0.11879091553E+03  0.22412269319E+03  0.17300000000E+03 0.  1.
         -6    1    1    2    0  503 -0.78474523047E+02 -0.56964217745E+01 -0.36477637228E+03  0.41131679004E+03  0.17300000000E+03 0.  1.
<mgrwt>
<rscale>  2 0.19005184E+03</rscale>
<asrwt>0</asrwt>
<pdfrwt beam="1">  1       21 0.11682476E-01 0.19005184E+03</pdfrwt>
<pdfrwt beam="2">  1       21 0.86077446E-01 0.19005184E+03</pdfrwt>
<totfact> 0.71753881E+04</totfact>
</mgrwt>
</event>
<event>
 4    1  0.3974123E+000  0.2031769E+03  0.7546771E-02  0.1147086E+00
         21   -1    0    0  503  502  0.00000000000E+00  0.00000000000E+00  0.92936214445E+02  0.92936214445E+02  0.00000000000E+00 0. -1.
         21   -1    0    0  501  503 -0.00000000000E+00 -0.00000000000E+00 -0.47590249365E+03  0.47590249365E+03  0.00000000000E+00 0. -1.
          6    1    1    2  501    0  0.27865515722E+02 -0.10283668339E+03 -0.26490911651E+03  0.33385282749E+03  0.17300000000E+03 0. -1.
         -6    1    1    2    0  502 -0.27865515722E+02  0.10283668339E+03 -0.11805716270E+03  0.23498588060E+03  0.17300000000E+03 0. -1.
<mgrwt>
<rscale>  2 0.20317694E+03</rscale>
<asrwt>0</asrwt>
<pdfrwt beam="1">  1       21 0.14297879E-01 0.20317694E+03</pdfrwt>
<pdfrwt beam="2">  1       21 0.73215769E-01 0.20317694E+03</pdfrwt>
<totfact> 0.71454929E+04</totfact>
</mgrwt>
</event>
<event>
 4    1  0.3974123E+000  0.3522330E+03  0.7546771E-02  0.1061702E+00
         21   -1    0    0  501  502  0.00000000000E+00  0.00000000000E+00  0.94531043371E+02  0.94531043371E+02  0.00000000000E+00 0. -1.
         21   -1    0    0  502  503 -0.00000000000E+00 -0.00000000000E+00 -0.13126385065E+04  0.13126385065E+04  0.00000000000E+00 0. -1.
          6    1    1    2  501    0  0.24398849526E+03  0.18603422564E+03 -0.61728146896E+03  0.71070706402E+03  0.17300000000E+03 0. -1.
         -6    1    1    2    0  503 -0.24398849526E+03 -0.18603422564E+03 -0.60082599417E+03  0.69646248585E+03  0.17300000000E+03 0. -1.
<mgrwt>
<rscale>  2 0.35223305E+03</rscale>
<asrwt>0</asrwt>
<pdfrwt beam="1">  1       21 0.14543238E-01 0.35223305E+03</pdfrwt>
<pdfrwt beam="2">  1       21 0.20194437E+00 0.35223305E+03</pdfrwt>
<totfact> 0.48537034E+03</totfact>
</mgrwt>
</event>
<event>
 4    1  0.3974123E+000  0.1969105E+03  0.7546771E-02  0.1152372E+00
         21   -1    0    0  503  502  0.00000000000E+00  0.00000000000E+00  0.38545045931E+02  0.38545045931E+02  0.00000000000E+00 0. -1.
         21   -1    0    0  501  503 -0.00000000000E+00 -0.00000000000E+00 -0.11103406772E+04  0.11103406772E+04  0.00000000000E+00 0.  1.
          6    1    1    2  501    0 -0.72893390690E+02  0.59424802969E+02 -0.71204830478E+03  0.73877367438E+03  0.17300000000E+03 0.  1.
         -6    1    1    2    0  502  0.72893390690E+02 -0.59424802969E+02 -0.35974732647E+03  0.41011204873E+03  0.17300000000E+03 0. -1.
<mgrwt>
<rscale>  2 0.19691052E+03</rscale>
<asrwt>0</asrwt>
<pdfrwt beam="1">  1       21 0.59300072E-02 0.19691052E+03</pdfrwt>
<pdfrwt beam="2">  1       21 0.17082164E+00 0.19691052E+03</pdfrwt>
<totfact> 0.42249328E+04</totfact>
</mgrwt>
</event>
<event>
 4    1  0.3974123E+000  0.1972652E+03  0.7546771E-02  0.1152067E+00
         21   -1    0    0  501  502  0.00000000000E+00  0.00000000000E+00  0.10769439686E+04  0.10769439686E+04  0.00000000000E+00 0. -1.
         21   -1    0    0  502  503 -0.00000000000E+00 -0.00000000000E+00 -0.38312279407E+02  0.38312279407E+02  0.00000000000E+00 0. -1.
          6    1    1    2  501    0 -0.14389549266E+02  0.93688372109E+02  0.65229984585E+03  0.68147535472E+03  0.17300000000E+03 0. -1.
         -6    1    1    2    0  503  0.14389549266E+02 -0.93688372109E+02  0.38633184332E+03  0.43378089326E+03  0.17300000000E+03 0. -1.
<mgrwt>
<rscale>  2 0.19726523E+03</rscale>
<asrwt>0</asrwt>
<pdfrwt beam="1">  1       21 0.16568366E+00 0.19726523E+03</pdfrwt>
<pdfrwt beam="2">  1       21 0.58941976E-02 0.19726523E+03</pdfrwt>
<totfact> 0.46411598E+04</totfact>
</mgrwt>
</event>
<event>
 4    1  0.3974123E+000  0.2223077E+03  0.7546771E-02  0.1132174E+00
         21   -1    0    0  501  502  0.00000000000E+00  0.00000000000E+00  0.15973243222E+03  0.15973243222E+03  0.00000000000E+00 0. -1.
         21   -1    0    0  502  503 -0.00000000000E+00 -0.00000000000E+00 -0.30945495190E+03  0.30945495190E+03  0.00000000000E+00 0.  1.
          6    1    1    2  501    0 -0.13734993508E+03 -0.25034389070E+02 -0.78073341741E+02  0.23561870043E+03  0.17300000000E+03 0.  1.
         -6    1    1    2    0  503  0.13734993508E+03  0.25034389070E+02 -0.71649177939E+02  0.23356868369E+03  0.17300000000E+03 0.  1.
<mgrwt>
<rscale>  2 0.22230773E+03</rscale>
<asrwt>0</asrwt>
<pdfrwt beam="1">  1       21 0.24574221E-01 0.22230773E+03</pdfrwt>
<pdfrwt beam="2">  1       21 0.47608454E-01 0.22230773E+03</pdfrwt>
<totfact> 0.65172709E+04</totfact>
</mgrwt>
</event>
<event>
 4    1  0.3974123E+000  0.1900926E+03  0.7546771E-02  0.1158378E+00
         21   -1    0    0  501  502  0.00000000000E+00  0.00000000000E+00  0.15628316152E+04  0.15628316152E+04  0.00000000000E+00 0. -1.
         21   -1    0    0  502  503 -0.00000000000E+00 -0.00000000000E+00 -0.23929834553E+02  0.23929834553E+02  0.00000000000E+00 0. -1.
          6    1    1    2  501    0  0.68682141940E+02 -0.38586889046E+02  0.91525761519E+03  0.93478964842E+03  0.17300000000E+03 0. -1.
         -6    1    1    2    0  503 -0.68682141940E+02  0.38586889046E+02  0.62364416547E+03  0.65197180135E+03  0.17300000000E+03 0. -1.
<mgrwt>
<rscale>  2 0.19009257E+03</rscale>
<asrwt>0</asrwt>
<pdfrwt beam="1">  1       21 0.24043555E+00 0.19009257E+03</pdfrwt>
<pdfrwt beam="2">  1       21 0.36815142E-02 0.19009257E+03</pdfrwt>
<totfact> 0.34165836E+04</totfact>
</mgrwt>
</event>
<event>
 4    1  0.3974123E+000  0.2054314E+03  0.7546771E-02  0.1145236E+00
         21   -1    0    0  503  502  0.00000000000E+00  0.00000000000E+00  0.97727436494E+02  0.97727436494E+02  0.00000000000E+00 0.  1.
         21   -1    0    0  501  503 -0.00000000000E+00 -0.00000000000E+00 -0.43531317894E+03  0.43531317894E+03  0.00000000000E+00 0. -1.
          6    1    1    2  501    0  0.30345725057E+02  0.10654667329E+03 -0.19261884505E+03  0.28160979402E+03  0.17300000000E+03 0. -1.
         -6    1    1    2    0  502 -0.30345725057E+02 -0.10654667329E+03 -0.14496689739E+03  0.25143082142E+03  0.17300000000E+03 0. -1.
<mgrwt>
<rscale>  2 0.20543139E+03</rscale>
<asrwt>0</asrwt>
<pdfrwt beam="1">  1       21 0.15034991E-01 0.20543139E+03</pdfrwt>
<pdfrwt beam="2">  1       21 0.66971257E-01 0.20543139E+03</pdfrwt>
<totfact> 0.79317453E+04</totfact>
</mgrwt>
</event>
<event>
 4    1  0.3974123E+000  0.2463688E+03  0.7546771E-02  0.1115621E+00
         21   -1    0    0  503  502  0.00000000000E+00  0.00000000000E+00  0.14804565985E+03  0.14804565985E+03  0.00000000000E+00 0. -1.
         21   -1    0    0  501  503 -0.00000000000E+00 -0.00000000000E+00 -0.77966945720E+03  0.77966945720E+03  0.00000000000E+00 0. -1.
          6    1    1    2  501    0 -0.17444997798E+03 -0.18324930310E+02 -0.63521609406E+03  0.68132010394E+03  0.17300000000E+03 0. -1.
         -6    1    1    2    0  502  0.17444997798E+03  0.18324930310E+02  0.35922967054E+01  0.24639501310E+03  0.17300000000E+03 0. -1.
<mgrwt>
<rscale>  2 0.24636882E+03</rscale>
<asrwt>0</asrwt>
<pdfrwt beam="1">  1       21 0.22776256E-01 0.24636882E+03</pdfrwt>
<pdfrwt beam="2">  1       21 0.11994915E+00 0.24636882E+03</pdfrwt>
<totfact> 0.92218556E+03</totfact>
</mgrwt>
</event>
<event>
 4    1  0.3974123E+000  0.2673206E+03  0.7546771E-02  0.1102823E+00
         21   -1    0    0  501  502  0.00000000000E+00  0.00000000000E+00  0.10380457524E+03  0.10380457524E+03  0.00000000000E+00 0.  1.
         21   -1    0    0  502  503 -0.00000000000E+00 -0.00000000000E+00 -0.69282070837E+03  0.69282070837E+03  0.00000000000E+00 0. -1.
          6    1    1    2  501    0  0.15933544470E+03 -0.12705712992E+03 -0.26273366103E+03  0.37481898943E+03  0.17300000000E+03 0.  1.
         -6    1    1    2    0  503 -0.15933544470E+03  0.12705712992E+03 -0.32628247211E+03  0.42180629418E+03  0.17300000000E+03 0.  1.
<mgrwt>
<rscale>  2 0.26732059E+03</rscale>
<asrwt>0</asrwt>
<pdfrwt beam="1">  1       21 0.15969934E-01 0.26732059E+03</pdfrwt>
<pdfrwt beam="2">  1       21 0.10658780E+00 0.26732059E+03</pdfrwt>
<totfact> 0.23698021E+04</totfact>
</mgrwt>
</event>
<event>
 4    1  0.3974123E+000  0.1739383E+03  0.7546771E-02  0.1173802E+00
         21   -1    0    0  503  502  0.00000000000E+00  0.00000000000E+00  0.64886573957E+02  0.64886573957E+02  0.00000000000E+00 0.  1.
         21   -1    0    0  501  503 -0.00000000000E+00 -0.00000000000E+00 -0.15335652353E+04  0.15335652353E+04  0.00000000000E+00 0.  1.
          6    1    1    2  501    0 -0.16296433772E+02 -0.77434736492E+01 -0.14010863918E+04  0.14118419219E+04  0.17300000000E+03 0.  1.
         -6    1    1    2    0  502  0.16296433772E+02  0.77434736492E+01 -0.67592269455E+02  0.18660988727E+03  0.17300000000E+03 0.  1.
<mgrwt>
<rscale>  2 0.17393831E+03</rscale>
<asrwt>0</asrwt>
<pdfrwt beam="1">  1       21 0.99825508E-02 0.17393831E+03</pdfrwt>
<pdfrwt beam="2">  1       21 0.23593309E+00 0.17393831E+03</pdfrwt>
<totfact> 0.66825068E+03</totfact>
</mgrwt>
</event>
<event>
 4    1  0.3974123E+000  0.1891253E+03  0.7546771E-02  0.1159253E+00
         21   -1    0    0  503  502  0.00000000000E+00  0.00000000000E+00  0.39751774971E+03  0.39751774971E+03  0.00000000000E+00 0. -1.
         21   -1    0    0  501  503 -0.00000000000E+00 -0.00000000000E+00 -0.10669828176E+03  0.10669828176E+03  0.00000000000E+00 0. -1.
          6    1    1    2  501    0 -0.75854970835E+02 -0.92405981227E+01  0.45613771502E+02  0.19454814675E+03  0.17300000000E+03 0. -1.
         -6    1    1    2    0  502  0.75854970835E+02  0.92405981227E+01  0.24520569644E+03  0.30966788471E+03  0.17300000000E+03 0. -1.
<mgrwt>
<rscale>  2 0.18912526E+03</rscale>
<asrwt>0</asrwt>
<pdfrwt beam="1">  1       21 0.61156576E-01 0.18912526E+03</pdfrwt>
<pdfrwt beam="2">  1       21 0.16415121E-01 0.18912526E+03</pdfrwt>
<totfact> 0.82859620E+04</totfact>
</mgrwt>
</event>
<event>
 4    1  0.3974123E+000  0.2560803E+03  0.7546771E-02  0.1109521E+00
         21   -1    0    0  503  502  0.00000000000E+00  0.00000000000E+00  0.12623506214E+03  0.12623506214E+03  0.00000000000E+00 0. -1.
         21   -1    0    0  501  503 -0.00000000000E+00 -0.00000000000E+00 -0.52278523418E+03  0.52278523418E+03  0.00000000000E+00 0.  1.
          6    1    1    2  501    0  0.88184616313E+02 -0.16694788376E+03 -0.22406147330E+03  0.34026558196E+03  0.17300000000E+03 0.  1.
         -6    1    1    2    0  502 -0.88184616313E+02  0.16694788376E+03 -0.17248869875E+03  0.30875471436E+03  0.17300000000E+03 0. -1.
<mgrwt>
<rscale>  2 0.25608030E+03</rscale>
<asrwt>0</asrwt>
<pdfrwt beam="1">  1       21 0.19420778E-01 0.25608030E+03</pdfrwt>
<pdfrwt beam="2">  1       21 0.80428500E-01 0.25608030E+03</pdfrwt>
<totfact> 0.32108018E+04</totfact>
</mgrwt>
</event>
<event>
 4    1  0.3974123E+000  0.2026203E+03  0.7546771E-02  0.1147547E+00
         21   -1    0    0  501  502  0.00000000000E+00  0.00000000000E+00  0.64454639676E+03  0.64454639676E+03  0.00000000000E+00 0. -1.
         21   -1    0    0  502  503 -0.00000000000E+00 -0.00000000000E+00 -0.68384126987E+02  0.68384126987E+02  0.00000000000E+00 0. -1.
          6    1    1    2  501    0 -0.86732526252E+02  0.60028663786E+02  0.38141585862E+03  0.43189469641E+03  0.17300000000E+03 0. -1.
         -6    1    1    2    0  503  0.86732526252E+02 -0.60028663786E+02  0.19474641115E+03  0.28103582733E+03  0.17300000000E+03 0. -1.
<mgrwt>
<rscale>  2 0.20262026E+03</rscale>
<asrwt>0</asrwt>
<pdfrwt beam="1">  1       21 0.99160980E-01 0.20262026E+03</pdfrwt>
<pdfrwt beam="2">  1       21 0.10520635E-01 0.20262026E+03</pdfrwt>
<totfact> 0.61819686E+04</totfact>
</mgrwt>
</event>
<event>
 4    1  0.3974123E+000  0.1840786E+03  0.7546771E-02  0.1163913E+00
         21   -1    0    0  503  502  0.00000000000E+00  0.00000000000E+00  0.76668266718E+02  0.76668266718E+02  0.00000000000E+00 0. -1.
         21   -1    0    0  501  503 -0.00000000000E+00 -0.00000000000E+00 -0.49323414043E+03  0.49323414043E+03  0.00000000000E+00 0. -1.
          6    1    1    2  501    0 -0.60163712715E+02 -0.18337046265E+02 -0.30014988572E+03  0.35210065818E+03  0.17300000000E+03 0. -1.
         -6    1    1    2    0  502  0.60163712715E+02  0.18337046265E+02 -0.11641598799E+03  0.21780174897E+03  0.17300000000E+03 0. -1.
<mgrwt>
<rscale>  2 0.18407857E+03</rscale>
<asrwt>0</asrwt>
<pdfrwt beam="1">  1       21 0.11795118E-01 0.18407857E+03</pdfrwt>
<pdfrwt beam="2">  1       21 0.75882175E-01 0.18407857E+03</pdfrwt>
<totfact> 0.94054944E+04</totfact>
</mgrwt>
</event>
<event>
 4    1  0.3974123E+000  0.1801662E+03  0.7546771E-02  0.1167642E+00
         21   -1    0    0  501  502  0.00000000000E+00  0.00000000000E+00  0.23934692717E+03  0.23934692717E+03  0.00000000000E+00 0.  1.
         21   -1    0    0  502  503 -0.00000000000E+00 -0.00000000000E+00 -0.15807504028E+03  0.15807504028E+03  0.00000000000E+00 0.  1.
          6    1    1    2  501    0 -0.48970474745E+02 -0.11521900123E+02  0.11553253215E+03  0.21402716548E+03  0.17300000000E+03 0. -1.
         -6    1    1    2    0  503  0.48970474745E+02  0.11521900123E+02 -0.34260645255E+02  0.18339480198E+03  0.17300000000E+03 0. -1.
<mgrwt>
<rscale>  2 0.18016621E+03</rscale>
<asrwt>0</asrwt>
<pdfrwt beam="1">  1       21 0.36822604E-01 0.18016621E+03</pdfrwt>
<pdfrwt beam="2">  1       21 0.24319237E-01 0.18016621E+03</pdfrwt>
<totfact> 0.11406757E+05</totfact>
</mgrwt>
</event>
<event>
 4    1  0.3974123E+000  0.2004754E+03  0.7546771E-02  0.1149339E+00
         21   -1    0    0  503  502  0.00000000000E+00  0.00000000000E+00  0.73365116779E+03  0.73365116779E+03  0.00000000000E+00 0. -1.
         21   -1    0    0  501  503 -0.00000000000E+00 -0.00000000000E+00 -0.61844162823E+02  0.61844162823E+02  0.00000000000E+00 0.  1.
          6    1    1    2  501    0  0.54518819643E+02  0.85376066913E+02  0.20148834118E+03  0.28423216941E+03  0.17300000000E+03 0.  1.
         -6    1    1    2    0  502 -0.54518819643E+02 -0.85376066913E+02  0.47031866378E+03  0.51126316120E+03  0.17300000000E+03 0.  1.
<mgrwt>
<rscale>  2 0.20047537E+03</rscale>
<asrwt>0</asrwt>
<pdfrwt beam="1">  1       21 0.11286940E+00 0.20047537E+03</pdfrwt>
<pdfrwt beam="2">  1       21 0.95144871E-02 0.20047537E+03</pdfrwt>
<totfact> 0.54136481E+04</totfact>
</mgrwt>
</event>
<event>
 4    1  0.3974123E+000  0.2116541E+03  0.7546771E-02  0.1140263E+00
         21   -1    0    0  501  502  0.00000000000E+00  0.00000000000E+00  0.44599587174E+03  0.44599587174E+03  0.00000000000E+00 0.  1.
         21   -1    0    0  502  503 -0.00000000000E+00 -0.00000000000E+00 -0.14835102323E+03  0.14835102323E+03  0.00000000000E+00 0.  1.
          6    1    1    2  501    0  0.86506804502E+02 -0.85936231982E+02  0.31769759762E+03  0.38174497603E+03  0.17300000000E+03 0.  1.
         -6    1    1    2    0  503 -0.86506804502E+02  0.85936231982E+02 -0.20052749112E+02  0.21260191895E+03  0.17300000000E+03 0.  1.
<mgrwt>
<rscale>  2 0.21165411E+03</rscale>
<asrwt>0</asrwt>
<pdfrwt beam="1">  1       21 0.68614749E-01 0.21165411E+03</pdfrwt>
<pdfrwt beam="2">  1       21 0.22823234E-01 0.21165411E+03</pdfrwt>
<totfact> 0.34520316E+04</totfact>
</mgrwt>
</event>
<event>
 4    1  0.3974123E+000  0.1807427E+03  0.7546771E-02  0.1167086E+00
         21   -1    0    0  503  502  0.00000000000E+00  0.00000000000E+00  0.41551795318E+03  0.41551795318E+03  0.00000000000E+00 0.  1.
         21   -1    0    0  501  503 -0.00000000000E+00 -0.00000000000E+00 -0.87017854002E+02  0.87017854002E+02  0.00000000000E+00 0.  1.
          6    1    1    2  501    0  0.31575643779E+02 -0.41736258338E+02  0.86191176422E+02  0.20024199218E+03  0.17300000000E+03 0. -1.
         -6    1    1    2    0  502 -0.31575643779E+02  0.41736258338E+02  0.24230892276E+03  0.30229381500E+03  0.17300000000E+03 0. -1.
<mgrwt>
<rscale>  2 0.18074274E+03</rscale>
<asrwt>0</asrwt>
<pdfrwt beam="1">  1       21 0.63925838E-01 0.18074274E+03</pdfrwt>
<pdfrwt beam="2">  1       21 0.13387362E-01 0.18074274E+03</pdfrwt>
<totfact> 0.10943387E+05</totfact>
</mgrwt>
</event>
<event>
 4    1  0.3974123E+000  0.1965306E+03  0.7546771E-02  0.1152700E+00
         21   -1    0    0  501  502  0.00000000000E+00  0.00000000000E+00  0.27608401597E+03  0.27608401597E+03  0.00000000000E+00 0. -1.
         21   -1    0    0  502  503 -0.00000000000E+00 -0.00000000000E+00 -0.25440345165E+03  0.25440345165E+03  0.00000000000E+00 0. -1.
          6    1    1    2  501    0 -0.33432051306E+02 -0.87049249652E+02  0.18878786679E+03  0.27251629780E+03  0.17300000000E+03 0. -1.
         -6    1    1    2    0  503  0.33432051306E+02  0.87049249652E+02 -0.16710730247E+03  0.25797116982E+03  0.17300000000E+03 0. -1.
<mgrwt>
<rscale>  2 0.19653059E+03</rscale>
<asrwt>0</asrwt>
<pdfrwt beam="1">  1       21 0.42474464E-01 0.19653059E+03</pdfrwt>
<pdfrwt beam="2">  1       21 0.39138992E-01 0.19653059E+03</pdfrwt>
<totfact> 0.33495060E+04</totfact>
</mgrwt>
</event>
<event>
 4    1  0.3974123E+000  0.2701541E+03  0.7546771E-02  0.1101191E+00
         21   -1    0    0  501  502  0.00000000000E+00  0.00000000000E+00  0.31744888589E+03  0.31744888589E+03  0.00000000000E+00 0. -1.
         21   -1    0    0  502  503 -0.00000000000E+00 -0.00000000000E+00 -0.23944784065E+03  0.23944784065E+03  0.00000000000E+00 0. -1.
          6    1    1    2  501    0  0.18574503872E+03 -0.92482633419E+02  0.94586570941E+02  0.28623395378E+03  0.17300000000E+03 0. -1.
         -6    1    1    2    0  503 -0.18574503872E+03  0.92482633419E+02 -0.16585525699E+02  0.27066277276E+03  0.17300000000E+03 0. -1.
<mgrwt>
<rscale>  2 0.27015414E+03</rscale>
<asrwt>0</asrwt>
<pdfrwt beam="1">  1       21 0.48838290E-01 0.27015414E+03</pdfrwt>
<pdfrwt beam="2">  1       21 0.36838129E-01 0.27015414E+03</pdfrwt>
<totfact> 0.27379845E+04</totfact>
</mgrwt>
</event>
<event>
 4    1  0.3974123E+000  0.1758813E+03  0.7546771E-02  0.1171850E+00
         21   -1    0    0  501  502  0.00000000000E+00  0.00000000000E+00  0.54862317083E+02  0.54862317083E+02  0.00000000000E+00 0. -1.
         21   -1    0    0  502  503 -0.00000000000E+00 -0.00000000000E+00 -0.56852038016E+03  0.56852038016E+03  0.00000000000E+00 0. -1.
          6    1    1    2  501    0 -0.57683368037E+01 -0.31176083919E+02 -0.22858417814E+03  0.28841800986E+03  0.17300000000E+03 0.  1.
         -6    1    1    2    0  503  0.57683368037E+01  0.31176083919E+02 -0.28507388494E+03  0.33496468738E+03  0.17300000000E+03 0.  1.
<mgrwt>
<rscale>  2 0.17588127E+03</rscale>
<asrwt>0</asrwt>
<pdfrwt beam="1">  1       21 0.84403565E-02 0.17588127E+03</pdfrwt>
<pdfrwt beam="2">  1       21 0.87464674E-01 0.17588127E+03</pdfrwt>
<totfact> 0.12343020E+05</totfact>
</mgrwt>
</event>
<event>
 4    1  0.3974123E+000  0.2110439E+03  0.7546771E-02  0.1140742E+00
         21   -1    0    0  503  502  0.00000000000E+00  0.00000000000E+00  0.38186279863E+02  0.38186279863E+02  0.00000000000E+00 0. -1.
         21   -1    0    0  501  503 -0.00000000000E+00 -0.00000000000E+00 -0.24965784920E+04  0.24965784920E+04  0.00000000000E+00 0. -1.
          6    1    1    2  501    0 -0.33562895116E+01 -0.12082745903E+03 -0.21543074837E+04  0.21646201223E+04  0.17300000000E+03 0. -1.
         -6    1    1    2    0  502  0.33562895116E+01  0.12082745903E+03 -0.30408472847E+03  0.37014464960E+03  0.17300000000E+03 0. -1.
<mgrwt>
<rscale>  2 0.21104393E+03</rscale>
<asrwt>0</asrwt>
<pdfrwt beam="1">  1       21 0.58748131E-02 0.21104393E+03</pdfrwt>
<pdfrwt beam="2">  1       21 0.38408894E+00 0.21104393E+03</pdfrwt>
<totfact> 0.21767125E+03</totfact>
</mgrwt>
</event>
<event>
 4    1  0.3974123E+000  0.2377187E+03  0.7546771E-02  0.1121322E+00
         21   -1    0    0  503  502  0.00000000000E+00  0.00000000000E+00  0.27705770458E+03  0.27705770458E+03  0.00000000000E+00 0. -1.
         21   -1    0    0  501  503 -0.00000000000E+00 -0.00000000000E+00 -0.25796717765E+03  0.25796717765E+03  0.00000000000E+00 0. -1.
          6    1    1    2  501    0 -0.80962049118E+02 -0.14151441348E+03 -0.11285034306E+03  0.26314517391E+03  0.17300000000E+03 0. -1.
         -6    1    1    2    0  502  0.80962049118E+02  0.14151441348E+03  0.13194086999E+03  0.27187970832E+03  0.17300000000E+03 0. -1.
<mgrwt>
<rscale>  2 0.23771870E+03</rscale>
<asrwt>0</asrwt>
<pdfrwt beam="1">  1       21 0.42624263E-01 0.23771870E+03</pdfrwt>
<pdfrwt beam="2">  1       21 0.39687258E-01 0.23771870E+03</pdfrwt>
<totfact> 0.31670387E+04</totfact>
</mgrwt>
</event>
<event>
 4    1  0.3974123E+000  0.1845948E+03  0.7546771E-02  0.1163429E+00
         21   -1    0    0  501  502  0.00000000000E+00  0.00000000000E+00  0.87923505062E+03  0.87923505062E+03  0.00000000000E+00 0. -1.
         21   -1    0    0  502  503 -0.00000000000E+00 -0.00000000000E+00 -0.38771003572E+02  0.38771003572E+02  0.00000000000E+00 0. -1.
          6    1    1    2  501    0  0.45125125733E+02  0.45934135016E+02  0.42940131463E+03  0.46739780780E+03  0.17300000000E+03 0. -1.
         -6    1    1    2    0  503 -0.45125125733E+02 -0.45934135016E+02  0.41106273242E+03  0.45060824639E+03  0.17300000000E+03 0. -1.
<mgrwt>
<rscale>  2 0.18459475E+03</rscale>
<asrwt>0</asrwt>
<pdfrwt beam="1">  1       21 0.13526692E+00 0.18459475E+03</pdfrwt>
<pdfrwt beam="2">  1       21 0.59647704E-02 0.18459475E+03</pdfrwt>
<totfact> 0.78153569E+04</totfact>
</mgrwt>
</event>
<event>
 4    1  0.3974123E+000  0.2320012E+03  0.7546771E-02  0.1125239E+00
         21   -1    0    0  503  502  0.00000000000E+00  0.00000000000E+00  0.24027718249E+02  0.24027718249E+02  0.00000000000E+00 0.  1.
         21   -1    0    0  501  503 -0.00000000000E+00 -0.00000000000E+00 -0.23827552858E+04  0.23827552858E+04  0.00000000000E+00 0. -1.
          6    1    1    2  501    0  0.13839788476E+03  0.68859074341E+02 -0.14738111479E+04  0.14919597335E+04  0.17300000000E+03 0. -1.
         -6    1    1    2    0  502 -0.13839788476E+03 -0.68859074341E+02 -0.88491641967E+03  0.91482327060E+03  0.17300000000E+03 0.  1.
<mgrwt>
<rscale>  2 0.23200118E+03</rscale>
<asrwt>0</asrwt>
<pdfrwt beam="1">  1       21 0.36965733E-02 0.23200118E+03</pdfrwt>
<pdfrwt beam="2">  1       21 0.36657761E+00 0.23200118E+03</pdfrwt>
<totfact> 0.59472163E+03</totfact>
</mgrwt>
</event>
<event>
 4    1  0.3974123E+000  0.2100978E+03  0.7546771E-02  0.1141489E+00
         21   -1    0    0  503  502  0.00000000000E+00  0.00000000000E+00  0.56078601258E+03  0.56078601258E+03  0.00000000000E+00 0.  1.
         21   -1    0    0  501  503 -0.00000000000E+00 -0.00000000000E+00 -0.10685204209E+03  0.10685204209E+03  0.00000000000E+00 0. -1.
          6    1    1    2  501    0  0.47982584595E+02 -0.10913177035E+03  0.55659871628E+02  0.21734556134E+03  0.17300000000E+03 0. -1.
         -6    1    1    2    0  502 -0.47982584595E+02  0.10913177035E+03  0.39827409886E+03  0.45029249333E+03  0.17300000000E+03 0.  1.
<mgrwt>
<rscale>  2 0.21009777E+03</rscale>
<asrwt>0</asrwt>
<pdfrwt beam="1">  1       21 0.86274769E-01 0.21009777E+03</pdfrwt>
<pdfrwt beam="2">  1       21 0.16438776E-01 0.21009777E+03</pdfrwt>
<totfact> 0.38073231E+04</totfact>
</mgrwt>
</event>
<event>
 4    1  0.3974123E+000  0.2124465E+03  0.7546771E-02  0.1139643E+00
         21   -1    0    0  503  502  0.00000000000E+00  0.00000000000E+00  0.29292400189E+03  0.29292400189E+03  0.00000000000E+00 0.  1.
         21   -1    0    0  501  503 -0.00000000000E+00 -0.00000000000E+00 -0.20540714329E+03  0.20540714329E+03  0.00000000000E+00 0. -1.
          6    1    1    2  501    0  0.12101651549E+03  0.23654316101E+02 -0.80795316636E+02  0.22729145801E+03  0.17300000000E+03 0. -1.
         -6    1    1    2    0  502 -0.12101651549E+03 -0.23654316101E+02  0.16831217524E+03  0.27103968718E+03  0.17300000000E+03 0.  1.
<mgrwt>
<rscale>  2 0.21244652E+03</rscale>
<asrwt>0</asrwt>
<pdfrwt beam="1">  1       21 0.45065231E-01 0.21244652E+03</pdfrwt>
<pdfrwt beam="2">  1       21 0.31601099E-01 0.21244652E+03</pdfrwt>
<totfact> 0.45038300E+04</totfact>
</mgrwt>
</event>
<event>
 4    1  0.3974123E+000  0.2074515E+03  0.7546771E-02  0.1143600E+00
         21   -1    0    0  503  502  0.00000000000E+00  0.00000000000E+00  0.62550082937E+02  0.62550082937E+02  0.00000000000E+00 0. -1.
         21   -1    0    0  501  503 -0.00000000000E+00 -0.00000000000E+00 -0.70772716011E+03  0.70772716011E+03  0.00000000000E+00 0. -1.
          6    1    1    2  501    0  0.11365456780E+03  0.13774879501E+02 -0.38684631365E+03  0.43896033816E+03  0.17300000000E+03 0. -1.
         -6    1    1    2    0  502 -0.11365456780E+03 -0.13774879501E+02 -0.25833076352E+03  0.33131690489E+03  0.17300000000E+03 0. -1.
<mgrwt>
<rscale>  2 0.20745146E+03</rscale>
<asrwt>0</asrwt>
<pdfrwt beam="1">  1       21 0.96230894E-02 0.20745146E+03</pdfrwt>
<pdfrwt beam="2">  1       21 0.10888110E+00 0.20745146E+03</pdfrwt>
<totfact> 0.57702784E+04</totfact>
</mgrwt>
</event>
<event>
 4    1  0.3974123E+000  0.2123867E+03  0.7546771E-02  0.1139690E+00
         21   -1    0    0  503  502  0.00000000000E+00  0.00000000000E+00  0.84617517259E+02  0.84617517259E+02  0.00000000000E+00 0. -1.
         21   -1    0    0  501  503 -0.00000000000E+00 -0.00000000000E+00 -0.88823720560E+03  0.88823720560E+03  0.00000000000E+00 0.  1.
          6    1    1    2  501    0 -0.11964886284E+02  0.12262123637E+03 -0.70939278226E+03  0.74050404836E+03  0.17300000000E+03 0.  1.
         -6    1    1    2    0  502  0.11964886284E+02 -0.12262123637E+03 -0.94226906080E+02  0.23235067450E+03  0.17300000000E+03 0. -1.
<mgrwt>
<rscale>  2 0.21238674E+03</rscale>
<asrwt>0</asrwt>
<pdfrwt beam="1">  1       21 0.13018079E-01 0.21238674E+03</pdfrwt>
<pdfrwt beam="2">  1       21 0.13665188E+00 0.21238674E+03</pdfrwt>
<totfact> 0.19064001E+04</totfact>
</mgrwt>
</event>
<event>
 4    1  0.3974123E+000  0.1828733E+03  0.7546771E-02  0.1165051E+00
         21   -1    0    0  503  502  0.00000000000E+00  0.00000000000E+00  0.36675255816E+02  0.36675255816E+02  0.00000000000E+00 0. -1.
         21   -1    0    0  501  503 -0.00000000000E+00 -0.00000000000E+00 -0.92813927096E+03  0.92813927096E+03  0.00000000000E+00 0. -1.
          6    1    1    2  501    0 -0.30233403051E+01 -0.59198704128E+02 -0.50962464022E+03  0.54144242637E+03  0.17300000000E+03 0. -1.
         -6    1    1    2    0  502  0.30233403051E+01  0.59198704128E+02 -0.38183937492E+03  0.42337210040E+03  0.17300000000E+03 0. -1.
<mgrwt>
<rscale>  2 0.18287325E+03</rscale>
<asrwt>0</asrwt>
<pdfrwt beam="1">  1       21 0.56423474E-02 0.18287325E+03</pdfrwt>
<pdfrwt beam="2">  1       21 0.14279065E+00 0.18287325E+03</pdfrwt>
<totfact> 0.74825750E+04</totfact>
</mgrwt>
</event>
<event>
 4    1  0.3974123E+000  0.2088771E+03  0.7546771E-02  0.1142458E+00
         21   -1    0    0  503  502  0.00000000000E+00  0.00000000000E+00  0.91328936230E+02  0.91328936230E+02  0.00000000000E+00 0. -1.
         21   -1    0    0  501  503 -0.00000000000E+00 -0.00000000000E+00 -0.48946849116E+03  0.48946849116E+03  0.00000000000E+00 0. -1.
          6    1    1    2  501    0  0.31605296053E+02  0.11270194307E+03 -0.24406131076E+03  0.32124063585E+03  0.17300000000E+03 0. -1.
         -6    1    1    2    0  502 -0.31605296053E+02 -0.11270194307E+03 -0.15407824417E+03  0.25955679154E+03  0.17300000000E+03 0. -1.
<mgrwt>
<rscale>  2 0.20887705E+03</rscale>
<asrwt>0</asrwt>
<pdfrwt beam="1">  1       21 0.14050605E-01 0.20887705E+03</pdfrwt>
<pdfrwt beam="2">  1       21 0.75302846E-01 0.20887705E+03</pdfrwt>
<totfact> 0.69091913E+04</totfact>
</mgrwt>
</event>
<event>
 4    1  0.3974123E+000  0.1923938E+03  0.7546771E-02  0.1156320E+00
         21   -1    0    0  501  502  0.00000000000E+00  0.00000000000E+00  0.13834545429E+03  0.13834545429E+03  0.00000000000E+00 0.  1.
         21   -1    0    0  502  503 -0.00000000000E+00 -0.00000000000E+00 -0.28648367720E+03  0.28648367720E+03  0.00000000000E+00 0.  1.
          6    1    1    2  501    0  0.83772959673E+02  0.82750071114E+01 -0.19472700670E+02  0.19337675813E+03  0.17300000000E+03 0.  1.
         -6    1    1    2    0  503 -0.83772959673E+02 -0.82750071114E+01 -0.12866552224E+03  0.23145237335E+03  0.17300000000E+03 0.  1.
<mgrwt>
<rscale>  2 0.19239383E+03</rscale>
<asrwt>0</asrwt>
<pdfrwt beam="1">  1       21 0.21283916E-01 0.19239383E+03</pdfrwt>
<pdfrwt beam="2">  1       21 0.44074412E-01 0.19239383E+03</pdfrwt>
<totfact> 0.10160246E+05</totfact>
</mgrwt>
</event>
<event>
 4    1  0.3974123E+000  0.1731386E+03  0.7546771E-02  0.1174614E+00
         21   -1    0    0  501  502  0.00000000000E+00  0.00000000000E+00  0.19277799802E+03  0.19277799802E+03  0.00000000000E+00 0. -1.
         21   -1    0    0  502  503 -0.00000000000E+00 -0.00000000000E+00 -0.21648972218E+03  0.21648972218E+03  0.00000000000E+00 0. -1.
          6    1    1    2  501    0 -0.67165089640E+01  0.16957430866E+01  0.96758443141E+02  0.19834107834E+03  0.17300000000E+03 0. -1.
         -6    1    1    2    0  503  0.67165089640E+01 -0.16957430866E+01 -0.12047016730E+03  0.21092664186E+03  0.17300000000E+03 0. -1.
<mgrwt>
<rscale>  2 0.17313864E+03</rscale>
<asrwt>0</asrwt>
<pdfrwt beam="1">  1       21 0.29658153E-01 0.17313864E+03</pdfrwt>
<pdfrwt beam="2">  1       21 0.33306111E-01 0.17313864E+03</pdfrwt>
<totfact> 0.95313386E+04</totfact>
</mgrwt>
</event>
<event>
 4    1  0.3974123E+000  0.1845779E+03  0.7546771E-02  0.1163445E+00
         21   -1    0    0  503  502  0.00000000000E+00  0.00000000000E+00  0.19780708405E+03  0.19780708405E+03  0.00000000000E+00 0.  1.
         21   -1    0    0  501  503 -0.00000000000E+00 -0.00000000000E+00 -0.17250288415E+03  0.17250288415E+03  0.00000000000E+00 0. -1.
          6    1    1    2  501    0  0.25462409518E+02  0.59090342827E+02  0.19969174792E+02  0.18565497800E+03  0.17300000000E+03 0.  1.
         -6    1    1    2    0  502 -0.25462409518E+02 -0.59090342827E+02  0.53350251072E+01  0.18465499020E+03  0.17300000000E+03 0. -1.
<mgrwt>
<rscale>  2 0.18457790E+03</rscale>
<asrwt>0</asrwt>
<pdfrwt beam="1">  1       21 0.30431859E-01 0.18457790E+03</pdfrwt>
<pdfrwt beam="2">  1       21 0.26538905E-01 0.18457790E+03</pdfrwt>
<totfact> 0.14037251E+05</totfact>
</mgrwt>
</event>
<event>
 4    1  0.3974123E+000  0.1780049E+03  0.7546771E-02  0.1169748E+00
         21   -1    0    0  501  502  0.00000000000E+00  0.00000000000E+00  0.28103482076E+03  0.28103482076E+03  0.00000000000E+00 0. -1.
         21   -1    0    0  502  503 -0.00000000000E+00 -0.00000000000E+00 -0.17998923736E+03  0.17998923736E+03  0.00000000000E+00 0. -1.
          6    1    1    2  501    0 -0.39554455144E+02  0.13862674537E+02  0.19141682480E+03  0.26139267297E+03  0.17300000000E+03 0. -1.
         -6    1    1    2    0  503  0.39554455144E+02 -0.13862674537E+02 -0.90371241393E+02  0.19963138515E+03  0.17300000000E+03 0. -1.
<mgrwt>
<rscale>  2 0.17800486E+03</rscale>
<asrwt>0</asrwt>
<pdfrwt beam="1">  1       21 0.43236126E-01 0.17800486E+03</pdfrwt>
<pdfrwt beam="2">  1       21 0.27690652E-01 0.17800486E+03</pdfrwt>
<totfact> 0.64431477E+04</totfact>
</mgrwt>
</event>
<event>
 4    1  0.3974123E+000  0.2049586E+03  0.7546771E-02  0.1145622E+00
         21   -1    0    0  501  502  0.00000000000E+00  0.00000000000E+00  0.23871980741E+03  0.23871980741E+03  0.00000000000E+00 0. -1.
         21   -1    0    0  502  503 -0.00000000000E+00 -0.00000000000E+00 -0.18785860342E+03  0.18785860342E+03  0.00000000000E+00 0. -1.
          6    1    1    2  501    0  0.74479409727E+02 -0.80819869134E+02  0.79081844856E+02  0.21968607581E+03  0.17300000000E+03 0. -1.
         -6    1    1    2    0  503 -0.74479409727E+02  0.80819869134E+02 -0.28220640870E+02  0.20689233502E+03  0.17300000000E+03 0. -1.
<mgrwt>
<rscale>  2 0.20495861E+03</rscale>
<asrwt>0</asrwt>
<pdfrwt beam="1">  1       21 0.36726124E-01 0.20495861E+03</pdfrwt>
<pdfrwt beam="2">  1       21 0.28901324E-01 0.20495861E+03</pdfrwt>
<totfact> 0.81499246E+04</totfact>
</mgrwt>
</event>
<event>
 4    1  0.3974123E+000  0.2302229E+03  0.7546771E-02  0.1126483E+00
         21   -1    0    0  501  502  0.00000000000E+00  0.00000000000E+00  0.40064935738E+02  0.40064935738E+02  0.00000000000E+00 0. -1.
         21   -1    0    0  502  503 -0.00000000000E+00 -0.00000000000E+00 -0.13496365777E+04  0.13496365777E+04  0.00000000000E+00 0. -1.
          6    1    1    2  501    0 -0.11689934486E+03  0.96995517790E+02 -0.55701767925E+03  0.60271990368E+03  0.17300000000E+03 0. -1.
         -6    1    1    2    0  503  0.11689934486E+03 -0.96995517790E+02 -0.75255396276E+03  0.78698160980E+03  0.17300000000E+03 0. -1.
<mgrwt>
<rscale>  2 0.23022291E+03</rscale>
<asrwt>0</asrwt>
<pdfrwt beam="1">  1       21 0.61638362E-02 0.23022291E+03</pdfrwt>
<pdfrwt beam="2">  1       21 0.20763640E+00 0.23022291E+03</pdfrwt>
<totfact> 0.22001836E+04</totfact>
</mgrwt>
</event>
<event>
 4    1  0.3974123E+000  0.2519813E+03  0.7546771E-02  0.1112059E+00
         21   -1    0    0  503  502  0.00000000000E+00  0.00000000000E+00  0.22901670278E+03  0.22901670278E+03  0.00000000000E+00 0.  1.
         21   -1    0    0  501  503 -0.00000000000E+00 -0.00000000000E+00 -0.35260992151E+03  0.35260992151E+03  0.00000000000E+00 0.  1.
          6    1    1    2  501    0  0.19374553682E+02  0.18218178066E+03 -0.19624050602E+03  0.31938207642E+03  0.17300000000E+03 0.  1.
         -6    1    1    2    0  502 -0.19374553682E+02 -0.18218178066E+03  0.72647287288E+02  0.26224454787E+03  0.17300000000E+03 0.  1.
<mgrwt>
<rscale>  2 0.25198130E+03</rscale>
<asrwt>0</asrwt>
<pdfrwt beam="1">  1       21 0.35233339E-01 0.25198130E+03</pdfrwt>
<pdfrwt beam="2">  1       21 0.54247680E-01 0.25198130E+03</pdfrwt>
<totfact> 0.24178865E+04</totfact>
</mgrwt>
</event>
<event>
 4    1  0.3974123E+000  0.1853281E+03  0.7546771E-02  0.1162744E+00
         21   -1    0    0  501  502  0.00000000000E+00  0.00000000000E+00  0.19432557891E+02  0.19432557891E+02  0.00000000000E+00 0. -1.
         21   -1    0    0  502  503 -0.00000000000E+00 -0.00000000000E+00 -0.19199821077E+04  0.19199821077E+04  0.00000000000E+00 0.  1.
          6    1    1    2  501    0  0.30969556700E+02 -0.58808024324E+02 -0.67697343933E+03  0.70188284971E+03  0.17300000000E+03 0.  1.
         -6    1    1    2    0  503 -0.30969556700E+02  0.58808024324E+02 -0.12235761105E+04  0.12375318159E+04  0.17300000000E+03 0.  1.
<mgrwt>
<rscale>  2 0.18532808E+03</rscale>
<asrwt>0</asrwt>
<pdfrwt beam="1">  1       21 0.29896244E-02 0.18532808E+03</pdfrwt>
<pdfrwt beam="2">  1       21 0.29538185E+00 0.18532808E+03</pdfrwt>
<totfact> 0.23261855E+04</totfact>
</mgrwt>
</event>
<event>
 4    1  0.3974123E+000  0.2578131E+03  0.7546771E-02  0.1108464E+00
         21   -1    0    0  501  502  0.00000000000E+00  0.00000000000E+00  0.11232999923E+04  0.11232999923E+04  0.00000000000E+00 0. -1.
         21   -1    0    0  502  503 -0.00000000000E+00 -0.00000000000E+00 -0.59399964595E+02  0.59399964595E+02  0.00000000000E+00 0. -1.
          6    1    1    2  501    0 -0.40887337437E+02 -0.18672655601E+03  0.56860740172E+03  0.62432520242E+03  0.17300000000E+03 0. -1.
         -6    1    1    2    0  503  0.40887337437E+02  0.18672655601E+03  0.49529262597E+03  0.55837475446E+03  0.17300000000E+03 0. -1.
<mgrwt>
<rscale>  2 0.25781307E+03</rscale>
<asrwt>0</asrwt>
<pdfrwt beam="1">  1       21 0.17281537E+00 0.25781307E+03</pdfrwt>
<pdfrwt beam="2">  1       21 0.91384570E-02 0.25781307E+03</pdfrwt>
<totfact> 0.18602379E+04</totfact>
</mgrwt>
</event>
<event>
 4    1  0.3974123E+000  0.2726548E+03  0.7546771E-02  0.1099770E+00
         21   -1    0    0  501  502  0.00000000000E+00  0.00000000000E+00  0.52658333171E+03  0.52658333171E+03  0.00000000000E+00 0. -1.
         21   -1    0    0  502  503 -0.00000000000E+00 -0.00000000000E+00 -0.18723785830E+03  0.18723785830E+03  0.00000000000E+00 0.  1.
          6    1    1    2  501    0  0.14199775679E+03 -0.15571857198E+03  0.34669828496E+03  0.44106727082E+03  0.17300000000E+03 0.  1.
         -6    1    1    2    0  503 -0.14199775679E+03  0.15571857198E+03 -0.73528115450E+01  0.27275391919E+03  0.17300000000E+03 0. -1.
<mgrwt>
<rscale>  2 0.27265479E+03</rscale>
<asrwt>0</asrwt>
<pdfrwt beam="1">  1       21 0.81012819E-01 0.27265479E+03</pdfrwt>
<pdfrwt beam="2">  1       21 0.28805825E-01 0.27265479E+03</pdfrwt>
<totfact> 0.14741400E+04</totfact>
</mgrwt>
</event>
<event>
 4    1  0.3974123E+000  0.1976565E+03  0.7546771E-02  0.1151731E+00
         21   -1    0    0  503  502  0.00000000000E+00  0.00000000000E+00  0.15276269548E+03  0.15276269548E+03  0.00000000000E+00 0.  1.
         21   -1    0    0  501  503 -0.00000000000E+00 -0.00000000000E+00 -0.27523687499E+03  0.27523687499E+03  0.00000000000E+00 0.  1.
          6    1    1    2  501    0 -0.95324192758E+02 -0.72375848002E+01 -0.11818820569E+03  0.23029662682E+03  0.17300000000E+03 0.  1.
         -6    1    1    2    0  502  0.95324192758E+02  0.72375848002E+01 -0.42859738216E+01  0.19770294366E+03  0.17300000000E+03 0.  1.
<mgrwt>
<rscale>  2 0.19765648E+03</rscale>
<asrwt>0</asrwt>
<pdfrwt beam="1">  1       21 0.23501953E-01 0.19765648E+03</pdfrwt>
<pdfrwt beam="2">  1       21 0.42344134E-01 0.19765648E+03</pdfrwt>
<totfact> 0.91238591E+04</totfact>
</mgrwt>
</event>
<event>
 4    1  0.3974123E+000  0.1931410E+03  0.7546771E-02  0.1155659E+00
         21   -1    0    0  501  502  0.00000000000E+00  0.00000000000E+00  0.11297921267E+03  0.11297921267E+03  0.00000000000E+00 0. -1.
         21   -1    0    0  502  503 -0.00000000000E+00 -0.00000000000E+00 -0.33419461575E+03  0.33419461575E+03  0.00000000000E+00 0. -1.
          6    1    1    2  501    0  0.37110478393E+02  0.77441870807E+02 -0.86100686269E+02  0.21146337540E+03  0.17300000000E+03 0. -1.
         -6    1    1    2    0  503 -0.37110478393E+02 -0.77441870807E+02 -0.13511471682E+03  0.23571045302E+03  0.17300000000E+03 0. -1.
<mgrwt>
<rscale>  2 0.19314096E+03</rscale>
<asrwt>0</asrwt>
<pdfrwt beam="1">  1       21 0.17381418E-01 0.19314096E+03</pdfrwt>
<pdfrwt beam="2">  1       21 0.51414555E-01 0.19314096E+03</pdfrwt>
<totfact> 0.10764036E+05</totfact>
</mgrwt>
</event>
<event>
 4    1  0.3974123E+000  0.1801673E+03  0.7546771E-02  0.1167641E+00
         21   -1    0    0  501  502  0.00000000000E+00  0.00000000000E+00  0.96878695119E+03  0.96878695119E+03  0.00000000000E+00 0. -1.
         21   -1    0    0  502  503 -0.00000000000E+00 -0.00000000000E+00 -0.34771210918E+02  0.34771210918E+02  0.00000000000E+00 0. -1.
          6    1    1    2  501    0  0.50911745642E+01  0.50053195277E+02  0.56272116568E+03  0.59085984185E+03  0.17300000000E+03 0. -1.
         -6    1    1    2    0  503 -0.50911745642E+01 -0.50053195277E+02  0.37129457459E+03  0.41269832025E+03  0.17300000000E+03 0. -1.
<mgrwt>
<rscale>  2 0.18016726E+03</rscale>
<asrwt>0</asrwt>
<pdfrwt beam="1">  1       21 0.14904413E+00 0.18016726E+03</pdfrwt>
<pdfrwt beam="2">  1       21 0.53494178E-02 0.18016726E+03</pdfrwt>
<totfact> 0.73371081E+04</totfact>
</mgrwt>
</event>
<event>
 4    1  0.3974123E+000  0.1750028E+03  0.7546771E-02  0.1172729E+00
         21   -1    0    0  503  502  0.00000000000E+00  0.00000000000E+00  0.17755838605E+04  0.17755838605E+04  0.00000000000E+00 0. -1.
         21   -1    0    0  501  503 -0.00000000000E+00 -0.00000000000E+00 -0.48749054316E+02  0.48749054316E+02  0.00000000000E+00 0. -1.
          6    1    1    2  501    0 -0.76487091220E+01 -0.25267861313E+02  0.13016948467E+03  0.21810562190E+03  0.17300000000E+03 0. -1.
         -6    1    1    2    0  502  0.76487091220E+01  0.25267861313E+02  0.15966653216E+04  0.16062272929E+04  0.17300000000E+03 0. -1.
<mgrwt>
<rscale>  2 0.17500276E+03</rscale>
<asrwt>0</asrwt>
<pdfrwt beam="1">  1       21 0.27316670E+00 0.17500276E+03</pdfrwt>
<pdfrwt beam="2">  1       21 0.74998559E-02 0.17500276E+03</pdfrwt>
<totfact> 0.66709946E+03</totfact>
</mgrwt>
</event>
<event>
 4    1  0.3974123E+000  0.1846090E+03  0.7546771E-02  0.1163415E+00
         21   -1    0    0  501  502  0.00000000000E+00  0.00000000000E+00  0.89073799791E+02  0.89073799791E+02  0.00000000000E+00 0. -1.
         21   -1    0    0  502  503 -0.00000000000E+00 -0.00000000000E+00 -0.38307490160E+03  0.38307490160E+03  0.00000000000E+00 0. -1.
          6    1    1    2  501    0  0.16460944492E+02 -0.62293918631E+02 -0.13877333618E+03  0.23095136680E+03  0.17300000000E+03 0.  1.
         -6    1    1    2    0  503 -0.16460944492E+02  0.62293918631E+02 -0.15522776563E+03  0.24119733459E+03  0.17300000000E+03 0.  1.
<mgrwt>
<rscale>  2 0.18460903E+03</rscale>
<asrwt>0</asrwt>
<pdfrwt beam="1">  1       21 0.13703662E-01 0.18460903E+03</pdfrwt>
<pdfrwt beam="2">  1       21 0.58934600E-01 0.18460903E+03</pdfrwt>
<totfact> 0.12480602E+05</totfact>
</mgrwt>
</event>
<event>
 4    1  0.3974123E+000  0.1768661E+03  0.7546771E-02  0.1170871E+00
         21   -1    0    0  501  502  0.00000000000E+00  0.00000000000E+00  0.32369925628E+03  0.32369925628E+03  0.00000000000E+00 0.  1.
         21   -1    0    0  502  503 -0.00000000000E+00 -0.00000000000E+00 -0.97161157328E+02  0.97161157328E+02  0.00000000000E+00 0.  1.
          6    1    1    2  501    0 -0.21969878974E+02 -0.29494830344E+02  0.12871141985E+03  0.21874242890E+03  0.17300000000E+03 0.  1.
         -6    1    1    2    0  503  0.21969878974E+02  0.29494830344E+02  0.97826679095E+02  0.20211798471E+03  0.17300000000E+03 0.  1.
<mgrwt>
<rscale>  2 0.17686611E+03</rscale>
<asrwt>0</asrwt>
<pdfrwt beam="1">  1       21 0.49799885E-01 0.17686611E+03</pdfrwt>
<pdfrwt beam="2">  1       21 0.14947870E-01 0.17686611E+03</pdfrwt>
<totfact> 0.15247040E+05</totfact>
</mgrwt>
</event>
<event>
 4    1  0.3974123E+000  0.2946146E+03  0.7546771E-02  0.1087964E+00
         21   -1    0    0  501  502  0.00000000000E+00  0.00000000000E+00  0.12736644504E+03  0.12736644504E+03  0.00000000000E+00 0. -1.
         21   -1    0    0  502  503 -0.00000000000E+00 -0.00000000000E+00 -0.20465655076E+04  0.20465655076E+04  0.00000000000E+00 0.  1.
          6    1    1    2  501    0  0.18395669115E+03 -0.15175206047E+03 -0.71865294859E+02  0.30325298462E+03  0.17300000000E+03 0. -1.
         -6    1    1    2    0  503 -0.18395669115E+03  0.15175206047E+03 -0.18473337677E+04  0.18706789680E+04  0.17300000000E+03 0.  1.
<mgrwt>
<rscale>  2 0.29461458E+03</rscale>
<asrwt>0</asrwt>
<pdfrwt beam="1">  1       21 0.19594840E-01 0.29461458E+03</pdfrwt>
<pdfrwt beam="2">  1       21 0.31485620E+00 0.29461458E+03</pdfrwt>
<totfact> 0.59751549E+02</totfact>
</mgrwt>
</event>
<event>
 4    1  0.3974123E+000  0.2473961E+03  0.7546771E-02  0.1114962E+00
         21   -1    0    0  501  502  0.00000000000E+00  0.00000000000E+00  0.93811046453E+02  0.93811046453E+02  0.00000000000E+00 0. -1.
         21   -1    0    0  502  503 -0.00000000000E+00 -0.00000000000E+00 -0.93605925773E+03  0.93605925773E+03  0.00000000000E+00 0. -1.
          6    1    1    2  501    0 -0.29419513893E+02  0.17438560484E+03 -0.13767259060E+03  0.28312292238E+03  0.17300000000E+03 0. -1.
         -6    1    1    2    0  503  0.29419513893E+02 -0.17438560484E+03 -0.70457562068E+03  0.74674738181E+03  0.17300000000E+03 0. -1.
<mgrwt>
<rscale>  2 0.24739613E+03</rscale>
<asrwt>0</asrwt>
<pdfrwt beam="1">  1       21 0.14432470E-01 0.24739613E+03</pdfrwt>
<pdfrwt beam="2">  1       21 0.14400911E+00 0.24739613E+03</pdfrwt>
<totfact> 0.13505184E+04</totfact>
</mgrwt>
</event>
<event>
 4    1  0.3974123E+000  0.1771760E+03  0.7546771E-02  0.1170564E+00
         21   -1    0    0  503  502  0.00000000000E+00  0.00000000000E+00  0.92234305725E+02  0.92234305725E+02  0.00000000000E+00 0.  1.
         21   -1    0    0  501  503 -0.00000000000E+00 -0.00000000000E+00 -0.41757456543E+03  0.41757456543E+03  0.00000000000E+00 0.  1.
          6    1    1    2  501    0  0.36731540293E+02 -0.10636156325E+02 -0.27229441379E+03  0.32486240419E+03  0.17300000000E+03 0.  1.
         -6    1    1    2    0  502 -0.36731540293E+02  0.10636156325E+02 -0.53045845910E+02  0.18494646696E+03  0.17300000000E+03 0.  1.
<mgrwt>
<rscale>  2 0.17717600E+03</rscale>
<asrwt>0</asrwt>
<pdfrwt beam="1">  1       21 0.14189893E-01 0.17717600E+03</pdfrwt>
<pdfrwt beam="2">  1       21 0.64242242E-01 0.17717600E+03</pdfrwt>
<totfact> 0.97601823E+04</totfact>
</mgrwt>
</event>
<event>
 4    1  0.3974123E+000  0.1765631E+03  0.7546771E-02  0.1171171E+00
         21   -1    0    0  503  502  0.00000000000E+00  0.00000000000E+00  0.48356825931E+03  0.48356825931E+03  0.00000000000E+00 0. -1.
         21   -1    0    0  501  503 -0.00000000000E+00 -0.00000000000E+00 -0.66159815360E+02  0.66159815360E+02  0.00000000000E+00 0.  1.
          6    1    1    2  501    0 -0.76421752691E+01  0.34454601842E+02  0.16474614424E+03  0.24148667556E+03  0.17300000000E+03 0.  1.
         -6    1    1    2    0  502  0.76421752691E+01 -0.34454601842E+02  0.25266229971E+03  0.30824139911E+03  0.17300000000E+03 0.  1.
<mgrwt>
<rscale>  2 0.17656308E+03</rscale>
<asrwt>0</asrwt>
<pdfrwt beam="1">  1       21 0.74395115E-01 0.17656308E+03</pdfrwt>
<pdfrwt beam="2">  1       21 0.10178433E-01 0.17656308E+03</pdfrwt>
<totfact> 0.12806480E+05</totfact>
</mgrwt>
</event>
<event>
 4    1  0.3974123E+000  0.2022624E+03  0.7546771E-02  0.1147844E+00
         21   -1    0    0  503  502  0.00000000000E+00  0.00000000000E+00  0.57773590562E+02  0.57773590562E+02  0.00000000000E+00 0. -1.
         21   -1    0    0  501  503 -0.00000000000E+00 -0.00000000000E+00 -0.18988300686E+04  0.18988300686E+04  0.00000000000E+00 0. -1.
          6    1    1    2  501    0  0.17689382542E+02 -0.10328686976E+03 -0.16952300003E+04  0.17072535973E+04  0.17300000000E+03 0. -1.
         -6    1    1    2    0  502 -0.17689382542E+02  0.10328686976E+03 -0.14582647774E+03  0.24935006182E+03  0.17300000000E+03 0. -1.
<mgrwt>
<rscale>  2 0.20226243E+03</rscale>
<asrwt>0</asrwt>
<pdfrwt beam="1">  1       21 0.88882446E-02 0.20226243E+03</pdfrwt>
<pdfrwt beam="2">  1       21 0.29212771E+00 0.20226243E+03</pdfrwt>
<totfact> 0.37414764E+03</totfact>
</mgrwt>
</event>
<event>
 4    1  0.3974123E+000  0.1932231E+03  0.7546771E-02  0.1155586E+00
         21   -1    0    0  503  502  0.00000000000E+00  0.00000000000E+00  0.14588917483E+04  0.14588917483E+04  0.00000000000E+00 0. -1.
         21   -1    0    0  501  503 -0.00000000000E+00 -0.00000000000E+00 -0.99618336369E+02  0.99618336369E+02  0.00000000000E+00 0.  1.
          6    1    1    2  501    0  0.18993409358E+02 -0.83936999604E+02  0.78913207274E+01  0.19338418354E+03  0.17300000000E+03 0.  1.
         -6    1    1    2    0  502 -0.18993409358E+02  0.83936999604E+02  0.13513820912E+04  0.13651259011E+04  0.17300000000E+03 0. -1.
<mgrwt>
<rscale>  2 0.19322311E+03</rscale>
<asrwt>0</asrwt>
<pdfrwt beam="1">  1       21 0.22444487E+00 0.19322311E+03</pdfrwt>
<pdfrwt beam="2">  1       21 0.15325899E-01 0.19322311E+03</pdfrwt>
<totfact> 0.35626425E+03</totfact>
</mgrwt>
</event>
<event>
 4    1  0.3974123E+000  0.1874553E+03  0.7546771E-02  0.1160777E+00
         21   -1    0    0  501  502  0.00000000000E+00  0.00000000000E+00  0.20979268228E+03  0.20979268228E+03  0.00000000000E+00 0. -1.
         21   -1    0    0  502  503 -0.00000000000E+00 -0.00000000000E+00 -0.17080201208E+03  0.17080201208E+03  0.00000000000E+00 0. -1.
          6    1    1    2  501    0 -0.56419567755E+02 -0.45025661314E+02  0.45969672230E+02  0.19300955564E+03  0.17300000000E+03 0. -1.
         -6    1    1    2    0  503  0.56419567755E+02  0.45025661314E+02 -0.69790020280E+01  0.18758513873E+03  0.17300000000E+03 0. -1.
<mgrwt>
<rscale>  2 0.18745527E+03</rscale>
<asrwt>0</asrwt>
<pdfrwt beam="1">  1       21 0.32275797E-01 0.18745527E+03</pdfrwt>
<pdfrwt beam="2">  1       21 0.26277233E-01 0.18745527E+03</pdfrwt>
<totfact> 0.12738632E+05</totfact>
</mgrwt>
</event>
<event>
 4    1  0.3974123E+000  0.2199238E+03  0.7546771E-02  0.1133940E+00
         21   -1    0    0  501  502  0.00000000000E+00  0.00000000000E+00  0.12717505661E+03  0.12717505661E+03  0.00000000000E+00 0.  1.
         21   -1    0    0  502  503 -0.00000000000E+00 -0.00000000000E+00 -0.47829640545E+03  0.47829640545E+03  0.00000000000E+00 0. -1.
          6    1    1    2  501    0 -0.12965601757E+03  0.40333734855E+02 -0.38539242968E+02  0.22327509111E+03  0.17300000000E+03 0.  1.
         -6    1    1    2    0  503  0.12965601757E+03 -0.40333734855E+02 -0.31258210587E+03  0.38219637095E+03  0.17300000000E+03 0. -1.
<mgrwt>
<rscale>  2 0.21992383E+03</rscale>
<asrwt>0</asrwt>
<pdfrwt beam="1">  1       21 0.19565394E-01 0.21992383E+03</pdfrwt>
<pdfrwt beam="2">  1       21 0.73584062E-01 0.21992383E+03</pdfrwt>
<totfact> 0.39344739E+04</totfact>
</mgrwt>
</event>
<event>
 4    1  0.3974123E+000  0.1855694E+03  0.7546771E-02  0.1162519E+00
         21   -1    0    0  501  502  0.00000000000E+00  0.00000000000E+00  0.72445795547E+02  0.72445795547E+02  0.00000000000E+00 0. -1.
         21   -1    0    0  502  503 -0.00000000000E+00 -0.00000000000E+00 -0.68030337472E+03  0.68030337472E+03  0.00000000000E+00 0.  1.
          6    1    1    2  501    0 -0.44232376092E+02 -0.50502329977E+02 -0.97337074964E+02  0.20954831087E+03  0.17300000000E+03 0. -1.
         -6    1    1    2    0  503  0.44232376092E+02  0.50502329977E+02 -0.51052050421E+03  0.54320085939E+03  0.17300000000E+03 0.  1.
<mgrwt>
<rscale>  2 0.18556936E+03</rscale>
<asrwt>0</asrwt>
<pdfrwt beam="1">  1       21 0.11145507E-01 0.18556936E+03</pdfrwt>
<pdfrwt beam="2">  1       21 0.10466206E+00 0.18556936E+03</pdfrwt>
<totfact> 0.49469840E+04</totfact>
</mgrwt>
</event>
<event>
 4    1  0.3974123E+000  0.1835402E+03  0.7546771E-02  0.1164420E+00
         21   -1    0    0  501  502  0.00000000000E+00  0.00000000000E+00  0.14065531969E+03  0.14065531969E+03  0.00000000000E+00 0.  1.
         21   -1    0    0  502  503 -0.00000000000E+00 -0.00000000000E+00 -0.46211693560E+03  0.46211693560E+03  0.00000000000E+00 0.  1.
          6    1    1    2  501    0  0.58415230575E+02  0.18592048100E+02  0.48452024521E+02  0.18982782224E+03  0.17300000000E+03 0.  1.
         -6    1    1    2    0  503 -0.58415230575E+02 -0.18592048100E+02 -0.36991364043E+03  0.41294443305E+03  0.17300000000E+03 0.  1.
<mgrwt>
<rscale>  2 0.18354020E+03</rscale>
<asrwt>0</asrwt>
<pdfrwt beam="1">  1       21 0.21639280E-01 0.18354020E+03</pdfrwt>
<pdfrwt beam="2">  1       21 0.71094913E-01 0.18354020E+03</pdfrwt>
<totfact> 0.35824606E+04</totfact>
</mgrwt>
</event>
<event>
 4    1  0.3974123E+000  0.1987196E+03  0.7546771E-02  0.1150824E+00
         21   -1    0    0  503  502  0.00000000000E+00  0.00000000000E+00  0.39893859926E+03  0.39893859926E+03  0.00000000000E+00 0. -1.
         21   -1    0    0  501  503 -0.00000000000E+00 -0.00000000000E+00 -0.10583100107E+03  0.10583100107E+03  0.00000000000E+00 0.  1.
          6    1    1    2  501    0  0.59288577321E+01  0.97597793622E+02  0.82369025413E+02  0.21511424179E+03  0.17300000000E+03 0.  1.
         -6    1    1    2    0  502 -0.59288577321E+01 -0.97597793622E+02  0.21073857278E+03  0.28965535854E+03  0.17300000000E+03 0. -1.
<mgrwt>
<rscale>  2 0.19871960E+03</rscale>
<asrwt>0</asrwt>
<pdfrwt beam="1">  1       21 0.61375168E-01 0.19871960E+03</pdfrwt>
<pdfrwt beam="2">  1       21 0.16281693E-01 0.19871960E+03</pdfrwt>
<totfact> 0.83126855E+04</totfact>
</mgrwt>
</event>
<event>
 4    1  0.3974123E+000  0.1854366E+03  0.7546771E-02  0.1162643E+00
         21   -1    0    0  503  502  0.00000000000E+00  0.00000000000E+00  0.30590375276E+03  0.30590375276E+03  0.00000000000E+00 0. -1.
         21   -1    0    0  501  503 -0.00000000000E+00 -0.00000000000E+00 -0.18101985761E+03  0.18101985761E+03  0.00000000000E+00 0. -1.
          6    1    1    2  501    0  0.43627598352E+02  0.50540645731E+02 -0.87443726331E+02  0.20501982705E+03  0.17300000000E+03 0.  1.
         -6    1    1    2    0  502 -0.43627598352E+02 -0.50540645731E+02  0.21232762148E+03  0.28190378333E+03  0.17300000000E+03 0.  1.
<mgrwt>
<rscale>  2 0.18543658E+03</rscale>
<asrwt>0</asrwt>
<pdfrwt beam="1">  1       21 0.47062116E-01 0.18543658E+03</pdfrwt>
<pdfrwt beam="2">  1       21 0.27849209E-01 0.18543658E+03</pdfrwt>
<totfact> 0.53371736E+04</totfact>
</mgrwt>
</event>
<event>
 4    1  0.3974123E+000  0.1802079E+03  0.7546771E-02  0.1167602E+00
         21   -1    0    0  501  502  0.00000000000E+00  0.00000000000E+00  0.91772446348E+03  0.91772446348E+03  0.00000000000E+00 0. -1.
         21   -1    0    0  502  503 -0.00000000000E+00 -0.00000000000E+00 -0.42249177656E+02  0.42249177656E+02  0.00000000000E+00 0. -1.
          6    1    1    2  501    0 -0.45952357752E+02 -0.20838980985E+02  0.63118954146E+03  0.65641078568E+03  0.17300000000E+03 0. -1.
         -6    1    1    2    0  503  0.45952357752E+02  0.20838980985E+02  0.24428574436E+03  0.30356285545E+03  0.17300000000E+03 0. -1.
<mgrwt>
<rscale>  2 0.18020789E+03</rscale>
<asrwt>0</asrwt>
<pdfrwt beam="1">  1       21 0.14118837E+00 0.18020789E+03</pdfrwt>
<pdfrwt beam="2">  1       21 0.64998741E-02 0.18020789E+03</pdfrwt>
<totfact> 0.60567321E+04</totfact>
</mgrwt>
</event>
<event>
 4    1  0.3974123E+000  0.2945070E+03  0.7546771E-02  0.1088019E+00
         21   -1    0    0  501  502  0.00000000000E+00  0.00000000000E+00  0.13624162560E+04  0.13624162560E+04  0.00000000000E+00 0.  1.
         21   -1    0    0  502  503 -0.00000000000E+00 -0.00000000000E+00 -0.66507214711E+02  0.66507214711E+02  0.00000000000E+00 0.  1.
          6    1    1    2  501    0  0.22382693260E+03 -0.81895360034E+02  0.79572605995E+03  0.84847764157E+03  0.17300000000E+03 0.  1.
         -6    1    1    2    0  503 -0.22382693260E+03  0.81895360034E+02  0.50018298134E+03  0.58044582914E+03  0.17300000000E+03 0.  1.
<mgrwt>
<rscale>  2 0.29450695E+03</rscale>
<asrwt>0</asrwt>
<pdfrwt beam="1">  1       21 0.20960248E+00 0.29450695E+03</pdfrwt>
<pdfrwt beam="2">  1       21 0.10231880E-01 0.29450695E+03</pdfrwt>
<totfact> 0.84501331E+03</totfact>
</mgrwt>
</event>
<event>
 4    1  0.3974123E+000  0.1922240E+03  0.7546771E-02  0.1156471E+00
         21   -1    0    0  503  502  0.00000000000E+00  0.00000000000E+00  0.67024476431E+03  0.67024476431E+03  0.00000000000E+00 0.  1.
         21   -1    0    0  501  503 -0.00000000000E+00 -0.00000000000E+00 -0.67069655827E+02  0.67069655827E+02  0.00000000000E+00 0.  1.
          6    1    1    2  501    0  0.27083201747E+02 -0.79294116025E+02  0.14603749755E+03  0.24140631173E+03  0.17300000000E+03 0.  1.
         -6    1    1    2    0  502 -0.27083201747E+02  0.79294116025E+02  0.45713761094E+03  0.49590810841E+03  0.17300000000E+03 0.  1.
<mgrwt>
<rscale>  2 0.19222398E+03</rscale>
<asrwt>0</asrwt>
<pdfrwt beam="1">  1       21 0.10311457E+00 0.19222398E+03</pdfrwt>
<pdfrwt beam="2">  1       21 0.10318409E-01 0.19222398E+03</pdfrwt>
<totfact> 0.58593380E+04</totfact>
</mgrwt>
</event>
<event>
 4    1  0.3974123E+000  0.1965680E+03  0.7546771E-02  0.1152667E+00
         21   -1    0    0  503  502  0.00000000000E+00  0.00000000000E+00  0.61803866801E+03  0.61803866801E+03  0.00000000000E+00 0.  1.
         21   -1    0    0  501  503 -0.00000000000E+00 -0.00000000000E+00 -0.62518933908E+02  0.62518933908E+02  0.00000000000E+00 0.  1.
          6    1    1    2  501    0 -0.93070178866E+02 -0.69215114942E+01  0.27708247386E+03  0.33972586424E+03  0.17300000000E+03 0.  1.
         -6    1    1    2    0  502  0.93070178866E+02  0.69215114942E+01  0.27843726025E+03  0.34083173768E+03  0.17300000000E+03 0.  1.
<mgrwt>
<rscale>  2 0.19656797E+03</rscale>
<asrwt>0</asrwt>
<pdfrwt beam="1">  1       21 0.95082868E-01 0.19656797E+03</pdfrwt>
<pdfrwt beam="2">  1       21 0.96182980E-02 0.19656797E+03</pdfrwt>
<totfact> 0.80205792E+04</totfact>
</mgrwt>
</event>
<event>
 4    1  0.3974123E+000  0.1757453E+03  0.7546771E-02  0.1171985E+00
         21   -1    0    0  501  502  0.00000000000E+00  0.00000000000E+00  0.53505562443E+02  0.53505562443E+02  0.00000000000E+00 0.  1.
         21   -1    0    0  502  503 -0.00000000000E+00 -0.00000000000E+00 -0.63160110723E+03  0.63160110723E+03  0.00000000000E+00 0.  1.
          6    1    1    2  501    0  0.29961617506E+02  0.77264688096E+01 -0.18856589554E+03  0.25776635506E+03  0.17300000000E+03 0.  1.
         -6    1    1    2    0  503 -0.29961617506E+02 -0.77264688096E+01 -0.38952964926E+03  0.42734031461E+03  0.17300000000E+03 0.  1.
<mgrwt>
<rscale>  2 0.17574526E+03</rscale>
<asrwt>0</asrwt>
<pdfrwt beam="1">  1       21 0.82316251E-02 0.17574526E+03</pdfrwt>
<pdfrwt beam="2">  1       21 0.97169399E-01 0.17574526E+03</pdfrwt>
<totfact> 0.10101070E+05</totfact>
</mgrwt>
</event>
<event>
 4    1  0.3974123E+000  0.2276954E+03  0.7546771E-02  0.1128272E+00
         21   -1    0    0  503  502  0.00000000000E+00  0.00000000000E+00  0.19340996701E+03  0.19340996701E+03  0.00000000000E+00 0. -1.
         21   -1    0    0  501  503 -0.00000000000E+00 -0.00000000000E+00 -0.28239525984E+03  0.28239525984E+03  0.00000000000E+00 0. -1.
          6    1    1    2  501    0 -0.12871053201E+03 -0.73142361871E+02 -0.98096302315E+02  0.24792759160E+03  0.17300000000E+03 0. -1.
         -6    1    1    2    0  502  0.12871053201E+03  0.73142361871E+02  0.91110094851E+01  0.22787763524E+03  0.17300000000E+03 0. -1.
<mgrwt>
<rscale>  2 0.22769542E+03</rscale>
<asrwt>0</asrwt>
<pdfrwt beam="1">  1       21 0.29755379E-01 0.22769542E+03</pdfrwt>
<pdfrwt beam="2">  1       21 0.43445425E-01 0.22769542E+03</pdfrwt>
<totfact> 0.54264621E+04</totfact>
</mgrwt>
</event>
<event>
 4    1  0.3974123E+000  0.1904582E+03  0.7546771E-02  0.1158049E+00
         21   -1    0    0  503  502  0.00000000000E+00  0.00000000000E+00  0.15106959294E+03  0.15106959294E+03  0.00000000000E+00 0. -1.
         21   -1    0    0  501  503 -0.00000000000E+00 -0.00000000000E+00 -0.16080888670E+04  0.16080888670E+04  0.00000000000E+00 0. -1.
          6    1    1    2  501    0  0.77708331754E+02  0.17514016379E+02 -0.15397668673E+04  0.15515013152E+04  0.17300000000E+03 0. -1.
         -6    1    1    2    0  502 -0.77708331754E+02 -0.17514016379E+02  0.82747593175E+02  0.20765714476E+03  0.17300000000E+03 0. -1.
<mgrwt>
<rscale>  2 0.19045820E+03</rscale>
<asrwt>0</asrwt>
<pdfrwt beam="1">  1       21 0.23241476E-01 0.19045820E+03</pdfrwt>
<pdfrwt beam="2">  1       21 0.24739828E+00 0.19045820E+03</pdfrwt>
<totfact> 0.12018268E+03</totfact>
</mgrwt>
</event>
<event>
 4    1  0.3974123E+000  0.2324323E+03  0.7546771E-02  0.1124939E+00
         21   -1    0    0  501  502  0.00000000000E+00  0.00000000000E+00  0.56496777899E+02  0.56496777899E+02  0.00000000000E+00 0. -1.
         21   -1    0    0  502  503 -0.00000000000E+00 -0.00000000000E+00 -0.32381691586E+04  0.32381691586E+04  0.00000000000E+00 0. -1.
          6    1    1    2  501    0  0.14635684804E+03 -0.51724916440E+02 -0.20796358834E+03  0.31188723607E+03  0.17300000000E+03 0. -1.
         -6    1    1    2    0  503 -0.14635684804E+03  0.51724916440E+02 -0.29737087924E+04  0.29827787005E+04  0.17300000000E+03 0. -1.
<mgrwt>
<rscale>  2 0.23243234E+03</rscale>
<asrwt>0</asrwt>
<pdfrwt beam="1">  1       21 0.86918083E-02 0.23243234E+03</pdfrwt>
<pdfrwt beam="2">  1       21 0.49818008E+00 0.23243234E+03</pdfrwt>
<totfact> 0.18967688E+02</totfact>
</mgrwt>
</event>
<event>
 4    1  0.3974123E+000  0.1761536E+03  0.7546771E-02  0.1171578E+00
         21   -1    0    0  503  502  0.00000000000E+00  0.00000000000E+00  0.49826972343E+03  0.49826972343E+03  0.00000000000E+00 0. -1.
         21   -1    0    0  501  503 -0.00000000000E+00 -0.00000000000E+00 -0.62277663723E+02  0.62277663723E+02  0.00000000000E+00 0. -1.
          6    1    1    2  501    0 -0.20528619270E+02 -0.26070706251E+02  0.21956169592E+03  0.28149146390E+03  0.17300000000E+03 0.  1.
         -6    1    1    2    0  502  0.20528619270E+02  0.26070706251E+02  0.21643036379E+03  0.27905592326E+03  0.17300000000E+03 0.  1.
<mgrwt>
<rscale>  2 0.17615364E+03</rscale>
<asrwt>0</asrwt>
<pdfrwt beam="1">  1       21 0.76656878E-01 0.17615364E+03</pdfrwt>
<pdfrwt beam="2">  1       21 0.95811794E-02 0.17615364E+03</pdfrwt>
<totfact> 0.13327489E+05</totfact>
</mgrwt>
</event>
<event>
 4    1  0.3974123E+000  0.2050327E+03  0.7546771E-02  0.1145561E+00
         21   -1    0    0  503  502  0.00000000000E+00  0.00000000000E+00  0.59459719275E+03  0.59459719275E+03  0.00000000000E+00 0.  1.
         21   -1    0    0  501  503 -0.00000000000E+00 -0.00000000000E+00 -0.73424496227E+02  0.73424496227E+02  0.00000000000E+00 0.  1.
          6    1    1    2  501    0 -0.35188903658E+02  0.10426471881E+03  0.19625336110E+03  0.28381996454E+03  0.17300000000E+03 0.  1.
         -6    1    1    2    0  502  0.35188903658E+02 -0.10426471881E+03  0.32491933542E+03  0.38420172443E+03  0.17300000000E+03 0.  1.
<mgrwt>
<rscale>  2 0.20503266E+03</rscale>
<asrwt>0</asrwt>
<pdfrwt beam="1">  1       21 0.91476488E-01 0.20503266E+03</pdfrwt>
<pdfrwt beam="2">  1       21 0.11296077E-01 0.20503266E+03</pdfrwt>
<totfact> 0.65746131E+04</totfact>
</mgrwt>
</event>
<event>
 4    1  0.3974123E+000  0.2098458E+03  0.7546771E-02  0.1141688E+00
         21   -1    0    0  503  502  0.00000000000E+00  0.00000000000E+00  0.49206853826E+03  0.49206853826E+03  0.00000000000E+00 0.  1.
         21   -1    0    0  501  503 -0.00000000000E+00 -0.00000000000E+00 -0.92484483644E+02  0.92484483644E+02  0.00000000000E+00 0. -1.
          6    1    1    2  501    0  0.56368488249E+02 -0.10454117747E+03  0.25238321362E+03  0.32822637123E+03  0.17300000000E+03 0.  1.
         -6    1    1    2    0  502 -0.56368488249E+02  0.10454117747E+03  0.14720084099E+03  0.25632665067E+03  0.17300000000E+03 0. -1.
<mgrwt>
<rscale>  2 0.20984581E+03</rscale>
<asrwt>0</asrwt>
<pdfrwt beam="1">  1       21 0.75702850E-01 0.20984581E+03</pdfrwt>
<pdfrwt beam="2">  1       21 0.14228382E-01 0.20984581E+03</pdfrwt>
<totfact> 0.66706660E+04</totfact>
</mgrwt>
</event>
<event>
 4    1  0.3974123E+000  0.1747192E+03  0.7546771E-02  0.1173014E+00
         21   -1    0    0  503  502  0.00000000000E+00  0.00000000000E+00  0.18818470084E+04  0.18818470084E+04  0.00000000000E+00 0.  1.
         21   -1    0    0  501  503 -0.00000000000E+00 -0.00000000000E+00 -0.33469938042E+02  0.33469938042E+02  0.00000000000E+00 0.  1.
          6    1    1    2  501    0  0.23612074996E+02  0.63459690863E+01  0.23671611964E+03  0.29421305665E+03  0.17300000000E+03 0.  1.
         -6    1    1    2    0  502 -0.23612074996E+02 -0.63459690863E+01  0.16116609507E+04  0.16211038897E+04  0.17300000000E+03 0.  1.
<mgrwt>
<rscale>  2 0.17471921E+03</rscale>
<asrwt>0</asrwt>
<pdfrwt beam="1">  1       21 0.28951484E+00 0.17471921E+03</pdfrwt>
<pdfrwt beam="2">  1       21 0.51492227E-02 0.17471921E+03</pdfrwt>
<totfact> 0.10236341E+04</totfact>
</mgrwt>
</event>
<event>
 4    1  0.3974123E+000  0.2034721E+03  0.7546771E-02  0.1146842E+00
         21   -1    0    0  501  502  0.00000000000E+00  0.00000000000E+00  0.40932031957E+03  0.40932031957E+03  0.00000000000E+00 0. -1.
         21   -1    0    0  502  503 -0.00000000000E+00 -0.00000000000E+00 -0.13107198559E+03  0.13107198559E+03  0.00000000000E+00 0. -1.
          6    1    1    2  501    0  0.27935617399E+01  0.10707049643E+03  0.26823191754E+03  0.33667381363E+03  0.17300000000E+03 0. -1.
         -6    1    1    2    0  503 -0.27935617399E+01 -0.10707049643E+03  0.10016416438E+02  0.20371849153E+03  0.17300000000E+03 0. -1.
<mgrwt>
<rscale>  2 0.20347210E+03</rscale>
<asrwt>0</asrwt>
<pdfrwt beam="1">  1       21 0.62972356E-01 0.20347210E+03</pdfrwt>
<pdfrwt beam="2">  1       21 0.20164921E-01 0.20347210E+03</pdfrwt>
<totfact> 0.52793039E+04</totfact>
</mgrwt>
</event>
<event>
 4    1  0.3974123E+000  0.1985371E+03  0.7546771E-02  0.1150979E+00
         21   -1    0    0  501  502  0.00000000000E+00  0.00000000000E+00  0.38672513308E+02  0.38672513308E+02  0.00000000000E+00 0. -1.
         21   -1    0    0  502  503 -0.00000000000E+00 -0.00000000000E+00 -0.13001316187E+04  0.13001316187E+04  0.00000000000E+00 0. -1.
          6    1    1    2  501    0  0.81840586767E+02 -0.52821375370E+02 -0.31959041404E+03  0.37623797267E+03  0.17300000000E+03 0. -1.
         -6    1    1    2    0  503 -0.81840586767E+02  0.52821375370E+02 -0.94186869133E+03  0.96256615931E+03  0.17300000000E+03 0. -1.
<mgrwt>
<rscale>  2 0.19853710E+03</rscale>
<asrwt>0</asrwt>
<pdfrwt beam="1">  1       21 0.59496181E-02 0.19853710E+03</pdfrwt>
<pdfrwt beam="2">  1       21 0.20002023E+00 0.19853710E+03</pdfrwt>
<totfact> 0.26737000E+04</totfact>
</mgrwt>
</event>
<event>
 4    1  0.3974123E+000  0.2589420E+03  0.7546771E-02  0.1107781E+00
         21   -1    0    0  501  502  0.00000000000E+00  0.00000000000E+00  0.17335674914E+03  0.17335674914E+03  0.00000000000E+00 0.  1.
         21   -1    0    0  502  503 -0.00000000000E+00 -0.00000000000E+00 -0.77013907549E+03  0.77013907549E+03  0.00000000000E+00 0. -1.
          6    1    1    2  501    0  0.13875111558E+03  0.13367910745E+03  0.34443163423E+02  0.26122271599E+03  0.17300000000E+03 0.  1.
         -6    1    1    2    0  503 -0.13875111558E+03 -0.13367910745E+03 -0.63122548977E+03  0.68227310864E+03  0.17300000000E+03 0. -1.
<mgrwt>
<rscale>  2 0.25894203E+03</rscale>
<asrwt>0</asrwt>
<pdfrwt beam="1">  1       21 0.26670270E-01 0.25894203E+03</pdfrwt>
<pdfrwt beam="2">  1       21 0.11848293E+00 0.25894203E+03</pdfrwt>
<totfact> 0.69734078E+03</totfact>
</mgrwt>
</event>
<event>
 4    1  0.3974123E+000  0.2264965E+03  0.7546771E-02  0.1129130E+00
         21   -1    0    0  501  502  0.00000000000E+00  0.00000000000E+00  0.34882243515E+03  0.34882243515E+03  0.00000000000E+00 0.  1.
         21   -1    0    0  502  503 -0.00000000000E+00 -0.00000000000E+00 -0.19059174792E+03  0.19059174792E+03  0.00000000000E+00 0. -1.
          6    1    1    2  501    0  0.85949559026E+02 -0.11825541628E+03  0.20800044412E+03  0.30751399144E+03  0.17300000000E+03 0.  1.
         -6    1    1    2    0  503 -0.85949559026E+02  0.11825541628E+03 -0.49769756888E+02  0.23190019163E+03  0.17300000000E+03 0. -1.
<mgrwt>
<rscale>  2 0.22649651E+03</rscale>
<asrwt>0</asrwt>
<pdfrwt beam="1">  1       21 0.53664990E-01 0.22649651E+03</pdfrwt>
<pdfrwt beam="2">  1       21 0.29321807E-01 0.22649651E+03</pdfrwt>
<totfact> 0.35979913E+04</totfact>
</mgrwt>
</event>
<event>
 4    1  0.3974123E+000  0.1822842E+03  0.7546771E-02  0.1165611E+00
         21   -1    0    0  501  502  0.00000000000E+00  0.00000000000E+00  0.69996445304E+02  0.69996445304E+02  0.00000000000E+00 0.  1.
         21   -1    0    0  502  503 -0.00000000000E+00 -0.00000000000E+00 -0.49957505083E+03  0.49957505083E+03  0.00000000000E+00 0.  1.
          6    1    1    2  501    0 -0.52170185310E+02  0.24016539220E+02 -0.15124542676E+03  0.23686008846E+03  0.17300000000E+03 0.  1.
         -6    1    1    2    0  503  0.52170185310E+02 -0.24016539220E+02 -0.27833317876E+03  0.33271140767E+03  0.17300000000E+03 0.  1.
<mgrwt>
<rscale>  2 0.18228418E+03</rscale>
<asrwt>0</asrwt>
<pdfrwt beam="1">  1       21 0.10768684E-01 0.18228418E+03</pdfrwt>
<pdfrwt beam="2">  1       21 0.76857703E-01 0.18228418E+03</pdfrwt>
<totfact> 0.10755147E+05</totfact>
</mgrwt>
</event>
<event>
 4    1  0.3974123E+000  0.2090411E+03  0.7546771E-02  0.1142328E+00
         21   -1    0    0  501  502  0.00000000000E+00  0.00000000000E+00  0.52809860851E+03  0.52809860851E+03  0.00000000000E+00 0.  1.
         21   -1    0    0  502  503 -0.00000000000E+00 -0.00000000000E+00 -0.83308513975E+02  0.83308513975E+02  0.00000000000E+00 0.  1.
          6    1    1    2  501    0  0.10883018205E+03 -0.43876881956E+02  0.24750921313E+03  0.32397376418E+03  0.17300000000E+03 0. -1.
         -6    1    1    2    0  503 -0.10883018205E+03  0.43876881956E+02  0.19728088140E+03  0.28743335830E+03  0.17300000000E+03 0. -1.
<mgrwt>
<rscale>  2 0.20904112E+03</rscale>
<asrwt>0</asrwt>
<pdfrwt beam="1">  1       21 0.81245938E-01 0.20904112E+03</pdfrwt>
<pdfrwt beam="2">  1       21 0.12816695E-01 0.20904112E+03</pdfrwt>
<totfact> 0.68734896E+04</totfact>
</mgrwt>
</event>
<event>
 4    1  0.3974123E+000  0.2094904E+03  0.7546771E-02  0.1141970E+00
         21   -1    0    0  503  502  0.00000000000E+00  0.00000000000E+00  0.31571891819E+02  0.31571891819E+02  0.00000000000E+00 0.  1.
         21   -1    0    0  501  503 -0.00000000000E+00 -0.00000000000E+00 -0.23108160636E+04  0.23108160636E+04  0.00000000000E+00 0. -1.
          6    1    1    2  501    0 -0.11657127000E+03  0.19192464914E+02 -0.18789260054E+04  0.18905684715E+04  0.17300000000E+03 0.  1.
         -6    1    1    2    0  502  0.11657127000E+03 -0.19192464914E+02 -0.40031816632E+03  0.45181948385E+03  0.17300000000E+03 0.  1.
<mgrwt>
<rscale>  2 0.20949036E+03</rscale>
<asrwt>0</asrwt>
<pdfrwt beam="1">  1       21 0.48572127E-02 0.20949036E+03</pdfrwt>
<pdfrwt beam="2">  1       21 0.35551026E+00 0.20949036E+03</pdfrwt>
<totfact> 0.44882283E+03</totfact>
</mgrwt>
</event>
<event>
 4    1  0.3974123E+000  0.1764490E+03  0.7546771E-02  0.1171285E+00
         21   -1    0    0  501  502  0.00000000000E+00  0.00000000000E+00  0.21471156477E+03  0.21471156477E+03  0.00000000000E+00 0.  1.
         21   -1    0    0  502  503 -0.00000000000E+00 -0.00000000000E+00 -0.15681403186E+03  0.15681403186E+03  0.00000000000E+00 0.  1.
          6    1    1    2  501    0 -0.33062840339E+02  0.10587063896E+02 -0.22028266518E+02  0.17781867691E+03  0.17300000000E+03 0.  1.
         -6    1    1    2    0  503  0.33062840339E+02 -0.10587063896E+02  0.79925799427E+02  0.19370691972E+03  0.17300000000E+03 0.  1.
<mgrwt>
<rscale>  2 0.17644897E+03</rscale>
<asrwt>0</asrwt>
<pdfrwt beam="1">  1       21 0.33032548E-01 0.17644897E+03</pdfrwt>
<pdfrwt beam="2">  1       21 0.24125236E-01 0.17644897E+03</pdfrwt>
<totfact> 0.14379614E+05</totfact>
</mgrwt>
</event>
<event>
 4    1  0.3974123E+000  0.2222474E+03  0.7546771E-02  0.1132219E+00
         21   -1    0    0  501  502  0.00000000000E+00  0.00000000000E+00  0.70516247193E+03  0.70516247193E+03  0.00000000000E+00 0.  1.
         21   -1    0    0  502  503 -0.00000000000E+00 -0.00000000000E+00 -0.13617372497E+03  0.13617372497E+03  0.00000000000E+00 0.  1.
          6    1    1    2  501    0  0.10563925959E+03 -0.91133095395E+02  0.57764060832E+03  0.61892048489E+03  0.17300000000E+03 0.  1.
         -6    1    1    2    0  503 -0.10563925959E+03  0.91133095395E+02 -0.86518613505E+01  0.22241571201E+03  0.17300000000E+03 0.  1.
<mgrwt>
<rscale>  2 0.22224737E+03</rscale>
<asrwt>0</asrwt>
<pdfrwt beam="1">  1       21 0.10848653E+00 0.22224737E+03</pdfrwt>
<pdfrwt beam="2">  1       21 0.20949804E-01 0.22224737E+03</pdfrwt>
<totfact> 0.14021373E+04</totfact>
</mgrwt>
</event>
<event>
 4    1  0.3974123E+000  0.2400493E+03  0.7546771E-02  0.1119760E+00
         21   -1    0    0  503  502  0.00000000000E+00  0.00000000000E+00  0.19107730583E+03  0.19107730583E+03  0.00000000000E+00 0.  1.
         21   -1    0    0  501  503 -0.00000000000E+00 -0.00000000000E+00 -0.32579966894E+03  0.32579966894E+03  0.00000000000E+00 0. -1.
          6    1    1    2  501    0  0.11259832205E+03  0.12254099687E+03 -0.13783574540E+03  0.27680746152E+03  0.17300000000E+03 0. -1.
         -6    1    1    2    0  502 -0.11259832205E+03 -0.12254099687E+03  0.31133822876E+01  0.24006951325E+03  0.17300000000E+03 0. -1.
<mgrwt>
<rscale>  2 0.24004932E+03</rscale>
<asrwt>0</asrwt>
<pdfrwt beam="1">  1       21 0.29396509E-01 0.24004932E+03</pdfrwt>
<pdfrwt beam="2">  1       21 0.50123025E-01 0.24004932E+03</pdfrwt>
<totfact> 0.41088976E+04</totfact>
</mgrwt>
</event>
<event>
 4    1  0.3974123E+000  0.1824433E+03  0.7546771E-02  0.1165459E+00
         21   -1    0    0  503  502  0.00000000000E+00  0.00000000000E+00  0.51916458492E+03  0.51916458492E+03  0.00000000000E+00 0.  1.
         21   -1    0    0  501  503 -0.00000000000E+00 -0.00000000000E+00 -0.92596523106E+02  0.92596523106E+02  0.00000000000E+00 0.  1.
          6    1    1    2  501    0 -0.20267275831E+02 -0.54275106614E+02  0.43637012085E+02  0.18758928139E+03  0.17300000000E+03 0.  1.
         -6    1    1    2    0  502  0.20267275831E+02  0.54275106614E+02  0.38293104973E+03  0.42417182664E+03  0.17300000000E+03 0.  1.
<mgrwt>
<rscale>  2 0.18244328E+03</rscale>
<asrwt>0</asrwt>
<pdfrwt beam="1">  1       21 0.79871473E-01 0.18244328E+03</pdfrwt>
<pdfrwt beam="2">  1       21 0.14245619E-01 0.18244328E+03</pdfrwt>
<totfact> 0.59751545E+04</totfact>
</mgrwt>
</event>
<event>
 4    1  0.3974123E+000  0.1874621E+03  0.7546771E-02  0.1160770E+00
         21   -1    0    0  501  502  0.00000000000E+00  0.00000000000E+00  0.60878436148E+02  0.60878436148E+02  0.00000000000E+00 0. -1.
         21   -1    0    0  502  503 -0.00000000000E+00 -0.00000000000E+00 -0.59690049463E+03  0.59690049463E+03  0.00000000000E+00 0. -1.
          6    1    1    2  501    0 -0.35174748664E+02  0.63053713417E+02 -0.20833586248E+03  0.28026035274E+03  0.17300000000E+03 0. -1.
         -6    1    1    2    0  503  0.35174748664E+02 -0.63053713417E+02 -0.32768619600E+03  0.37751857804E+03  0.17300000000E+03 0. -1.
<mgrwt>
<rscale>  2 0.18746209E+03</rscale>
<asrwt>0</asrwt>
<pdfrwt beam="1">  1       21 0.93659134E-02 0.18746209E+03</pdfrwt>
<pdfrwt beam="2">  1       21 0.91830844E-01 0.18746209E+03</pdfrwt>
<totfact> 0.91514690E+04</totfact>
</mgrwt>
</event>
<event>
 4    1  0.3974123E+000  0.1855268E+03  0.7546771E-02  0.1162559E+00
         21   -1    0    0  503  502  0.00000000000E+00  0.00000000000E+00  0.49827561451E+03  0.49827561451E+03  0.00000000000E+00 0.  1.
         21   -1    0    0  501  503 -0.00000000000E+00 -0.00000000000E+00 -0.11312243855E+03  0.11312243855E+03  0.00000000000E+00 0.  1.
          6    1    1    2  501    0 -0.31557038148E+02  0.59121399670E+02  0.18276137888E+01  0.18553578288E+03  0.17300000000E+03 0.  1.
         -6    1    1    2    0  502  0.31557038148E+02 -0.59121399670E+02  0.38332556217E+03  0.42586227019E+03  0.17300000000E+03 0.  1.
<mgrwt>
<rscale>  2 0.18552678E+03</rscale>
<asrwt>0</asrwt>
<pdfrwt beam="1">  1       21 0.76657786E-01 0.18552678E+03</pdfrwt>
<pdfrwt beam="2">  1       21 0.17403452E-01 0.18552678E+03</pdfrwt>
<totfact> 0.45394928E+04</totfact>
</mgrwt>
</event>
<event>
 4    1  0.3974123E+000  0.1789430E+03  0.7546771E-02  0.1168830E+00
         21   -1    0    0  503  502  0.00000000000E+00  0.00000000000E+00  0.22609107131E+02  0.22609107131E+02  0.00000000000E+00 0. -1.
         21   -1    0    0  501  503 -0.00000000000E+00 -0.00000000000E+00 -0.14162946226E+04  0.14162946226E+04  0.00000000000E+00 0. -1.
          6    1    1    2  501    0 -0.36998087308E+02 -0.26884003807E+02 -0.69386450930E+03  0.71656720926E+03  0.17300000000E+03 0. -1.
         -6    1    1    2    0  502  0.36998087308E+02  0.26884003807E+02 -0.69982100618E+03  0.72233652048E+03  0.17300000000E+03 0. -1.
<mgrwt>
<rscale>  2 0.17894303E+03</rscale>
<asrwt>0</asrwt>
<pdfrwt beam="1">  1       21 0.34783242E-02 0.17894303E+03</pdfrwt>
<pdfrwt beam="2">  1       21 0.21789148E+00 0.17894303E+03</pdfrwt>
<totfact> 0.51791872E+04</totfact>
</mgrwt>
</event>
<event>
 4    1  0.3974123E+000  0.1953597E+03  0.7546771E-02  0.1153714E+00
         21   -1    0    0  501  502  0.00000000000E+00  0.00000000000E+00  0.19182558169E+03  0.19182558169E+03  0.00000000000E+00 0. -1.
         21   -1    0    0  502  503 -0.00000000000E+00 -0.00000000000E+00 -0.20972200713E+03  0.20972200713E+03  0.00000000000E+00 0. -1.
          6    1    1    2  501    0  0.46344669296E+02  0.78029460659E+02  0.36535082637E+02  0.19874666630E+03  0.17300000000E+03 0. -1.
         -6    1    1    2    0  503 -0.46344669296E+02 -0.78029460659E+02 -0.54431508069E+02  0.20280092252E+03  0.17300000000E+03 0. -1.
<mgrwt>
<rscale>  2 0.19535973E+03</rscale>
<asrwt>0</asrwt>
<pdfrwt beam="1">  1       21 0.29511628E-01 0.19535973E+03</pdfrwt>
<pdfrwt beam="2">  1       21 0.32264924E-01 0.19535973E+03</pdfrwt>
<totfact> 0.10157049E+05</totfact>
</mgrwt>
</event>
<event>
 4    1  0.3974123E+000  0.1853041E+03  0.7546771E-02  0.1162766E+00
         21   -1    0    0  503  502  0.00000000000E+00  0.00000000000E+00  0.35725608042E+03  0.35725608042E+03  0.00000000000E+00 0. -1.
         21   -1    0    0  501  503 -0.00000000000E+00 -0.00000000000E+00 -0.12965744401E+03  0.12965744401E+03  0.00000000000E+00 0. -1.
          6    1    1    2  501    0 -0.36458612497E+02  0.55492021705E+02 -0.10029518622E+02  0.18557528430E+03  0.17300000000E+03 0. -1.
         -6    1    1    2    0  502  0.36458612497E+02 -0.55492021705E+02  0.23762815504E+03  0.30133824013E+03  0.17300000000E+03 0. -1.
<mgrwt>
<rscale>  2 0.18530406E+03</rscale>
<asrwt>0</asrwt>
<pdfrwt beam="1">  1       21 0.54962474E-01 0.18530406E+03</pdfrwt>
<pdfrwt beam="2">  1       21 0.19947299E-01 0.18530406E+03</pdfrwt>
<totfact> 0.72684733E+04</totfact>
</mgrwt>
</event>
<event>
 4    1  0.3974123E+000  0.1817754E+03  0.7546771E-02  0.1166096E+00
         21   -1    0    0  503  502  0.00000000000E+00  0.00000000000E+00  0.18384395460E+04  0.18384395460E+04  0.00000000000E+00 0. -1.
         21   -1    0    0  501  503 -0.00000000000E+00 -0.00000000000E+00 -0.43832390864E+02  0.43832390864E+02  0.00000000000E+00 0.  1.
          6    1    1    2  501    0 -0.29657865175E+02 -0.47261941850E+02  0.17442740672E+03  0.25192697420E+03  0.17300000000E+03 0.  1.
         -6    1    1    2    0  502  0.29657865175E+02  0.47261941850E+02  0.16201797484E+04  0.16303449626E+04  0.17300000000E+03 0. -1.
<mgrwt>
<rscale>  2 0.18177536E+03</rscale>
<asrwt>0</asrwt>
<pdfrwt beam="1">  1       21 0.28283679E+00 0.18177536E+03</pdfrwt>
<pdfrwt beam="2">  1       21 0.67434462E-02 0.18177536E+03</pdfrwt>
<totfact> 0.69980187E+03</totfact>
</mgrwt>
</event>
<event>
 4    1  0.3974123E+000  0.1876465E+03  0.7546771E-02  0.1160601E+00
         21   -1    0    0  501  502  0.00000000000E+00  0.00000000000E+00  0.27605342109E+04  0.27605342109E+04  0.00000000000E+00 0. -1.
         21   -1    0    0  502  503 -0.00000000000E+00 -0.00000000000E+00 -0.14248151775E+02  0.14248151775E+02  0.00000000000E+00 0. -1.
          6    1    1    2  501    0 -0.71096673631E+02 -0.15081945876E+02  0.18222405421E+04  0.18318765775E+04  0.17300000000E+03 0. -1.
         -6    1    1    2    0  503  0.71096673631E+02  0.15081945876E+02  0.92404551701E+03  0.94290578511E+03  0.17300000000E+03 0. -1.
<mgrwt>
<rscale>  2 0.18764648E+03</rscale>
<asrwt>0</asrwt>
<pdfrwt beam="1">  1       21 0.42469715E+00 0.18764648E+03</pdfrwt>
<pdfrwt beam="2">  1       21 0.21920255E-02 0.18764648E+03</pdfrwt>
<totfact> 0.64932063E+03</totfact>
</mgrwt>
</event>
<event>
 4    1  0.3974123E+000  0.2154618E+03  0.7546771E-02  0.1137312E+00
         21   -1    0    0  503  502  0.00000000000E+00  0.00000000000E+00  0.55513533867E+02  0.55513533867E+02  0.00000000000E+00 0. -1.
         21   -1    0    0  501  503 -0.00000000000E+00 -0.00000000000E+00 -0.83638193823E+03  0.83638193823E+03  0.00000000000E+00 0.  1.
          6    1    1    2  501    0  0.82340745870E+02  0.98563692435E+02 -0.39579803144E+03  0.45064385227E+03  0.17300000000E+03 0. -1.
         -6    1    1    2    0  502 -0.82340745870E+02 -0.98563692435E+02 -0.38507037292E+03  0.44125161982E+03  0.17300000000E+03 0. -1.
<mgrwt>
<rscale>  2 0.21546183E+03</rscale>
<asrwt>0</asrwt>
<pdfrwt beam="1">  1       21 0.85405441E-02 0.21546183E+03</pdfrwt>
<pdfrwt beam="2">  1       21 0.12867414E+00 0.21546183E+03</pdfrwt>
<totfact> 0.46913663E+04</totfact>
</mgrwt>
</event>
<event>
 4    1  0.3974123E+000  0.2719998E+03  0.7546771E-02  0.1100140E+00
         21   -1    0    0  503  502  0.00000000000E+00  0.00000000000E+00  0.28741233718E+03  0.28741233718E+03  0.00000000000E+00 0.  1.
         21   -1    0    0  501  503 -0.00000000000E+00 -0.00000000000E+00 -0.26557283057E+03  0.26557283057E+03  0.00000000000E+00 0. -1.
          6    1    1    2  501    0 -0.62776608541E+02  0.20028478960E+03 -0.37543343683E+02  0.27457859017E+03  0.17300000000E+03 0. -1.
         -6    1    1    2    0  502  0.62776608541E+02 -0.20028478960E+03  0.59382850297E+02  0.27840657757E+03  0.17300000000E+03 0.  1.
<mgrwt>
<rscale>  2 0.27199982E+03</rscale>
<asrwt>0</asrwt>
<pdfrwt beam="1">  1       21 0.44217282E-01 0.27199982E+03</pdfrwt>
<pdfrwt beam="2">  1       21 0.40857359E-01 0.27199982E+03</pdfrwt>
<totfact> 0.27270576E+04</totfact>
</mgrwt>
</event>
<event>
 4    1  0.3974123E+000  0.2610201E+03  0.7546771E-02  0.1106532E+00
         21   -1    0    0  503  502  0.00000000000E+00  0.00000000000E+00  0.28911295727E+03  0.28911295727E+03  0.00000000000E+00 0. -1.
         21   -1    0    0  501  503 -0.00000000000E+00 -0.00000000000E+00 -0.29506195377E+03  0.29506195377E+03  0.00000000000E+00 0.  1.
          6    1    1    2  501    0  0.18855231766E+03 -0.51483089510E+02 -0.13403376091E+03  0.29342210903E+03  0.17300000000E+03 0.  1.
         -6    1    1    2    0  502 -0.18855231766E+03  0.51483089510E+02  0.12808476441E+03  0.29075280201E+03  0.17300000000E+03 0. -1.
<mgrwt>
<rscale>  2 0.26102009E+03</rscale>
<asrwt>0</asrwt>
<pdfrwt beam="1">  1       21 0.44478917E-01 0.26102009E+03</pdfrwt>
<pdfrwt beam="2">  1       21 0.45394147E-01 0.26102009E+03</pdfrwt>
<totfact> 0.21796355E+04</totfact>
</mgrwt>
</event>
<event>
 4    1  0.3974123E+000  0.2257971E+03  0.7546771E-02  0.1129633E+00
         21   -1    0    0  503  502  0.00000000000E+00  0.00000000000E+00  0.15601690073E+03  0.15601690073E+03  0.00000000000E+00 0.  1.
         21   -1    0    0  501  503 -0.00000000000E+00 -0.00000000000E+00 -0.20121168676E+04  0.20121168676E+04  0.00000000000E+00 0. -1.
          6    1    1    2  501    0 -0.33323499692E+01 -0.14506632750E+03 -0.19201875525E+04  0.19334178495E+04  0.17300000000E+03 0. -1.
         -6    1    1    2    0  502  0.33323499692E+01  0.14506632750E+03  0.64087585625E+02  0.23471591885E+03  0.17300000000E+03 0.  1.
<mgrwt>
<rscale>  2 0.22579713E+03</rscale>
<asrwt>0</asrwt>
<pdfrwt beam="1">  1       21 0.24002599E-01 0.22579713E+03</pdfrwt>
<pdfrwt beam="2">  1       21 0.30955646E+00 0.22579713E+03</pdfrwt>
<totfact> 0.47042994E+02</totfact>
</mgrwt>
</event>
<event>
 4    1  0.3974123E+000  0.1948144E+03  0.7546771E-02  0.1154189E+00
         21   -1    0    0  503  502  0.00000000000E+00  0.00000000000E+00  0.29540970017E+03  0.29540970017E+03  0.00000000000E+00 0.  1.
         21   -1    0    0  501  503 -0.00000000000E+00 -0.00000000000E+00 -0.20509419281E+03  0.20509419281E+03  0.00000000000E+00 0.  1.
          6    1    1    2  501    0 -0.47602371633E+02  0.75879402889E+02 -0.10779963052E+03  0.22265091490E+03  0.17300000000E+03 0.  1.
         -6    1    1    2    0  502  0.47602371633E+02 -0.75879402889E+02  0.19811513788E+03  0.27785297808E+03  0.17300000000E+03 0.  1.
<mgrwt>
<rscale>  2 0.19481445E+03</rscale>
<asrwt>0</asrwt>
<pdfrwt beam="1">  1       21 0.45447646E-01 0.19481445E+03</pdfrwt>
<pdfrwt beam="2">  1       21 0.31552953E-01 0.19481445E+03</pdfrwt>
<totfact> 0.44784654E+04</totfact>
</mgrwt>
</event>
<event>
 4    1  0.3974123E+000  0.1784266E+03  0.7546771E-02  0.1169335E+00
         21   -1    0    0  501  502  0.00000000000E+00  0.00000000000E+00  0.26952156069E+03  0.26952156069E+03  0.00000000000E+00 0.  1.
         21   -1    0    0  502  503 -0.00000000000E+00 -0.00000000000E+00 -0.19591030147E+03  0.19591030147E+03  0.00000000000E+00 0.  1.
          6    1    1    2  501    0 -0.35748786841E+02  0.25081463463E+02  0.18344765731E+03  0.25590837919E+03  0.17300000000E+03 0.  1.
         -6    1    1    2    0  503  0.35748786841E+02 -0.25081463463E+02 -0.10983639808E+03  0.20952348296E+03  0.17300000000E+03 0.  1.
<mgrwt>
<rscale>  2 0.17842661E+03</rscale>
<asrwt>0</asrwt>
<pdfrwt beam="1">  1       21 0.41464856E-01 0.17842661E+03</pdfrwt>
<pdfrwt beam="2">  1       21 0.30140046E-01 0.17842661E+03</pdfrwt>
<totfact> 0.59516194E+04</totfact>
</mgrwt>
</event>
<event>
 4    1  0.3974123E+000  0.2948699E+03  0.7546771E-02  0.1087834E+00
         21   -1    0    0  503  502  0.00000000000E+00  0.00000000000E+00  0.79381799724E+02  0.79381799724E+02  0.00000000000E+00 0. -1.
         21   -1    0    0  501  503 -0.00000000000E+00 -0.00000000000E+00 -0.12472572679E+04  0.12472572679E+04  0.00000000000E+00 0. -1.
          6    1    1    2  501    0  0.61172875648E+02  0.23081843377E+03 -0.81545350066E+03  0.86712898800E+03  0.17300000000E+03 0. -1.
         -6    1    1    2    0  502 -0.61172875648E+02 -0.23081843377E+03 -0.35242196748E+03  0.45951007959E+03  0.17300000000E+03 0. -1.
<mgrwt>
<rscale>  2 0.29486992E+03</rscale>
<asrwt>0</asrwt>
<pdfrwt beam="1">  1       21 0.12212586E-01 0.29486992E+03</pdfrwt>
<pdfrwt beam="2">  1       21 0.19188571E+00 0.29486992E+03</pdfrwt>
<totfact> 0.80262972E+03</totfact>
</mgrwt>
</event>
<event>
 4    1  0.3974123E+000  0.2647547E+03  0.7546771E-02  0.1104320E+00
         21   -1    0    0  501  502  0.00000000000E+00  0.00000000000E+00  0.64554328652E+03  0.64554328652E+03  0.00000000000E+00 0.  1.
         21   -1    0    0  502  503 -0.00000000000E+00 -0.00000000000E+00 -0.12751673077E+03  0.12751673077E+03  0.00000000000E+00 0.  1.
          6    1    1    2  501    0  0.18621654879E+03 -0.74090768946E+02  0.40795535396E+03  0.48633590852E+03  0.17300000000E+03 0.  1.
         -6    1    1    2    0  503 -0.18621654879E+03  0.74090768946E+02  0.11007120178E+03  0.28672410877E+03  0.17300000000E+03 0.  1.
<mgrwt>
<rscale>  2 0.26475469E+03</rscale>
<asrwt>0</asrwt>
<pdfrwt beam="1">  1       21 0.99314351E-01 0.26475469E+03</pdfrwt>
<pdfrwt beam="2">  1       21 0.19617959E-01 0.26475469E+03</pdfrwt>
<totfact> 0.19190643E+04</totfact>
</mgrwt>
</event>
<event>
 4    1  0.3974123E+000  0.1801517E+03  0.7546771E-02  0.1167656E+00
         21   -1    0    0  503  502  0.00000000000E+00  0.00000000000E+00  0.14788792336E+03  0.14788792336E+03  0.00000000000E+00 0.  1.
         21   -1    0    0  501  503 -0.00000000000E+00 -0.00000000000E+00 -0.23888890720E+03  0.23888890720E+03  0.00000000000E+00 0.  1.
          6    1    1    2  501    0 -0.31906228488E+02 -0.38828027670E+02 -0.10066016358E+03  0.20636640153E+03  0.17300000000E+03 0.  1.
         -6    1    1    2    0  502  0.31906228488E+02  0.38828027670E+02  0.96591797402E+01  0.18041042903E+03  0.17300000000E+03 0.  1.
<mgrwt>
<rscale>  2 0.18015167E+03</rscale>
<asrwt>0</asrwt>
<pdfrwt beam="1">  1       21 0.22751988E-01 0.18015167E+03</pdfrwt>
<pdfrwt beam="2">  1       21 0.36752139E-01 0.18015167E+03</pdfrwt>
<totfact> 0.12990428E+05</totfact>
</mgrwt>
</event>
<event>
 4    1  0.3974123E+000  0.1872464E+03  0.7546771E-02  0.1160969E+00
         21   -1    0    0  501  502  0.00000000000E+00  0.00000000000E+00  0.25337179953E+03  0.25337179953E+03  0.00000000000E+00 0. -1.
         21   -1    0    0  502  503 -0.00000000000E+00 -0.00000000000E+00 -0.33836440478E+03  0.33836440478E+03  0.00000000000E+00 0. -1.
          6    1    1    2  501    0 -0.11077645594E+02  0.70777812726E+02  0.18496393569E+03  0.26319739838E+03  0.17300000000E+03 0. -1.
         -6    1    1    2    0  503  0.11077645594E+02 -0.70777812726E+02 -0.26995654094E+03  0.32853880593E+03  0.17300000000E+03 0. -1.
<mgrwt>
<rscale>  2 0.18724640E+03</rscale>
<asrwt>0</asrwt>
<pdfrwt beam="1">  1       21 0.38980277E-01 0.18724640E+03</pdfrwt>
<pdfrwt beam="2">  1       21 0.52056062E-01 0.18724640E+03</pdfrwt>
<totfact> 0.22294164E+04</totfact>
</mgrwt>
</event>
<event>
 4    1  0.3974123E+000  0.1888231E+03  0.7546771E-02  0.1159527E+00
         21   -1    0    0  503  502  0.00000000000E+00  0.00000000000E+00  0.82220399407E+03  0.82220399407E+03  0.00000000000E+00 0. -1.
         21   -1    0    0  501  503 -0.00000000000E+00 -0.00000000000E+00 -0.53119408520E+02  0.53119408520E+02  0.00000000000E+00 0. -1.
          6    1    1    2  501    0 -0.62338199525E+02  0.42884716438E+02  0.19698581873E+03  0.27286913128E+03  0.17300000000E+03 0. -1.
         -6    1    1    2    0  502  0.62338199525E+02 -0.42884716438E+02  0.57209876682E+03  0.60245427131E+03  0.17300000000E+03 0. -1.
<mgrwt>
<rscale>  2 0.18882307E+03</rscale>
<asrwt>0</asrwt>
<pdfrwt beam="1">  1       21 0.12649291E+00 0.18882307E+03</pdfrwt>
<pdfrwt beam="2">  1       21 0.81722173E-02 0.18882307E+03</pdfrwt>
<totfact> 0.53648566E+04</totfact>
</mgrwt>
</event>
<event>
 4    1  0.3974123E+000  0.1842399E+03  0.7546771E-02  0.1163762E+00
         21   -1    0    0  501  502  0.00000000000E+00  0.00000000000E+00  0.72393258993E+03  0.72393258993E+03  0.00000000000E+00 0. -1.
         21   -1    0    0  502  503 -0.00000000000E+00 -0.00000000000E+00 -0.57964661924E+02  0.57964661924E+02  0.00000000000E+00 0. -1.
          6    1    1    2  501    0  0.28940556501E+02  0.56371958503E+02  0.50387771350E+03  0.53650452345E+03  0.17300000000E+03 0. -1.
         -6    1    1    2    0  503 -0.28940556501E+02 -0.56371958503E+02  0.16209021450E+03  0.24539272840E+03  0.17300000000E+03 0. -1.
<mgrwt>
<rscale>  2 0.18423993E+03</rscale>
<asrwt>0</asrwt>
<pdfrwt beam="1">  1       21 0.11137424E+00 0.18423993E+03</pdfrwt>
<pdfrwt beam="2">  1       21 0.89176408E-02 0.18423993E+03</pdfrwt>
<totfact> 0.63166440E+04</totfact>
</mgrwt>
</event>
<event>
 4    1  0.3974123E+000  0.2233639E+03  0.7546771E-02  0.1131400E+00
         21   -1    0    0  503  502  0.00000000000E+00  0.00000000000E+00  0.87993823592E+02  0.87993823592E+02  0.00000000000E+00 0. -1.
         21   -1    0    0  501  503 -0.00000000000E+00 -0.00000000000E+00 -0.11499190454E+04  0.11499190454E+04  0.00000000000E+00 0. -1.
          6    1    1    2  501    0  0.16329801872E+02 -0.14034157284E+03 -0.97165458045E+03  0.99699751414E+03  0.17300000000E+03 0. -1.
         -6    1    1    2    0  502 -0.16329801872E+02  0.14034157284E+03 -0.90270641311E+02  0.24091535480E+03  0.17300000000E+03 0. -1.
<mgrwt>
<rscale>  2 0.22336387E+03</rscale>
<asrwt>0</asrwt>
<pdfrwt beam="1">  1       21 0.13537511E-01 0.22336387E+03</pdfrwt>
<pdfrwt beam="2">  1       21 0.17691063E+00 0.22336387E+03</pdfrwt>
<totfact> 0.88128938E+03</totfact>
</mgrwt>
</event>
<event>
 4    1  0.3974123E+000  0.2406515E+03  0.7546771E-02  0.1119360E+00
         21   -1    0    0  503  502  0.00000000000E+00  0.00000000000E+00  0.18036853262E+04  0.18036853262E+04  0.00000000000E+00 0.  1.
         21   -1    0    0  501  503 -0.00000000000E+00 -0.00000000000E+00 -0.40496789271E+02  0.40496789271E+02  0.00000000000E+00 0. -1.
          6    1    1    2  501    0 -0.72351609733E+02 -0.15082897865E+03  0.46192486801E+03  0.52085287742E+03  0.17300000000E+03 0. -1.
         -6    1    1    2    0  502  0.72351609733E+02  0.15082897865E+03  0.13012636689E+04  0.13233292381E+04  0.17300000000E+03 0.  1.
<mgrwt>
<rscale>  2 0.24065148E+03</rscale>
<asrwt>0</asrwt>
<pdfrwt beam="1">  1       21 0.27748999E+00 0.24065148E+03</pdfrwt>
<pdfrwt beam="2">  1       21 0.62302767E-02 0.24065148E+03</pdfrwt>
<totfact> 0.81261200E+03</totfact>
</mgrwt>
</event>
<event>
 4    1  0.3974123E+000  0.2015527E+03  0.7546771E-02  0.1148436E+00
         21   -1    0    0  503  502  0.00000000000E+00  0.00000000000E+00  0.28911187358E+03  0.28911187358E+03  0.00000000000E+00 0.  1.
         21   -1    0    0  501  503 -0.00000000000E+00 -0.00000000000E+00 -0.17593544903E+03  0.17593544903E+03  0.00000000000E+00 0.  1.
          6    1    1    2  501    0 -0.23783275474E+02 -0.10064217101E+03 -0.47749202248E+02  0.20713154538E+03  0.17300000000E+03 0.  1.
         -6    1    1    2    0  502  0.23783275474E+02  0.10064217101E+03  0.16092562680E+03  0.25791577722E+03  0.17300000000E+03 0.  1.
<mgrwt>
<rscale>  2 0.20155270E+03</rscale>
<asrwt>0</asrwt>
<pdfrwt beam="1">  1       21 0.44478750E-01 0.20155270E+03</pdfrwt>
<pdfrwt beam="2">  1       21 0.27066992E-01 0.20155270E+03</pdfrwt>
<totfact> 0.62869207E+04</totfact>
</mgrwt>
</event>
<event>
 4    1  0.3974123E+000  0.2371747E+03  0.7546771E-02  0.1121689E+00
         21   -1    0    0  503  502  0.00000000000E+00  0.00000000000E+00  0.70993600462E+02  0.70993600462E+02  0.00000000000E+00 0. -1.
         21   -1    0    0  501  503 -0.00000000000E+00 -0.00000000000E+00 -0.12553242496E+04  0.12553242496E+04  0.00000000000E+00 0. -1.
          6    1    1    2  501    0  0.10546459157E+03  0.12328846630E+03 -0.99489883683E+03  0.10227783345E+04  0.17300000000E+03 0. -1.
         -6    1    1    2    0  502 -0.10546459157E+03 -0.12328846630E+03 -0.18943181233E+03  0.30353951558E+03  0.17300000000E+03 0. -1.
<mgrwt>
<rscale>  2 0.23717467E+03</rscale>
<asrwt>0</asrwt>
<pdfrwt beam="1">  1       21 0.10922092E-01 0.23717467E+03</pdfrwt>
<pdfrwt beam="2">  1       21 0.19312681E+00 0.23717467E+03</pdfrwt>
<totfact> 0.99779247E+03</totfact>
</mgrwt>
</event>
<event>
 4    1  0.3974123E+000  0.2098440E+03  0.7546771E-02  0.1141690E+00
         21   -1    0    0  503  502  0.00000000000E+00  0.00000000000E+00  0.59685479364E+03  0.59685479364E+03  0.00000000000E+00 0. -1.
         21   -1    0    0  501  503 -0.00000000000E+00 -0.00000000000E+00 -0.73802854132E+02  0.73802854132E+02  0.00000000000E+00 0.  1.
          6    1    1    2  501    0 -0.42500499780E+02  0.11090178546E+03  0.25531975304E+03  0.33048853958E+03  0.17300000000E+03 0. -1.
         -6    1    1    2    0  502  0.42500499780E+02 -0.11090178546E+03  0.26773218646E+03  0.34016910819E+03  0.17300000000E+03 0.  1.
<mgrwt>
<rscale>  2 0.20984399E+03</rscale>
<asrwt>0</asrwt>
<pdfrwt beam="1">  1       21 0.91823811E-01 0.20984399E+03</pdfrwt>
<pdfrwt beam="2">  1       21 0.11354286E-01 0.20984399E+03</pdfrwt>
<totfact> 0.64429614E+04</totfact>
</mgrwt>
</event>
<event>
 4    1  0.3974123E+000  0.1782792E+03  0.7546771E-02  0.1169479E+00
         21   -1    0    0  503  502  0.00000000000E+00  0.00000000000E+00  0.13162130969E+04  0.13162130969E+04  0.00000000000E+00 0. -1.
         21   -1    0    0  501  503 -0.00000000000E+00 -0.00000000000E+00 -0.24155850104E+02  0.24155850104E+02  0.00000000000E+00 0. -1.
          6    1    1    2  501    0 -0.17906677690E+02  0.39164108423E+02  0.65836317859E+03  0.68207444713E+03  0.17300000000E+03 0. -1.
         -6    1    1    2    0  502  0.17906677690E+02 -0.39164108423E+02  0.63369406822E+03  0.65829449989E+03  0.17300000000E+03 0. -1.
<mgrwt>
<rscale>  2 0.17827921E+03</rscale>
<asrwt>0</asrwt>
<pdfrwt beam="1">  1       21 0.20249427E+00 0.17827921E+03</pdfrwt>
<pdfrwt beam="2">  1       21 0.37162857E-02 0.17827921E+03</pdfrwt>
<totfact> 0.57899092E+04</totfact>
</mgrwt>
</event>
<event>
 4    1  0.3974123E+000  0.1767123E+03  0.7546771E-02  0.1171023E+00
         21   -1    0    0  503  502  0.00000000000E+00  0.00000000000E+00  0.19414205595E+03  0.19414205595E+03  0.00000000000E+00 0.  1.
         21   -1    0    0  501  503 -0.00000000000E+00 -0.00000000000E+00 -0.19555793432E+03  0.19555793432E+03  0.00000000000E+00 0.  1.
          6    1    1    2  501    0 -0.10080190353E+02  0.34592385430E+02 -0.82798529477E+02  0.19514825096E+03  0.17300000000E+03 0. -1.
         -6    1    1    2    0  502  0.10080190353E+02 -0.34592385430E+02  0.81382651114E+02  0.19455173931E+03  0.17300000000E+03 0. -1.
<mgrwt>
<rscale>  2 0.17671232E+03</rscale>
<asrwt>0</asrwt>
<pdfrwt beam="1">  1       21 0.29868009E-01 0.17671232E+03</pdfrwt>
<pdfrwt beam="2">  1       21 0.30085836E-01 0.17671232E+03</pdfrwt>
<totfact> 0.11455210E+05</totfact>
</mgrwt>
</event>
<event>
 4    1  0.3974123E+000  0.2237205E+03  0.7546771E-02  0.1131139E+00
         21   -1    0    0  503  502  0.00000000000E+00  0.00000000000E+00  0.33866564150E+03  0.33866564150E+03  0.00000000000E+00 0. -1.
         21   -1    0    0  501  503 -0.00000000000E+00 -0.00000000000E+00 -0.28482141130E+03  0.28482141130E+03  0.00000000000E+00 0. -1.
          6    1    1    2  501    0  0.10230968373E+03  0.98257691955E+02 -0.18931177644E+03  0.29306960626E+03  0.17300000000E+03 0. -1.
         -6    1    1    2    0  502 -0.10230968373E+03 -0.98257691955E+02  0.24315600664E+03  0.33041744654E+03  0.17300000000E+03 0. -1.
<mgrwt>
<rscale>  2 0.22372046E+03</rscale>
<asrwt>0</asrwt>
<pdfrwt beam="1">  1       21 0.52102406E-01 0.22372046E+03</pdfrwt>
<pdfrwt beam="2">  1       21 0.43818679E-01 0.22372046E+03</pdfrwt>
<totfact> 0.17173343E+04</totfact>
</mgrwt>
</event>
<event>
 4    1  0.3974123E+000  0.3328655E+03  0.7546771E-02  0.1069876E+00
         21   -1    0    0  501  502  0.00000000000E+00  0.00000000000E+00  0.34067230467E+03  0.34067230467E+03  0.00000000000E+00 0. -1.
         21   -1    0    0  502  503 -0.00000000000E+00 -0.00000000000E+00 -0.76542126195E+03  0.76542126195E+03  0.00000000000E+00 0.  1.
          6    1    1    2  501    0  0.28398164579E+03  0.14995830767E+02  0.20702564932E+03  0.39199371112E+03  0.17300000000E+03 0. -1.
         -6    1    1    2    0  503 -0.28398164579E+03 -0.14995830767E+02 -0.63177460660E+03  0.71409985550E+03  0.17300000000E+03 0.  1.
<mgrwt>
<rscale>  2 0.33286551E+03</rscale>
<asrwt>0</asrwt>
<pdfrwt beam="1">  1       21 0.52411124E-01 0.33286551E+03</pdfrwt>
<pdfrwt beam="2">  1       21 0.11775712E+00 0.33286551E+03</pdfrwt>
<totfact> 0.17284267E+03</totfact>
</mgrwt>
</event>
<event>
 4    1  0.3974123E+000  0.2431497E+03  0.7546771E-02  0.1117712E+00
         21   -1    0    0  503  502  0.00000000000E+00  0.00000000000E+00  0.29011947495E+03  0.29011947495E+03  0.00000000000E+00 0. -1.
         21   -1    0    0  501  503 -0.00000000000E+00 -0.00000000000E+00 -0.21497087496E+03  0.21497087496E+03  0.00000000000E+00 0. -1.
          6    1    1    2  501    0 -0.17014894949E+03  0.15559464008E+02  0.95184579922E+02  0.26111657586E+03  0.17300000000E+03 0. -1.
         -6    1    1    2    0  502  0.17014894949E+03 -0.15559464008E+02 -0.20035979922E+02  0.24397377405E+03  0.17300000000E+03 0. -1.
<mgrwt>
<rscale>  2 0.24314967E+03</rscale>
<asrwt>0</asrwt>
<pdfrwt beam="1">  1       21 0.44633765E-01 0.24314967E+03</pdfrwt>
<pdfrwt beam="2">  1       21 0.33072442E-01 0.24314967E+03</pdfrwt>
<totfact> 0.41419384E+04</totfact>
</mgrwt>
</event>
<event>
 4    1  0.3974123E+000  0.2732527E+03  0.7546771E-02  0.1099432E+00
         21   -1    0    0  503  502  0.00000000000E+00  0.00000000000E+00  0.45731492138E+03  0.45731492138E+03  0.00000000000E+00 0. -1.
         21   -1    0    0  501  503 -0.00000000000E+00 -0.00000000000E+00 -0.22124111085E+03  0.22124111085E+03  0.00000000000E+00 0.  1.
          6    1    1    2  501    0  0.10322228797E+03 -0.18461630301E+03 -0.55630646314E+02  0.27885800845E+03  0.17300000000E+03 0.  1.
         -6    1    1    2    0  502 -0.10322228797E+03  0.18461630301E+03  0.29170445684E+03  0.39969802378E+03  0.17300000000E+03 0.  1.
<mgrwt>
<rscale>  2 0.27325267E+03</rscale>
<asrwt>0</asrwt>
<pdfrwt beam="1">  1       21 0.70356141E-01 0.27325267E+03</pdfrwt>
<pdfrwt beam="2">  1       21 0.34037094E-01 0.27325267E+03</pdfrwt>
<totfact> 0.14570833E+04</totfact>
</mgrwt>
</event>
<event>
 4    1  0.3974123E+000  0.4063228E+03  0.7546771E-02  0.1041612E+00
         21   -1    0    0  503  502  0.00000000000E+00  0.00000000000E+00  0.57239790622E+03  0.57239790622E+03  0.00000000000E+00 0.  1.
         21   -1    0    0  501  503 -0.00000000000E+00 -0.00000000000E+00 -0.82049193084E+03  0.82049193084E+03  0.00000000000E+00 0. -1.
          6    1    1    2  501    0 -0.81628127529E+02  0.35847741733E+03 -0.68487496734E+03  0.79633656881E+03  0.17300000000E+03 0. -1.
         -6    1    1    2    0  502  0.81628127529E+02 -0.35847741733E+03  0.43678094271E+03  0.59655326825E+03  0.17300000000E+03 0.  1.
<mgrwt>
<rscale>  2 0.40632279E+03</rscale>
<asrwt>0</asrwt>
<pdfrwt beam="1">  1       21 0.88061216E-01 0.40632279E+03</pdfrwt>
<pdfrwt beam="2">  1       21 0.12622953E+00 0.40632279E+03</pdfrwt>
<totfact> 0.43750258E+02</totfact>
</mgrwt>
</event>
<event>
 4    1  0.3974123E+000  0.2654683E+03  0.7546771E-02  0.1103902E+00
         21   -1    0    0  503  502  0.00000000000E+00  0.00000000000E+00  0.38072225805E+03  0.38072225805E+03  0.00000000000E+00 0. -1.
         21   -1    0    0  501  503 -0.00000000000E+00 -0.00000000000E+00 -0.18606478229E+03  0.18606478229E+03  0.00000000000E+00 0.  1.
          6    1    1    2  501    0 -0.19951443040E+03 -0.27174044124E+02  0.76970628243E+02  0.27640172616E+03  0.17300000000E+03 0.  1.
         -6    1    1    2    0  502  0.19951443040E+03  0.27174044124E+02  0.11768684752E+03  0.29038531418E+03  0.17300000000E+03 0. -1.
<mgrwt>
<rscale>  2 0.26546833E+03</rscale>
<asrwt>0</asrwt>
<pdfrwt beam="1">  1       21 0.58572655E-01 0.26546833E+03</pdfrwt>
<pdfrwt beam="2">  1       21 0.28625351E-01 0.26546833E+03</pdfrwt>
<totfact> 0.30748334E+04</totfact>
</mgrwt>
</event>
<event>
 4    1  0.3974123E+000  0.1745958E+03  0.7546771E-02  0.1173138E+00
         21   -1    0    0  503  502  0.00000000000E+00  0.00000000000E+00  0.37257387973E+03  0.37257387973E+03  0.00000000000E+00 0.  1.
         21   -1    0    0  501  503 -0.00000000000E+00 -0.00000000000E+00 -0.81825182179E+02  0.81825182179E+02  0.00000000000E+00 0.  1.
          6    1    1    2  501    0  0.58478015339E+01 -0.22814573768E+02  0.14731491107E+03  0.22844120596E+03  0.17300000000E+03 0.  1.
         -6    1    1    2    0  502 -0.58478015339E+01  0.22814573768E+02  0.14343378648E+03  0.22595785595E+03  0.17300000000E+03 0.  1.
<mgrwt>
<rscale>  2 0.17459582E+03</rscale>
<asrwt>0</asrwt>
<pdfrwt beam="1">  1       21 0.57319057E-01 0.17459582E+03</pdfrwt>
<pdfrwt beam="2">  1       21 0.12588490E-01 0.17459582E+03</pdfrwt>
<totfact> 0.15480385E+05</totfact>
</mgrwt>
</event>
<event>
 4    1  0.3974123E+000  0.2274143E+03  0.7546771E-02  0.1128473E+00
         21   -1    0    0  501  502  0.00000000000E+00  0.00000000000E+00  0.63848057032E+02  0.63848057032E+02  0.00000000000E+00 0. -1.
         21   -1    0    0  502  503 -0.00000000000E+00 -0.00000000000E+00 -0.13968604477E+04  0.13968604477E+04  0.00000000000E+00 0.  1.
          6    1    1    2  501    0 -0.11274108783E+03 -0.95277137519E+02 -0.19311258884E+03  0.29834503144E+03  0.17300000000E+03 0. -1.
         -6    1    1    2    0  503  0.11274108783E+03  0.95277137519E+02 -0.11398998018E+04  0.11623634733E+04  0.17300000000E+03 0.  1.
<mgrwt>
<rscale>  2 0.22741435E+03</rscale>
<asrwt>0</asrwt>
<pdfrwt beam="1">  1       21 0.98227785E-02 0.22741435E+03</pdfrwt>
<pdfrwt beam="2">  1       21 0.21490160E+00 0.22741435E+03</pdfrwt>
<totfact> 0.87970305E+03</totfact>
</mgrwt>
</event>
<event>
 4    1  0.3974123E+000  0.3847270E+03  0.7546771E-02  0.1049200E+00
         21   -1    0    0  503  502  0.00000000000E+00  0.00000000000E+00  0.35029387420E+03  0.35029387420E+03  0.00000000000E+00 0. -1.
         21   -1    0    0  501  503 -0.00000000000E+00 -0.00000000000E+00 -0.57409372667E+03  0.57409372667E+03  0.00000000000E+00 0.  1.
          6    1    1    2  501    0 -0.13770031562E+03  0.31484042690E+03 -0.34937010595E+03  0.51968677323E+03  0.17300000000E+03 0.  1.
         -6    1    1    2    0  502  0.13770031562E+03 -0.31484042690E+03  0.12557025349E+03  0.40470082764E+03  0.17300000000E+03 0. -1.
<mgrwt>
<rscale>  2 0.38472701E+03</rscale>
<asrwt>0</asrwt>
<pdfrwt beam="1">  1       21 0.53891365E-01 0.38472701E+03</pdfrwt>
<pdfrwt beam="2">  1       21 0.88322112E-01 0.38472701E+03</pdfrwt>
<totfact> 0.31908977E+03</totfact>
</mgrwt>
</event>
<event>
 4    1  0.3974123E+000  0.1904286E+03  0.7546771E-02  0.1158075E+00
         21   -1    0    0  503  502  0.00000000000E+00  0.00000000000E+00  0.22395133274E+03  0.22395133274E+03  0.00000000000E+00 0.  1.
         21   -1    0    0  501  503 -0.00000000000E+00 -0.00000000000E+00 -0.16584993785E+03  0.16584993785E+03  0.00000000000E+00 0.  1.
          6    1    1    2  501    0 -0.69204433385E+02 -0.39304006529E+02 -0.93654041872E+00  0.19043092091E+03  0.17300000000E+03 0.  1.
         -6    1    1    2    0  502  0.69204433385E+02  0.39304006529E+02  0.59037935306E+02  0.19937034969E+03  0.17300000000E+03 0.  1.
<mgrwt>
<rscale>  2 0.19042862E+03</rscale>
<asrwt>0</asrwt>
<pdfrwt beam="1">  1       21 0.34454052E-01 0.19042862E+03</pdfrwt>
<pdfrwt beam="2">  1       21 0.25515375E-01 0.19042862E+03</pdfrwt>
<totfact> 0.11836351E+05</totfact>
</mgrwt>
</event>
<event>
 4    1  0.3974123E+000  0.2152364E+03  0.7546771E-02  0.1137485E+00
         21   -1    0    0  501  502  0.00000000000E+00  0.00000000000E+00  0.16586878592E+03  0.16586878592E+03  0.00000000000E+00 0.  1.
         21   -1    0    0  502  503 -0.00000000000E+00 -0.00000000000E+00 -0.34317165197E+03  0.34317165197E+03  0.00000000000E+00 0.  1.
          6    1    1    2  501    0 -0.17419635928E+02  0.12686317631E+03  0.21155492836E+02  0.21627358622E+03  0.17300000000E+03 0.  1.
         -6    1    1    2    0  503  0.17419635928E+02 -0.12686317631E+03 -0.19845835889E+03  0.29276685166E+03  0.17300000000E+03 0.  1.
<mgrwt>
<rscale>  2 0.21523640E+03</rscale>
<asrwt>0</asrwt>
<pdfrwt beam="1">  1       21 0.25518275E-01 0.21523640E+03</pdfrwt>
<pdfrwt beam="2">  1       21 0.52795638E-01 0.21523640E+03</pdfrwt>
<totfact> 0.48985190E+04</totfact>
</mgrwt>
</event>
<event>
 4    1  0.3974123E+000  0.1889465E+03  0.7546771E-02  0.1159415E+00
         21   -1    0    0  501  502  0.00000000000E+00  0.00000000000E+00  0.26399037700E+03  0.26399037700E+03  0.00000000000E+00 0.  1.
         21   -1    0    0  502  503 -0.00000000000E+00 -0.00000000000E+00 -0.13618067536E+03  0.13618067536E+03  0.00000000000E+00 0.  1.
          6    1    1    2  501    0  0.65534227800E+02 -0.38432552238E+02  0.80576516447E+02  0.20541025069E+03  0.17300000000E+03 0. -1.
         -6    1    1    2    0  503 -0.65534227800E+02  0.38432552238E+02  0.47233185192E+02  0.19476080167E+03  0.17300000000E+03 0. -1.
<mgrwt>
<rscale>  2 0.18894654E+03</rscale>
<asrwt>0</asrwt>
<pdfrwt beam="1">  1       21 0.40613904E-01 0.18894654E+03</pdfrwt>
<pdfrwt beam="2">  1       21 0.20950873E-01 0.18894654E+03</pdfrwt>
<totfact> 0.12375682E+05</totfact>
</mgrwt>
</event>
<event>
 4    1  0.3974123E+000  0.1991157E+03  0.7546771E-02  0.1150487E+00
         21   -1    0    0  501  502  0.00000000000E+00  0.00000000000E+00  0.10597669374E+04  0.10597669374E+04  0.00000000000E+00 0.  1.
         21   -1    0    0  502  503 -0.00000000000E+00 -0.00000000000E+00 -0.84503876095E+02  0.84503876095E+02  0.00000000000E+00 0.  1.
          6    1    1    2  501    0  0.50313956882E+02 -0.84773531536E+02  0.91473948585E+03  0.93615990775E+03  0.17300000000E+03 0.  1.
         -6    1    1    2    0  503 -0.50313956882E+02  0.84773531536E+02  0.60523575463E+02  0.20811090575E+03  0.17300000000E+03 0.  1.
<mgrwt>
<rscale>  2 0.19911566E+03</rscale>
<asrwt>0</asrwt>
<pdfrwt beam="1">  1       21 0.16304106E+00 0.19911566E+03</pdfrwt>
<pdfrwt beam="2">  1       21 0.13000597E-01 0.19911566E+03</pdfrwt>
<totfact> 0.12098361E+04</totfact>
</mgrwt>
</event>
<event>
 4    1  0.3974123E+000  0.1751373E+03  0.7546771E-02  0.1172594E+00
         21   -1    0    0  501  502  0.00000000000E+00  0.00000000000E+00  0.21482114829E+03  0.21482114829E+03  0.00000000000E+00 0.  1.
         21   -1    0    0  502  503 -0.00000000000E+00 -0.00000000000E+00 -0.18084309502E+03  0.18084309502E+03  0.00000000000E+00 0.  1.
          6    1    1    2  501    0  0.25503974885E+00  0.27276551895E+02  0.10774467789E+03  0.20562585183E+03  0.17300000000E+03 0.  1.
         -6    1    1    2    0  503 -0.25503974885E+00 -0.27276551895E+02 -0.73766624623E+02  0.19003839148E+03  0.17300000000E+03 0.  1.
<mgrwt>
<rscale>  2 0.17513730E+03</rscale>
<asrwt>0</asrwt>
<pdfrwt beam="1">  1       21 0.33049407E-01 0.17513730E+03</pdfrwt>
<pdfrwt beam="2">  1       21 0.27822015E-01 0.17513730E+03</pdfrwt>
<totfact> 0.10942501E+05</totfact>
</mgrwt>
</event>
<event>
 4    1  0.3974123E+000  0.2111780E+03  0.7546771E-02  0.1140636E+00
         21   -1    0    0  503  502  0.00000000000E+00  0.00000000000E+00  0.16343596885E+03  0.16343596885E+03  0.00000000000E+00 0. -1.
         21   -1    0    0  501  503 -0.00000000000E+00 -0.00000000000E+00 -0.28657234741E+03  0.28657234741E+03  0.00000000000E+00 0. -1.
          6    1    1    2  501    0  0.10126839276E+03  0.66421962742E+02 -0.11077552682E+03  0.23846882783E+03  0.17300000000E+03 0.  1.
         -6    1    1    2    0  502 -0.10126839276E+03 -0.66421962742E+02 -0.12360851743E+02  0.21153948842E+03  0.17300000000E+03 0.  1.
<mgrwt>
<rscale>  2 0.21117804E+03</rscale>
<asrwt>0</asrwt>
<pdfrwt beam="1">  1       21 0.25143995E-01 0.21117804E+03</pdfrwt>
<pdfrwt beam="2">  1       21 0.44088053E-01 0.21117804E+03</pdfrwt>
<totfact> 0.73440468E+04</totfact>
</mgrwt>
</event>
<event>
 4    1  0.3974123E+000  0.2225679E+03  0.7546771E-02  0.1131983E+00
         21   -1    0    0  501  502  0.00000000000E+00  0.00000000000E+00  0.50431401454E+03  0.50431401454E+03  0.00000000000E+00 0.  1.
         21   -1    0    0  502  503 -0.00000000000E+00 -0.00000000000E+00 -0.17835768926E+03  0.17835768926E+03  0.00000000000E+00 0. -1.
          6    1    1    2  501    0 -0.10450621732E+03  0.93198228622E+02  0.39176955983E+03  0.45057723787E+03  0.17300000000E+03 0.  1.
         -6    1    1    2    0  503  0.10450621732E+03 -0.93198228622E+02 -0.65813234540E+02  0.23209446593E+03  0.17300000000E+03 0. -1.
<mgrwt>
<rscale>  2 0.22256788E+03</rscale>
<asrwt>0</asrwt>
<pdfrwt beam="1">  1       21 0.77586771E-01 0.22256788E+03</pdfrwt>
<pdfrwt beam="2">  1       21 0.27439645E-01 0.22256788E+03</pdfrwt>
<totfact> 0.18339108E+04</totfact>
</mgrwt>
</event>
<event>
 4    1  0.3974123E+000  0.2333391E+03  0.7546771E-02  0.1124311E+00
         21   -1    0    0  503  502  0.00000000000E+00  0.00000000000E+00  0.14007544989E+03  0.14007544989E+03  0.00000000000E+00 0. -1.
         21   -1    0    0  501  503 -0.00000000000E+00 -0.00000000000E+00 -0.45448617197E+03  0.45448617197E+03  0.00000000000E+00 0.  1.
          6    1    1    2  501    0  0.79323591957E+02  0.13500331011E+03 -0.27030952492E+03  0.35709153622E+03  0.17300000000E+03 0.  1.
         -6    1    1    2    0  502 -0.79323591957E+02 -0.13500331011E+03 -0.44101197161E+02  0.23747008563E+03  0.17300000000E+03 0.  1.
<mgrwt>
<rscale>  2 0.23333908E+03</rscale>
<asrwt>0</asrwt>
<pdfrwt beam="1">  1       21 0.21550069E-01 0.23333908E+03</pdfrwt>
<pdfrwt beam="2">  1       21 0.69920950E-01 0.23333908E+03</pdfrwt>
<totfact> 0.36524377E+04</totfact>
</mgrwt>
</event>
<event>
 4    1  0.3974123E+000  0.1899604E+03  0.7546771E-02  0.1158497E+00
         21   -1    0    0  501  502  0.00000000000E+00  0.00000000000E+00  0.59359516385E+03  0.59359516385E+03  0.00000000000E+00 0. -1.
         21   -1    0    0  502  503 -0.00000000000E+00 -0.00000000000E+00 -0.17862710069E+03  0.17862710069E+03  0.00000000000E+00 0. -1.
          6    1    1    2  501    0 -0.71498446438E+02  0.32309545937E+02  0.52108600678E+03  0.55463101343E+03  0.17300000000E+03 0. -1.
         -6    1    1    2    0  503  0.71498446438E+02 -0.32309545937E+02 -0.10611794362E+03  0.21759125111E+03  0.17300000000E+03 0. -1.
<mgrwt>
<rscale>  2 0.18996035E+03</rscale>
<asrwt>0</asrwt>
<pdfrwt beam="1">  1       21 0.91322332E-01 0.18996035E+03</pdfrwt>
<pdfrwt beam="2">  1       21 0.27481093E-01 0.18996035E+03</pdfrwt>
<totfact> 0.12852913E+04</totfact>
</mgrwt>
</event>
<event>
 4    1  0.3974123E+000  0.2228028E+03  0.7546771E-02  0.1131811E+00
         21   -1    0    0  503  502  0.00000000000E+00  0.00000000000E+00  0.13730370702E+03  0.13730370702E+03  0.00000000000E+00 0. -1.
         21   -1    0    0  501  503 -0.00000000000E+00 -0.00000000000E+00 -0.10330104811E+04  0.10330104811E+04  0.00000000000E+00 0.  1.
          6    1    1    2  501    0  0.10659862845E+03 -0.91371976222E+02 -0.91962609294E+03  0.94623107983E+03  0.17300000000E+03 0.  1.
         -6    1    1    2    0  502 -0.10659862845E+03  0.91371976222E+02  0.23919318817E+02  0.22408310833E+03  0.17300000000E+03 0. -1.
<mgrwt>
<rscale>  2 0.22280284E+03</rscale>
<asrwt>0</asrwt>
<pdfrwt beam="1">  1       21 0.21123646E-01 0.22280284E+03</pdfrwt>
<pdfrwt beam="2">  1       21 0.15892470E+00 0.22280284E+03</pdfrwt>
<totfact> 0.52114669E+03</totfact>
</mgrwt>
</event>
<event>
 4    1  0.3974123E+000  0.2169922E+03  0.7546771E-02  0.1136146E+00
         21   -1    0    0  501  502  0.00000000000E+00  0.00000000000E+00  0.29596866864E+03  0.29596866864E+03  0.00000000000E+00 0. -1.
         21   -1    0    0  502  503 -0.00000000000E+00 -0.00000000000E+00 -0.32910320648E+03  0.32910320648E+03  0.00000000000E+00 0.  1.
          6    1    1    2  501    0 -0.13033238795E+03 -0.13040849361E+02  0.20806673374E+03  0.30062827676E+03  0.17300000000E+03 0. -1.
         -6    1    1    2    0  503  0.13033238795E+03  0.13040849361E+02 -0.24120127158E+03  0.32444359835E+03  0.17300000000E+03 0.  1.
<mgrwt>
<rscale>  2 0.21699215E+03</rscale>
<asrwt>0</asrwt>
<pdfrwt beam="1">  1       21 0.45533642E-01 0.21699215E+03</pdfrwt>
<pdfrwt beam="2">  1       21 0.50631262E-01 0.21699215E+03</pdfrwt>
<totfact> 0.16917039E+04</totfact>
</mgrwt>
</event>
<event>
 4    1  0.3974123E+000  0.1818919E+03  0.7546771E-02  0.1165985E+00
         21   -1    0    0  501  502  0.00000000000E+00  0.00000000000E+00  0.38143507964E+03  0.38143507964E+03  0.00000000000E+00 0. -1.
         21   -1    0    0  502  503 -0.00000000000E+00 -0.00000000000E+00 -0.90061565809E+02  0.90061565809E+02  0.00000000000E+00 0. -1.
          6    1    1    2  501    0 -0.36439625037E+02 -0.42752968150E+02  0.19097905979E+03  0.26373786955E+03  0.17300000000E+03 0. -1.
         -6    1    1    2    0  503  0.36439625037E+02  0.42752968150E+02  0.10039445404E+03  0.20775877589E+03  0.17300000000E+03 0. -1.
<mgrwt>
<rscale>  2 0.18189190E+03</rscale>
<asrwt>0</asrwt>
<pdfrwt beam="1">  1       21 0.58682319E-01 0.18189190E+03</pdfrwt>
<pdfrwt beam="2">  1       21 0.13855626E-01 0.18189190E+03</pdfrwt>
<totfact> 0.12358994E+05</totfact>
</mgrwt>
</event>
<event>
 4    1  0.3974123E+000  0.1897990E+03  0.7546771E-02  0.1158643E+00
         21   -1    0    0  501  502  0.00000000000E+00  0.00000000000E+00  0.24856890826E+03  0.24856890826E+03  0.00000000000E+00 0. -1.
         21   -1    0    0  502  503 -0.00000000000E+00 -0.00000000000E+00 -0.19814353104E+03  0.19814353104E+03  0.00000000000E+00 0.  1.
          6    1    1    2  501    0 -0.74032847536E+02 -0.24774914382E+02  0.14096846278E+03  0.23642285506E+03  0.17300000000E+03 0. -1.
         -6    1    1    2    0  503  0.74032847536E+02  0.24774914382E+02 -0.90543085564E+02  0.21028958424E+03  0.17300000000E+03 0.  1.
<mgrwt>
<rscale>  2 0.18979900E+03</rscale>
<asrwt>0</asrwt>
<pdfrwt beam="1">  1       21 0.38241370E-01 0.18979900E+03</pdfrwt>
<pdfrwt beam="2">  1       21 0.30483620E-01 0.18979900E+03</pdfrwt>
<totfact> 0.68196164E+04</totfact>
</mgrwt>
</event>
<event>
 4    1  0.3974123E+000  0.1868428E+03  0.7546771E-02  0.1161340E+00
         21   -1    0    0  501  502  0.00000000000E+00  0.00000000000E+00  0.22999358392E+03  0.22999358392E+03  0.00000000000E+00 0. -1.
         21   -1    0    0  502  503 -0.00000000000E+00 -0.00000000000E+00 -0.16448226965E+03  0.16448226965E+03  0.00000000000E+00 0. -1.
          6    1    1    2  501    0  0.39624715434E+02  0.58404685729E+02  0.87550258604E+02  0.20633776477E+03  0.17300000000E+03 0. -1.
         -6    1    1    2    0  503 -0.39624715434E+02 -0.58404685729E+02 -0.22038944339E+02  0.18813808880E+03  0.17300000000E+03 0. -1.
<mgrwt>
<rscale>  2 0.18684278E+03</rscale>
<asrwt>0</asrwt>
<pdfrwt beam="1">  1       21 0.35383628E-01 0.18684278E+03</pdfrwt>
<pdfrwt beam="2">  1       21 0.25304965E-01 0.18684278E+03</pdfrwt>
<totfact> 0.11420869E+05</totfact>
</mgrwt>
</event>
<event>
 4    1  0.3974123E+000  0.2818281E+03  0.7546771E-02  0.1094695E+00
         21   -1    0    0  503  502  0.00000000000E+00  0.00000000000E+00  0.52367053693E+03  0.52367053693E+03  0.00000000000E+00 0. -1.
         21   -1    0    0  501  503 -0.00000000000E+00 -0.00000000000E+00 -0.26240908596E+03  0.26240908596E+03  0.00000000000E+00 0. -1.
          6    1    1    2  501    0 -0.32539759733E+02 -0.22008920402E+03 -0.12469239817E+03  0.30818060914E+03  0.17300000000E+03 0. -1.
         -6    1    1    2    0  502  0.32539759733E+02  0.22008920402E+03  0.38595384913E+03  0.47789901375E+03  0.17300000000E+03 0. -1.
<mgrwt>
<rscale>  2 0.28182813E+03</rscale>
<asrwt>0</asrwt>
<pdfrwt beam="1">  1       21 0.80564698E-01 0.28182813E+03</pdfrwt>
<pdfrwt beam="2">  1       21 0.40370629E-01 0.28182813E+03</pdfrwt>
<totfact> 0.75751205E+03</totfact>
</mgrwt>
</event>
<event>
 4    1  0.3974123E+000  0.1735183E+03  0.7546771E-02  0.1174228E+00
         21   -1    0    0  503  502  0.00000000000E+00  0.00000000000E+00  0.64299264342E+02  0.64299264342E+02  0.00000000000E+00 0.  1.
         21   -1    0    0  501  503 -0.00000000000E+00 -0.00000000000E+00 -0.10507658940E+04  0.10507658940E+04  0.00000000000E+00 0.  1.
          6    1    1    2  501    0  0.12389973625E+02 -0.51091918044E+01 -0.90834823746E+03  0.92477301852E+03  0.17300000000E+03 0.  1.
         -6    1    1    2    0  502 -0.12389973625E+02  0.51091918044E+01 -0.78118392237E+02  0.19029213986E+03  0.17300000000E+03 0.  1.
<mgrwt>
<rscale>  2 0.17351834E+03</rscale>
<asrwt>0</asrwt>
<pdfrwt beam="1">  1       21 0.98921947E-02 0.17351834E+03</pdfrwt>
<pdfrwt beam="2">  1       21 0.16165629E+00 0.17351834E+03</pdfrwt>
<totfact> 0.20521752E+04</totfact>
</mgrwt>
</event>
<event>
 4    1  0.3974123E+000  0.1995421E+03  0.7546771E-02  0.1150126E+00
         21   -1    0    0  501  502  0.00000000000E+00  0.00000000000E+00  0.23530401543E+03  0.23530401543E+03  0.00000000000E+00 0. -1.
         21   -1    0    0  502  503 -0.00000000000E+00 -0.00000000000E+00 -0.34178986506E+03  0.34178986506E+03  0.00000000000E+00 0. -1.
          6    1    1    2  501    0  0.99437948180E+02 -0.36306246028E+00  0.15179079393E+03  0.25071394551E+03  0.17300000000E+03 0. -1.
         -6    1    1    2    0  503 -0.99437948180E+02  0.36306246028E+00 -0.25827664355E+03  0.32637993498E+03  0.17300000000E+03 0. -1.
<mgrwt>
<rscale>  2 0.19954207E+03</rscale>
<asrwt>0</asrwt>
<pdfrwt beam="1">  1       21 0.36200618E-01 0.19954207E+03</pdfrwt>
<pdfrwt beam="2">  1       21 0.52583056E-01 0.19954207E+03</pdfrwt>
<totfact> 0.25134825E+04</totfact>
</mgrwt>
</event>
<event>
 4    1  0.3974123E+000  0.2295507E+03  0.7546771E-02  0.1126956E+00
         21   -1    0    0  501  502  0.00000000000E+00  0.00000000000E+00  0.10891693931E+03  0.10891693931E+03  0.00000000000E+00 0.  1.
         21   -1    0    0  502  503 -0.00000000000E+00 -0.00000000000E+00 -0.77847688425E+03  0.77847688425E+03  0.00000000000E+00 0.  1.
          6    1    1    2  501    0 -0.14609004984E+03 -0.37712284145E+02 -0.61794247766E+02  0.23772262848E+03  0.17300000000E+03 0.  1.
         -6    1    1    2    0  503  0.14609004984E+03  0.37712284145E+02 -0.60776569718E+03  0.64967119507E+03  0.17300000000E+03 0.  1.
<mgrwt>
<rscale>  2 0.22955069E+03</rscale>
<asrwt>0</asrwt>
<pdfrwt beam="1">  1       21 0.16756452E-01 0.22955069E+03</pdfrwt>
<pdfrwt beam="2">  1       21 0.11976567E+00 0.22955069E+03</pdfrwt>
<totfact> 0.16611390E+04</totfact>
</mgrwt>
</event>
<event>
 4    1  0.3974123E+000  0.1890902E+03  0.7546771E-02  0.1159284E+00
         21   -1    0    0  503  502  0.00000000000E+00  0.00000000000E+00  0.64416772383E+03  0.64416772383E+03  0.00000000000E+00 0.  1.
         21   -1    0    0  501  503 -0.00000000000E+00 -0.00000000000E+00 -0.86499951589E+02  0.86499951589E+02  0.00000000000E+00 0.  1.
          6    1    1    2  501    0  0.69217369207E+02  0.32172267669E+02  0.60147748557E+02  0.19842593244E+03  0.17300000000E+03 0.  1.
         -6    1    1    2    0  502 -0.69217369207E+02 -0.32172267669E+02  0.49752002369E+03  0.53224174299E+03  0.17300000000E+03 0.  1.
<mgrwt>
<rscale>  2 0.18909019E+03</rscale>
<asrwt>0</asrwt>
<pdfrwt beam="1">  1       21 0.99102724E-01 0.18909019E+03</pdfrwt>
<pdfrwt beam="2">  1       21 0.13307685E-01 0.18909019E+03</pdfrwt>
<totfact> 0.40946557E+04</totfact>
</mgrwt>
</event>
<event>
 4    1  0.3974123E+000  0.2143173E+03  0.7546771E-02  0.1138192E+00
         21   -1    0    0  503  502  0.00000000000E+00  0.00000000000E+00  0.19215994134E+04  0.19215994134E+04  0.00000000000E+00 0. -1.
         21   -1    0    0  501  503 -0.00000000000E+00 -0.00000000000E+00 -0.33313615927E+02  0.33313615927E+02  0.00000000000E+00 0. -1.
          6    1    1    2  501    0 -0.78987417124E+02 -0.98812421667E+02  0.42462969257E+03  0.47564932729E+03  0.17300000000E+03 0. -1.
         -6    1    1    2    0  502  0.78987417124E+02  0.98812421667E+02  0.14636561049E+04  0.14792637020E+04  0.17300000000E+03 0. -1.
<mgrwt>
<rscale>  2 0.21431730E+03</rscale>
<asrwt>0</asrwt>
<pdfrwt beam="1">  1       21 0.29563059E+00 0.21431730E+03</pdfrwt>
<pdfrwt beam="2">  1       21 0.51251732E-02 0.21431730E+03</pdfrwt>
<totfact> 0.91234531E+03</totfact>
</mgrwt>
</event>
<event>
 4    1  0.3974123E+000  0.1825321E+03  0.7546771E-02  0.1165375E+00
         21   -1    0    0  501  502  0.00000000000E+00  0.00000000000E+00  0.46561193936E+02  0.46561193936E+02  0.00000000000E+00 0. -1.
         21   -1    0    0  502  503 -0.00000000000E+00 -0.00000000000E+00 -0.73762287201E+03  0.73762287201E+03  0.00000000000E+00 0. -1.
          6    1    1    2  501    0  0.30291357219E+02 -0.49713307465E+02 -0.27774107371E+03  0.33235234810E+03  0.17300000000E+03 0. -1.
         -6    1    1    2    0  503 -0.30291357219E+02  0.49713307465E+02 -0.41332060437E+03  0.45183171785E+03  0.17300000000E+03 0. -1.
<mgrwt>
<rscale>  2 0.18253213E+03</rscale>
<asrwt>0</asrwt>
<pdfrwt beam="1">  1       21 0.71632611E-02 0.18253213E+03</pdfrwt>
<pdfrwt beam="2">  1       21 0.11348043E+00 0.18253213E+03</pdfrwt>
<totfact> 0.88415034E+04</totfact>
</mgrwt>
</event>
<event>
 4    1  0.3974123E+000  0.1785302E+03  0.7546771E-02  0.1169233E+00
         21   -1    0    0  503  502  0.00000000000E+00  0.00000000000E+00  0.34010338925E+03  0.34010338925E+03  0.00000000000E+00 0. -1.
         21   -1    0    0  501  503 -0.00000000000E+00 -0.00000000000E+00 -0.87455585684E+03  0.87455585684E+03  0.00000000000E+00 0. -1.
          6    1    1    2  501    0  0.43645096118E+02  0.62563507240E+01 -0.84109389376E+03  0.85983252699E+03  0.17300000000E+03 0. -1.
         -6    1    1    2    0  502 -0.43645096118E+02 -0.62563507240E+01  0.30664142618E+03  0.35482671910E+03  0.17300000000E+03 0. -1.
<mgrwt>
<rscale>  2 0.17853021E+03</rscale>
<asrwt>0</asrwt>
<pdfrwt beam="1">  1       21 0.52323599E-01 0.17853021E+03</pdfrwt>
<pdfrwt beam="2">  1       21 0.13454705E+00 0.17853021E+03</pdfrwt>
<totfact> 0.13927288E+03</totfact>
</mgrwt>
</event>
<event>
 4    1  0.3974123E+000  0.2346049E+03  0.7546771E-02  0.1123440E+00
         21   -1    0    0  501  502  0.00000000000E+00  0.00000000000E+00  0.34965921905E+03  0.34965921905E+03  0.00000000000E+00 0. -1.
         21   -1    0    0  502  503 -0.00000000000E+00 -0.00000000000E+00 -0.19592261811E+03  0.19592261811E+03  0.00000000000E+00 0. -1.
          6    1    1    2  501    0 -0.76517704593E+01  0.15827798215E+03  0.19781538548E+03  0.30687195368E+03  0.17300000000E+03 0. -1.
         -6    1    1    2    0  503  0.76517704593E+01 -0.15827798215E+03 -0.44078784547E+02  0.23870988348E+03  0.17300000000E+03 0. -1.
<mgrwt>
<rscale>  2 0.23460492E+03</rscale>
<asrwt>0</asrwt>
<pdfrwt beam="1">  1       21 0.53793726E-01 0.23460492E+03</pdfrwt>
<pdfrwt beam="2">  1       21 0.30141941E-01 0.23460492E+03</pdfrwt>
<totfact> 0.33789840E+04</totfact>
</mgrwt>
</event>
<event>
 4    1  0.3974123E+000  0.3462356E+03  0.7546771E-02  0.1064171E+00
         21   -1    0    0  503  502  0.00000000000E+00  0.00000000000E+00  0.25149763330E+03  0.25149763330E+03  0.00000000000E+00 0. -1.
         21   -1    0    0  501  503 -0.00000000000E+00 -0.00000000000E+00 -0.13167955007E+04  0.13167955007E+04  0.00000000000E+00 0.  1.
          6    1    1    2  501    0 -0.24886942188E+03 -0.16737417986E+03 -0.11589923211E+04  0.12096041937E+04  0.17300000000E+03 0.  1.
         -6    1    1    2    0  502  0.24886942188E+03  0.16737417986E+03  0.93694453649E+02  0.35868894027E+03  0.17300000000E+03 0. -1.
<mgrwt>
<rscale>  2 0.34623562E+03</rscale>
<asrwt>0</asrwt>
<pdfrwt beam="1">  1       21 0.38691943E-01 0.34623562E+03</pdfrwt>
<pdfrwt beam="2">  1       21 0.20258393E+00 0.34623562E+03</pdfrwt>
<totfact> 0.72968085E+02</totfact>
</mgrwt>
</event>
<event>
 4    1  0.3974123E+000  0.1845966E+03  0.7546771E-02  0.1163427E+00
         21   -1    0    0  503  502  0.00000000000E+00  0.00000000000E+00  0.32900758084E+02  0.32900758084E+02  0.00000000000E+00 0. -1.
         21   -1    0    0  501  503 -0.00000000000E+00 -0.00000000000E+00 -0.10515818046E+04  0.10515818046E+04  0.00000000000E+00 0. -1.
          6    1    1    2  501    0  0.63739859139E+02  0.91729221609E+01 -0.57594029376E+03  0.60480007781E+03  0.17300000000E+03 0. -1.
         -6    1    1    2    0  502 -0.63739859139E+02 -0.91729221609E+01 -0.44274075276E+03  0.47968248488E+03  0.17300000000E+03 0. -1.
<mgrwt>
<rscale>  2 0.18459662E+03</rscale>
<asrwt>0</asrwt>
<pdfrwt beam="1">  1       21 0.50616565E-02 0.18459662E+03</pdfrwt>
<pdfrwt beam="2">  1       21 0.16178177E+00 0.18459662E+03</pdfrwt>
<totfact> 0.64639996E+04</totfact>
</mgrwt>
</event>
<event>
 4    1  0.3974123E+000  0.2442648E+03  0.7546771E-02  0.1116984E+00
         21   -1    0    0  501  502  0.00000000000E+00  0.00000000000E+00  0.26717150382E+03  0.26717150382E+03  0.00000000000E+00 0.  1.
         21   -1    0    0  502  503 -0.00000000000E+00 -0.00000000000E+00 -0.22613504555E+03  0.22613504555E+03  0.00000000000E+00 0. -1.
          6    1    1    2  501    0  0.59548453282E+01 -0.17233929078E+03  0.48027969449E+02  0.24894171442E+03  0.17300000000E+03 0.  1.
         -6    1    1    2    0  503 -0.59548453282E+01  0.17233929078E+03 -0.69915111884E+01  0.24436483495E+03  0.17300000000E+03 0. -1.
<mgrwt>
<rscale>  2 0.24426480E+03</rscale>
<asrwt>0</asrwt>
<pdfrwt beam="1">  1       21 0.41103308E-01 0.24426480E+03</pdfrwt>
<pdfrwt beam="2">  1       21 0.34790007E-01 0.24426480E+03</pdfrwt>
<totfact> 0.44329187E+04</totfact>
</mgrwt>
</event>
<event>
 4    1  0.3974123E+000  0.1994217E+03  0.7546771E-02  0.1150228E+00
         21   -1    0    0  501  502  0.00000000000E+00  0.00000000000E+00  0.37367403013E+03  0.37367403013E+03  0.00000000000E+00 0.  1.
         21   -1    0    0  502  503 -0.00000000000E+00 -0.00000000000E+00 -0.20630593834E+03  0.20630593834E+03  0.00000000000E+00 0. -1.
          6    1    1    2  501    0 -0.69584011677E+02 -0.70697217625E+02  0.28545746144E+03  0.34821687718E+03  0.17300000000E+03 0.  1.
         -6    1    1    2    0  503  0.69584011677E+02  0.70697217625E+02 -0.11808936965E+03  0.23176309129E+03  0.17300000000E+03 0. -1.
<mgrwt>
<rscale>  2 0.19942174E+03</rscale>
<asrwt>0</asrwt>
<pdfrwt beam="1">  1       21 0.57488312E-01 0.19942174E+03</pdfrwt>
<pdfrwt beam="2">  1       21 0.31739375E-01 0.19942174E+03</pdfrwt>
<totfact> 0.26997115E+04</totfact>
</mgrwt>
</event>
<event>
 4    1  0.3974123E+000  0.3095371E+03  0.7546771E-02  0.1080568E+00
         21   -1    0    0  501  502  0.00000000000E+00  0.00000000000E+00  0.22524953167E+03  0.22524953167E+03  0.00000000000E+00 0. -1.
         21   -1    0    0  502  503 -0.00000000000E+00 -0.00000000000E+00 -0.69940580891E+03  0.69940580891E+03  0.00000000000E+00 0.  1.
          6    1    1    2  501    0 -0.25507455054E+03  0.28656015689E+02  0.52318277197E+02  0.31392737329E+03  0.17300000000E+03 0. -1.
         -6    1    1    2    0  503  0.25507455054E+03 -0.28656015689E+02 -0.52647455444E+03  0.61072796730E+03  0.17300000000E+03 0.  1.
<mgrwt>
<rscale>  2 0.30953706E+03</rscale>
<asrwt>0</asrwt>
<pdfrwt beam="1">  1       21 0.34653775E-01 0.30953706E+03</pdfrwt>
<pdfrwt beam="2">  1       21 0.10760089E+00 0.30953706E+03</pdfrwt>
<totfact> 0.51341588E+03</totfact>
</mgrwt>
</event>
<event>
 4    1  0.3974123E+000  0.2223326E+03  0.7546771E-02  0.1132156E+00
         21   -1    0    0  503  502  0.00000000000E+00  0.00000000000E+00  0.40882985029E+03  0.40882985029E+03  0.00000000000E+00 0. -1.
         21   -1    0    0  501  503 -0.00000000000E+00 -0.00000000000E+00 -0.32095970005E+03  0.32095970005E+03  0.00000000000E+00 0. -1.
          6    1    1    2  501    0  0.63965473572E+02 -0.12414189262E+03 -0.24414344815E+03  0.33020874396E+03  0.17300000000E+03 0. -1.
         -6    1    1    2    0  502 -0.63965473572E+02  0.12414189262E+03  0.33201359839E+03  0.39958080638E+03  0.17300000000E+03 0. -1.
<mgrwt>
<rscale>  2 0.22233261E+03</rscale>
<asrwt>0</asrwt>
<pdfrwt beam="1">  1       21 0.62896900E-01 0.22233261E+03</pdfrwt>
<pdfrwt beam="2">  1       21 0.49378415E-01 0.22233261E+03</pdfrwt>
<totfact> 0.89727669E+03</totfact>
</mgrwt>
</event>
<event>
 4    1  0.3974123E+000  0.1775514E+03  0.7546771E-02  0.1170194E+00
         21   -1    0    0  501  502  0.00000000000E+00  0.00000000000E+00  0.78879417064E+03  0.78879417064E+03  0.00000000000E+00 0.  1.
         21   -1    0    0  502  503 -0.00000000000E+00 -0.00000000000E+00 -0.40636117809E+02  0.40636117809E+02  0.00000000000E+00 0.  1.
          6    1    1    2  501    0 -0.33750749619E+02 -0.21363110593E+02  0.42735790435E+03  0.46277345862E+03  0.17300000000E+03 0.  1.
         -6    1    1    2    0  503  0.33750749619E+02  0.21363110593E+02  0.32080014848E+03  0.36665682982E+03  0.17300000000E+03 0.  1.
<mgrwt>
<rscale>  2 0.17755139E+03</rscale>
<asrwt>0</asrwt>
<pdfrwt beam="1">  1       21 0.12135294E+00 0.17755139E+03</pdfrwt>
<pdfrwt beam="2">  1       21 0.62517110E-02 0.17755139E+03</pdfrwt>
<totfact> 0.95016819E+04</totfact>
</mgrwt>
</event>
<event>
 4    1  0.3974123E+000  0.2873738E+03  0.7546771E-02  0.1091728E+00
         21   -1    0    0  501  502  0.00000000000E+00  0.00000000000E+00  0.86631814480E+02  0.86631814480E+02  0.00000000000E+00 0. -1.
         21   -1    0    0  502  503 -0.00000000000E+00 -0.00000000000E+00 -0.16350191782E+04  0.16350191782E+04  0.00000000000E+00 0.  1.
          6    1    1    2  501    0 -0.12890104408E+03 -0.18983994313E+03 -0.21833374961E+03  0.36090623352E+03  0.17300000000E+03 0. -1.
         -6    1    1    2    0  503  0.12890104408E+03  0.18983994313E+03 -0.13300536141E+04  0.13607447592E+04  0.17300000000E+03 0.  1.
<mgrwt>
<rscale>  2 0.28737377E+03</rscale>
<asrwt>0</asrwt>
<pdfrwt beam="1">  1       21 0.13327973E-01 0.28737377E+03</pdfrwt>
<pdfrwt beam="2">  1       21 0.25154138E+00 0.28737377E+03</pdfrwt>
<totfact> 0.29043206E+03</totfact>
</mgrwt>
</event>
<event>
 4    1  0.3974123E+000  0.1802700E+03  0.7546771E-02  0.1167542E+00
         21   -1    0    0  501  502  0.00000000000E+00  0.00000000000E+00  0.97488735063E+03  0.97488735063E+03  0.00000000000E+00 0. -1.
         21   -1    0    0  502  503 -0.00000000000E+00 -0.00000000000E+00 -0.55790196992E+02  0.55790196992E+02  0.00000000000E+00 0. -1.
          6    1    1    2  501    0  0.47493700439E+02 -0.17681132272E+02  0.78649622446E+03  0.80689130936E+03  0.17300000000E+03 0. -1.
         -6    1    1    2    0  503 -0.47493700439E+02  0.17681132272E+02  0.13260092918E+03  0.22378623827E+03  0.17300000000E+03 0. -1.
<mgrwt>
<rscale>  2 0.18027000E+03</rscale>
<asrwt>0</asrwt>
<pdfrwt beam="1">  1       21 0.14998266E+00 0.18027000E+03</pdfrwt>
<pdfrwt beam="2">  1       21 0.85831079E-02 0.18027000E+03</pdfrwt>
<totfact> 0.31979333E+04</totfact>
</mgrwt>
</event>
<event>
 4    1  0.3974123E+000  0.1813540E+03  0.7546771E-02  0.1166499E+00
         21   -1    0    0  501  502  0.00000000000E+00  0.00000000000E+00  0.10211462755E+04  0.10211462755E+04  0.00000000000E+00 0. -1.
         21   -1    0    0  502  503 -0.00000000000E+00 -0.00000000000E+00 -0.34407191445E+02  0.34407191445E+02  0.00000000000E+00 0. -1.
          6    1    1    2  501    0  0.80868991433E+01  0.53803914502E+02  0.62679532196E+03  0.65250412626E+03  0.17300000000E+03 0. -1.
         -6    1    1    2    0  503 -0.80868991433E+01 -0.53803914502E+02  0.35994376206E+03  0.40304934066E+03  0.17300000000E+03 0. -1.
<mgrwt>
<rscale>  2 0.18135396E+03</rscale>
<asrwt>0</asrwt>
<pdfrwt beam="1">  1       21 0.15709940E+00 0.18135396E+03</pdfrwt>
<pdfrwt beam="2">  1       21 0.52934148E-02 0.18135396E+03</pdfrwt>
<totfact> 0.64950415E+04</totfact>
</mgrwt>
</event>
<event>
 4    1  0.3974123E+000  0.2222045E+03  0.7546771E-02  0.1132250E+00
         21   -1    0    0  501  502  0.00000000000E+00  0.00000000000E+00  0.71013635439E+03  0.71013635439E+03  0.00000000000E+00 0. -1.
         21   -1    0    0  502  503 -0.00000000000E+00 -0.00000000000E+00 -0.69609572205E+02  0.69609572205E+02  0.00000000000E+00 0. -1.
          6    1    1    2  501    0  0.38665052088E+02 -0.13398081697E+03  0.33355365320E+03  0.40079032565E+03  0.17300000000E+03 0.  1.
         -6    1    1    2    0  503 -0.38665052088E+02  0.13398081697E+03  0.30697312899E+03  0.37895560095E+03  0.17300000000E+03 0.  1.
<mgrwt>
<rscale>  2 0.22220451E+03</rscale>
<asrwt>0</asrwt>
<pdfrwt beam="1">  1       21 0.10925174E+00 0.22220451E+03</pdfrwt>
<pdfrwt beam="2">  1       21 0.10709165E-01 0.22220451E+03</pdfrwt>
<totfact> 0.47007616E+04</totfact>
</mgrwt>
</event>
<event>
 4    1  0.3974123E+000  0.2211736E+03  0.7546771E-02  0.1133011E+00
         21   -1    0    0  501  502  0.00000000000E+00  0.00000000000E+00  0.63991738884E+03  0.63991738884E+03  0.00000000000E+00 0.  1.
         21   -1    0    0  502  503 -0.00000000000E+00 -0.00000000000E+00 -0.76443928656E+02  0.76443928656E+02  0.00000000000E+00 0.  1.
          6    1    1    2  501    0 -0.12795106655E+03 -0.51159557153E+02  0.28148848240E+03  0.35798539278E+03  0.17300000000E+03 0.  1.
         -6    1    1    2    0  503  0.12795106655E+03  0.51159557153E+02  0.28198497778E+03  0.35837592471E+03  0.17300000000E+03 0.  1.
<mgrwt>
<rscale>  2 0.22117363E+03</rscale>
<asrwt>0</asrwt>
<pdfrwt beam="1">  1       21 0.98448826E-01 0.22117363E+03</pdfrwt>
<pdfrwt beam="2">  1       21 0.11760605E-01 0.22117363E+03</pdfrwt>
<totfact> 0.51098712E+04</totfact>
</mgrwt>
</event>
<event>
 4    1  0.3974123E+000  0.4145238E+03  0.7546771E-02  0.1038863E+00
         21   -1    0    0  503  502  0.00000000000E+00  0.00000000000E+00  0.73791228074E+02  0.73791228074E+02  0.00000000000E+00 0.  1.
         21   -1    0    0  501  503 -0.00000000000E+00 -0.00000000000E+00 -0.23341842724E+04  0.23341842724E+04  0.00000000000E+00 0. -1.
          6    1    1    2  501    0  0.37659068342E+03 -0.89697498308E+01 -0.11891041912E+04  0.12592850261E+04  0.17300000000E+03 0. -1.
         -6    1    1    2    0  502 -0.37659068342E+03  0.89697498308E+01 -0.10712888531E+04  0.11486904744E+04  0.17300000000E+03 0.  1.
<mgrwt>
<rscale>  2 0.41452382E+03</rscale>
<asrwt>0</asrwt>
<pdfrwt beam="1">  1       21 0.11352498E-01 0.41452382E+03</pdfrwt>
<pdfrwt beam="2">  1       21 0.35910522E+00 0.41452382E+03</pdfrwt>
<totfact> 0.80738090E+02</totfact>
</mgrwt>
</event>
<event>
 4    1  0.3974123E+000  0.2385377E+03  0.7546771E-02  0.1120771E+00
         21   -1    0    0  501  502  0.00000000000E+00  0.00000000000E+00  0.19023055549E+03  0.19023055549E+03  0.00000000000E+00 0.  1.
         21   -1    0    0  502  503 -0.00000000000E+00 -0.00000000000E+00 -0.31855732327E+03  0.31855732327E+03  0.00000000000E+00 0.  1.
          6    1    1    2  501    0 -0.12465884286E+03  0.10691785887E+03 -0.13112913296E+01  0.23854134890E+03  0.17300000000E+03 0.  1.
         -6    1    1    2    0  503  0.12465884286E+03 -0.10691785887E+03 -0.12701547645E+03  0.27024652987E+03  0.17300000000E+03 0.  1.
<mgrwt>
<rscale>  2 0.23853774E+03</rscale>
<asrwt>0</asrwt>
<pdfrwt beam="1">  1       21 0.29266239E-01 0.23853774E+03</pdfrwt>
<pdfrwt beam="2">  1       21 0.49008819E-01 0.23853774E+03</pdfrwt>
<totfact> 0.43472615E+04</totfact>
</mgrwt>
</event>
<event>
 4    1  0.3974123E+000  0.1969725E+03  0.7546771E-02  0.1152319E+00
         21   -1    0    0  503  502  0.00000000000E+00  0.00000000000E+00  0.66958879786E+02  0.66958879786E+02  0.00000000000E+00 0. -1.
         21   -1    0    0  501  503 -0.00000000000E+00 -0.00000000000E+00 -0.10335568587E+04  0.10335568587E+04  0.00000000000E+00 0. -1.
          6    1    1    2  501    0 -0.49805986868E+02 -0.79928255848E+02 -0.84804150882E+03  0.87061619735E+03  0.17300000000E+03 0. -1.
         -6    1    1    2    0  502  0.49805986868E+02  0.79928255848E+02 -0.11855647009E+03  0.22989954113E+03  0.17300000000E+03 0. -1.
<mgrwt>
<rscale>  2 0.19697249E+03</rscale>
<asrwt>0</asrwt>
<pdfrwt beam="1">  1       21 0.10301367E-01 0.19697249E+03</pdfrwt>
<pdfrwt beam="2">  1       21 0.15900874E+00 0.19697249E+03</pdfrwt>
<totfact> 0.19647691E+04</totfact>
</mgrwt>
</event>
<event>
 4    1  0.3974123E+000  0.2613429E+03  0.7546771E-02  0.1106339E+00
         21   -1    0    0  503  502  0.00000000000E+00  0.00000000000E+00  0.26066151061E+03  0.26066151061E+03  0.00000000000E+00 0.  1.
         21   -1    0    0  501  503 -0.00000000000E+00 -0.00000000000E+00 -0.50431576922E+03  0.50431576922E+03  0.00000000000E+00 0.  1.
          6    1    1    2  501    0  0.18040430241E+03 -0.76324236353E+02 -0.38694241966E+03  0.46693097725E+03  0.17300000000E+03 0.  1.
         -6    1    1    2    0  502 -0.18040430241E+03  0.76324236353E+02  0.14328816105E+03  0.29804630257E+03  0.17300000000E+03 0.  1.
<mgrwt>
<rscale>  2 0.26134288E+03</rscale>
<asrwt>0</asrwt>
<pdfrwt beam="1">  1       21 0.40101771E-01 0.26134288E+03</pdfrwt>
<pdfrwt beam="2">  1       21 0.77587041E-01 0.26134288E+03</pdfrwt>
<totfact> 0.84572693E+03</totfact>
</mgrwt>
</event>
<event>
 4    1  0.3974123E+000  0.1793064E+03  0.7546771E-02  0.1168476E+00
         21   -1    0    0  503  502  0.00000000000E+00  0.00000000000E+00  0.93352221958E+02  0.93352221958E+02  0.00000000000E+00 0. -1.
         21   -1    0    0  501  503 -0.00000000000E+00 -0.00000000000E+00 -0.37764417890E+03  0.37764417890E+03  0.00000000000E+00 0. -1.
          6    1    1    2  501    0  0.32643439942E+02 -0.34002714333E+02 -0.21201503234E+03  0.27767094319E+03  0.17300000000E+03 0. -1.
         -6    1    1    2    0  502 -0.32643439942E+02  0.34002714333E+02 -0.72276924603E+02  0.19332545767E+03  0.17300000000E+03 0. -1.
<mgrwt>
<rscale>  2 0.17930638E+03</rscale>
<asrwt>0</asrwt>
<pdfrwt beam="1">  1       21 0.14361880E-01 0.17930638E+03</pdfrwt>
<pdfrwt beam="2">  1       21 0.58099104E-01 0.17930638E+03</pdfrwt>
<totfact> 0.11842688E+05</totfact>
</mgrwt>
</event>
<event>
 4    1  0.3974123E+000  0.1877402E+03  0.7546771E-02  0.1160515E+00
         21   -1    0    0  501  502  0.00000000000E+00  0.00000000000E+00  0.73366375838E+03  0.73366375838E+03  0.00000000000E+00 0. -1.
         21   -1    0    0  502  503 -0.00000000000E+00 -0.00000000000E+00 -0.22579923016E+03  0.22579923016E+03  0.00000000000E+00 0. -1.
          6    1    1    2  501    0 -0.68448950885E+02  0.25142009104E+02  0.67958078671E+03  0.70503647080E+03  0.17300000000E+03 0. -1.
         -6    1    1    2    0  503  0.68448950885E+02 -0.25142009104E+02 -0.17171625849E+03  0.25442651774E+03  0.17300000000E+03 0. -1.
<mgrwt>
<rscale>  2 0.18774019E+03</rscale>
<asrwt>0</asrwt>
<pdfrwt beam="1">  1       21 0.11287135E+00 0.18774019E+03</pdfrwt>
<pdfrwt beam="2">  1       21 0.34738343E-01 0.18774019E+03</pdfrwt>
<totfact> 0.49201309E+03</totfact>
</mgrwt>
</event>
<event>
 4    1  0.3974123E+000  0.2209440E+03  0.7546771E-02  0.1133181E+00
         21   -1    0    0  503  502  0.00000000000E+00  0.00000000000E+00  0.29108807980E+03  0.29108807980E+03  0.00000000000E+00 0. -1.
         21   -1    0    0  501  503 -0.00000000000E+00 -0.00000000000E+00 -0.33404464486E+03  0.33404464486E+03  0.00000000000E+00 0. -1.
          6    1    1    2  501    0  0.40835299146E+02  0.13122400790E+03 -0.24204544015E+03  0.32772283564E+03  0.17300000000E+03 0. -1.
         -6    1    1    2    0  502 -0.40835299146E+02 -0.13122400790E+03  0.19908887508E+03  0.29740988902E+03  0.17300000000E+03 0. -1.
<mgrwt>
<rscale>  2 0.22094402E+03</rscale>
<asrwt>0</asrwt>
<pdfrwt beam="1">  1       21 0.44782782E-01 0.22094402E+03</pdfrwt>
<pdfrwt beam="2">  1       21 0.51391484E-01 0.22094402E+03</pdfrwt>
<totfact> 0.16929623E+04</totfact>
</mgrwt>
</event>
<event>
 4    1  0.3974123E+000  0.2021311E+03  0.7546771E-02  0.1147953E+00
         21   -1    0    0  501  502  0.00000000000E+00  0.00000000000E+00  0.52300528876E+02  0.52300528876E+02  0.00000000000E+00 0. -1.
         21   -1    0    0  502  503 -0.00000000000E+00 -0.00000000000E+00 -0.10185334430E+04  0.10185334430E+04  0.00000000000E+00 0.  1.
          6    1    1    2  501    0  0.37833642687E+01  0.10446851594E+03 -0.22466007216E+03  0.30220710232E+03  0.17300000000E+03 0. -1.
         -6    1    1    2    0  503 -0.37833642687E+01 -0.10446851594E+03 -0.74157284192E+03  0.76862686952E+03  0.17300000000E+03 0.  1.
<mgrwt>
<rscale>  2 0.20213111E+03</rscale>
<asrwt>0</asrwt>
<pdfrwt beam="1">  1       21 0.80462360E-02 0.20213111E+03</pdfrwt>
<pdfrwt beam="2">  1       21 0.15669744E+00 0.20213111E+03</pdfrwt>
<totfact> 0.31438047E+04</totfact>
</mgrwt>
</event>
<event>
 4    1  0.3974123E+000  0.1922109E+03  0.7546771E-02  0.1156482E+00
         21   -1    0    0  503  502  0.00000000000E+00  0.00000000000E+00  0.50749748253E+03  0.50749748253E+03  0.00000000000E+00 0. -1.
         21   -1    0    0  501  503 -0.00000000000E+00 -0.00000000000E+00 -0.12862910892E+03  0.12862910892E+03  0.00000000000E+00 0. -1.
          6    1    1    2  501    0 -0.76526393735E+02  0.34054729486E+02 -0.20112321207E+02  0.19326023648E+03  0.17300000000E+03 0. -1.
         -6    1    1    2    0  502  0.76526393735E+02 -0.34054729486E+02  0.39898069481E+03  0.44286635497E+03  0.17300000000E+03 0. -1.
<mgrwt>
<rscale>  2 0.19221086E+03</rscale>
<asrwt>0</asrwt>
<pdfrwt beam="1">  1       21 0.78076535E-01 0.19221086E+03</pdfrwt>
<pdfrwt beam="2">  1       21 0.19789094E-01 0.19221086E+03</pdfrwt>
<totfact> 0.34218586E+04</totfact>
</mgrwt>
</event>
<event>
 4    1  0.3974123E+000  0.1864455E+03  0.7546771E-02  0.1161707E+00
         21   -1    0    0  503  502  0.00000000000E+00  0.00000000000E+00  0.74884973194E+02  0.74884973194E+02  0.00000000000E+00 0.  1.
         21   -1    0    0  501  503 -0.00000000000E+00 -0.00000000000E+00 -0.74823854580E+03  0.74823854580E+03  0.00000000000E+00 0.  1.
          6    1    1    2  501    0  0.47059845276E+02  0.51169322050E+02 -0.59024821005E+03  0.61899505493E+03  0.17300000000E+03 0.  1.
         -6    1    1    2    0  502 -0.47059845276E+02 -0.51169322050E+02 -0.83105362553E+02  0.20412846406E+03  0.17300000000E+03 0.  1.
<mgrwt>
<rscale>  2 0.18644551E+03</rscale>
<asrwt>0</asrwt>
<pdfrwt beam="1">  1       21 0.11520766E-01 0.18644551E+03</pdfrwt>
<pdfrwt beam="2">  1       21 0.11511362E+00 0.18644551E+03</pdfrwt>
<totfact> 0.37038079E+04</totfact>
</mgrwt>
</event>
<event>
 4    1  0.3974123E+000  0.2084253E+03  0.7546771E-02  0.1142819E+00
         21   -1    0    0  503  502  0.00000000000E+00  0.00000000000E+00  0.47158089631E+03  0.47158089631E+03  0.00000000000E+00 0.  1.
         21   -1    0    0  501  503 -0.00000000000E+00 -0.00000000000E+00 -0.11499080665E+03  0.11499080665E+03  0.00000000000E+00 0.  1.
          6    1    1    2  501    0  0.11130356218E+03  0.33520225003E+02  0.47491566440E+02  0.21376748425E+03  0.17300000000E+03 0.  1.
         -6    1    1    2    0  502 -0.11130356218E+03 -0.33520225003E+02  0.30909852322E+03  0.37280421872E+03  0.17300000000E+03 0.  1.
<mgrwt>
<rscale>  2 0.20842526E+03</rscale>
<asrwt>0</asrwt>
<pdfrwt beam="1">  1       21 0.72550906E-01 0.20842526E+03</pdfrwt>
<pdfrwt beam="2">  1       21 0.17690894E-01 0.20842526E+03</pdfrwt>
<totfact> 0.49239360E+04</totfact>
</mgrwt>
</event>
<event>
 4    1  0.3974123E+000  0.2110599E+03  0.7546771E-02  0.1140729E+00
         21   -1    0    0  503  502  0.00000000000E+00  0.00000000000E+00  0.13125196569E+03  0.13125196569E+03  0.00000000000E+00 0.  1.
         21   -1    0    0  501  503 -0.00000000000E+00 -0.00000000000E+00 -0.33951753823E+03  0.33951753823E+03  0.00000000000E+00 0. -1.
          6    1    1    2  501    0 -0.41389668435E+00  0.12090130547E+03 -0.10859957426E+03  0.23736083187E+03  0.17300000000E+03 0. -1.
         -6    1    1    2    0  502  0.41389668435E+00 -0.12090130547E+03 -0.99665998281E+02  0.23340867205E+03  0.17300000000E+03 0.  1.
<mgrwt>
<rscale>  2 0.21105994E+03</rscale>
<asrwt>0</asrwt>
<pdfrwt beam="1">  1       21 0.20192611E-01 0.21105994E+03</pdfrwt>
<pdfrwt beam="2">  1       21 0.52233466E-01 0.21105994E+03</pdfrwt>
<totfact> 0.78224424E+04</totfact>
</mgrwt>
</event>
<event>
 4    1  0.3974123E+000  0.2791462E+03  0.7546771E-02  0.1096156E+00
         21   -1    0    0  501  502  0.00000000000E+00  0.00000000000E+00  0.24175391102E+03  0.24175391102E+03  0.00000000000E+00 0. -1.
         21   -1    0    0  502  503 -0.00000000000E+00 -0.00000000000E+00 -0.33027205361E+03  0.33027205361E+03  0.00000000000E+00 0.  1.
          6    1    1    2  501    0  0.16249377705E+03  0.14693322798E+03  0.11560577254E+00  0.27914622410E+03  0.17300000000E+03 0. -1.
         -6    1    1    2    0  503 -0.16249377705E+03 -0.14693322798E+03 -0.88633748360E+02  0.29287974053E+03  0.17300000000E+03 0. -1.
<mgrwt>
<rscale>  2 0.27914620E+03</rscale>
<asrwt>0</asrwt>
<pdfrwt beam="1">  1       21 0.37192909E-01 0.27914620E+03</pdfrwt>
<pdfrwt beam="2">  1       21 0.50811085E-01 0.27914620E+03</pdfrwt>
<totfact> 0.24618558E+04</totfact>
</mgrwt>
</event>
<event>
 4    1  0.3974123E+000  0.2808116E+03  0.7546771E-02  0.1095246E+00
         21   -1    0    0  501  502  0.00000000000E+00  0.00000000000E+00  0.77048700153E+02  0.77048700153E+02  0.00000000000E+00 0.  1.
         21   -1    0    0  502  503 -0.00000000000E+00 -0.00000000000E+00 -0.11087952371E+04  0.11087952371E+04  0.00000000000E+00 0.  1.
          6    1    1    2  501    0 -0.46245839151E+02  0.21630413214E+03 -0.35137071734E+03  0.44979610517E+03  0.17300000000E+03 0.  1.
         -6    1    1    2    0  503  0.46245839151E+02 -0.21630413214E+03 -0.68037581962E+03  0.73604783210E+03  0.17300000000E+03 0.  1.
<mgrwt>
<rscale>  2 0.28081160E+03</rscale>
<asrwt>0</asrwt>
<pdfrwt beam="1">  1       21 0.11853647E-01 0.28081160E+03</pdfrwt>
<pdfrwt beam="2">  1       21 0.17058388E+00 0.28081160E+03</pdfrwt>
<totfact> 0.11972969E+04</totfact>
</mgrwt>
</event>
<event>
 4    1  0.3974123E+000  0.2614394E+03  0.7546771E-02  0.1106281E+00
         21   -1    0    0  501  502  0.00000000000E+00  0.00000000000E+00  0.27657205818E+03  0.27657205818E+03  0.00000000000E+00 0. -1.
         21   -1    0    0  502  503 -0.00000000000E+00 -0.00000000000E+00 -0.44900363948E+03  0.44900363948E+03  0.00000000000E+00 0.  1.
          6    1    1    2  501    0 -0.14866266587E+03  0.12775360740E+03  0.15703960128E+03  0.30497870220E+03  0.17300000000E+03 0. -1.
         -6    1    1    2    0  503  0.14866266587E+03 -0.12775360740E+03 -0.32947118259E+03  0.42059699545E+03  0.17300000000E+03 0.  1.
<mgrwt>
<rscale>  2 0.26143942E+03</rscale>
<asrwt>0</asrwt>
<pdfrwt beam="1">  1       21 0.42549548E-01 0.26143942E+03</pdfrwt>
<pdfrwt beam="2">  1       21 0.69077483E-01 0.26143942E+03</pdfrwt>
<totfact> 0.97197217E+03</totfact>
</mgrwt>
</event>
<event>
 4    1  0.3974123E+000  0.2414846E+03  0.7546771E-02  0.1118808E+00
         21   -1    0    0  503  502  0.00000000000E+00  0.00000000000E+00  0.17404506141E+03  0.17404506141E+03  0.00000000000E+00 0.  1.
         21   -1    0    0  501  503 -0.00000000000E+00 -0.00000000000E+00 -0.33659284823E+03  0.33659284823E+03  0.00000000000E+00 0.  1.
          6    1    1    2  501    0  0.16138654495E+03  0.48375732913E+02 -0.98526598604E+02  0.26081088754E+03  0.17300000000E+03 0.  1.
         -6    1    1    2    0  502 -0.16138654495E+03 -0.48375732913E+02 -0.64021188218E+02  0.24982702209E+03  0.17300000000E+03 0.  1.
<mgrwt>
<rscale>  2 0.24148463E+03</rscale>
<asrwt>0</asrwt>
<pdfrwt beam="1">  1       21 0.26776163E-01 0.24148463E+03</pdfrwt>
<pdfrwt beam="2">  1       21 0.51783515E-01 0.24148463E+03</pdfrwt>
<totfact> 0.45977497E+04</totfact>
</mgrwt>
</event>
<event>
 4    1  0.3974123E+000  0.1755557E+03  0.7546771E-02  0.1172175E+00
         21   -1    0    0  501  502  0.00000000000E+00  0.00000000000E+00  0.12195108460E+03  0.12195108460E+03  0.00000000000E+00 0.  1.
         21   -1    0    0  502  503 -0.00000000000E+00 -0.00000000000E+00 -0.28066114815E+03  0.28066114815E+03  0.00000000000E+00 0.  1.
          6    1    1    2  501    0  0.26537222897E+01 -0.29728103843E+02 -0.15841351577E+02  0.17626897294E+03  0.17300000000E+03 0.  1.
         -6    1    1    2    0  503 -0.26537222897E+01  0.29728103843E+02 -0.14286871198E+03  0.22634325981E+03  0.17300000000E+03 0.  1.
<mgrwt>
<rscale>  2 0.17555570E+03</rscale>
<asrwt>0</asrwt>
<pdfrwt beam="1">  1       21 0.18761706E-01 0.17555570E+03</pdfrwt>
<pdfrwt beam="2">  1       21 0.43178638E-01 0.17555570E+03</pdfrwt>
<totfact> 0.13486873E+05</totfact>
</mgrwt>
</event>
<event>
 4    1  0.3974123E+000  0.2035965E+03  0.7546771E-02  0.1146740E+00
         21   -1    0    0  501  502  0.00000000000E+00  0.00000000000E+00  0.64557197308E+03  0.64557197308E+03  0.00000000000E+00 0.  1.
         21   -1    0    0  502  503 -0.00000000000E+00 -0.00000000000E+00 -0.53969620556E+03  0.53969620556E+03  0.00000000000E+00 0. -1.
          6    1    1    2  501    0 -0.10334132963E+03 -0.29036058060E+02  0.60920241614E+03  0.64232321062E+03  0.17300000000E+03 0.  1.
         -6    1    1    2    0  503  0.10334132963E+03  0.29036058060E+02 -0.50332664862E+03  0.54294496801E+03  0.17300000000E+03 0. -1.
<mgrwt>
<rscale>  2 0.20359647E+03</rscale>
<asrwt>0</asrwt>
<pdfrwt beam="1">  1       21 0.99318766E-01 0.20359647E+03</pdfrwt>
<pdfrwt beam="2">  1       21 0.83030185E-01 0.20359647E+03</pdfrwt>
<totfact> 0.10433563E+03</totfact>
</mgrwt>
</event>
<event>
 4    1  0.3974123E+000  0.2734000E+03  0.7546771E-02  0.1099349E+00
         21   -1    0    0  503  502  0.00000000000E+00  0.00000000000E+00  0.12614047537E+04  0.12614047537E+04  0.00000000000E+00 0.  1.
         21   -1    0    0  501  503 -0.00000000000E+00 -0.00000000000E+00 -0.12703687287E+03  0.12703687287E+03  0.00000000000E+00 0. -1.
          6    1    1    2  501    0  0.19521487723E+03  0.81912766959E+02  0.60097651622E+02  0.27992727165E+03  0.17300000000E+03 0. -1.
         -6    1    1    2    0  502 -0.19521487723E+03 -0.81912766959E+02  0.10742702292E+04  0.11085143549E+04  0.17300000000E+03 0.  1.
<mgrwt>
<rscale>  2 0.27339998E+03</rscale>
<asrwt>0</asrwt>
<pdfrwt beam="1">  1       21 0.19406226E+00 0.27339998E+03</pdfrwt>
<pdfrwt beam="2">  1       21 0.19544135E-01 0.27339998E+03</pdfrwt>
<totfact> 0.33082722E+03</totfact>
</mgrwt>
</event>
<event>
 4    1  0.3974123E+000  0.2679858E+03  0.7546771E-02  0.1102438E+00
         21   -1    0    0  503  502  0.00000000000E+00  0.00000000000E+00  0.17768560793E+03  0.17768560793E+03  0.00000000000E+00 0.  1.
         21   -1    0    0  501  503 -0.00000000000E+00 -0.00000000000E+00 -0.50109154893E+03  0.50109154893E+03  0.00000000000E+00 0. -1.
          6    1    1    2  501    0  0.18373413240E+03  0.90161703167E+02 -0.31095975416E+03  0.41050253694E+03  0.17300000000E+03 0. -1.
         -6    1    1    2    0  502 -0.18373413240E+03 -0.90161703167E+02 -0.12446186845E+02  0.26827461992E+03  0.17300000000E+03 0.  1.
<mgrwt>
<rscale>  2 0.26798575E+03</rscale>
<asrwt>0</asrwt>
<pdfrwt beam="1">  1       21 0.27336247E-01 0.26798575E+03</pdfrwt>
<pdfrwt beam="2">  1       21 0.77091008E-01 0.26798575E+03</pdfrwt>
<totfact> 0.18317633E+04</totfact>
</mgrwt>
</event>
<event>
 4    1  0.3974123E+000  0.2686499E+03  0.7546771E-02  0.1102055E+00
         21   -1    0    0  501  502  0.00000000000E+00  0.00000000000E+00  0.19479610555E+04  0.19479610555E+04  0.00000000000E+00 0.  1.
         21   -1    0    0  502  503 -0.00000000000E+00 -0.00000000000E+00 -0.43619895075E+02  0.43619895075E+02  0.00000000000E+00 0.  1.
          6    1    1    2  501    0 -0.16317565370E+03  0.12496978869E+03  0.13386190194E+04  0.13653108149E+04  0.17300000000E+03 0.  1.
         -6    1    1    2    0  503  0.16317565370E+03 -0.12496978869E+03  0.56572214097E+03  0.62627013567E+03  0.17300000000E+03 0.  1.
<mgrwt>
<rscale>  2 0.26864985E+03</rscale>
<asrwt>0</asrwt>
<pdfrwt beam="1">  1       21 0.29968625E+00 0.26864985E+03</pdfrwt>
<pdfrwt beam="2">  1       21 0.67107546E-02 0.26864985E+03</pdfrwt>
<totfact> 0.51772480E+03</totfact>
</mgrwt>
</event>
<event>
 4    1  0.3974123E+000  0.1759979E+03  0.7546771E-02  0.1171734E+00
         21   -1    0    0  503  502  0.00000000000E+00  0.00000000000E+00  0.15086952279E+03  0.15086952279E+03  0.00000000000E+00 0. -1.
         21   -1    0    0  501  503 -0.00000000000E+00 -0.00000000000E+00 -0.50598417614E+03  0.50598417614E+03  0.00000000000E+00 0. -1.
          6    1    1    2  501    0 -0.26061510796E+02 -0.19158349758E+02 -0.43073020787E+03  0.46529964182E+03  0.17300000000E+03 0. -1.
         -6    1    1    2    0  502  0.26061510796E+02  0.19158349758E+02  0.75615554512E+02  0.19155405711E+03  0.17300000000E+03 0. -1.
<mgrwt>
<rscale>  2 0.17599785E+03</rscale>
<asrwt>0</asrwt>
<pdfrwt beam="1">  1       21 0.23210695E-01 0.17599785E+03</pdfrwt>
<pdfrwt beam="2">  1       21 0.77843721E-01 0.17599785E+03</pdfrwt>
<totfact> 0.25762455E+04</totfact>
</mgrwt>
</event>
<event>
 4    1  0.3974123E+000  0.2039134E+03  0.7546771E-02  0.1146479E+00
         21   -1    0    0  501  502  0.00000000000E+00  0.00000000000E+00  0.19425863143E+03  0.19425863143E+03  0.00000000000E+00 0. -1.
         21   -1    0    0  502  503 -0.00000000000E+00 -0.00000000000E+00 -0.37828591662E+03  0.37828591662E+03  0.00000000000E+00 0.  1.
          6    1    1    2  501    0  0.10568742720E+03  0.21951084104E+02  0.96614219014E+02  0.22564350130E+03  0.17300000000E+03 0. -1.
         -6    1    1    2    0  503 -0.10568742720E+03 -0.21951084104E+02 -0.28064150420E+03  0.34690104676E+03  0.17300000000E+03 0.  1.
<mgrwt>
<rscale>  2 0.20391342E+03</rscale>
<asrwt>0</asrwt>
<pdfrwt beam="1">  1       21 0.29885944E-01 0.20391342E+03</pdfrwt>
<pdfrwt beam="2">  1       21 0.58197833E-01 0.20391342E+03</pdfrwt>
<totfact> 0.29511092E+04</totfact>
</mgrwt>
</event>
<event>
 4    1  0.3974123E+000  0.2534174E+03  0.7546771E-02  0.1111164E+00
         21   -1    0    0  503  502  0.00000000000E+00  0.00000000000E+00  0.32702154605E+03  0.32702154605E+03  0.00000000000E+00 0.  1.
         21   -1    0    0  501  503 -0.00000000000E+00 -0.00000000000E+00 -0.19752451554E+03  0.19752451554E+03  0.00000000000E+00 0.  1.
          6    1    1    2  501    0 -0.16234407928E+03 -0.89083003928E+02  0.84715731697E+02  0.26720242675E+03  0.17300000000E+03 0.  1.
         -6    1    1    2    0  502  0.16234407928E+03  0.89083003928E+02  0.44781298810E+02  0.25734363483E+03  0.17300000000E+03 0.  1.
<mgrwt>
<rscale>  2 0.25341741E+03</rscale>
<asrwt>0</asrwt>
<pdfrwt beam="1">  1       21 0.50311007E-01 0.25341741E+03</pdfrwt>
<pdfrwt beam="2">  1       21 0.30388387E-01 0.25341741E+03</pdfrwt>
<totfact> 0.37986006E+04</totfact>
</mgrwt>
</event>
<event>
 4    1  0.3974123E+000  0.1960717E+03  0.7546771E-02  0.1153096E+00
         21   -1    0    0  503  502  0.00000000000E+00  0.00000000000E+00  0.49375358486E+02  0.49375358486E+02  0.00000000000E+00 0.  1.
         21   -1    0    0  501  503 -0.00000000000E+00 -0.00000000000E+00 -0.78790203749E+03  0.78790203749E+03  0.00000000000E+00 0. -1.
          6    1    1    2  501    0 -0.87691171233E+02 -0.28729363206E+02 -0.41472789580E+03  0.45874104392E+03  0.17300000000E+03 0.  1.
         -6    1    1    2    0  502  0.87691171233E+02  0.28729363206E+02 -0.32379878320E+03  0.37853635205E+03  0.17300000000E+03 0.  1.
<mgrwt>
<rscale>  2 0.19607172E+03</rscale>
<asrwt>0</asrwt>
<pdfrwt beam="1">  1       21 0.75962081E-02 0.19607172E+03</pdfrwt>
<pdfrwt beam="2">  1       21 0.12121571E+00 0.19607172E+03</pdfrwt>
<totfact> 0.67514595E+04</totfact>
</mgrwt>
</event>
<event>
 4    1  0.3974123E+000  0.1757297E+03  0.7546771E-02  0.1172001E+00
         21   -1    0    0  503  502  0.00000000000E+00  0.00000000000E+00  0.38722564795E+03  0.38722564795E+03  0.00000000000E+00 0. -1.
         21   -1    0    0  501  503 -0.00000000000E+00 -0.00000000000E+00 -0.10501768999E+03  0.10501768999E+03  0.00000000000E+00 0. -1.
          6    1    1    2  501    0 -0.24579016808E+01 -0.30755011760E+02  0.20375761107E+02  0.17690699158E+03  0.17300000000E+03 0. -1.
         -6    1    1    2    0  502  0.24579016808E+01  0.30755011760E+02  0.26183219685E+03  0.31533634636E+03  0.17300000000E+03 0. -1.
<mgrwt>
<rscale>  2 0.17572966E+03</rscale>
<asrwt>0</asrwt>
<pdfrwt beam="1">  1       21 0.59573176E-01 0.17572966E+03</pdfrwt>
<pdfrwt beam="2">  1       21 0.16156568E-01 0.17572966E+03</pdfrwt>
<totfact> 0.90733859E+04</totfact>
</mgrwt>
</event>
<event>
 4    1  0.3974123E+000  0.2224625E+03  0.7546771E-02  0.1132060E+00
         21   -1    0    0  501  502  0.00000000000E+00  0.00000000000E+00  0.49647291372E+03  0.49647291372E+03  0.00000000000E+00 0. -1.
         21   -1    0    0  502  503 -0.00000000000E+00 -0.00000000000E+00 -0.11423954796E+03  0.11423954796E+03  0.00000000000E+00 0.  1.
          6    1    1    2  501    0 -0.13107640640E+03 -0.48780548595E+02  0.30011958444E+03  0.37357908293E+03  0.17300000000E+03 0. -1.
         -6    1    1    2    0  503  0.13107640640E+03  0.48780548595E+02  0.82113781321E+02  0.23713337876E+03  0.17300000000E+03 0.  1.
<mgrwt>
<rscale>  2 0.22246251E+03</rscale>
<asrwt>0</asrwt>
<pdfrwt beam="1">  1       21 0.76380447E-01 0.22246251E+03</pdfrwt>
<pdfrwt beam="2">  1       21 0.17575315E-01 0.22246251E+03</pdfrwt>
<totfact> 0.44129830E+04</totfact>
</mgrwt>
</event>
<event>
 4    1  0.3974123E+000  0.3773003E+03  0.7546771E-02  0.1051936E+00
         21   -1    0    0  501  502  0.00000000000E+00  0.00000000000E+00  0.33128394939E+03  0.33128394939E+03  0.00000000000E+00 0.  1.
         21   -1    0    0  502  503 -0.00000000000E+00 -0.00000000000E+00 -0.61632541905E+03  0.61632541905E+03  0.00000000000E+00 0. -1.
          6    1    1    2  501    0 -0.78755879447E+02  0.32592025833E+03  0.11819659992E+03  0.39538075265E+03  0.17300000000E+03 0. -1.
         -6    1    1    2    0  503  0.78755879447E+02 -0.32592025833E+03 -0.40323806957E+03  0.55222861578E+03  0.17300000000E+03 0.  1.
<mgrwt>
<rscale>  2 0.37730028E+03</rscale>
<asrwt>0</asrwt>
<pdfrwt beam="1">  1       21 0.50966762E-01 0.37730028E+03</pdfrwt>
<pdfrwt beam="2">  1       21 0.94819294E-01 0.37730028E+03</pdfrwt>
<totfact> 0.30481980E+03</totfact>
</mgrwt>
</event>
<event>
 4    1  0.3974123E+000  0.1933357E+03  0.7546771E-02  0.1155487E+00
         21   -1    0    0  501  502  0.00000000000E+00  0.00000000000E+00  0.18164384791E+03  0.18164384791E+03  0.00000000000E+00 0. -1.
         21   -1    0    0  502  503 -0.00000000000E+00 -0.00000000000E+00 -0.22629414735E+03  0.22629414735E+03  0.00000000000E+00 0.  1.
          6    1    1    2  501    0 -0.77909693529E+02 -0.37145356867E+02  0.39086769600E+02  0.19724723937E+03  0.17300000000E+03 0. -1.
         -6    1    1    2    0  503  0.77909693529E+02  0.37145356867E+02 -0.83737069037E+02  0.21069075588E+03  0.17300000000E+03 0.  1.
<mgrwt>
<rscale>  2 0.19333571E+03</rscale>
<asrwt>0</asrwt>
<pdfrwt beam="1">  1       21 0.27945208E-01 0.19333571E+03</pdfrwt>
<pdfrwt beam="2">  1       21 0.34814484E-01 0.19333571E+03</pdfrwt>
<totfact> 0.97241634E+04</totfact>
</mgrwt>
</event>
<event>
 4    1  0.3974123E+000  0.1806280E+03  0.7546771E-02  0.1167197E+00
         21   -1    0    0  503  502  0.00000000000E+00  0.00000000000E+00  0.30219951519E+04  0.30219951519E+04  0.00000000000E+00 0. -1.
         21   -1    0    0  501  503 -0.00000000000E+00 -0.00000000000E+00 -0.18028204254E+02  0.18028204254E+02  0.00000000000E+00 0. -1.
          6    1    1    2  501    0 -0.51752779519E+02 -0.43723743041E+01  0.53927229641E+03  0.56871880355E+03  0.17300000000E+03 0. -1.
         -6    1    1    2    0  502  0.51752779519E+02  0.43723743041E+01  0.24646946512E+04  0.24713045526E+04  0.17300000000E+03 0. -1.
<mgrwt>
<rscale>  2 0.18062798E+03</rscale>
<asrwt>0</asrwt>
<pdfrwt beam="1">  1       21 0.46492193E+00 0.18062798E+03</pdfrwt>
<pdfrwt beam="2">  1       21 0.27735723E-02 0.18062798E+03</pdfrwt>
<totfact> 0.24271498E+03</totfact>
</mgrwt>
</event>
<event>
 4    1  0.3974123E+000  0.2082275E+03  0.7546771E-02  0.1142977E+00
         21   -1    0    0  503  502  0.00000000000E+00  0.00000000000E+00  0.16784120979E+03  0.16784120979E+03  0.00000000000E+00 0.  1.
         21   -1    0    0  501  503 -0.00000000000E+00 -0.00000000000E+00 -0.26269674181E+03  0.26269674181E+03  0.00000000000E+00 0.  1.
          6    1    1    2  501    0 -0.11264692534E+03  0.27209771215E+02 -0.75176896364E+02  0.22138262621E+03  0.17300000000E+03 0.  1.
         -6    1    1    2    0  502  0.11264692534E+03 -0.27209771215E+02 -0.19678635661E+02  0.20915532539E+03  0.17300000000E+03 0.  1.
<mgrwt>
<rscale>  2 0.20822752E+03</rscale>
<asrwt>0</asrwt>
<pdfrwt beam="1">  1       21 0.25821724E-01 0.20822752E+03</pdfrwt>
<pdfrwt beam="2">  1       21 0.40414884E-01 0.20822752E+03</pdfrwt>
<totfact> 0.83443317E+04</totfact>
</mgrwt>
</event>
<event>
 4    1  0.3974123E+000  0.1760128E+03  0.7546771E-02  0.1171719E+00
         21   -1    0    0  503  502  0.00000000000E+00  0.00000000000E+00  0.27696582906E+03  0.27696582906E+03  0.00000000000E+00 0.  1.
         21   -1    0    0  501  503 -0.00000000000E+00 -0.00000000000E+00 -0.15011064886E+03  0.15011064886E+03  0.00000000000E+00 0.  1.
          6    1    1    2  501    0 -0.28299450680E+02  0.15831854230E+02 -0.44369633033E+02  0.18151906471E+03  0.17300000000E+03 0.  1.
         -6    1    1    2    0  502  0.28299450680E+02 -0.15831854230E+02  0.17122481324E+03  0.24555741322E+03  0.17300000000E+03 0.  1.
<mgrwt>
<rscale>  2 0.17601280E+03</rscale>
<asrwt>0</asrwt>
<pdfrwt beam="1">  1       21 0.42610128E-01 0.17601280E+03</pdfrwt>
<pdfrwt beam="2">  1       21 0.23093946E-01 0.17601280E+03</pdfrwt>
<totfact> 0.93919015E+04</totfact>
</mgrwt>
</event>
<event>
 4    1  0.3974123E+000  0.1796023E+03  0.7546771E-02  0.1168188E+00
         21   -1    0    0  503  502  0.00000000000E+00  0.00000000000E+00  0.17103119513E+04  0.17103119513E+04  0.00000000000E+00 0. -1.
         21   -1    0    0  501  503 -0.00000000000E+00 -0.00000000000E+00 -0.19620500117E+02  0.19620500117E+02  0.00000000000E+00 0. -1.
          6    1    1    2  501    0  0.20795481990E+02 -0.43537844558E+02  0.67508747549E+03  0.69857003625E+03  0.17300000000E+03 0. -1.
         -6    1    1    2    0  502 -0.20795481990E+02  0.43537844558E+02  0.10156039757E+04  0.10313624152E+04  0.17300000000E+03 0. -1.
<mgrwt>
<rscale>  2 0.17960233E+03</rscale>
<asrwt>0</asrwt>
<pdfrwt beam="1">  1       21 0.26312480E+00 0.17960233E+03</pdfrwt>
<pdfrwt beam="2">  1       21 0.30185398E-02 0.17960233E+03</pdfrwt>
<totfact> 0.35297608E+04</totfact>
</mgrwt>
</event>
<event>
 4    1  0.3974123E+000  0.2618428E+03  0.7546771E-02  0.1106041E+00
         21   -1    0    0  501  502  0.00000000000E+00  0.00000000000E+00  0.39911553888E+03  0.39911553888E+03  0.00000000000E+00 0.  1.
         21   -1    0    0  502  503 -0.00000000000E+00 -0.00000000000E+00 -0.33051218105E+03  0.33051218105E+03  0.00000000000E+00 0. -1.
          6    1    1    2  501    0 -0.19458429028E+03  0.27742138378E+02  0.28711769599E+03  0.38858492459E+03  0.17300000000E+03 0. -1.
         -6    1    1    2    0  503  0.19458429028E+03 -0.27742138378E+02 -0.21851433817E+03  0.34104279534E+03  0.17300000000E+03 0.  1.
<mgrwt>
<rscale>  2 0.26184284E+03</rscale>
<asrwt>0</asrwt>
<pdfrwt beam="1">  1       21 0.61402391E-01 0.26184284E+03</pdfrwt>
<pdfrwt beam="2">  1       21 0.50848028E-01 0.26184284E+03</pdfrwt>
<totfact> 0.86882214E+03</totfact>
</mgrwt>
</event>
<event>
 4    1  0.3974123E+000  0.1922946E+03  0.7546771E-02  0.1156408E+00
         21   -1    0    0  503  502  0.00000000000E+00  0.00000000000E+00  0.43603265457E+03  0.43603265457E+03  0.00000000000E+00 0. -1.
         21   -1    0    0  501  503 -0.00000000000E+00 -0.00000000000E+00 -0.85058887052E+02  0.85058887052E+02  0.00000000000E+00 0. -1.
          6    1    1    2  501    0 -0.15938026198E+02 -0.82426984647E+02  0.16121886691E+03  0.25093575179E+03  0.17300000000E+03 0. -1.
         -6    1    1    2    0  502  0.15938026198E+02  0.82426984647E+02  0.18975490061E+03  0.27015578984E+03  0.17300000000E+03 0. -1.
<mgrwt>
<rscale>  2 0.19229464E+03</rscale>
<asrwt>0</asrwt>
<pdfrwt beam="1">  1       21 0.67081945E-01 0.19229464E+03</pdfrwt>
<pdfrwt beam="2">  1       21 0.13085983E-01 0.19229464E+03</pdfrwt>
<totfact> 0.10221841E+05</totfact>
</mgrwt>
</event>
<event>
 4    1  0.3974123E+000  0.3346140E+03  0.7546771E-02  0.1069113E+00
         21   -1    0    0  501  502  0.00000000000E+00  0.00000000000E+00  0.55057358918E+03  0.55057358918E+03  0.00000000000E+00 0. -1.
         21   -1    0    0  502  503 -0.00000000000E+00 -0.00000000000E+00 -0.20952602739E+03  0.20952602739E+03  0.00000000000E+00 0. -1.
          6    1    1    2  501    0 -0.27252648708E+02 -0.28512241402E+03  0.23570248364E+03  0.40929470878E+03  0.17300000000E+03 0. -1.
         -6    1    1    2    0  503  0.27252648708E+02  0.28512241402E+03  0.10534507816E+03  0.35080490779E+03  0.17300000000E+03 0. -1.
<mgrwt>
<rscale>  2 0.33461395E+03</rscale>
<asrwt>0</asrwt>
<pdfrwt beam="1">  1       21 0.84703628E-01 0.33461395E+03</pdfrwt>
<pdfrwt beam="2">  1       21 0.32234774E-01 0.33461395E+03</pdfrwt>
<totfact> 0.10371356E+04</totfact>
</mgrwt>
</event>
<event>
 4    1  0.3974123E+000  0.2101695E+03  0.7546771E-02  0.1141432E+00
         21   -1    0    0  501  502  0.00000000000E+00  0.00000000000E+00  0.13621514624E+03  0.13621514624E+03  0.00000000000E+00 0.  1.
         21   -1    0    0  502  503 -0.00000000000E+00 -0.00000000000E+00 -0.33226575702E+03  0.33226575702E+03  0.00000000000E+00 0.  1.
          6    1    1    2  501    0  0.50432083605E+02 -0.10816116877E+03 -0.13434981100E+03  0.24944158675E+03  0.17300000000E+03 0.  1.
         -6    1    1    2    0  503 -0.50432083605E+02  0.10816116877E+03 -0.61700799780E+02  0.21903931651E+03  0.17300000000E+03 0.  1.
<mgrwt>
<rscale>  2 0.21016954E+03</rscale>
<asrwt>0</asrwt>
<pdfrwt beam="1">  1       21 0.20956176E-01 0.21016954E+03</pdfrwt>
<pdfrwt beam="2">  1       21 0.51117809E-01 0.21016954E+03</pdfrwt>
<totfact> 0.76373571E+04</totfact>
</mgrwt>
</event>
<event>
 4    1  0.3974123E+000  0.2024649E+03  0.7546771E-02  0.1147676E+00
         21   -1    0    0  503  502  0.00000000000E+00  0.00000000000E+00  0.12630758165E+04  0.12630758165E+04  0.00000000000E+00 0. -1.
         21   -1    0    0  501  503 -0.00000000000E+00 -0.00000000000E+00 -0.38918982191E+02  0.38918982191E+02  0.00000000000E+00 0. -1.
          6    1    1    2  501    0  0.86903946846E+02 -0.59251630159E+02  0.34675403951E+03  0.40153507390E+03  0.17300000000E+03 0. -1.
         -6    1    1    2    0  502 -0.86903946846E+02  0.59251630159E+02  0.87740279481E+03  0.90045972480E+03  0.17300000000E+03 0. -1.
<mgrwt>
<rscale>  2 0.20246494E+03</rscale>
<asrwt>0</asrwt>
<pdfrwt beam="1">  1       21 0.19431933E+00 0.20246494E+03</pdfrwt>
<pdfrwt beam="2">  1       21 0.59875367E-02 0.20246494E+03</pdfrwt>
<totfact> 0.28716233E+04</totfact>
</mgrwt>
</event>
<event>
 4    1  0.3974123E+000  0.1875986E+03  0.7546771E-02  0.1160645E+00
         21   -1    0    0  503  502  0.00000000000E+00  0.00000000000E+00  0.65657523086E+03  0.65657523086E+03  0.00000000000E+00 0.  1.
         21   -1    0    0  501  503 -0.00000000000E+00 -0.00000000000E+00 -0.64187621115E+02  0.64187621115E+02  0.00000000000E+00 0.  1.
          6    1    1    2  501    0  0.54792919715E+02  0.47560009943E+02  0.14983751414E+03  0.24009268885E+03  0.17300000000E+03 0.  1.
         -6    1    1    2    0  502 -0.54792919715E+02 -0.47560009943E+02  0.44255009561E+03  0.48067016313E+03  0.17300000000E+03 0.  1.
<mgrwt>
<rscale>  2 0.18759856E+03</rscale>
<asrwt>0</asrwt>
<pdfrwt beam="1">  1       21 0.10101157E+00 0.18759856E+03</pdfrwt>
<pdfrwt beam="2">  1       21 0.98750191E-02 0.18759856E+03</pdfrwt>
<totfact> 0.66656449E+04</totfact>
</mgrwt>
</event>
<event>
 4    1  0.3974123E+000  0.2431262E+03  0.7546771E-02  0.1117728E+00
         21   -1    0    0  503  502  0.00000000000E+00  0.00000000000E+00  0.48902584556E+03  0.48902584556E+03  0.00000000000E+00 0. -1.
         21   -1    0    0  501  503 -0.00000000000E+00 -0.00000000000E+00 -0.14033867289E+03  0.14033867289E+03  0.00000000000E+00 0. -1.
          6    1    1    2  501    0 -0.34354224760E+02  0.16733540445E+03  0.57148129794E+02  0.24975239554E+03  0.17300000000E+03 0. -1.
         -6    1    1    2    0  502  0.34354224760E+02 -0.16733540445E+03  0.29153904288E+03  0.37961212291E+03  0.17300000000E+03 0. -1.
<mgrwt>
<rscale>  2 0.24312620E+03</rscale>
<asrwt>0</asrwt>
<pdfrwt beam="1">  1       21 0.75234745E-01 0.24312620E+03</pdfrwt>
<pdfrwt beam="2">  1       21 0.21590565E-01 0.24312620E+03</pdfrwt>
<totfact> 0.30768769E+04</totfact>
</mgrwt>
</event>
<event>
 4    1  0.3974123E+000  0.1771438E+03  0.7546771E-02  0.1170596E+00
         21   -1    0    0  501  502  0.00000000000E+00  0.00000000000E+00  0.16072187410E+03  0.16072187410E+03  0.00000000000E+00 0.  1.
         21   -1    0    0  502  503 -0.00000000000E+00 -0.00000000000E+00 -0.39315155434E+03  0.39315155434E+03  0.00000000000E+00 0. -1.
          6    1    1    2  501    0 -0.20924512967E+01  0.38033532256E+02  0.80271375872E+02  0.19448244577E+03  0.17300000000E+03 0.  1.
         -6    1    1    2    0  503  0.20924512967E+01 -0.38033532256E+02 -0.31270105611E+03  0.35939098267E+03  0.17300000000E+03 0. -1.
<mgrwt>
<rscale>  2 0.17714381E+03</rscale>
<asrwt>0</asrwt>
<pdfrwt beam="1">  1       21 0.24726442E-01 0.17714381E+03</pdfrwt>
<pdfrwt beam="2">  1       21 0.60484854E-01 0.17714381E+03</pdfrwt>
<totfact> 0.39705526E+04</totfact>
</mgrwt>
</event>
<event>
 4    1  0.3974123E+000  0.2509655E+03  0.7546771E-02  0.1112696E+00
         21   -1    0    0  501  502  0.00000000000E+00  0.00000000000E+00  0.78826656509E+02  0.78826656509E+02  0.00000000000E+00 0. -1.
         21   -1    0    0  502  503 -0.00000000000E+00 -0.00000000000E+00 -0.16885726858E+04  0.16885726858E+04  0.00000000000E+00 0.  1.
          6    1    1    2  501    0 -0.84478140442E+02 -0.16099106403E+03 -0.16346869869E+03  0.29950908894E+03  0.17300000000E+03 0. -1.
         -6    1    1    2    0  503  0.84478140442E+02  0.16099106403E+03 -0.14462773306E+04  0.14678902534E+04  0.17300000000E+03 0.  1.
<mgrwt>
<rscale>  2 0.25096549E+03</rscale>
<asrwt>0</asrwt>
<pdfrwt beam="1">  1       21 0.12127178E-01 0.25096549E+03</pdfrwt>
<pdfrwt beam="2">  1       21 0.25978041E+00 0.25096549E+03</pdfrwt>
<totfact> 0.31686006E+03</totfact>
</mgrwt>
</event>
<event>
 4    1  0.3974123E+000  0.2234783E+03  0.7546771E-02  0.1131316E+00
         21   -1    0    0  501  502  0.00000000000E+00  0.00000000000E+00  0.41608063729E+03  0.41608063729E+03  0.00000000000E+00 0. -1.
         21   -1    0    0  502  503 -0.00000000000E+00 -0.00000000000E+00 -0.18520198964E+03  0.18520198964E+03  0.00000000000E+00 0. -1.
          6    1    1    2  501    0  0.11402323508E+03  0.83739147455E+02  0.29378116688E+03  0.36912046403E+03  0.17300000000E+03 0. -1.
         -6    1    1    2    0  503 -0.11402323508E+03 -0.83739147455E+02 -0.62902519231E+02  0.23216216289E+03  0.17300000000E+03 0. -1.
<mgrwt>
<rscale>  2 0.22347828E+03</rscale>
<asrwt>0</asrwt>
<pdfrwt beam="1">  1       21 0.64012405E-01 0.22347828E+03</pdfrwt>
<pdfrwt beam="2">  1       21 0.28492614E-01 0.22347828E+03</pdfrwt>
<totfact> 0.26095260E+04</totfact>
</mgrwt>
</event>
<event>
 4    1  0.3974123E+000  0.2904319E+03  0.7546771E-02  0.1090124E+00
         21   -1    0    0  501  502  0.00000000000E+00  0.00000000000E+00  0.93065047268E+02  0.93065047268E+02  0.00000000000E+00 0. -1.
         21   -1    0    0  502  503 -0.00000000000E+00 -0.00000000000E+00 -0.10511628160E+04  0.10511628160E+04  0.00000000000E+00 0.  1.
          6    1    1    2  501    0  0.22833074340E+03 -0.47819881563E+02 -0.26670865869E+03  0.39431482102E+03  0.17300000000E+03 0. -1.
         -6    1    1    2    0  503 -0.22833074340E+03  0.47819881563E+02 -0.69138911007E+03  0.74991304228E+03  0.17300000000E+03 0.  1.
<mgrwt>
<rscale>  2 0.29043187E+03</rscale>
<asrwt>0</asrwt>
<pdfrwt beam="1">  1       21 0.14317699E-01 0.29043187E+03</pdfrwt>
<pdfrwt beam="2">  1       21 0.16171736E+00 0.29043187E+03</pdfrwt>
<totfact> 0.98020013E+03</totfact>
</mgrwt>
</event>
<event>
 4    1  0.3974123E+000  0.1971294E+03  0.7546771E-02  0.1152184E+00
         21   -1    0    0  501  502  0.00000000000E+00  0.00000000000E+00  0.75066836175E+03  0.75066836175E+03  0.00000000000E+00 0. -1.
         21   -1    0    0  502  503 -0.00000000000E+00 -0.00000000000E+00 -0.79056884100E+02  0.79056884100E+02  0.00000000000E+00 0. -1.
          6    1    1    2  501    0 -0.75145762564E+02  0.57307122259E+02  0.57954966028E+03  0.61215831337E+03  0.17300000000E+03 0. -1.
         -6    1    1    2    0  503  0.75145762564E+02 -0.57307122259E+02  0.92061817370E+02  0.21756693248E+03  0.17300000000E+03 0. -1.
<mgrwt>
<rscale>  2 0.19712938E+03</rscale>
<asrwt>0</asrwt>
<pdfrwt beam="1">  1       21 0.11548744E+00 0.19712938E+03</pdfrwt>
<pdfrwt beam="2">  1       21 0.12162598E-01 0.19712938E+03</pdfrwt>
<totfact> 0.33154170E+04</totfact>
</mgrwt>
</event>
<event>
 4    1  0.3974123E+000  0.3051508E+03  0.7546771E-02  0.1082694E+00
         21   -1    0    0  501  502  0.00000000000E+00  0.00000000000E+00  0.26085943173E+03  0.26085943173E+03  0.00000000000E+00 0.  1.
         21   -1    0    0  502  503 -0.00000000000E+00 -0.00000000000E+00 -0.96239771098E+03  0.96239771098E+03  0.00000000000E+00 0. -1.
          6    1    1    2  501    0  0.17978290723E+03 -0.17568754214E+03  0.13434546668E+03  0.33341522253E+03  0.17300000000E+03 0.  1.
         -6    1    1    2    0  503 -0.17978290723E+03  0.17568754214E+03 -0.83588374593E+03  0.88984192018E+03  0.17300000000E+03 0. -1.
<mgrwt>
<rscale>  2 0.30515079E+03</rscale>
<asrwt>0</asrwt>
<pdfrwt beam="1">  1       21 0.40132221E-01 0.30515079E+03</pdfrwt>
<pdfrwt beam="2">  1       21 0.14806118E+00 0.30515079E+03</pdfrwt>
<totfact> 0.16956977E+03</totfact>
</mgrwt>
</event>
<event>
 4    1  0.3974123E+000  0.2018693E+03  0.7546771E-02  0.1148171E+00
         21   -1    0    0  503  502  0.00000000000E+00  0.00000000000E+00  0.88524754636E+02  0.88524754636E+02  0.00000000000E+00 0. -1.
         21   -1    0    0  501  503 -0.00000000000E+00 -0.00000000000E+00 -0.47865072816E+03  0.47865072816E+03  0.00000000000E+00 0. -1.
          6    1    1    2  501    0  0.86570716306E+02  0.57686556052E+02 -0.25053391620E+03  0.32174286447E+03  0.17300000000E+03 0. -1.
         -6    1    1    2    0  502 -0.86570716306E+02 -0.57686556052E+02 -0.13959205733E+03  0.24543261833E+03  0.17300000000E+03 0. -1.
<mgrwt>
<rscale>  2 0.20186933E+03</rscale>
<asrwt>0</asrwt>
<pdfrwt beam="1">  1       21 0.13619193E-01 0.20186933E+03</pdfrwt>
<pdfrwt beam="2">  1       21 0.73638574E-01 0.20186933E+03</pdfrwt>
<totfact> 0.77090504E+04</totfact>
</mgrwt>
</event>
<event>
 4    1  0.3974123E+000  0.1958808E+03  0.7546771E-02  0.1153262E+00
         21   -1    0    0  501  502  0.00000000000E+00  0.00000000000E+00  0.52098344783E+03  0.52098344783E+03  0.00000000000E+00 0.  1.
         21   -1    0    0  502  503 -0.00000000000E+00 -0.00000000000E+00 -0.95170427156E+02  0.95170427156E+02  0.00000000000E+00 0.  1.
          6    1    1    2  501    0  0.59830027804E+02 -0.69718531175E+02  0.35941251087E+03  0.40932463741E+03  0.17300000000E+03 0.  1.
         -6    1    1    2    0  503 -0.59830027804E+02  0.69718531175E+02  0.66400509804E+02  0.20682923758E+03  0.17300000000E+03 0.  1.
<mgrwt>
<rscale>  2 0.19588085E+03</rscale>
<asrwt>0</asrwt>
<pdfrwt beam="1">  1       21 0.80151298E-01 0.19588085E+03</pdfrwt>
<pdfrwt beam="2">  1       21 0.14641604E-01 0.19588085E+03</pdfrwt>
<totfact> 0.56052617E+04</totfact>
</mgrwt>
</event>
<event>
 4    1  0.3974123E+000  0.2903896E+03  0.7546771E-02  0.1090146E+00
         21   -1    0    0  501  502  0.00000000000E+00  0.00000000000E+00  0.96584275231E+02  0.96584275231E+02  0.00000000000E+00 0. -1.
         21   -1    0    0  502  503 -0.00000000000E+00 -0.00000000000E+00 -0.90525616653E+03  0.90525616653E+03  0.00000000000E+00 0. -1.
          6    1    1    2  501    0 -0.23322870251E+03  0.12272330499E+01 -0.49876955216E+03  0.57714573544E+03  0.17300000000E+03 0. -1.
         -6    1    1    2    0  503  0.23322870251E+03 -0.12272330499E+01 -0.30990233914E+03  0.42469470632E+03  0.17300000000E+03 0. -1.
<mgrwt>
<rscale>  2 0.29038962E+03</rscale>
<asrwt>0</asrwt>
<pdfrwt beam="1">  1       21 0.14859119E-01 0.29038962E+03</pdfrwt>
<pdfrwt beam="2">  1       21 0.13927018E+00 0.29038962E+03</pdfrwt>
<totfact> 0.13666287E+04</totfact>
</mgrwt>
</event>
<event>
 4    1  0.3974123E+000  0.2327161E+03  0.7546771E-02  0.1124743E+00
         21   -1    0    0  503  502  0.00000000000E+00  0.00000000000E+00  0.29891507660E+03  0.29891507660E+03  0.00000000000E+00 0.  1.
         21   -1    0    0  501  503 -0.00000000000E+00 -0.00000000000E+00 -0.18348140925E+03  0.18348140925E+03  0.00000000000E+00 0.  1.
          6    1    1    2  501    0 -0.14613745900E+03  0.53587574533E+02  0.30690966247E+02  0.23473116640E+03  0.17300000000E+03 0.  1.
         -6    1    1    2    0  502  0.14613745900E+03 -0.53587574533E+02  0.84742701105E+02  0.24766531945E+03  0.17300000000E+03 0.  1.
<mgrwt>
<rscale>  2 0.23271610E+03</rscale>
<asrwt>0</asrwt>
<pdfrwt beam="1">  1       21 0.45986935E-01 0.23271610E+03</pdfrwt>
<pdfrwt beam="2">  1       21 0.28227909E-01 0.23271610E+03</pdfrwt>
<totfact> 0.53375292E+04</totfact>
</mgrwt>
</event>
<event>
 4    1  0.3974123E+000  0.1967592E+03  0.7546771E-02  0.1152502E+00
         21   -1    0    0  501  502  0.00000000000E+00  0.00000000000E+00  0.11718184841E+03  0.11718184841E+03  0.00000000000E+00 0. -1.
         21   -1    0    0  502  503 -0.00000000000E+00 -0.00000000000E+00 -0.39627639313E+03  0.39627639313E+03  0.00000000000E+00 0. -1.
          6    1    1    2  501    0 -0.92848190977E+02  0.12821549691E+02 -0.34854430551E+02  0.19982244627E+03  0.17300000000E+03 0. -1.
         -6    1    1    2    0  503  0.92848190977E+02 -0.12821549691E+02 -0.24424011417E+03  0.31363579527E+03  0.17300000000E+03 0. -1.
<mgrwt>
<rscale>  2 0.19675919E+03</rscale>
<asrwt>0</asrwt>
<pdfrwt beam="1">  1       21 0.18027977E-01 0.19675919E+03</pdfrwt>
<pdfrwt beam="2">  1       21 0.60965599E-01 0.19675919E+03</pdfrwt>
<totfact> 0.69965153E+04</totfact>
</mgrwt>
</event>
<event>
 4    1  0.3974123E+000  0.2049602E+03  0.7546771E-02  0.1145620E+00
         21   -1    0    0  501  502  0.00000000000E+00  0.00000000000E+00  0.49939431451E+03  0.49939431451E+03  0.00000000000E+00 0.  1.
         21   -1    0    0  502  503 -0.00000000000E+00 -0.00000000000E+00 -0.85106557194E+02  0.85106557194E+02  0.00000000000E+00 0.  1.
          6    1    1    2  501    0 -0.90914332246E+02 -0.61759728336E+02  0.23862119903E+03  0.31456121261E+03  0.17300000000E+03 0. -1.
         -6    1    1    2    0  503  0.90914332246E+02  0.61759728336E+02  0.17566655829E+03  0.26993965909E+03  0.17300000000E+03 0. -1.
<mgrwt>
<rscale>  2 0.20496019E+03</rscale>
<asrwt>0</asrwt>
<pdfrwt beam="1">  1       21 0.76829893E-01 0.20496019E+03</pdfrwt>
<pdfrwt beam="2">  1       21 0.13093317E-01 0.20496019E+03</pdfrwt>
<totfact> 0.75176363E+04</totfact>
</mgrwt>
</event>
<event>
 4    1  0.3974123E+000  0.2149756E+03  0.7546771E-02  0.1137685E+00
         21   -1    0    0  501  502  0.00000000000E+00  0.00000000000E+00  0.40016002458E+02  0.40016002458E+02  0.00000000000E+00 0. -1.
         21   -1    0    0  502  503 -0.00000000000E+00 -0.00000000000E+00 -0.19635794640E+04  0.19635794640E+04  0.00000000000E+00 0. -1.
          6    1    1    2  501    0 -0.10703235673E+03 -0.69495290871E+02 -0.31888125744E+03  0.38457740077E+03  0.17300000000E+03 0. -1.
         -6    1    1    2    0  503  0.10703235673E+03  0.69495290871E+02 -0.16046822041E+04  0.16190180656E+04  0.17300000000E+03 0. -1.
<mgrwt>
<rscale>  2 0.21497563E+03</rscale>
<asrwt>0</asrwt>
<pdfrwt beam="1">  1       21 0.61563090E-02 0.21497563E+03</pdfrwt>
<pdfrwt beam="2">  1       21 0.30208910E+00 0.21497563E+03</pdfrwt>
<totfact> 0.61145543E+03</totfact>
</mgrwt>
</event>
<event>
 4    1  0.3974123E+000  0.1919670E+03  0.7546771E-02  0.1156699E+00
         21   -1    0    0  503  502  0.00000000000E+00  0.00000000000E+00  0.10589944332E+04  0.10589944332E+04  0.00000000000E+00 0. -1.
         21   -1    0    0  501  503 -0.00000000000E+00 -0.00000000000E+00 -0.34899756567E+02  0.34899756567E+02  0.00000000000E+00 0.  1.
          6    1    1    2  501    0  0.73288319246E+02  0.39384855857E+02  0.54151826917E+03  0.57453753616E+03  0.17300000000E+03 0. -1.
         -6    1    1    2    0  502 -0.73288319246E+02 -0.39384855857E+02  0.48257640747E+03  0.51935665362E+03  0.17300000000E+03 0. -1.
<mgrwt>
<rscale>  2 0.19196704E+03</rscale>
<asrwt>0</asrwt>
<pdfrwt beam="1">  1       21 0.16292220E+00 0.19196704E+03</pdfrwt>
<pdfrwt beam="2">  1       21 0.53691941E-02 0.19196704E+03</pdfrwt>
<totfact> 0.57145011E+04</totfact>
</mgrwt>
</event>
<event>
 4    1  0.3974123E+000  0.1924898E+03  0.7546771E-02  0.1156235E+00
         21   -1    0    0  503  502  0.00000000000E+00  0.00000000000E+00  0.13946221115E+03  0.13946221115E+03  0.00000000000E+00 0.  1.
         21   -1    0    0  501  503 -0.00000000000E+00 -0.00000000000E+00 -0.52823232450E+03  0.52823232450E+03  0.00000000000E+00 0.  1.
          6    1    1    2  501    0  0.15114551205E+01  0.84386150169E+02 -0.42975085411E+03  0.47089075532E+03  0.17300000000E+03 0.  1.
         -6    1    1    2    0  502 -0.15114551205E+01 -0.84386150169E+02  0.40980740758E+02  0.19680378032E+03  0.17300000000E+03 0.  1.
<mgrwt>
<rscale>  2 0.19248976E+03</rscale>
<asrwt>0</asrwt>
<pdfrwt beam="1">  1       21 0.21455725E-01 0.19248976E+03</pdfrwt>
<pdfrwt beam="2">  1       21 0.81266510E-01 0.19248976E+03</pdfrwt>
<totfact> 0.26862612E+04</totfact>
</mgrwt>
</event>
<event>
 4    1  0.3974123E+000  0.2116625E+03  0.7546771E-02  0.1140256E+00
         21   -1    0    0  503  502  0.00000000000E+00  0.00000000000E+00  0.52300411002E+03  0.52300411002E+03  0.00000000000E+00 0.  1.
         21   -1    0    0  501  503 -0.00000000000E+00 -0.00000000000E+00 -0.89055182882E+02  0.89055182882E+02  0.00000000000E+00 0.  1.
          6    1    1    2  501    0 -0.12118223761E+03  0.13670834812E+02  0.15722898802E+03  0.26367021279E+03  0.17300000000E+03 0. -1.
         -6    1    1    2    0  502  0.12118223761E+03 -0.13670834812E+02  0.27671993911E+03  0.34838908011E+03  0.17300000000E+03 0. -1.
<mgrwt>
<rscale>  2 0.21166253E+03</rscale>
<asrwt>0</asrwt>
<pdfrwt beam="1">  1       21 0.80462169E-01 0.21166253E+03</pdfrwt>
<pdfrwt beam="2">  1       21 0.13700798E-01 0.21166253E+03</pdfrwt>
<totfact> 0.62212443E+04</totfact>
</mgrwt>
</event>
<event>
 4    1  0.3974123E+000  0.4936233E+03  0.7546771E-02  0.1015457E+00
         21   -1    0    0  501  502  0.00000000000E+00  0.00000000000E+00  0.29583906097E+03  0.29583906097E+03  0.00000000000E+00 0. -1.
         21   -1    0    0  502  503 -0.00000000000E+00 -0.00000000000E+00 -0.13941323702E+04  0.13941323702E+04  0.00000000000E+00 0.  1.
          6    1    1    2  501    0  0.38785481766E+02  0.46068499103E+03 -0.86121123200E+01  0.49369843330E+03  0.17300000000E+03 0. -1.
         -6    1    1    2    0  503 -0.38785481766E+02 -0.46068499103E+03 -0.10896811969E+04  0.11962729979E+04  0.17300000000E+03 0. -1.
<mgrwt>
<rscale>  2 0.49362331E+03</rscale>
<asrwt>0</asrwt>
<pdfrwt beam="1">  1       21 0.45513700E-01 0.49362331E+03</pdfrwt>
<pdfrwt beam="2">  1       21 0.21448191E+00 0.49362331E+03</pdfrwt>
<totfact> 0.40267697E+02</totfact>
</mgrwt>
</event>
<event>
 4    1  0.3974123E+000  0.1759069E+03  0.7546771E-02  0.1171824E+00
         21   -1    0    0  503  502  0.00000000000E+00  0.00000000000E+00  0.32110411484E+03  0.32110411484E+03  0.00000000000E+00 0.  1.
         21   -1    0    0  501  503 -0.00000000000E+00 -0.00000000000E+00 -0.33226059889E+03  0.33226059889E+03  0.00000000000E+00 0.  1.
          6    1    1    2  501    0  0.31569191772E+02  0.41963431841E+01 -0.28084014343E+03  0.33138257246E+03  0.17300000000E+03 0.  1.
         -6    1    1    2    0  502 -0.31569191772E+02 -0.41963431841E+01  0.26968365938E+03  0.32198214128E+03  0.17300000000E+03 0.  1.
<mgrwt>
<rscale>  2 0.17590686E+03</rscale>
<asrwt>0</asrwt>
<pdfrwt beam="1">  1       21 0.49400633E-01 0.17590686E+03</pdfrwt>
<pdfrwt beam="2">  1       21 0.51117015E-01 0.17590686E+03</pdfrwt>
<totfact> 0.14372462E+04</totfact>
</mgrwt>
</event>
<event>
 4    1  0.3974123E+000  0.2665841E+03  0.7546771E-02  0.1103251E+00
         21   -1    0    0  501  502  0.00000000000E+00  0.00000000000E+00  0.21580275828E+03  0.21580275828E+03  0.00000000000E+00 0. -1.
         21   -1    0    0  502  503 -0.00000000000E+00 -0.00000000000E+00 -0.39229216752E+03  0.39229216752E+03  0.00000000000E+00 0.  1.
          6    1    1    2  501    0 -0.84958990170E+02  0.18417392160E+03  0.33578067433E+02  0.26869043530E+03  0.17300000000E+03 0. -1.
         -6    1    1    2    0  503  0.84958990170E+02 -0.18417392160E+03 -0.21006747667E+03  0.33940449049E+03  0.17300000000E+03 0.  1.
<mgrwt>
<rscale>  2 0.26658406E+03</rscale>
<asrwt>0</asrwt>
<pdfrwt beam="1">  1       21 0.33200425E-01 0.26658406E+03</pdfrwt>
<pdfrwt beam="2">  1       21 0.60352640E-01 0.26658406E+03</pdfrwt>
<totfact> 0.21509713E+04</totfact>
</mgrwt>
</event>
<event>
 4    1  0.3974123E+000  0.2108092E+03  0.7546771E-02  0.1140927E+00
         21   -1    0    0  501  502  0.00000000000E+00  0.00000000000E+00  0.97979578658E+02  0.97979578658E+02  0.00000000000E+00 0. -1.
         21   -1    0    0  502  503 -0.00000000000E+00 -0.00000000000E+00 -0.68639744310E+03  0.68639744310E+03  0.00000000000E+00 0. -1.
          6    1    1    2  501    0 -0.96702413331E+02 -0.71834267196E+02 -0.65793799527E+02  0.22083782000E+03  0.17300000000E+03 0. -1.
         -6    1    1    2    0  503  0.96702413331E+02  0.71834267196E+02 -0.52262406492E+03  0.56353920176E+03  0.17300000000E+03 0. -1.
<mgrwt>
<rscale>  2 0.21080920E+03</rscale>
<asrwt>0</asrwt>
<pdfrwt beam="1">  1       21 0.15073781E-01 0.21080920E+03</pdfrwt>
<pdfrwt beam="2">  1       21 0.10559961E+00 0.21080920E+03</pdfrwt>
<totfact> 0.27726304E+04</totfact>
</mgrwt>
</event>
<event>
 4    1  0.3974123E+000  0.2023337E+03  0.7546771E-02  0.1147785E+00
         21   -1    0    0  501  502  0.00000000000E+00  0.00000000000E+00  0.65203009816E+02  0.65203009816E+02  0.00000000000E+00 0. -1.
         21   -1    0    0  502  503 -0.00000000000E+00 -0.00000000000E+00 -0.18492887200E+04  0.18492887200E+04  0.00000000000E+00 0. -1.
          6    1    1    2  501    0  0.95801772208E+02 -0.42801477693E+02 -0.11408940842E+03  0.23228288608E+03  0.17300000000E+03 0. -1.
         -6    1    1    2    0  503 -0.95801772208E+02  0.42801477693E+02 -0.16699963017E+04  0.16822088437E+04  0.17300000000E+03 0. -1.
<mgrwt>
<rscale>  2 0.20233375E+03</rscale>
<asrwt>0</asrwt>
<pdfrwt beam="1">  1       21 0.10031232E-01 0.20233375E+03</pdfrwt>
<pdfrwt beam="2">  1       21 0.28450595E+00 0.20233375E+03</pdfrwt>
<totfact> 0.33454773E+03</totfact>
</mgrwt>
</event>
<event>
 4    1  0.3974123E+000  0.1900200E+03  0.7546771E-02  0.1158443E+00
         21   -1    0    0  503  502  0.00000000000E+00  0.00000000000E+00  0.29945713288E+03  0.29945713288E+03  0.00000000000E+00 0. -1.
         21   -1    0    0  501  503 -0.00000000000E+00 -0.00000000000E+00 -0.12987237653E+03  0.12987237653E+03  0.00000000000E+00 0.  1.
          6    1    1    2  501    0 -0.17650270563E+02  0.76596702065E+02  0.27362194667E+02  0.19197988570E+03  0.17300000000E+03 0.  1.
         -6    1    1    2    0  502  0.17650270563E+02 -0.76596702065E+02  0.14222256169E+03  0.23734962370E+03  0.17300000000E+03 0. -1.
<mgrwt>
<rscale>  2 0.19001996E+03</rscale>
<asrwt>0</asrwt>
<pdfrwt beam="1">  1       21 0.46070328E-01 0.19001996E+03</pdfrwt>
<pdfrwt beam="2">  1       21 0.19980366E-01 0.19001996E+03</pdfrwt>
<totfact> 0.10451561E+05</totfact>
</mgrwt>
</event>
<event>
 4    1  0.3974123E+000  0.3693482E+03  0.7546771E-02  0.1054942E+00
         21   -1    0    0  503  502  0.00000000000E+00  0.00000000000E+00  0.61197523583E+03  0.61197523583E+03  0.00000000000E+00 0. -1.
         21   -1    0    0  501  503 -0.00000000000E+00 -0.00000000000E+00 -0.27654076848E+03  0.27654076848E+03  0.00000000000E+00 0.  1.
          6    1    1    2  501    0 -0.31315983643E+03 -0.91760730326E+02 -0.27916941300E+02  0.37040176889E+03  0.17300000000E+03 0.  1.
         -6    1    1    2    0  502  0.31315983643E+03  0.91760730326E+02  0.36335140865E+03  0.51811423542E+03  0.17300000000E+03 0. -1.
<mgrwt>
<rscale>  2 0.36934823E+03</rscale>
<asrwt>0</asrwt>
<pdfrwt beam="1">  1       21 0.94150036E-01 0.36934823E+03</pdfrwt>
<pdfrwt beam="2">  1       21 0.42544734E-01 0.36934823E+03</pdfrwt>
<totfact> 0.45425427E+03</totfact>
</mgrwt>
</event>
<event>
 4    1  0.3974123E+000  0.2670659E+03  0.7546771E-02  0.1102971E+00
         21   -1    0    0  501  502  0.00000000000E+00  0.00000000000E+00  0.59442154146E+03  0.59442154146E+03  0.00000000000E+00 0.  1.
         21   -1    0    0  502  503 -0.00000000000E+00 -0.00000000000E+00 -0.14062729907E+03  0.14062729907E+03  0.00000000000E+00 0. -1.
          6    1    1    2  501    0  0.16559537165E+03 -0.11820907686E+03  0.36769152229E+03  0.45444611180E+03  0.17300000000E+03 0.  1.
         -6    1    1    2    0  503 -0.16559537165E+03  0.11820907686E+03  0.86102720100E+02  0.28060272873E+03  0.17300000000E+03 0. -1.
<mgrwt>
<rscale>  2 0.26706593E+03</rscale>
<asrwt>0</asrwt>
<pdfrwt beam="1">  1       21 0.91449467E-01 0.26706593E+03</pdfrwt>
<pdfrwt beam="2">  1       21 0.21634969E-01 0.26706593E+03</pdfrwt>
<totfact> 0.19370263E+04</totfact>
</mgrwt>
</event>
<event>
 4    1  0.3974123E+000  0.1742275E+03  0.7546771E-02  0.1173510E+00
         21   -1    0    0  503  502  0.00000000000E+00  0.00000000000E+00  0.14224320320E+03  0.14224320320E+03  0.00000000000E+00 0.  1.
         21   -1    0    0  501  503 -0.00000000000E+00 -0.00000000000E+00 -0.44698256085E+03  0.44698256085E+03  0.00000000000E+00 0.  1.
          6    1    1    2  501    0  0.10680498448E+02 -0.17667459042E+02 -0.36534206681E+03  0.40475923453E+03  0.17300000000E+03 0.  1.
         -6    1    1    2    0  502 -0.10680498448E+02  0.17667459042E+02  0.60602709153E+02  0.18446652952E+03  0.17300000000E+03 0.  1.
<mgrwt>
<rscale>  2 0.17422747E+03</rscale>
<asrwt>0</asrwt>
<pdfrwt beam="1">  1       21 0.21883570E-01 0.17422747E+03</pdfrwt>
<pdfrwt beam="2">  1       21 0.68766548E-01 0.17422747E+03</pdfrwt>
<totfact> 0.37930786E+04</totfact>
</mgrwt>
</event>
<event>
 4    1  0.3974123E+000  0.2169699E+03  0.7546771E-02  0.1136162E+00
         21   -1    0    0  503  502  0.00000000000E+00  0.00000000000E+00  0.69553492215E+03  0.69553492215E+03  0.00000000000E+00 0.  1.
         21   -1    0    0  501  503 -0.00000000000E+00 -0.00000000000E+00 -0.72020435982E+02  0.72020435982E+02  0.00000000000E+00 0.  1.
          6    1    1    2  501    0  0.73120826811E+02  0.10862910952E+03  0.21757590011E+03  0.30727058281E+03  0.17300000000E+03 0.  1.
         -6    1    1    2    0  502 -0.73120826811E+02 -0.10862910952E+03  0.40593858606E+03  0.46028477533E+03  0.17300000000E+03 0.  1.
<mgrwt>
<rscale>  2 0.21696990E+03</rscale>
<asrwt>0</asrwt>
<pdfrwt beam="1">  1       21 0.10700537E+00 0.21696990E+03</pdfrwt>
<pdfrwt beam="2">  1       21 0.11080068E-01 0.21696990E+03</pdfrwt>
<totfact> 0.46642816E+04</totfact>
</mgrwt>
</event>
<event>
 4    1  0.3974123E+000  0.2227176E+03  0.7546771E-02  0.1131873E+00
         21   -1    0    0  503  502  0.00000000000E+00  0.00000000000E+00  0.57115596558E+03  0.57115596558E+03  0.00000000000E+00 0. -1.
         21   -1    0    0  501  503 -0.00000000000E+00 -0.00000000000E+00 -0.11680881610E+03  0.11680881610E+03  0.00000000000E+00 0.  1.
          6    1    1    2  501    0  0.57528902885E+02 -0.12792404951E+03  0.52959580496E+02  0.22892761799E+03  0.17300000000E+03 0.  1.
         -6    1    1    2    0  502 -0.57528902885E+02  0.12792404951E+03  0.40138756899E+03  0.45903716369E+03  0.17300000000E+03 0. -1.
<mgrwt>
<rscale>  2 0.22271762E+03</rscale>
<asrwt>0</asrwt>
<pdfrwt beam="1">  1       21 0.87870147E-01 0.22271762E+03</pdfrwt>
<pdfrwt beam="2">  1       21 0.17970587E-01 0.22271762E+03</pdfrwt>
<totfact> 0.30761746E+04</totfact>
</mgrwt>
</event>
<event>
 4    1  0.3974123E+000  0.1908433E+03  0.7546771E-02  0.1157703E+00
         21   -1    0    0  501  502  0.00000000000E+00  0.00000000000E+00  0.33979526623E+03  0.33979526623E+03  0.00000000000E+00 0. -1.
         21   -1    0    0  502  503 -0.00000000000E+00 -0.00000000000E+00 -0.15096887566E+03  0.15096887566E+03  0.00000000000E+00 0.  1.
          6    1    1    2  501    0 -0.80544180122E+02  0.21927903296E+01  0.22655889685E+03  0.29622644551E+03  0.17300000000E+03 0. -1.
         -6    1    1    2    0  503  0.80544180122E+02 -0.21927903296E+01 -0.37732506274E+02  0.19453769637E+03  0.17300000000E+03 0.  1.
<mgrwt>
<rscale>  2 0.19084332E+03</rscale>
<asrwt>0</asrwt>
<pdfrwt beam="1">  1       21 0.52276194E-01 0.19084332E+03</pdfrwt>
<pdfrwt beam="2">  1       21 0.23225981E-01 0.19084332E+03</pdfrwt>
<totfact> 0.60535185E+04</totfact>
</mgrwt>
</event>
<event>
 4    1  0.3974123E+000  0.1748049E+03  0.7546771E-02  0.1172928E+00
         21   -1    0    0  501  502  0.00000000000E+00  0.00000000000E+00  0.51282742037E+03  0.51282742037E+03  0.00000000000E+00 0.  1.
         21   -1    0    0  502  503 -0.00000000000E+00 -0.00000000000E+00 -0.77848914002E+02  0.77848914002E+02  0.00000000000E+00 0.  1.
          6    1    1    2  501    0  0.23772845706E+02  0.79129740751E+01  0.36054047746E+03  0.40068216736E+03  0.17300000000E+03 0.  1.
         -6    1    1    2    0  503 -0.23772845706E+02 -0.79129740751E+01  0.74438028907E+02  0.18999416701E+03  0.17300000000E+03 0.  1.
<mgrwt>
<rscale>  2 0.17480493E+03</rscale>
<asrwt>0</asrwt>
<pdfrwt beam="1">  1       21 0.78896524E-01 0.17480493E+03</pdfrwt>
<pdfrwt beam="2">  1       21 0.11976756E-01 0.17480493E+03</pdfrwt>
<totfact> 0.84196881E+04</totfact>
</mgrwt>
</event>
<event>
 4    1  0.3974123E+000  0.1935248E+03  0.7546771E-02  0.1155320E+00
         21   -1    0    0  503  502  0.00000000000E+00  0.00000000000E+00  0.10924139459E+03  0.10924139459E+03  0.00000000000E+00 0. -1.
         21   -1    0    0  501  503 -0.00000000000E+00 -0.00000000000E+00 -0.90718891530E+03  0.90718891530E+03  0.00000000000E+00 0. -1.
          6    1    1    2  501    0  0.80561845922E+02 -0.32134721459E+02 -0.79981670245E+03  0.82289647518E+03  0.17300000000E+03 0. -1.
         -6    1    1    2    0  502 -0.80561845922E+02  0.32134721459E+02  0.18691817373E+01  0.19353383472E+03  0.17300000000E+03 0. -1.
<mgrwt>
<rscale>  2 0.19352481E+03</rscale>
<asrwt>0</asrwt>
<pdfrwt beam="1">  1       21 0.16806369E-01 0.19352481E+03</pdfrwt>
<pdfrwt beam="2">  1       21 0.13956752E+00 0.19352481E+03</pdfrwt>
<totfact> 0.11485647E+04</totfact>
</mgrwt>
</event>
<event>
 4    1  0.3974123E+000  0.1897681E+03  0.7546771E-02  0.1158671E+00
         21   -1    0    0  503  502  0.00000000000E+00  0.00000000000E+00  0.11359627348E+04  0.11359627348E+04  0.00000000000E+00 0.  1.
         21   -1    0    0  501  503 -0.00000000000E+00 -0.00000000000E+00 -0.39570496929E+02  0.39570496929E+02  0.00000000000E+00 0.  1.
          6    1    1    2  501    0  0.73362772657E+02 -0.26473440480E+02  0.28609215818E+03  0.34330840717E+03  0.17300000000E+03 0.  1.
         -6    1    1    2    0  502 -0.73362772657E+02  0.26473440480E+02  0.81030007971E+03  0.83222482457E+03  0.17300000000E+03 0.  1.
<mgrwt>
<rscale>  2 0.18976812E+03</rscale>
<asrwt>0</asrwt>
<pdfrwt beam="1">  1       21 0.17476347E+00 0.18976812E+03</pdfrwt>
<pdfrwt beam="2">  1       21 0.60877696E-02 0.18976812E+03</pdfrwt>
<totfact> 0.38088593E+04</totfact>
</mgrwt>
</event>
<event>
 4    1  0.3974123E+000  0.1865859E+03  0.7546771E-02  0.1161577E+00
         21   -1    0    0  503  502  0.00000000000E+00  0.00000000000E+00  0.28913489971E+03  0.28913489971E+03  0.00000000000E+00 0.  1.
         21   -1    0    0  501  503 -0.00000000000E+00 -0.00000000000E+00 -0.17329191220E+03  0.17329191220E+03  0.00000000000E+00 0.  1.
          6    1    1    2  501    0  0.24277234574E+02 -0.65543125175E+02 -0.69805826460E+02  0.19921631154E+03  0.17300000000E+03 0.  1.
         -6    1    1    2    0  502 -0.24277234574E+02  0.65543125175E+02  0.18564881397E+03  0.26321050037E+03  0.17300000000E+03 0.  1.
<mgrwt>
<rscale>  2 0.18658587E+03</rscale>
<asrwt>0</asrwt>
<pdfrwt beam="1">  1       21 0.44482292E-01 0.18658587E+03</pdfrwt>
<pdfrwt beam="2">  1       21 0.26660294E-01 0.18658587E+03</pdfrwt>
<totfact> 0.65152900E+04</totfact>
</mgrwt>
</event>
<event>
 4    1  0.3974123E+000  0.1746002E+03  0.7546771E-02  0.1173134E+00
         21   -1    0    0  503  502  0.00000000000E+00  0.00000000000E+00  0.36873036696E+02  0.36873036696E+02  0.00000000000E+00 0.  1.
         21   -1    0    0  501  503 -0.00000000000E+00 -0.00000000000E+00 -0.94290250205E+03  0.94290250205E+03  0.00000000000E+00 0.  1.
          6    1    1    2  501    0 -0.23519534837E+02 -0.17457049915E+01 -0.62494626632E+03  0.64887830276E+03  0.17300000000E+03 0.  1.
         -6    1    1    2    0  502  0.23519534837E+02  0.17457049915E+01 -0.28108319904E+03  0.33089723599E+03  0.17300000000E+03 0.  1.
<mgrwt>
<rscale>  2 0.17460016E+03</rscale>
<asrwt>0</asrwt>
<pdfrwt beam="1">  1       21 0.56727754E-02 0.17460016E+03</pdfrwt>
<pdfrwt beam="2">  1       21 0.14506191E+00 0.17460016E+03</pdfrwt>
<totfact> 0.71473735E+04</totfact>
</mgrwt>
</event>
<event>
 4    1  0.3974123E+000  0.2212893E+03  0.7546771E-02  0.1132925E+00
         21   -1    0    0  501  502  0.00000000000E+00  0.00000000000E+00  0.18378016466E+04  0.18378016466E+04  0.00000000000E+00 0.  1.
         21   -1    0    0  502  503 -0.00000000000E+00 -0.00000000000E+00 -0.26646086594E+02  0.26646086594E+02  0.00000000000E+00 0.  1.
          6    1    1    2  501    0 -0.12209335582E+03  0.64289754813E+02  0.90084589729E+03  0.92762723698E+03  0.17300000000E+03 0.  1.
         -6    1    1    2    0  503  0.12209335582E+03 -0.64289754813E+02  0.91030966276E+03  0.93682049627E+03  0.17300000000E+03 0.  1.
<mgrwt>
<rscale>  2 0.22128931E+03</rscale>
<asrwt>0</asrwt>
<pdfrwt beam="1">  1       21 0.28273861E+00 0.22128931E+03</pdfrwt>
<pdfrwt beam="2">  1       21 0.40993994E-02 0.22128931E+03</pdfrwt>
<totfact> 0.15711886E+04</totfact>
</mgrwt>
</event>
<event>
 4    1  0.3974123E+000  0.1903674E+03  0.7546771E-02  0.1158130E+00
         21   -1    0    0  503  502  0.00000000000E+00  0.00000000000E+00  0.80807332990E+02  0.80807332990E+02  0.00000000000E+00 0. -1.
         21   -1    0    0  501  503 -0.00000000000E+00 -0.00000000000E+00 -0.61052106405E+03  0.61052106405E+03  0.00000000000E+00 0. -1.
          6    1    1    2  501    0  0.70916817063E+02 -0.35798587720E+02 -0.44294249285E+03  0.48211802061E+03  0.17300000000E+03 0. -1.
         -6    1    1    2    0  502 -0.70916817063E+02  0.35798587720E+02 -0.86771238210E+02  0.20921037643E+03  0.17300000000E+03 0. -1.
<mgrwt>
<rscale>  2 0.19036737E+03</rscale>
<asrwt>0</asrwt>
<pdfrwt beam="1">  1       21 0.12431898E-01 0.19036737E+03</pdfrwt>
<pdfrwt beam="2">  1       21 0.93926316E-01 0.19036737E+03</pdfrwt>
<totfact> 0.52457233E+04</totfact>
</mgrwt>
</event>
<event>
 4    1  0.3974123E+000  0.1869098E+03  0.7546771E-02  0.1161278E+00
         21   -1    0    0  501  502  0.00000000000E+00  0.00000000000E+00  0.35243886578E+03  0.35243886578E+03  0.00000000000E+00 0. -1.
         21   -1    0    0  502  503 -0.00000000000E+00 -0.00000000000E+00 -0.20067194201E+03  0.20067194201E+03  0.00000000000E+00 0. -1.
          6    1    1    2  501    0 -0.70278168299E+02 -0.82013646301E+01  0.27261481420E+03  0.33053611034E+03  0.17300000000E+03 0. -1.
         -6    1    1    2    0  503  0.70278168299E+02  0.82013646301E+01 -0.12084789043E+03  0.22257469745E+03  0.17300000000E+03 0. -1.
<mgrwt>
<rscale>  2 0.18690983E+03</rscale>
<asrwt>0</asrwt>
<pdfrwt beam="1">  1       21 0.54221364E-01 0.18690983E+03</pdfrwt>
<pdfrwt beam="2">  1       21 0.30872606E-01 0.18690983E+03</pdfrwt>
<totfact> 0.32488841E+04</totfact>
</mgrwt>
</event>
<event>
 4    1  0.3974123E+000  0.1893180E+03  0.7546771E-02  0.1159078E+00
         21   -1    0    0  501  502  0.00000000000E+00  0.00000000000E+00  0.10839112232E+03  0.10839112232E+03  0.00000000000E+00 0.  1.
         21   -1    0    0  502  503 -0.00000000000E+00 -0.00000000000E+00 -0.33174844059E+03  0.33174844059E+03  0.00000000000E+00 0. -1.
          6    1    1    2  501    0 -0.76766344524E+02  0.43866915121E+01 -0.12424632395E+03  0.22644748559E+03  0.17300000000E+03 0.  1.
         -6    1    1    2    0  503  0.76766344524E+02 -0.43866915121E+01 -0.99110994325E+02  0.21369207732E+03  0.17300000000E+03 0.  1.
<mgrwt>
<rscale>  2 0.18931803E+03</rscale>
<asrwt>0</asrwt>
<pdfrwt beam="1">  1       21 0.16675558E-01 0.18931803E+03</pdfrwt>
<pdfrwt beam="2">  1       21 0.51038221E-01 0.18931803E+03</pdfrwt>
<totfact> 0.11812871E+05</totfact>
</mgrwt>
</event>
<event>
 4    1  0.3974123E+000  0.1735040E+03  0.7546771E-02  0.1174242E+00
         21   -1    0    0  503  502  0.00000000000E+00  0.00000000000E+00  0.33118585454E+03  0.33118585454E+03  0.00000000000E+00 0.  1.
         21   -1    0    0  501  503 -0.00000000000E+00 -0.00000000000E+00 -0.10166286271E+03  0.10166286271E+03  0.00000000000E+00 0.  1.
          6    1    1    2  501    0  0.13173920478E+02 -0.10340007524E+01  0.44331070973E+02  0.17907781882E+03  0.17300000000E+03 0.  1.
         -6    1    1    2    0  502 -0.13173920478E+02  0.10340007524E+01  0.18519192086E+03  0.25377089843E+03  0.17300000000E+03 0.  1.
<mgrwt>
<rscale>  2 0.17350395E+03</rscale>
<asrwt>0</asrwt>
<pdfrwt beam="1">  1       21 0.50951669E-01 0.17350395E+03</pdfrwt>
<pdfrwt beam="2">  1       21 0.15640441E-01 0.17350395E+03</pdfrwt>
<totfact> 0.13403747E+05</totfact>
</mgrwt>
</event>
<event>
 4    1  0.3974123E+000  0.2079879E+03  0.7546771E-02  0.1143169E+00
         21   -1    0    0  501  502  0.00000000000E+00  0.00000000000E+00  0.46833310921E+03  0.46833310921E+03  0.00000000000E+00 0.  1.
         21   -1    0    0  502  503 -0.00000000000E+00 -0.00000000000E+00 -0.40321564644E+03  0.40321564644E+03  0.00000000000E+00 0.  1.
          6    1    1    2  501    0 -0.11377298972E+03  0.19638259483E+02  0.41517801316E+03  0.46436164466E+03  0.17300000000E+03 0.  1.
         -6    1    1    2    0  503  0.11377298972E+03 -0.19638259483E+02 -0.35006055038E+03  0.40718711099E+03  0.17300000000E+03 0.  1.
<mgrwt>
<rscale>  2 0.20798787E+03</rscale>
<asrwt>0</asrwt>
<pdfrwt beam="1">  1       21 0.72051248E-01 0.20798787E+03</pdfrwt>
<pdfrwt beam="2">  1       21 0.62033176E-01 0.20798787E+03</pdfrwt>
<totfact> 0.41415890E+03</totfact>
</mgrwt>
</event>
<event>
 4    1  0.3974123E+000  0.1932117E+03  0.7546771E-02  0.1155596E+00
         21   -1    0    0  501  502  0.00000000000E+00  0.00000000000E+00  0.51385352402E+03  0.51385352402E+03  0.00000000000E+00 0. -1.
         21   -1    0    0  502  503 -0.00000000000E+00 -0.00000000000E+00 -0.76202555606E+02  0.76202555606E+02  0.00000000000E+00 0. -1.
          6    1    1    2  501    0  0.85910541265E+02  0.45965972104E+01  0.28253924707E+03  0.34228522600E+03  0.17300000000E+03 0. -1.
         -6    1    1    2    0  503 -0.85910541265E+02 -0.45965972104E+01  0.15511172135E+03  0.24777085362E+03  0.17300000000E+03 0. -1.
<mgrwt>
<rscale>  2 0.19321167E+03</rscale>
<asrwt>0</asrwt>
<pdfrwt beam="1">  1       21 0.79054386E-01 0.19321167E+03</pdfrwt>
<pdfrwt beam="2">  1       21 0.11723470E-01 0.19321167E+03</pdfrwt>
<totfact> 0.86417722E+04</totfact>
</mgrwt>
</event>
<event>
 4    1  0.3974123E+000  0.1737440E+03  0.7546771E-02  0.1173999E+00
         21   -1    0    0  503  502  0.00000000000E+00  0.00000000000E+00  0.16843768558E+04  0.16843768558E+04  0.00000000000E+00 0. -1.
         21   -1    0    0  501  503 -0.00000000000E+00 -0.00000000000E+00 -0.17925179607E+02  0.17925179607E+02  0.00000000000E+00 0. -1.
          6    1    1    2  501    0 -0.15910167322E+02  0.21986670674E+01  0.82143896975E+03  0.83961237996E+03  0.17300000000E+03 0.  1.
         -6    1    1    2    0  502  0.15910167322E+02 -0.21986670674E+01  0.84501270643E+03  0.86268965543E+03  0.17300000000E+03 0.  1.
<mgrwt>
<rscale>  2 0.17374397E+03</rscale>
<asrwt>0</asrwt>
<pdfrwt beam="1">  1       21 0.25913478E+00 0.17374397E+03</pdfrwt>
<pdfrwt beam="2">  1       21 0.27577213E-02 0.17374397E+03</pdfrwt>
<totfact> 0.43430821E+04</totfact>
</mgrwt>
</event>
<event>
 4    1  0.3974123E+000  0.1748225E+03  0.7546771E-02  0.1172910E+00
         21   -1    0    0  503  502  0.00000000000E+00  0.00000000000E+00  0.17805546092E+02  0.17805546092E+02  0.00000000000E+00 0. -1.
         21   -1    0    0  501  503 -0.00000000000E+00 -0.00000000000E+00 -0.17378050992E+04  0.17378050992E+04  0.00000000000E+00 0. -1.
          6    1    1    2  501    0  0.21567727549E+02  0.12989610166E+02 -0.95723514921E+03  0.97306835717E+03  0.17300000000E+03 0.  1.
         -6    1    1    2    0  502 -0.21567727549E+02 -0.12989610166E+02 -0.76276440387E+03  0.78254228809E+03  0.17300000000E+03 0.  1.
<mgrwt>
<rscale>  2 0.17482247E+03</rscale>
<asrwt>0</asrwt>
<pdfrwt beam="1">  1       21 0.27393152E-02 0.17482247E+03</pdfrwt>
<pdfrwt beam="2">  1       21 0.26735459E+00 0.17482247E+03</pdfrwt>
<totfact> 0.39324448E+04</totfact>
</mgrwt>
</event>
<event>
 4    1  0.3974123E+000  0.1771891E+03  0.7546771E-02  0.1170551E+00
         21   -1    0    0  501  502  0.00000000000E+00  0.00000000000E+00  0.84967538863E+02  0.84967538863E+02  0.00000000000E+00 0. -1.
         21   -1    0    0  502  503 -0.00000000000E+00 -0.00000000000E+00 -0.65622476363E+03  0.65622476363E+03  0.00000000000E+00 0. -1.
          6    1    1    2  501    0  0.10641475727E+02  0.36793232969E+02 -0.40664229525E+02  0.18179538652E+03  0.17300000000E+03 0. -1.
         -6    1    1    2    0  503 -0.10641475727E+02 -0.36793232969E+02 -0.53059299524E+03  0.55939691597E+03  0.17300000000E+03 0. -1.
<mgrwt>
<rscale>  2 0.17718912E+03</rscale>
<asrwt>0</asrwt>
<pdfrwt beam="1">  1       21 0.13071930E-01 0.17718912E+03</pdfrwt>
<pdfrwt beam="2">  1       21 0.10095765E+00 0.17718912E+03</pdfrwt>
<totfact> 0.40723541E+04</totfact>
</mgrwt>
</event>
<event>
 4    1  0.3974123E+000  0.1913683E+03  0.7546771E-02  0.1157233E+00
         21   -1    0    0  501  502  0.00000000000E+00  0.00000000000E+00  0.10829561676E+03  0.10829561676E+03  0.00000000000E+00 0.  1.
         21   -1    0    0  502  503 -0.00000000000E+00 -0.00000000000E+00 -0.39222461389E+03  0.39222461389E+03  0.00000000000E+00 0.  1.
          6    1    1    2  501    0  0.72648464019E+02  0.37616897760E+02 -0.49055219503E+02  0.19755567540E+03  0.17300000000E+03 0. -1.
         -6    1    1    2    0  503 -0.72648464019E+02 -0.37616897760E+02 -0.23487377762E+03  0.30296455525E+03  0.17300000000E+03 0. -1.
<mgrwt>
<rscale>  2 0.19136831E+03</rscale>
<asrwt>0</asrwt>
<pdfrwt beam="1">  1       21 0.16660864E-01 0.19136831E+03</pdfrwt>
<pdfrwt beam="2">  1       21 0.60342249E-01 0.19136831E+03</pdfrwt>
<totfact> 0.82916163E+04</totfact>
</mgrwt>
</event>
<event>
 4    1  0.3974123E+000  0.2297186E+03  0.7546771E-02  0.1126838E+00
         21   -1    0    0  501  502  0.00000000000E+00  0.00000000000E+00  0.47062145338E+03  0.47062145338E+03  0.00000000000E+00 0. -1.
         21   -1    0    0  502  503 -0.00000000000E+00 -0.00000000000E+00 -0.11298977928E+03  0.11298977928E+03  0.00000000000E+00 0. -1.
          6    1    1    2  501    0 -0.14466674143E+03  0.43739587101E+02  0.20427573318E+03  0.30740720993E+03  0.17300000000E+03 0. -1.
         -6    1    1    2    0  503  0.14466674143E+03 -0.43739587101E+02  0.15335594092E+03  0.27620402273E+03  0.17300000000E+03 0. -1.
<mgrwt>
<rscale>  2 0.22971856E+03</rscale>
<asrwt>0</asrwt>
<pdfrwt beam="1">  1       21 0.72403299E-01 0.22971856E+03</pdfrwt>
<pdfrwt beam="2">  1       21 0.17383043E-01 0.22971856E+03</pdfrwt>
<totfact> 0.50599486E+04</totfact>
</mgrwt>
</event>
<event>
 4    1  0.3974123E+000  0.2129122E+03  0.7546771E-02  0.1139280E+00
         21   -1    0    0  501  502  0.00000000000E+00  0.00000000000E+00  0.73803277157E+03  0.73803277157E+03  0.00000000000E+00 0.  1.
         21   -1    0    0  502  503 -0.00000000000E+00 -0.00000000000E+00 -0.99263393313E+02  0.99263393313E+02  0.00000000000E+00 0. -1.
          6    1    1    2  501    0  0.12307788671E+03  0.15950878622E+02  0.57787064836E+03  0.61584582726E+03  0.17300000000E+03 0.  1.
         -6    1    1    2    0  503 -0.12307788671E+03 -0.15950878622E+02  0.60898729896E+02  0.22145033761E+03  0.17300000000E+03 0. -1.
<mgrwt>
<rscale>  2 0.21291218E+03</rscale>
<asrwt>0</asrwt>
<pdfrwt beam="1">  1       21 0.11354350E+00 0.21291218E+03</pdfrwt>
<pdfrwt beam="2">  1       21 0.15271292E-01 0.21291218E+03</pdfrwt>
<totfact> 0.22680012E+04</totfact>
</mgrwt>
</event>
<event>
 4    1  0.3974123E+000  0.3147769E+03  0.7546771E-02  0.1078079E+00
         21   -1    0    0  501  502  0.00000000000E+00  0.00000000000E+00  0.93517675491E+03  0.93517675491E+03  0.00000000000E+00 0.  1.
         21   -1    0    0  502  503 -0.00000000000E+00 -0.00000000000E+00 -0.14786254116E+03  0.14786254116E+03  0.00000000000E+00 0. -1.
          6    1    1    2  501    0 -0.40815432336E+01 -0.26294264966E+03  0.68195613441E+03  0.75109830599E+03  0.17300000000E+03 0.  1.
         -6    1    1    2    0  503  0.40815432336E+01  0.26294264966E+03  0.10535807934E+03  0.33194099007E+03  0.17300000000E+03 0. -1.
<mgrwt>
<rscale>  2 0.31477690E+03</rscale>
<asrwt>0</asrwt>
<pdfrwt beam="1">  1       21 0.14387334E+00 0.31477690E+03</pdfrwt>
<pdfrwt beam="2">  1       21 0.22748084E-01 0.31477690E+03</pdfrwt>
<totfact> 0.55821281E+03</totfact>
</mgrwt>
</event>
<event>
 4    1  0.3974123E+000  0.1773208E+03  0.7546771E-02  0.1170421E+00
         21   -1    0    0  503  502  0.00000000000E+00  0.00000000000E+00  0.20937048683E+03  0.20937048683E+03  0.00000000000E+00 0. -1.
         21   -1    0    0  501  503 -0.00000000000E+00 -0.00000000000E+00 -0.15235965934E+03  0.15235965934E+03  0.00000000000E+00 0. -1.
          6    1    1    2  501    0  0.20460700249E+02 -0.33091165626E+02  0.68584702572E+01  0.17745338574E+03  0.17300000000E+03 0. -1.
         -6    1    1    2    0  502 -0.20460700249E+02  0.33091165626E+02  0.50152357240E+02  0.18427676043E+03  0.17300000000E+03 0. -1.
<mgrwt>
<rscale>  2 0.17732080E+03</rscale>
<asrwt>0</asrwt>
<pdfrwt beam="1">  1       21 0.32210844E-01 0.17732080E+03</pdfrwt>
<pdfrwt beam="2">  1       21 0.23439948E-01 0.17732080E+03</pdfrwt>
<totfact> 0.15952433E+05</totfact>
</mgrwt>
</event>
<event>
 4    1  0.3974123E+000  0.2410100E+03  0.7546771E-02  0.1119122E+00
         21   -1    0    0  503  502  0.00000000000E+00  0.00000000000E+00  0.77896471804E+02  0.77896471804E+02  0.00000000000E+00 0. -1.
         21   -1    0    0  501  503 -0.00000000000E+00 -0.00000000000E+00 -0.87432929497E+03  0.87432929497E+03  0.00000000000E+00 0.  1.
          6    1    1    2  501    0 -0.56620649291E+02  0.15795858342E+03 -0.58084836072E+03  0.62886455629E+03  0.17300000000E+03 0.  1.
         -6    1    1    2    0  502  0.56620649291E+02 -0.15795858342E+03 -0.21558446245E+03  0.32336121049E+03  0.17300000000E+03 0. -1.
<mgrwt>
<rscale>  2 0.24100998E+03</rscale>
<asrwt>0</asrwt>
<pdfrwt beam="1">  1       21 0.11984073E-01 0.24100998E+03</pdfrwt>
<pdfrwt beam="2">  1       21 0.13451220E+00 0.24100998E+03</pdfrwt>
<totfact> 0.22662634E+04</totfact>
</mgrwt>
</event>
<event>
 4    1  0.3974123E+000  0.1824717E+03  0.7546771E-02  0.1165432E+00
         21   -1    0    0  503  502  0.00000000000E+00  0.00000000000E+00  0.16962613688E+03  0.16962613688E+03  0.00000000000E+00 0.  1.
         21   -1    0    0  501  503 -0.00000000000E+00 -0.00000000000E+00 -0.44574128465E+03  0.44574128465E+03  0.00000000000E+00 0.  1.
          6    1    1    2  501    0 -0.57685529997E+02  0.62695017821E+01 -0.36823137097E+03  0.41096261337E+03  0.17300000000E+03 0.  1.
         -6    1    1    2    0  502  0.57685529997E+02 -0.62695017821E+01  0.92116223200E+02  0.20440480816E+03  0.17300000000E+03 0.  1.
<mgrwt>
<rscale>  2 0.18247172E+03</rscale>
<asrwt>0</asrwt>
<pdfrwt beam="1">  1       21 0.26096329E-01 0.18247172E+03</pdfrwt>
<pdfrwt beam="2">  1       21 0.68575582E-01 0.18247172E+03</pdfrwt>
<totfact> 0.27203229E+04</totfact>
</mgrwt>
</event>
<event>
 4    1  0.3974123E+000  0.1873284E+03  0.7546771E-02  0.1160893E+00
         21   -1    0    0  501  502  0.00000000000E+00  0.00000000000E+00  0.19307462440E+04  0.19307462440E+04  0.00000000000E+00 0.  1.
         21   -1    0    0  502  503 -0.00000000000E+00 -0.00000000000E+00 -0.23705684355E+02  0.23705684355E+02  0.00000000000E+00 0.  1.
          6    1    1    2  501    0 -0.22222237244E+02 -0.68330839679E+02  0.14255242022E+04  0.14377799493E+04  0.17300000000E+03 0.  1.
         -6    1    1    2    0  503  0.22222237244E+02  0.68330839679E+02  0.48151635745E+03  0.51667197909E+03  0.17300000000E+03 0.  1.
<mgrwt>
<rscale>  2 0.18732841E+03</rscale>
<asrwt>0</asrwt>
<pdfrwt beam="1">  1       21 0.29703776E+00 0.18732841E+03</pdfrwt>
<pdfrwt beam="2">  1       21 0.36470299E-02 0.18732841E+03</pdfrwt>
<totfact> 0.16325769E+04</totfact>
</mgrwt>
</event>
<event>
 4    1  0.3974123E+000  0.1884066E+03  0.7546771E-02  0.1159906E+00
         21   -1    0    0  501  502  0.00000000000E+00  0.00000000000E+00  0.26988024630E+04  0.26988024630E+04  0.00000000000E+00 0. -1.
         21   -1    0    0  502  503 -0.00000000000E+00 -0.00000000000E+00 -0.16353254474E+03  0.16353254474E+03  0.00000000000E+00 0.  1.
          6    1    1    2  501    0 -0.71618837131E+02 -0.20947138148E+02  0.26400419352E+04  0.26467562147E+04  0.17300000000E+03 0. -1.
         -6    1    1    2    0  503  0.71618837131E+02  0.20947138148E+02 -0.10477201701E+03  0.21557879297E+03  0.17300000000E+03 0.  1.
<mgrwt>
<rscale>  2 0.18840658E+03</rscale>
<asrwt>0</asrwt>
<pdfrwt beam="1">  1       21 0.41520035E+00 0.18840658E+03</pdfrwt>
<pdfrwt beam="2">  1       21 0.25158855E-01 0.18840658E+03</pdfrwt>
<totfact> 0.10549667E+02</totfact>
</mgrwt>
</event>
<event>
 4    1  0.3974123E+000  0.2292855E+03  0.7546771E-02  0.1127144E+00
         21   -1    0    0  503  502  0.00000000000E+00  0.00000000000E+00  0.94433718147E+02  0.94433718147E+02  0.00000000000E+00 0.  1.
         21   -1    0    0  501  503 -0.00000000000E+00 -0.00000000000E+00 -0.11698107463E+04  0.11698107463E+04  0.00000000000E+00 0.  1.
          6    1    1    2  501    0  0.13306448616E+03 -0.70261673311E+02 -0.99531425040E+03  0.10213825519E+04  0.17300000000E+03 0.  1.
         -6    1    1    2    0  502 -0.13306448616E+03  0.70261673311E+02 -0.80062777794E+02  0.24286191262E+03  0.17300000000E+03 0.  1.
<mgrwt>
<rscale>  2 0.22928554E+03</rscale>
<asrwt>0</asrwt>
<pdfrwt beam="1">  1       21 0.14528264E-01 0.22928554E+03</pdfrwt>
<pdfrwt beam="2">  1       21 0.17997089E+00 0.22928554E+03</pdfrwt>
<totfact> 0.73513206E+03</totfact>
</mgrwt>
</event>
<event>
 4    1  0.3974123E+000  0.1805734E+03  0.7546771E-02  0.1167249E+00
         21   -1    0    0  503  502  0.00000000000E+00  0.00000000000E+00  0.18942328088E+03  0.18942328088E+03  0.00000000000E+00 0. -1.
         21   -1    0    0  501  503 -0.00000000000E+00 -0.00000000000E+00 -0.20749099691E+03  0.20749099691E+03  0.00000000000E+00 0. -1.
          6    1    1    2  501    0 -0.45699391241E+02  0.24275884729E+02 -0.90953195940E+02  0.20218614391E+03  0.17300000000E+03 0. -1.
         -6    1    1    2    0  502  0.45699391241E+02 -0.24275884729E+02  0.72885479911E+02  0.19472813387E+03  0.17300000000E+03 0. -1.
<mgrwt>
<rscale>  2 0.18057340E+03</rscale>
<asrwt>0</asrwt>
<pdfrwt beam="1">  1       21 0.29142043E-01 0.18057340E+03</pdfrwt>
<pdfrwt beam="2">  1       21 0.31921692E-01 0.18057340E+03</pdfrwt>
<totfact> 0.10688119E+05</totfact>
</mgrwt>
</event>
<event>
 4    1  0.3974123E+000  0.2110358E+03  0.7546771E-02  0.1140748E+00
         21   -1    0    0  503  502  0.00000000000E+00  0.00000000000E+00  0.43187835133E+03  0.43187835133E+03  0.00000000000E+00 0. -1.
         21   -1    0    0  501  503 -0.00000000000E+00 -0.00000000000E+00 -0.11187192058E+03  0.11187192058E+03  0.00000000000E+00 0.  1.
          6    1    1    2  501    0 -0.12027254464E+03 -0.11900980075E+02  0.83968249142E+02  0.22712724448E+03  0.17300000000E+03 0.  1.
         -6    1    1    2    0  502  0.12027254464E+03  0.11900980075E+02  0.23603818161E+03  0.31662302743E+03  0.17300000000E+03 0. -1.
<mgrwt>
<rscale>  2 0.21103582E+03</rscale>
<asrwt>0</asrwt>
<pdfrwt beam="1">  1       21 0.66442823E-01 0.21103582E+03</pdfrwt>
<pdfrwt beam="2">  1       21 0.17211065E-01 0.21103582E+03</pdfrwt>
<totfact> 0.62824895E+04</totfact>
</mgrwt>
</event>
<event>
 4    1  0.3974123E+000  0.1960364E+03  0.7546771E-02  0.1153127E+00
         21   -1    0    0  503  502  0.00000000000E+00  0.00000000000E+00  0.60659084724E+03  0.60659084724E+03  0.00000000000E+00 0. -1.
         21   -1    0    0  501  503 -0.00000000000E+00 -0.00000000000E+00 -0.67764103110E+02  0.67764103110E+02  0.00000000000E+00 0. -1.
          6    1    1    2  501    0 -0.90331225345E+02  0.18480824242E+02  0.18340167032E+03  0.26845193949E+03  0.17300000000E+03 0. -1.
         -6    1    1    2    0  502  0.90331225345E+02 -0.18480824242E+02  0.35542507381E+03  0.40590301087E+03  0.17300000000E+03 0. -1.
<mgrwt>
<rscale>  2 0.19603640E+03</rscale>
<asrwt>0</asrwt>
<pdfrwt beam="1">  1       21 0.93321665E-01 0.19603640E+03</pdfrwt>
<pdfrwt beam="2">  1       21 0.10425247E-01 0.19603640E+03</pdfrwt>
<totfact> 0.72687023E+04</totfact>
</mgrwt>
</event>
<event>
 4    1  0.3974123E+000  0.2056848E+03  0.7546771E-02  0.1145029E+00
         21   -1    0    0  501  502  0.00000000000E+00  0.00000000000E+00  0.31401861872E+03  0.31401861872E+03  0.00000000000E+00 0.  1.
         21   -1    0    0  502  503 -0.00000000000E+00 -0.00000000000E+00 -0.20222440441E+03  0.20222440441E+03  0.00000000000E+00 0.  1.
          6    1    1    2  501    0 -0.43394829073E+02 -0.10244077283E+03  0.20502425938E+03  0.29041551278E+03  0.17300000000E+03 0.  1.
         -6    1    1    2    0  503  0.43394829073E+02  0.10244077283E+03 -0.93230045070E+02  0.22582751035E+03  0.17300000000E+03 0.  1.
<mgrwt>
<rscale>  2 0.20568477E+03</rscale>
<asrwt>0</asrwt>
<pdfrwt beam="1">  1       21 0.48310557E-01 0.20568477E+03</pdfrwt>
<pdfrwt beam="2">  1       21 0.31111447E-01 0.20568477E+03</pdfrwt>
<totfact> 0.40351885E+04</totfact>
</mgrwt>
</event>
<event>
 4    1  0.3974123E+000  0.1738355E+03  0.7546771E-02  0.1173906E+00
         21   -1    0    0  503  502  0.00000000000E+00  0.00000000000E+00  0.48905726413E+03  0.48905726413E+03  0.00000000000E+00 0.  1.
         21   -1    0    0  501  503 -0.00000000000E+00 -0.00000000000E+00 -0.98256490746E+02  0.98256490746E+02  0.00000000000E+00 0.  1.
          6    1    1    2  501    0  0.12915083788E+02 -0.11089504853E+02  0.16501592757E+02  0.17461694955E+03  0.17300000000E+03 0.  1.
         -6    1    1    2    0  502 -0.12915083788E+02  0.11089504853E+02  0.37429918063E+03  0.41269680532E+03  0.17300000000E+03 0.  1.
<mgrwt>
<rscale>  2 0.17383549E+03</rscale>
<asrwt>0</asrwt>
<pdfrwt beam="1">  1       21 0.75239578E-01 0.17383549E+03</pdfrwt>
<pdfrwt beam="2">  1       21 0.15116384E-01 0.17383549E+03</pdfrwt>
<totfact> 0.61592350E+04</totfact>
</mgrwt>
</event>
<event>
 4    1  0.3974123E+000  0.1830345E+03  0.7546771E-02  0.1164898E+00
         21   -1    0    0  501  502  0.00000000000E+00  0.00000000000E+00  0.35458288571E+02  0.35458288571E+02  0.00000000000E+00 0.  1.
         21   -1    0    0  502  503 -0.00000000000E+00 -0.00000000000E+00 -0.10763194692E+04  0.10763194692E+04  0.00000000000E+00 0.  1.
          6    1    1    2  501    0  0.22016069666E+02 -0.55569071434E+02 -0.32612616022E+03  0.37397847720E+03  0.17300000000E+03 0.  1.
         -6    1    1    2    0  503 -0.22016069666E+02  0.55569071434E+02 -0.71473502041E+03  0.73779928058E+03  0.17300000000E+03 0.  1.
<mgrwt>
<rscale>  2 0.18303450E+03</rscale>
<asrwt>0</asrwt>
<pdfrwt beam="1">  1       21 0.54551220E-02 0.18303450E+03</pdfrwt>
<pdfrwt beam="2">  1       21 0.16558759E+00 0.18303450E+03</pdfrwt>
<totfact> 0.53493858E+04</totfact>
</mgrwt>
</event>
<event>
 4    1  0.3974123E+000  0.1868651E+03  0.7546771E-02  0.1161320E+00
         21   -1    0    0  503  502  0.00000000000E+00  0.00000000000E+00  0.30199156013E+03  0.30199156013E+03  0.00000000000E+00 0. -1.
         21   -1    0    0  501  503 -0.00000000000E+00 -0.00000000000E+00 -0.18102578108E+03  0.18102578108E+03  0.00000000000E+00 0. -1.
          6    1    1    2  501    0  0.68287205345E+02  0.18067505417E+02 -0.84676505925E+02  0.20515527734E+03  0.17300000000E+03 0. -1.
         -6    1    1    2    0  502 -0.68287205345E+02 -0.18067505417E+02  0.20564228497E+03  0.27786206387E+03  0.17300000000E+03 0. -1.
<mgrwt>
<rscale>  2 0.18686513E+03</rscale>
<asrwt>0</asrwt>
<pdfrwt beam="1">  1       21 0.46460240E-01 0.18686513E+03</pdfrwt>
<pdfrwt beam="2">  1       21 0.27850120E-01 0.18686513E+03</pdfrwt>
<totfact> 0.54768898E+04</totfact>
</mgrwt>
</event>
<event>
 4    1  0.3974123E+000  0.1826743E+03  0.7546771E-02  0.1165240E+00
         21   -1    0    0  503  502  0.00000000000E+00  0.00000000000E+00  0.68421694398E+02  0.68421694398E+02  0.00000000000E+00 0. -1.
         21   -1    0    0  501  503 -0.00000000000E+00 -0.00000000000E+00 -0.56495378624E+03  0.56495378624E+03  0.00000000000E+00 0. -1.
          6    1    1    2  501    0 -0.49105666386E+02 -0.32086455034E+02 -0.36536637273E+03  0.40848805783E+03  0.17300000000E+03 0. -1.
         -6    1    1    2    0  502  0.49105666386E+02  0.32086455034E+02 -0.13116571912E+03  0.22488742281E+03  0.17300000000E+03 0. -1.
<mgrwt>
<rscale>  2 0.18267432E+03</rscale>
<asrwt>0</asrwt>
<pdfrwt beam="1">  1       21 0.10526414E-01 0.18267432E+03</pdfrwt>
<pdfrwt beam="2">  1       21 0.86915969E-01 0.18267432E+03</pdfrwt>
<totfact> 0.84723211E+04</totfact>
</mgrwt>
</event>
<event>
 4    1  0.3974123E+000  0.2345221E+03  0.7546771E-02  0.1123497E+00
         21   -1    0    0  501  502  0.00000000000E+00  0.00000000000E+00  0.15664017456E+03  0.15664017456E+03  0.00000000000E+00 0.  1.
         21   -1    0    0  502  503 -0.00000000000E+00 -0.00000000000E+00 -0.40471203132E+03  0.40471203132E+03  0.00000000000E+00 0.  1.
          6    1    1    2  501    0 -0.51425124587E+02  0.14975678532E+03 -0.21906007298E+02  0.23554301379E+03  0.17300000000E+03 0.  1.
         -6    1    1    2    0  503  0.51425124587E+02 -0.14975678532E+03 -0.22616584946E+03  0.32580919209E+03  0.17300000000E+03 0.  1.
<mgrwt>
<rscale>  2 0.23452215E+03</rscale>
<asrwt>0</asrwt>
<pdfrwt beam="1">  1       21 0.24098488E-01 0.23452215E+03</pdfrwt>
<pdfrwt beam="2">  1       21 0.62263389E-01 0.23452215E+03</pdfrwt>
<totfact> 0.38071265E+04</totfact>
</mgrwt>
</event>
<event>
 4    1  0.3974123E+000  0.1988287E+03  0.7546771E-02  0.1150731E+00
         21   -1    0    0  503  502  0.00000000000E+00  0.00000000000E+00  0.31468388641E+03  0.31468388641E+03  0.00000000000E+00 0.  1.
         21   -1    0    0  501  503 -0.00000000000E+00 -0.00000000000E+00 -0.44840556470E+03  0.44840556470E+03  0.00000000000E+00 0.  1.
          6    1    1    2  501    0 -0.85767190996E+02  0.47411383814E+02 -0.39057535707E+03  0.43827155956E+03  0.17300000000E+03 0.  1.
         -6    1    1    2    0  502  0.85767190996E+02 -0.47411383814E+02  0.25685367878E+03  0.32481789155E+03  0.17300000000E+03 0.  1.
<mgrwt>
<rscale>  2 0.19882870E+03</rscale>
<asrwt>0</asrwt>
<pdfrwt beam="1">  1       21 0.48412906E-01 0.19882870E+03</pdfrwt>
<pdfrwt beam="2">  1       21 0.68985471E-01 0.19882870E+03</pdfrwt>
<totfact> 0.77622603E+03</totfact>
</mgrwt>
</event>
<event>
 4    1  0.3974123E+000  0.1926030E+03  0.7546771E-02  0.1156134E+00
         21   -1    0    0  503  502  0.00000000000E+00  0.00000000000E+00  0.18471222108E+03  0.18471222108E+03  0.00000000000E+00 0. -1.
         21   -1    0    0  501  503 -0.00000000000E+00 -0.00000000000E+00 -0.23512114560E+03  0.23512114560E+03  0.00000000000E+00 0. -1.
          6    1    1    2  501    0 -0.70334104781E+02 -0.47117386622E+02 -0.10536967877E+03  0.21954203156E+03  0.17300000000E+03 0. -1.
         -6    1    1    2    0  502  0.70334104781E+02  0.47117386622E+02  0.54960754240E+02  0.20029133512E+03  0.17300000000E+03 0. -1.
<mgrwt>
<rscale>  2 0.19260305E+03</rscale>
<asrwt>0</asrwt>
<pdfrwt beam="1">  1       21 0.28417265E-01 0.19260305E+03</pdfrwt>
<pdfrwt beam="2">  1       21 0.36172484E-01 0.19260305E+03</pdfrwt>
<totfact> 0.87267819E+04</totfact>
</mgrwt>
</event>
<event>
 4    1  0.3974123E+000  0.3100860E+03  0.7546771E-02  0.1080305E+00
         21   -1    0    0  503  502  0.00000000000E+00  0.00000000000E+00  0.56504418433E+03  0.56504418433E+03  0.00000000000E+00 0. -1.
         21   -1    0    0  501  503 -0.00000000000E+00 -0.00000000000E+00 -0.17284048692E+03  0.17284048692E+03  0.00000000000E+00 0.  1.
          6    1    1    2  501    0 -0.19587464287E+03 -0.16690547284E+03  0.24196541851E+03  0.39331994144E+03  0.17300000000E+03 0. -1.
         -6    1    1    2    0  502  0.19587464287E+03  0.16690547284E+03  0.15023827890E+03  0.34456472981E+03  0.17300000000E+03 0.  1.
<mgrwt>
<rscale>  2 0.31008598E+03</rscale>
<asrwt>0</asrwt>
<pdfrwt beam="1">  1       21 0.86929874E-01 0.31008598E+03</pdfrwt>
<pdfrwt beam="2">  1       21 0.26590844E-01 0.31008598E+03</pdfrwt>
<totfact> 0.14403494E+04</totfact>
</mgrwt>
</event>
<event>
 4    1  0.3974123E+000  0.1985812E+03  0.7546771E-02  0.1150942E+00
         21   -1    0    0  503  502  0.00000000000E+00  0.00000000000E+00  0.38210155490E+03  0.38210155490E+03  0.00000000000E+00 0. -1.
         21   -1    0    0  501  503 -0.00000000000E+00 -0.00000000000E+00 -0.14821523425E+03  0.14821523425E+03  0.00000000000E+00 0. -1.
          6    1    1    2  501    0  0.87958951833E+02 -0.42056331440E+02 -0.29179683088E+02  0.20071364210E+03  0.17300000000E+03 0. -1.
         -6    1    1    2    0  502 -0.87958951833E+02  0.42056331440E+02  0.26306600373E+03  0.32960314704E+03  0.17300000000E+03 0. -1.
<mgrwt>
<rscale>  2 0.19858125E+03</rscale>
<asrwt>0</asrwt>
<pdfrwt beam="1">  1       21 0.58784854E-01 0.19858125E+03</pdfrwt>
<pdfrwt beam="2">  1       21 0.22802344E-01 0.19858125E+03</pdfrwt>
<totfact> 0.48700388E+04</totfact>
</mgrwt>
</event>
<event>
 4    1  0.3974123E+000  0.1762048E+03  0.7546771E-02  0.1171527E+00
         21   -1    0    0  501  502  0.00000000000E+00  0.00000000000E+00  0.43872925785E+02  0.43872925785E+02  0.00000000000E+00 0. -1.
         21   -1    0    0  502  503 -0.00000000000E+00 -0.00000000000E+00 -0.87373989924E+03  0.87373989924E+03  0.00000000000E+00 0. -1.
          6    1    1    2  501    0  0.12641358316E+02  0.30972739715E+02 -0.21491638446E+03  0.27791575496E+03  0.17300000000E+03 0. -1.
         -6    1    1    2    0  503 -0.12641358316E+02 -0.30972739715E+02 -0.61495058899E+03  0.63969707006E+03  0.17300000000E+03 0. -1.
<mgrwt>
<rscale>  2 0.17620475E+03</rscale>
<asrwt>0</asrwt>
<pdfrwt beam="1">  1       21 0.67496806E-02 0.17620475E+03</pdfrwt>
<pdfrwt beam="2">  1       21 0.13442153E+00 0.17620475E+03</pdfrwt>
<totfact> 0.64510086E+04</totfact>
</mgrwt>
</event>
<event>
 4    1  0.3974123E+000  0.2847885E+03  0.7546771E-02  0.1093102E+00
         21   -1    0    0  503  502  0.00000000000E+00  0.00000000000E+00  0.92782596751E+03  0.92782596751E+03  0.00000000000E+00 0.  1.
         21   -1    0    0  501  503 -0.00000000000E+00 -0.00000000000E+00 -0.15500530076E+03  0.15500530076E+03  0.00000000000E+00 0. -1.
          6    1    1    2  501    0 -0.16207688837E+03 -0.15781810995E+03  0.28886770117E+02  0.28624974945E+03  0.17300000000E+03 0. -1.
         -6    1    1    2    0  502  0.16207688837E+03  0.15781810995E+03  0.74393389663E+03  0.79658151882E+03  0.17300000000E+03 0. -1.
<mgrwt>
<rscale>  2 0.28478847E+03</rscale>
<asrwt>0</asrwt>
<pdfrwt beam="1">  1       21 0.14274245E+00 0.28478847E+03</pdfrwt>
<pdfrwt beam="2">  1       21 0.23846970E-01 0.28478847E+03</pdfrwt>
<totfact> 0.52914085E+03</totfact>
</mgrwt>
</event>
<event>
 4    1  0.3974123E+000  0.2036828E+03  0.7546771E-02  0.1146669E+00
         21   -1    0    0  501  502  0.00000000000E+00  0.00000000000E+00  0.45619242573E+03  0.45619242573E+03  0.00000000000E+00 0. -1.
         21   -1    0    0  502  503 -0.00000000000E+00 -0.00000000000E+00 -0.10518919632E+03  0.10518919632E+03  0.00000000000E+00 0. -1.
          6    1    1    2  501    0 -0.28803257000E+02  0.10357629608E+03  0.27880626096E+03  0.34528192520E+03  0.17300000000E+03 0. -1.
         -6    1    1    2    0  503  0.28803257000E+02 -0.10357629608E+03  0.72196968454E+02  0.21609969685E+03  0.17300000000E+03 0. -1.
<mgrwt>
<rscale>  2 0.20368278E+03</rscale>
<asrwt>0</asrwt>
<pdfrwt beam="1">  1       21 0.70183449E-01 0.20368278E+03</pdfrwt>
<pdfrwt beam="2">  1       21 0.16182953E-01 0.20368278E+03</pdfrwt>
<totfact> 0.62587956E+04</totfact>
</mgrwt>
</event>
<event>
 4    1  0.3974123E+000  0.1752830E+03  0.7546771E-02  0.1172448E+00
         21   -1    0    0  501  502  0.00000000000E+00  0.00000000000E+00  0.75950788537E+03  0.75950788537E+03  0.00000000000E+00 0. -1.
         21   -1    0    0  502  503 -0.00000000000E+00 -0.00000000000E+00 -0.40727703974E+02  0.40727703974E+02  0.00000000000E+00 0. -1.
          6    1    1    2  501    0 -0.13344062949E+02 -0.24840567320E+02  0.39227073232E+03  0.42965153932E+03  0.17300000000E+03 0. -1.
         -6    1    1    2    0  503  0.13344062949E+02  0.24840567320E+02  0.32650944908E+03  0.37058405003E+03  0.17300000000E+03 0. -1.
<mgrwt>
<rscale>  2 0.17528296E+03</rscale>
<asrwt>0</asrwt>
<pdfrwt beam="1">  1       21 0.11684736E+00 0.17528296E+03</pdfrwt>
<pdfrwt beam="2">  1       21 0.62658012E-02 0.17528296E+03</pdfrwt>
<totfact> 0.10399573E+05</totfact>
</mgrwt>
</event>
<event>
 4    1  0.3974123E+000  0.2077547E+03  0.7546771E-02  0.1143356E+00
         21   -1    0    0  501  502  0.00000000000E+00  0.00000000000E+00  0.14734878751E+04  0.14734878751E+04  0.00000000000E+00 0. -1.
         21   -1    0    0  502  503 -0.00000000000E+00 -0.00000000000E+00 -0.29424261810E+02  0.29424261810E+02  0.00000000000E+00 0. -1.
          6    1    1    2  501    0  0.10128994356E+03 -0.54528512648E+02  0.77233475251E+03  0.79978933557E+03  0.17300000000E+03 0. -1.
         -6    1    1    2    0  503 -0.10128994356E+03  0.54528512648E+02  0.67172886078E+03  0.70312280134E+03  0.17300000000E+03 0. -1.
<mgrwt>
<rscale>  2 0.20775469E+03</rscale>
<asrwt>0</asrwt>
<pdfrwt beam="1">  1       21 0.22669038E+00 0.20775469E+03</pdfrwt>
<pdfrwt beam="2">  1       21 0.45268107E-02 0.20775469E+03</pdfrwt>
<totfact> 0.28809917E+04</totfact>
</mgrwt>
</event>
<event>
 4    1  0.3974123E+000  0.2180031E+03  0.7546771E-02  0.1135381E+00
         21   -1    0    0  501  502  0.00000000000E+00  0.00000000000E+00  0.21411693556E+03  0.21411693556E+03  0.00000000000E+00 0. -1.
         21   -1    0    0  502  503 -0.00000000000E+00 -0.00000000000E+00 -0.38375878177E+03  0.38375878177E+03  0.00000000000E+00 0. -1.
          6    1    1    2  501    0  0.92005307179E+02  0.95558270802E+02  0.10928536342E+03  0.24386194932E+03  0.17300000000E+03 0. -1.
         -6    1    1    2    0  503 -0.92005307179E+02 -0.95558270802E+02 -0.27892720963E+03  0.35401376801E+03  0.17300000000E+03 0. -1.
<mgrwt>
<rscale>  2 0.21800312E+03</rscale>
<asrwt>0</asrwt>
<pdfrwt beam="1">  1       21 0.32941067E-01 0.21800312E+03</pdfrwt>
<pdfrwt beam="2">  1       21 0.59039812E-01 0.21800312E+03</pdfrwt>
<totfact> 0.23458089E+04</totfact>
</mgrwt>
</event>
<event>
 4    1  0.3974123E+000  0.2111717E+03  0.7546771E-02  0.1140641E+00
         21   -1    0    0  501  502  0.00000000000E+00  0.00000000000E+00  0.12289203069E+04  0.12289203069E+04  0.00000000000E+00 0.  1.
         21   -1    0    0  502  503 -0.00000000000E+00 -0.00000000000E+00 -0.54220133809E+02  0.54220133809E+02  0.00000000000E+00 0.  1.
          6    1    1    2  501    0  0.11652929016E+03 -0.32945480802E+02  0.95632382588E+03  0.97936139403E+03  0.17300000000E+03 0.  1.
         -6    1    1    2    0  503 -0.11652929016E+03  0.32945480802E+02  0.21837634717E+03  0.30377904663E+03  0.17300000000E+03 0.  1.
<mgrwt>
<rscale>  2 0.21117168E+03</rscale>
<asrwt>0</asrwt>
<pdfrwt beam="1">  1       21 0.18906464E+00 0.21117168E+03</pdfrwt>
<pdfrwt beam="2">  1       21 0.83415600E-02 0.21117168E+03</pdfrwt>
<totfact> 0.17409720E+04</totfact>
</mgrwt>
</event>
<event>
 4    1  0.3974123E+000  0.2541556E+03  0.7546771E-02  0.1110706E+00
         21   -1    0    0  501  502  0.00000000000E+00  0.00000000000E+00  0.58374137246E+02  0.58374137246E+02  0.00000000000E+00 0.  1.
         21   -1    0    0  502  503 -0.00000000000E+00 -0.00000000000E+00 -0.11121704123E+04  0.11121704123E+04  0.00000000000E+00 0. -1.
          6    1    1    2  501    0 -0.18491312308E+03  0.21753585721E+02 -0.48536698711E+03  0.54788337605E+03  0.17300000000E+03 0.  1.
         -6    1    1    2    0  503  0.18491312308E+03 -0.21753585721E+02 -0.56842928791E+03  0.62266117346E+03  0.17300000000E+03 0. -1.
<mgrwt>
<rscale>  2 0.25415562E+03</rscale>
<asrwt>0</asrwt>
<pdfrwt beam="1">  1       21 0.89806374E-02 0.25415562E+03</pdfrwt>
<pdfrwt beam="2">  1       21 0.17110312E+00 0.25415562E+03</pdfrwt>
<totfact> 0.19765434E+04</totfact>
</mgrwt>
</event>
<event>
 4    1  0.3974123E+000  0.2081760E+03  0.7546771E-02  0.1143019E+00
         21   -1    0    0  501  502  0.00000000000E+00  0.00000000000E+00  0.35702783896E+03  0.35702783896E+03  0.00000000000E+00 0. -1.
         21   -1    0    0  502  503 -0.00000000000E+00 -0.00000000000E+00 -0.23200327526E+03  0.23200327526E+03  0.00000000000E+00 0. -1.
          6    1    1    2  501    0  0.77749271312E+02 -0.85809766423E+02  0.26587797785E+03  0.33768086163E+03  0.17300000000E+03 0. -1.
         -6    1    1    2    0  503 -0.77749271312E+02  0.85809766423E+02 -0.14085341415E+03  0.25135025260E+03  0.17300000000E+03 0. -1.
<mgrwt>
<rscale>  2 0.20817604E+03</rscale>
<asrwt>0</asrwt>
<pdfrwt beam="1">  1       21 0.54927360E-01 0.20817604E+03</pdfrwt>
<pdfrwt beam="2">  1       21 0.35692812E-01 0.20817604E+03</pdfrwt>
<totfact> 0.23463102E+04</totfact>
</mgrwt>
</event>
<event>
 4    1  0.3974123E+000  0.2334536E+03  0.7546771E-02  0.1124232E+00
         21   -1    0    0  503  502  0.00000000000E+00  0.00000000000E+00  0.51014913239E+02  0.51014913239E+02  0.00000000000E+00 0.  1.
         21   -1    0    0  501  503 -0.00000000000E+00 -0.00000000000E+00 -0.12312232869E+04  0.12312232869E+04  0.00000000000E+00 0. -1.
          6    1    1    2  501    0 -0.10618350376E+03 -0.11531118023E+03 -0.82330282719E+03  0.85576173670E+03  0.17300000000E+03 0. -1.
         -6    1    1    2    0  502  0.10618350376E+03  0.11531118023E+03 -0.35690554646E+03  0.42647646342E+03  0.17300000000E+03 0.  1.
<mgrwt>
<rscale>  2 0.23345365E+03</rscale>
<asrwt>0</asrwt>
<pdfrwt beam="1">  1       21 0.78484482E-02 0.23345365E+03</pdfrwt>
<pdfrwt beam="2">  1       21 0.18941897E+00 0.23345365E+03</pdfrwt>
<totfact> 0.18970599E+04</totfact>
</mgrwt>
</event>
<event>
 4    1  0.3974123E+000  0.2175336E+03  0.7546771E-02  0.1135735E+00
         21   -1    0    0  501  502  0.00000000000E+00  0.00000000000E+00  0.11416027148E+04  0.11416027148E+04  0.00000000000E+00 0.  1.
         21   -1    0    0  502  503 -0.00000000000E+00 -0.00000000000E+00 -0.68301460962E+02  0.68301460962E+02  0.00000000000E+00 0.  1.
          6    1    1    2  501    0  0.30203147866E+02  0.12837304507E+03  0.91594794203E+03  0.94142525001E+03  0.17300000000E+03 0.  1.
         -6    1    1    2    0  503 -0.30203147866E+02 -0.12837304507E+03  0.15735331182E+03  0.26847892577E+03  0.17300000000E+03 0.  1.
<mgrwt>
<rscale>  2 0.21753360E+03</rscale>
<asrwt>0</asrwt>
<pdfrwt beam="1">  1       21 0.17563117E+00 0.21753360E+03</pdfrwt>
<pdfrwt beam="2">  1       21 0.10507918E-01 0.21753360E+03</pdfrwt>
<totfact> 0.14230143E+04</totfact>
</mgrwt>
</event>
<event>
 4    1  0.3974123E+000  0.1939845E+03  0.7546771E-02  0.1154916E+00
         21   -1    0    0  501  502  0.00000000000E+00  0.00000000000E+00  0.92069968321E+02  0.92069968321E+02  0.00000000000E+00 0.  1.
         21   -1    0    0  502  503 -0.00000000000E+00 -0.00000000000E+00 -0.43365300854E+03  0.43365300854E+03  0.00000000000E+00 0.  1.
          6    1    1    2  501    0 -0.23501792322E+02 -0.84549613293E+02 -0.10775023816E+03  0.22190107069E+03  0.17300000000E+03 0.  1.
         -6    1    1    2    0  503  0.23501792322E+02  0.84549613293E+02 -0.23383280206E+03  0.30382190617E+03  0.17300000000E+03 0.  1.
<mgrwt>
<rscale>  2 0.19398446E+03</rscale>
<asrwt>0</asrwt>
<pdfrwt beam="1">  1       21 0.14164611E-01 0.19398446E+03</pdfrwt>
<pdfrwt beam="2">  1       21 0.66715847E-01 0.19398446E+03</pdfrwt>
<totfact> 0.89591323E+04</totfact>
</mgrwt>
</event>
<event>
 4    1  0.3974123E+000  0.1947844E+03  0.7546771E-02  0.1154216E+00
         21   -1    0    0  501  502  0.00000000000E+00  0.00000000000E+00  0.26825268346E+03  0.26825268346E+03  0.00000000000E+00 0. -1.
         21   -1    0    0  502  503 -0.00000000000E+00 -0.00000000000E+00 -0.21408931042E+03  0.21408931042E+03  0.00000000000E+00 0. -1.
          6    1    1    2  501    0 -0.47346236426E+02 -0.75962366942E+02  0.16757358178E+03  0.25694717863E+03  0.17300000000E+03 0. -1.
         -6    1    1    2    0  503  0.47346236426E+02  0.75962366942E+02 -0.11341020874E+03  0.22539481525E+03  0.17300000000E+03 0. -1.
<mgrwt>
<rscale>  2 0.19478436E+03</rscale>
<asrwt>0</asrwt>
<pdfrwt beam="1">  1       21 0.41269644E-01 0.19478436E+03</pdfrwt>
<pdfrwt beam="2">  1       21 0.32936817E-01 0.19478436E+03</pdfrwt>
<totfact> 0.50126020E+04</totfact>
</mgrwt>
</event>
<event>
 4    1  0.3974123E+000  0.4005177E+03  0.7546771E-02  0.1043601E+00
         21   -1    0    0  501  502  0.00000000000E+00  0.00000000000E+00  0.48965682623E+03  0.48965682623E+03  0.00000000000E+00 0.  1.
         21   -1    0    0  502  503 -0.00000000000E+00 -0.00000000000E+00 -0.45653334118E+03  0.45653334118E+03  0.00000000000E+00 0. -1.
          6    1    1    2  501    0 -0.36116964238E+03 -0.64735184048E+01  0.26797318076E+03  0.48189629862E+03  0.17300000000E+03 0.  1.
         -6    1    1    2    0  503  0.36116964238E+03  0.64735184048E+01 -0.23484969571E+03  0.46429386878E+03  0.17300000000E+03 0. -1.
<mgrwt>
<rscale>  2 0.40051769E+03</rscale>
<asrwt>0</asrwt>
<pdfrwt beam="1">  1       21 0.75331820E-01 0.40051769E+03</pdfrwt>
<pdfrwt beam="2">  1       21 0.70235898E-01 0.40051769E+03</pdfrwt>
<totfact> 0.25605865E+03</totfact>
</mgrwt>
</event>
<event>
 4    1  0.3974123E+000  0.2074810E+03  0.7546771E-02  0.1143576E+00
         21   -1    0    0  501  502  0.00000000000E+00  0.00000000000E+00  0.11023031390E+03  0.11023031390E+03  0.00000000000E+00 0. -1.
         21   -1    0    0  502  503 -0.00000000000E+00 -0.00000000000E+00 -0.41371200272E+03  0.41371200272E+03  0.00000000000E+00 0. -1.
          6    1    1    2  501    0 -0.10291798727E+03  0.50271691121E+02 -0.89729592081E+02  0.22605254859E+03  0.17300000000E+03 0. -1.
         -6    1    1    2    0  503  0.10291798727E+03 -0.50271691121E+02 -0.21375209674E+03  0.29788976802E+03  0.17300000000E+03 0. -1.
<mgrwt>
<rscale>  2 0.20748098E+03</rscale>
<asrwt>0</asrwt>
<pdfrwt beam="1">  1       21 0.16958510E-01 0.20748098E+03</pdfrwt>
<pdfrwt beam="2">  1       21 0.63648001E-01 0.20748098E+03</pdfrwt>
<totfact> 0.71017401E+04</totfact>
</mgrwt>
</event>
<event>
 4    1  0.3974123E+000  0.2347080E+03  0.7546771E-02  0.1123369E+00
         21   -1    0    0  501  502  0.00000000000E+00  0.00000000000E+00  0.48891626068E+03  0.48891626068E+03  0.00000000000E+00 0. -1.
         21   -1    0    0  502  503 -0.00000000000E+00 -0.00000000000E+00 -0.12481139209E+03  0.12481139209E+03  0.00000000000E+00 0. -1.
          6    1    1    2  501    0 -0.13455524116E+03  0.83986638709E+02  0.27774795395E+03  0.36363689902E+03  0.17300000000E+03 0. -1.
         -6    1    1    2    0  503  0.13455524116E+03 -0.83986638709E+02  0.86356914635E+02  0.25009075375E+03  0.17300000000E+03 0. -1.
<mgrwt>
<rscale>  2 0.23470805E+03</rscale>
<asrwt>0</asrwt>
<pdfrwt beam="1">  1       21 0.75217885E-01 0.23470805E+03</pdfrwt>
<pdfrwt beam="2">  1       21 0.19201753E-01 0.23470805E+03</pdfrwt>
<totfact> 0.38526158E+04</totfact>
</mgrwt>
</event>
<event>
 4    1  0.3974123E+000  0.2711624E+03  0.7546771E-02  0.1100616E+00
         21   -1    0    0  503  502  0.00000000000E+00  0.00000000000E+00  0.29473926429E+03  0.29473926429E+03  0.00000000000E+00 0.  1.
         21   -1    0    0  501  503 -0.00000000000E+00 -0.00000000000E+00 -0.44691646418E+03  0.44691646418E+03  0.00000000000E+00 0. -1.
          6    1    1    2  501    0 -0.19215839741E+03 -0.81701891671E+02 -0.32256889461E+03  0.42140211268E+03  0.17300000000E+03 0. -1.
         -6    1    1    2    0  502  0.19215839741E+03  0.81701891671E+02  0.17039169472E+03  0.32025361579E+03  0.17300000000E+03 0.  1.
<mgrwt>
<rscale>  2 0.27116240E+03</rscale>
<asrwt>0</asrwt>
<pdfrwt beam="1">  1       21 0.45344502E-01 0.27116240E+03</pdfrwt>
<pdfrwt beam="2">  1       21 0.68756379E-01 0.27116240E+03</pdfrwt>
<totfact> 0.85689524E+03</totfact>
</mgrwt>
</event>
<event>
 4    1  0.3974123E+000  0.1790242E+03  0.7546771E-02  0.1168751E+00
         21   -1    0    0  501  502  0.00000000000E+00  0.00000000000E+00  0.12039159741E+04  0.12039159741E+04  0.00000000000E+00 0. -1.
         21   -1    0    0  502  503 -0.00000000000E+00 -0.00000000000E+00 -0.17064089905E+03  0.17064089905E+03  0.00000000000E+00 0. -1.
          6    1    1    2  501    0  0.45987067040E+02  0.24168228747E+01  0.11480340055E+04  0.11619086578E+04  0.17300000000E+03 0. -1.
         -6    1    1    2    0  503 -0.45987067040E+02 -0.24168228747E+01 -0.11475893043E+03  0.21264821533E+03  0.17300000000E+03 0. -1.
<mgrwt>
<rscale>  2 0.17902416E+03</rscale>
<asrwt>0</asrwt>
<pdfrwt beam="1">  1       21 0.18521784E+00 0.17902416E+03</pdfrwt>
<pdfrwt beam="2">  1       21 0.26252447E-01 0.17902416E+03</pdfrwt>
<totfact> 0.23470275E+03</totfact>
</mgrwt>
</event>
<event>
 4    1  0.3974123E+000  0.2214428E+03  0.7546771E-02  0.1132812E+00
         21   -1    0    0  501  502  0.00000000000E+00  0.00000000000E+00  0.84048697588E+03  0.84048697588E+03  0.00000000000E+00 0.  1.
         21   -1    0    0  502  503 -0.00000000000E+00 -0.00000000000E+00 -0.13939252948E+03  0.13939252948E+03  0.00000000000E+00 0.  1.
          6    1    1    2  501    0 -0.13260792114E+03  0.39026139029E+02  0.72413873732E+03  0.75724092016E+03  0.17300000000E+03 0.  1.
         -6    1    1    2    0  503  0.13260792114E+03 -0.39026139029E+02 -0.23044290912E+02  0.22263858520E+03  0.17300000000E+03 0.  1.
<mgrwt>
<rscale>  2 0.22144277E+03</rscale>
<asrwt>0</asrwt>
<pdfrwt beam="1">  1       21 0.12930569E+00 0.22144277E+03</pdfrwt>
<pdfrwt beam="2">  1       21 0.21445005E-01 0.22144277E+03</pdfrwt>
<totfact> 0.86917246E+03</totfact>
</mgrwt>
</event>
<event>
 4    1  0.3974123E+000  0.1909625E+03  0.7546771E-02  0.1157596E+00
         21   -1    0    0  503  502  0.00000000000E+00  0.00000000000E+00  0.91889406362E+02  0.91889406362E+02  0.00000000000E+00 0.  1.
         21   -1    0    0  501  503 -0.00000000000E+00 -0.00000000000E+00 -0.10431247025E+04  0.10431247025E+04  0.00000000000E+00 0.  1.
          6    1    1    2  501    0 -0.61517155205E+02  0.52472177364E+02 -0.92231187757E+03  0.94187360579E+03  0.17300000000E+03 0.  1.
         -6    1    1    2    0  502  0.61517155205E+02 -0.52472177364E+02 -0.28923418561E+02  0.19314050306E+03  0.17300000000E+03 0.  1.
<mgrwt>
<rscale>  2 0.19096254E+03</rscale>
<asrwt>0</asrwt>
<pdfrwt beam="1">  1       21 0.14136833E-01 0.19096254E+03</pdfrwt>
<pdfrwt beam="2">  1       21 0.16048071E+00 0.19096254E+03</pdfrwt>
<totfact> 0.10921582E+04</totfact>
</mgrwt>
</event>
<event>
 4    1  0.3974123E+000  0.1737366E+03  0.7546771E-02  0.1174006E+00
         21   -1    0    0  501  502  0.00000000000E+00  0.00000000000E+00  0.12207951297E+04  0.12207951297E+04  0.00000000000E+00 0. -1.
         21   -1    0    0  502  503 -0.00000000000E+00 -0.00000000000E+00 -0.24736431993E+02  0.24736431993E+02  0.00000000000E+00 0. -1.
          6    1    1    2  501    0 -0.59055130636E+01  0.14849803609E+02  0.58475313009E+03  0.61001689723E+03  0.17300000000E+03 0.  1.
         -6    1    1    2    0  503  0.59055130636E+01 -0.14849803609E+02  0.61130556762E+03  0.63551466447E+03  0.17300000000E+03 0.  1.
<mgrwt>
<rscale>  2 0.17373656E+03</rscale>
<asrwt>0</asrwt>
<pdfrwt beam="1">  1       21 0.18781459E+00 0.17373656E+03</pdfrwt>
<pdfrwt beam="2">  1       21 0.38056059E-02 0.17373656E+03</pdfrwt>
<totfact> 0.69466148E+04</totfact>
</mgrwt>
</event>
<event>
 4    1  0.3974123E+000  0.2051186E+03  0.7546771E-02  0.1145491E+00
         21   -1    0    0  501  502  0.00000000000E+00  0.00000000000E+00  0.18672923598E+03  0.18672923598E+03  0.00000000000E+00 0.  1.
         21   -1    0    0  502  503 -0.00000000000E+00 -0.00000000000E+00 -0.28227620069E+03  0.28227620069E+03  0.00000000000E+00 0.  1.
          6    1    1    2  501    0 -0.10750555275E+03  0.24231916341E+02  0.57564592221E+02  0.21304298139E+03  0.17300000000E+03 0.  1.
         -6    1    1    2    0  503  0.10750555275E+03 -0.24231916341E+02 -0.15311155693E+03  0.25596245527E+03  0.17300000000E+03 0.  1.
<mgrwt>
<rscale>  2 0.20511857E+03</rscale>
<asrwt>0</asrwt>
<pdfrwt beam="1">  1       21 0.28727575E-01 0.20511857E+03</pdfrwt>
<pdfrwt beam="2">  1       21 0.43427108E-01 0.20511857E+03</pdfrwt>
<totfact> 0.58745576E+04</totfact>
</mgrwt>
</event>
<event>
 4    1  0.3974123E+000  0.1978593E+03  0.7546771E-02  0.1151558E+00
         21   -1    0    0  503  502  0.00000000000E+00  0.00000000000E+00  0.11850856534E+04  0.11850856534E+04  0.00000000000E+00 0.  1.
         21   -1    0    0  501  503 -0.00000000000E+00 -0.00000000000E+00 -0.33693747945E+02  0.33693747945E+02  0.00000000000E+00 0.  1.
          6    1    1    2  501    0  0.50904151517E+02 -0.81412953177E+02  0.49043329073E+03  0.52884129400E+03  0.17300000000E+03 0.  1.
         -6    1    1    2    0  502 -0.50904151517E+02  0.81412953177E+02  0.66095861477E+03  0.68993810739E+03  0.17300000000E+03 0.  1.
<mgrwt>
<rscale>  2 0.19785930E+03</rscale>
<asrwt>0</asrwt>
<pdfrwt beam="1">  1       21 0.18232084E+00 0.19785930E+03</pdfrwt>
<pdfrwt beam="2">  1       21 0.51836544E-02 0.19785930E+03</pdfrwt>
<totfact> 0.44254346E+04</totfact>
</mgrwt>
</event>
<event>
 4    1  0.3974123E+000  0.2708741E+03  0.7546771E-02  0.1100780E+00
         21   -1    0    0  501  502  0.00000000000E+00  0.00000000000E+00  0.11647773389E+03  0.11647773389E+03  0.00000000000E+00 0.  1.
         21   -1    0    0  502  503 -0.00000000000E+00 -0.00000000000E+00 -0.63193949982E+03  0.63193949982E+03  0.00000000000E+00 0.  1.
          6    1    1    2  501    0  0.74300157481E+02  0.19473889755E+03 -0.23662602499E+03  0.35967294494E+03  0.17300000000E+03 0.  1.
         -6    1    1    2    0  503 -0.74300157481E+02 -0.19473889755E+03 -0.27883574093E+03  0.38874428876E+03  0.17300000000E+03 0.  1.
<mgrwt>
<rscale>  2 0.27087405E+03</rscale>
<asrwt>0</asrwt>
<pdfrwt beam="1">  1       21 0.17919651E-01 0.27087405E+03</pdfrwt>
<pdfrwt beam="2">  1       21 0.97221462E-01 0.27087405E+03</pdfrwt>
<totfact> 0.23848176E+04</totfact>
</mgrwt>
</event>
<event>
 4    1  0.3974123E+000  0.1862430E+03  0.7546771E-02  0.1161894E+00
         21   -1    0    0  503  502  0.00000000000E+00  0.00000000000E+00  0.20437184590E+03  0.20437184590E+03  0.00000000000E+00 0. -1.
         21   -1    0    0  501  503 -0.00000000000E+00 -0.00000000000E+00 -0.25413383521E+03  0.25413383521E+03  0.00000000000E+00 0. -1.
          6    1    1    2  501    0  0.18336586780E+02  0.66492198947E+02 -0.15700587020E+03  0.24359245927E+03  0.17300000000E+03 0. -1.
         -6    1    1    2    0  502 -0.18336586780E+02 -0.66492198947E+02  0.10724388088E+03  0.21491322184E+03  0.17300000000E+03 0. -1.
<mgrwt>
<rscale>  2 0.18624297E+03</rscale>
<asrwt>0</asrwt>
<pdfrwt beam="1">  1       21 0.31441823E-01 0.18624297E+03</pdfrwt>
<pdfrwt beam="2">  1       21 0.39097513E-01 0.18624297E+03</pdfrwt>
<totfact> 0.61492897E+04</totfact>
</mgrwt>
</event>
<event>
 4    1  0.3974123E+000  0.1744340E+03  0.7546771E-02  0.1173301E+00
         21   -1    0    0  503  502  0.00000000000E+00  0.00000000000E+00  0.50684940382E+03  0.50684940382E+03  0.00000000000E+00 0. -1.
         21   -1    0    0  501  503 -0.00000000000E+00 -0.00000000000E+00 -0.64031449197E+02  0.64031449197E+02  0.00000000000E+00 0. -1.
          6    1    1    2  501    0  0.21161915414E+02 -0.70977095035E+01  0.15007167414E+03  0.23010587025E+03  0.17300000000E+03 0. -1.
         -6    1    1    2    0  502 -0.21161915414E+02  0.70977095035E+01  0.29274628048E+03  0.34077498276E+03  0.17300000000E+03 0. -1.
<mgrwt>
<rscale>  2 0.17443395E+03</rscale>
<asrwt>0</asrwt>
<pdfrwt beam="1">  1       21 0.77976829E-01 0.17443395E+03</pdfrwt>
<pdfrwt beam="2">  1       21 0.98509925E-02 0.17443395E+03</pdfrwt>
<totfact> 0.12223801E+05</totfact>
</mgrwt>
</event>
<event>
 4    1  0.3974123E+000  0.1899894E+03  0.7546771E-02  0.1158471E+00
         21   -1    0    0  501  502  0.00000000000E+00  0.00000000000E+00  0.43520512279E+02  0.43520512279E+02  0.00000000000E+00 0. -1.
         21   -1    0    0  502  503 -0.00000000000E+00 -0.00000000000E+00 -0.11868744048E+04  0.11868744048E+04  0.00000000000E+00 0. -1.
          6    1    1    2  501    0  0.70195580226E+02 -0.35207310720E+02 -0.23405258902E+03  0.30145744084E+03  0.17300000000E+03 0. -1.
         -6    1    1    2    0  503 -0.70195580226E+02  0.35207310720E+02 -0.90930130351E+03  0.92893747625E+03  0.17300000000E+03 0. -1.
<mgrwt>
<rscale>  2 0.18998941E+03</rscale>
<asrwt>0</asrwt>
<pdfrwt beam="1">  1       21 0.66954634E-02 0.18998941E+03</pdfrwt>
<pdfrwt beam="2">  1       21 0.18259606E+00 0.18998941E+03</pdfrwt>
<totfact> 0.28591969E+04</totfact>
</mgrwt>
</event>
<event>
 4    1  0.3974123E+000  0.2230907E+03  0.7546771E-02  0.1131600E+00
         21   -1    0    0  503  502  0.00000000000E+00  0.00000000000E+00  0.52469892599E+03  0.52469892599E+03  0.00000000000E+00 0. -1.
         21   -1    0    0  501  503 -0.00000000000E+00 -0.00000000000E+00 -0.12289012563E+03  0.12289012563E+03  0.00000000000E+00 0.  1.
          6    1    1    2  501    0 -0.13026096225E+03  0.53596096047E+02  0.46245502885E+02  0.22783350573E+03  0.17300000000E+03 0.  1.
         -6    1    1    2    0  502  0.13026096225E+03 -0.53596096047E+02  0.35556329747E+03  0.41975554589E+03  0.17300000000E+03 0. -1.
<mgrwt>
<rscale>  2 0.22309070E+03</rscale>
<asrwt>0</asrwt>
<pdfrwt beam="1">  1       21 0.80722910E-01 0.22309070E+03</pdfrwt>
<pdfrwt beam="2">  1       21 0.18906173E-01 0.22309070E+03</pdfrwt>
<totfact> 0.33995530E+04</totfact>
</mgrwt>
</event>
<event>
 4    1  0.3974123E+000  0.2378877E+03  0.7546771E-02  0.1121208E+00
         21   -1    0    0  501  502  0.00000000000E+00  0.00000000000E+00  0.53996175379E+02  0.53996175379E+02  0.00000000000E+00 0.  1.
         21   -1    0    0  502  503 -0.00000000000E+00 -0.00000000000E+00 -0.16900433138E+04  0.16900433138E+04  0.00000000000E+00 0.  1.
          6    1    1    2  501    0  0.57250746435E+02  0.15291797804E+03 -0.28056684225E+03  0.36784277748E+03  0.17300000000E+03 0.  1.
         -6    1    1    2    0  503 -0.57250746435E+02 -0.15291797804E+03 -0.13554802962E+04  0.13761967117E+04  0.17300000000E+03 0.  1.
<mgrwt>
<rscale>  2 0.23788770E+03</rscale>
<asrwt>0</asrwt>
<pdfrwt beam="1">  1       21 0.83071053E-02 0.23788770E+03</pdfrwt>
<pdfrwt beam="2">  1       21 0.26000662E+00 0.23788770E+03</pdfrwt>
<totfact> 0.62556256E+03</totfact>
</mgrwt>
</event>
<event>
 4    1  0.3974123E+000  0.2279566E+03  0.7546771E-02  0.1128086E+00
         21   -1    0    0  501  502  0.00000000000E+00  0.00000000000E+00  0.59923761181E+03  0.59923761181E+03  0.00000000000E+00 0. -1.
         21   -1    0    0  502  503 -0.00000000000E+00 -0.00000000000E+00 -0.97169532498E+02  0.97169532498E+02  0.00000000000E+00 0.  1.
          6    1    1    2  501    0 -0.60869260275E+02 -0.13538886011E+03  0.36523629705E+03  0.43053659888E+03  0.17300000000E+03 0.  1.
         -6    1    1    2    0  503  0.60869260275E+02  0.13538886011E+03  0.13683178225E+03  0.26587054542E+03  0.17300000000E+03 0.  1.
<mgrwt>
<rscale>  2 0.22795660E+03</rscale>
<asrwt>0</asrwt>
<pdfrwt beam="1">  1       21 0.92190400E-01 0.22795660E+03</pdfrwt>
<pdfrwt beam="2">  1       21 0.14949159E-01 0.22795660E+03</pdfrwt>
<totfact> 0.38512663E+04</totfact>
</mgrwt>
</event>
<event>
 4    1  0.3974123E+000  0.2056794E+03  0.7546771E-02  0.1145034E+00
         21   -1    0    0  501  502  0.00000000000E+00  0.00000000000E+00  0.41292971381E+02  0.41292971381E+02  0.00000000000E+00 0. -1.
         21   -1    0    0  502  503 -0.00000000000E+00 -0.00000000000E+00 -0.10274838232E+04  0.10274838232E+04  0.00000000000E+00 0. -1.
          6    1    1    2  501    0  0.78831784360E+02 -0.78489182657E+02 -0.46422231115E+03  0.50774635024E+03  0.17300000000E+03 0. -1.
         -6    1    1    2    0  503 -0.78831784360E+02  0.78489182657E+02 -0.52196854066E+03  0.56103044432E+03  0.17300000000E+03 0. -1.
<mgrwt>
<rscale>  2 0.20567937E+03</rscale>
<asrwt>0</asrwt>
<pdfrwt beam="1">  1       21 0.63527648E-02 0.20567937E+03</pdfrwt>
<pdfrwt beam="2">  1       21 0.15807444E+00 0.20567937E+03</pdfrwt>
<totfact> 0.46134212E+04</totfact>
</mgrwt>
</event>
<event>
 4    1  0.3974123E+000  0.1888048E+03  0.7546771E-02  0.1159544E+00
         21   -1    0    0  503  502  0.00000000000E+00  0.00000000000E+00  0.14213408100E+03  0.14213408100E+03  0.00000000000E+00 0.  1.
         21   -1    0    0  501  503 -0.00000000000E+00 -0.00000000000E+00 -0.29269842229E+03  0.29269842229E+03  0.00000000000E+00 0.  1.
          6    1    1    2  501    0  0.46142463440E+02 -0.59909389400E+02 -0.15754040728E+03  0.24589884465E+03  0.17300000000E+03 0.  1.
         -6    1    1    2    0  502 -0.46142463440E+02  0.59909389400E+02  0.69760659983E+01  0.18893365864E+03  0.17300000000E+03 0.  1.
<mgrwt>
<rscale>  2 0.18880482E+03</rscale>
<asrwt>0</asrwt>
<pdfrwt beam="1">  1       21 0.21866782E-01 0.18880482E+03</pdfrwt>
<pdfrwt beam="2">  1       21 0.45030526E-01 0.18880482E+03</pdfrwt>
<totfact> 0.92533795E+04</totfact>
</mgrwt>
</event>
<event>
 4    1  0.3974123E+000  0.1897506E+03  0.7546771E-02  0.1158686E+00
         21   -1    0    0  503  502  0.00000000000E+00  0.00000000000E+00  0.15552828856E+03  0.15552828856E+03  0.00000000000E+00 0.  1.
         21   -1    0    0  501  503 -0.00000000000E+00 -0.00000000000E+00 -0.39447885768E+03  0.39447885768E+03  0.00000000000E+00 0. -1.
          6    1    1    2  501    0 -0.62387084646E+02  0.46734906290E+02 -0.29623683959E+03  0.35179761927E+03  0.17300000000E+03 0. -1.
         -6    1    1    2    0  502  0.62387084646E+02 -0.46734906290E+02  0.57286270468E+02  0.19820952697E+03  0.17300000000E+03 0.  1.
<mgrwt>
<rscale>  2 0.18975063E+03</rscale>
<asrwt>0</asrwt>
<pdfrwt beam="1">  1       21 0.23927429E-01 0.18975063E+03</pdfrwt>
<pdfrwt beam="2">  1       21 0.60689055E-01 0.18975063E+03</pdfrwt>
<totfact> 0.41693860E+04</totfact>
</mgrwt>
</event>
<event>
 4    1  0.3974123E+000  0.2371107E+03  0.7546771E-02  0.1121733E+00
         21   -1    0    0  503  502  0.00000000000E+00  0.00000000000E+00  0.32684688741E+03  0.32684688741E+03  0.00000000000E+00 0. -1.
         21   -1    0    0  501  503 -0.00000000000E+00 -0.00000000000E+00 -0.27299843925E+03  0.27299843925E+03  0.00000000000E+00 0.  1.
          6    1    1    2  501    0  0.79032737558E+02 -0.14158491926E+03 -0.15549119542E+03  0.28354712980E+03  0.17300000000E+03 0.  1.
         -6    1    1    2    0  502 -0.79032737558E+02  0.14158491926E+03  0.20933964358E+03  0.31629819687E+03  0.17300000000E+03 0. -1.
<mgrwt>
<rscale>  2 0.23711066E+03</rscale>
<asrwt>0</asrwt>
<pdfrwt beam="1">  1       21 0.50284136E-01 0.23711066E+03</pdfrwt>
<pdfrwt beam="2">  1       21 0.41999760E-01 0.23711066E+03</pdfrwt>
<totfact> 0.20040570E+04</totfact>
</mgrwt>
</event>
<event>
 4    1  0.3974123E+000  0.1837587E+03  0.7546771E-02  0.1164214E+00
         21   -1    0    0  503  502  0.00000000000E+00  0.00000000000E+00  0.18614799025E+03  0.18614799025E+03  0.00000000000E+00 0. -1.
         21   -1    0    0  501  503 -0.00000000000E+00 -0.00000000000E+00 -0.26698140565E+03  0.26698140565E+03  0.00000000000E+00 0. -1.
          6    1    1    2  501    0 -0.61888105444E+02 -0.28513418745E+01 -0.16869144600E+03  0.24944753296E+03  0.17300000000E+03 0. -1.
         -6    1    1    2    0  502  0.61888105444E+02  0.28513418745E+01  0.87858030603E+02  0.20368186293E+03  0.17300000000E+03 0. -1.
<mgrwt>
<rscale>  2 0.18375872E+03</rscale>
<asrwt>0</asrwt>
<pdfrwt beam="1">  1       21 0.28638152E-01 0.18375872E+03</pdfrwt>
<pdfrwt beam="2">  1       21 0.41074062E-01 0.18375872E+03</pdfrwt>
<totfact> 0.66839328E+04</totfact>
</mgrwt>
</event>
<event>
 4    1  0.3974123E+000  0.1896266E+03  0.7546771E-02  0.1158799E+00
         21   -1    0    0  503  502  0.00000000000E+00  0.00000000000E+00  0.13099317877E+04  0.13099317877E+04  0.00000000000E+00 0.  1.
         21   -1    0    0  501  503 -0.00000000000E+00 -0.00000000000E+00 -0.34922572479E+02  0.34922572479E+02  0.00000000000E+00 0.  1.
          6    1    1    2  501    0  0.75813500813E+02 -0.16779334791E+02  0.32646636937E+03  0.37754274369E+03  0.17300000000E+03 0.  1.
         -6    1    1    2    0  502 -0.75813500813E+02  0.16779334791E+02  0.94854284580E+03  0.96731161644E+03  0.17300000000E+03 0.  1.
<mgrwt>
<rscale>  2 0.18962656E+03</rscale>
<asrwt>0</asrwt>
<pdfrwt beam="1">  1       21 0.20152793E+00 0.18962656E+03</pdfrwt>
<pdfrwt beam="2">  1       21 0.53727045E-02 0.18962656E+03</pdfrwt>
<totfact> 0.31320364E+04</totfact>
</mgrwt>
</event>
<event>
 4    1  0.3974123E+000  0.1830439E+03  0.7546771E-02  0.1164889E+00
         21   -1    0    0  503  502  0.00000000000E+00  0.00000000000E+00  0.93266238816E+02  0.93266238816E+02  0.00000000000E+00 0. -1.
         21   -1    0    0  501  503 -0.00000000000E+00 -0.00000000000E+00 -0.52655456813E+03  0.52655456813E+03  0.00000000000E+00 0. -1.
          6    1    1    2  501    0  0.42254592216E+02 -0.42315530227E+02 -0.39133900360E+03  0.43203156181E+03  0.17300000000E+03 0. -1.
         -6    1    1    2    0  502 -0.42254592216E+02  0.42315530227E+02 -0.41949325718E+02  0.18778924514E+03  0.17300000000E+03 0. -1.
<mgrwt>
<rscale>  2 0.18304386E+03</rscale>
<asrwt>0</asrwt>
<pdfrwt beam="1">  1       21 0.14348652E-01 0.18304386E+03</pdfrwt>
<pdfrwt beam="2">  1       21 0.81008396E-01 0.18304386E+03</pdfrwt>
<totfact> 0.57107072E+04</totfact>
</mgrwt>
</event>
<event>
 4    1  0.3974123E+000  0.1796398E+03  0.7546771E-02  0.1168152E+00
         21   -1    0    0  503  502  0.00000000000E+00  0.00000000000E+00  0.77616521664E+02  0.77616521664E+02  0.00000000000E+00 0.  1.
         21   -1    0    0  501  503 -0.00000000000E+00 -0.00000000000E+00 -0.51387430209E+03  0.51387430209E+03  0.00000000000E+00 0.  1.
          6    1    1    2  501    0  0.48346370821E+02  0.20249046139E+01 -0.34735130506E+03  0.39105421739E+03  0.17300000000E+03 0.  1.
         -6    1    1    2    0  502 -0.48346370821E+02 -0.20249046139E+01 -0.88906475369E+02  0.20043660637E+03  0.17300000000E+03 0.  1.
<mgrwt>
<rscale>  2 0.17963984E+03</rscale>
<asrwt>0</asrwt>
<pdfrwt beam="1">  1       21 0.11941003E-01 0.17963984E+03</pdfrwt>
<pdfrwt beam="2">  1       21 0.79057585E-01 0.17963984E+03</pdfrwt>
<totfact> 0.84084971E+04</totfact>
</mgrwt>
</event>
<event>
 4    1  0.3974123E+000  0.2287714E+03  0.7546771E-02  0.1127507E+00
         21   -1    0    0  503  502  0.00000000000E+00  0.00000000000E+00  0.29765775920E+03  0.29765775920E+03  0.00000000000E+00 0. -1.
         21   -1    0    0  501  503 -0.00000000000E+00 -0.00000000000E+00 -0.22145399213E+03  0.22145399213E+03  0.00000000000E+00 0.  1.
          6    1    1    2  501    0  0.14405716052E+03  0.40680388964E+02 -0.79712579760E+02  0.24226112960E+03  0.17300000000E+03 0.  1.
         -6    1    1    2    0  502 -0.14405716052E+03 -0.40680388964E+02  0.15591634683E+03  0.27685062173E+03  0.17300000000E+03 0. -1.
<mgrwt>
<rscale>  2 0.22877141E+03</rscale>
<asrwt>0</asrwt>
<pdfrwt beam="1">  1       21 0.45793502E-01 0.22877141E+03</pdfrwt>
<pdfrwt beam="2">  1       21 0.34069845E-01 0.22877141E+03</pdfrwt>
<totfact> 0.37268444E+04</totfact>
</mgrwt>
</event>
<event>
 4    1  0.3974123E+000  0.2241894E+03  0.7546771E-02  0.1130798E+00
         21   -1    0    0  503  502  0.00000000000E+00  0.00000000000E+00  0.56460488722E+03  0.56460488722E+03  0.00000000000E+00 0.  1.
         21   -1    0    0  501  503 -0.00000000000E+00 -0.00000000000E+00 -0.96464740183E+02  0.96464740183E+02  0.00000000000E+00 0.  1.
          6    1    1    2  501    0  0.44286460935E+02 -0.13553819043E+03  0.14224319087E+03  0.26550709414E+03  0.17300000000E+03 0.  1.
         -6    1    1    2    0  502 -0.44286460935E+02  0.13553819043E+03  0.32589695616E+03  0.39556253326E+03  0.17300000000E+03 0.  1.
<mgrwt>
<rscale>  2 0.22418941E+03</rscale>
<asrwt>0</asrwt>
<pdfrwt beam="1">  1       21 0.86862288E-01 0.22418941E+03</pdfrwt>
<pdfrwt beam="2">  1       21 0.14840730E-01 0.22418941E+03</pdfrwt>
<totfact> 0.44894904E+04</totfact>
</mgrwt>
</event>
<event>
 4    1  0.3974123E+000  0.1814252E+03  0.7546771E-02  0.1166431E+00
         21   -1    0    0  503  502  0.00000000000E+00  0.00000000000E+00  0.58189382229E+03  0.58189382229E+03  0.00000000000E+00 0. -1.
         21   -1    0    0  501  503 -0.00000000000E+00 -0.00000000000E+00 -0.82181898554E+02  0.82181898554E+02  0.00000000000E+00 0. -1.
          6    1    1    2  501    0  0.54143133338E+02  0.73899440736E+01  0.64477651526E+02  0.19254209334E+03  0.17300000000E+03 0. -1.
         -6    1    1    2    0  502 -0.54143133338E+02 -0.73899440736E+01  0.43523427221E+03  0.47153362750E+03  0.17300000000E+03 0. -1.
<mgrwt>
<rscale>  2 0.18142516E+03</rscale>
<asrwt>0</asrwt>
<pdfrwt beam="1">  1       21 0.89522124E-01 0.18142516E+03</pdfrwt>
<pdfrwt beam="2">  1       21 0.12643369E-01 0.18142516E+03</pdfrwt>
<totfact> 0.57138794E+04</totfact>
</mgrwt>
</event>
<event>
 4    1  0.3974123E+000  0.1931362E+03  0.7546771E-02  0.1155663E+00
         21   -1    0    0  503  502  0.00000000000E+00  0.00000000000E+00  0.11653095190E+03  0.11653095190E+03  0.00000000000E+00 0.  1.
         21   -1    0    0  501  503 -0.00000000000E+00 -0.00000000000E+00 -0.49901060015E+03  0.49901060015E+03  0.00000000000E+00 0.  1.
          6    1    1    2  501    0  0.43645318077E+02 -0.73943869145E+02 -0.37552482541E+03  0.42228012513E+03  0.17300000000E+03 0.  1.
         -6    1    1    2    0  502 -0.43645318077E+02  0.73943869145E+02 -0.69548228358E+01  0.19326142692E+03  0.17300000000E+03 0.  1.
<mgrwt>
<rscale>  2 0.19313625E+03</rscale>
<asrwt>0</asrwt>
<pdfrwt beam="1">  1       21 0.17927839E-01 0.19313625E+03</pdfrwt>
<pdfrwt beam="2">  1       21 0.76770860E-01 0.19313625E+03</pdfrwt>
<totfact> 0.42675387E+04</totfact>
</mgrwt>
</event>
<event>
 4    1  0.3974123E+000  0.1853254E+03  0.7546771E-02  0.1162746E+00
         21   -1    0    0  501  502  0.00000000000E+00  0.00000000000E+00  0.10738753278E+03  0.10738753278E+03  0.00000000000E+00 0.  1.
         21   -1    0    0  502  503 -0.00000000000E+00 -0.00000000000E+00 -0.44166828092E+03  0.44166828092E+03  0.00000000000E+00 0.  1.
          6    1    1    2  501    0  0.10150599721E+01 -0.66448933985E+02 -0.22950538438E+02  0.18674104634E+03  0.17300000000E+03 0.  1.
         -6    1    1    2    0  503 -0.10150599721E+01  0.66448933985E+02 -0.31133020971E+03  0.36231476736E+03  0.17300000000E+03 0.  1.
<mgrwt>
<rscale>  2 0.18532537E+03</rscale>
<asrwt>0</asrwt>
<pdfrwt beam="1">  1       21 0.16521159E-01 0.18532537E+03</pdfrwt>
<pdfrwt beam="2">  1       21 0.67948966E-01 0.18532537E+03</pdfrwt>
<totfact> 0.65248352E+04</totfact>
</mgrwt>
</event>
<event>
 4    1  0.3974123E+000  0.2208534E+03  0.7546771E-02  0.1133248E+00
         21   -1    0    0  503  502  0.00000000000E+00  0.00000000000E+00  0.36975513356E+03  0.36975513356E+03  0.00000000000E+00 0.  1.
         21   -1    0    0  501  503 -0.00000000000E+00 -0.00000000000E+00 -0.14563893300E+03  0.14563893300E+03  0.00000000000E+00 0.  1.
          6    1    1    2  501    0  0.49446316851E+02  0.12807148318E+03  0.32951959126E+02  0.22329817434E+03  0.17300000000E+03 0.  1.
         -6    1    1    2    0  502 -0.49446316851E+02 -0.12807148318E+03  0.19116424143E+03  0.29209589223E+03  0.17300000000E+03 0.  1.
<mgrwt>
<rscale>  2 0.22085344E+03</rscale>
<asrwt>0</asrwt>
<pdfrwt beam="1">  1       21 0.56885405E-01 0.22085344E+03</pdfrwt>
<pdfrwt beam="2">  1       21 0.22405990E-01 0.22085344E+03</pdfrwt>
<totfact> 0.53445236E+04</totfact>
</mgrwt>
</event>
<event>
 4    1  0.3974123E+000  0.1739790E+03  0.7546771E-02  0.1173761E+00
         21   -1    0    0  503  502  0.00000000000E+00  0.00000000000E+00  0.67962748400E+02  0.67962748400E+02  0.00000000000E+00 0.  1.
         21   -1    0    0  501  503 -0.00000000000E+00 -0.00000000000E+00 -0.55256016089E+03  0.55256016089E+03  0.00000000000E+00 0.  1.
          6    1    1    2  501    0 -0.15564827268E+01  0.18364433947E+02 -0.37894955919E+03  0.41697894849E+03  0.17300000000E+03 0.  1.
         -6    1    1    2    0  502  0.15564827268E+01 -0.18364433947E+02 -0.10564785330E+03  0.20354396081E+03  0.17300000000E+03 0.  1.
<mgrwt>
<rscale>  2 0.17397895E+03</rscale>
<asrwt>0</asrwt>
<pdfrwt beam="1">  1       21 0.10455808E-01 0.17397895E+03</pdfrwt>
<pdfrwt beam="2">  1       21 0.85009253E-01 0.17397895E+03</pdfrwt>
<totfact> 0.90536745E+04</totfact>
</mgrwt>
</event>
<event>
 4    1  0.3974123E+000  0.2060474E+03  0.7546771E-02  0.1144735E+00
         21   -1    0    0  503  502  0.00000000000E+00  0.00000000000E+00  0.16461415555E+03  0.16461415555E+03  0.00000000000E+00 0. -1.
         21   -1    0    0  501  503 -0.00000000000E+00 -0.00000000000E+00 -0.25923206870E+03  0.25923206870E+03  0.00000000000E+00 0. -1.
          6    1    1    2  501    0  0.18632795759E+02  0.11036008939E+03 -0.62446909710E+02  0.21530245456E+03  0.17300000000E+03 0. -1.
         -6    1    1    2    0  502 -0.18632795759E+02 -0.11036008939E+03 -0.32171003441E+02  0.20854376968E+03  0.17300000000E+03 0. -1.
<mgrwt>
<rscale>  2 0.20604740E+03</rscale>
<asrwt>0</asrwt>
<pdfrwt beam="1">  1       21 0.25325255E-01 0.20604740E+03</pdfrwt>
<pdfrwt beam="2">  1       21 0.39881856E-01 0.20604740E+03</pdfrwt>
<totfact> 0.89047360E+04</totfact>
</mgrwt>
</event>
<event>
 4    1  0.3974123E+000  0.3272881E+03  0.7546771E-02  0.1072343E+00
         21   -1    0    0  501  502  0.00000000000E+00  0.00000000000E+00  0.14646520128E+03  0.14646520128E+03  0.00000000000E+00 0.  1.
         21   -1    0    0  502  503 -0.00000000000E+00 -0.00000000000E+00 -0.73182551112E+03  0.73182551112E+03  0.00000000000E+00 0. -1.
          6    1    1    2  501    0 -0.21874095343E+03  0.17129193757E+03 -0.28150286422E+03  0.43169595221E+03  0.17300000000E+03 0. -1.
         -6    1    1    2    0  503  0.21874095343E+03 -0.17129193757E+03 -0.30385744561E+03  0.44659476020E+03  0.17300000000E+03 0.  1.
<mgrwt>
<rscale>  2 0.32728815E+03</rscale>
<asrwt>0</asrwt>
<pdfrwt beam="1">  1       21 0.22533108E-01 0.32728815E+03</pdfrwt>
<pdfrwt beam="2">  1       21 0.11258854E+00 0.32728815E+03</pdfrwt>
<totfact> 0.10575513E+04</totfact>
</mgrwt>
</event>
<event>
 4    1  0.3974123E+000  0.2043260E+03  0.7546771E-02  0.1146140E+00
         21   -1    0    0  503  502  0.00000000000E+00  0.00000000000E+00  0.12315942612E+03  0.12315942612E+03  0.00000000000E+00 0. -1.
         21   -1    0    0  501  503 -0.00000000000E+00 -0.00000000000E+00 -0.34509402850E+03  0.34509402850E+03  0.00000000000E+00 0. -1.
          6    1    1    2  501    0 -0.96441416831E+02 -0.50191384425E+02 -0.79814987046E+02  0.21936169699E+03  0.17300000000E+03 0. -1.
         -6    1    1    2    0  502  0.96441416831E+02  0.50191384425E+02 -0.14211961533E+03  0.24889175762E+03  0.17300000000E+03 0. -1.
<mgrwt>
<rscale>  2 0.20432602E+03</rscale>
<asrwt>0</asrwt>
<pdfrwt beam="1">  1       21 0.18947604E-01 0.20432602E+03</pdfrwt>
<pdfrwt beam="2">  1       21 0.53091389E-01 0.20432602E+03</pdfrwt>
<totfact> 0.85365536E+04</totfact>
</mgrwt>
</event>
<event>
 4    1  0.3974123E+000  0.1880918E+03  0.7546771E-02  0.1160194E+00
         21   -1    0    0  501  502  0.00000000000E+00  0.00000000000E+00  0.10267931790E+03  0.10267931790E+03  0.00000000000E+00 0.  1.
         21   -1    0    0  502  503 -0.00000000000E+00 -0.00000000000E+00 -0.49500854378E+03  0.49500854378E+03  0.00000000000E+00 0.  1.
          6    1    1    2  501    0 -0.80465412468E+01  0.73381004230E+02 -0.31408527372E+02  0.19069613053E+03  0.17300000000E+03 0.  1.
         -6    1    1    2    0  503  0.80465412468E+01 -0.73381004230E+02 -0.36092069851E+03  0.40699173114E+03  0.17300000000E+03 0.  1.
<mgrwt>
<rscale>  2 0.18809178E+03</rscale>
<asrwt>0</asrwt>
<pdfrwt beam="1">  1       21 0.15796818E-01 0.18809178E+03</pdfrwt>
<pdfrwt beam="2">  1       21 0.76155162E-01 0.18809178E+03</pdfrwt>
<totfact> 0.54959769E+04</totfact>
</mgrwt>
</event>
<event>
 4    1  0.3974123E+000  0.2012886E+03  0.7546771E-02  0.1148656E+00
         21   -1    0    0  503  502  0.00000000000E+00  0.00000000000E+00  0.36253586295E+03  0.36253586295E+03  0.00000000000E+00 0. -1.
         21   -1    0    0  501  503 -0.00000000000E+00 -0.00000000000E+00 -0.21274065042E+03  0.21274065042E+03  0.00000000000E+00 0. -1.
          6    1    1    2  501    0  0.59018028380E+02 -0.84291090052E+02 -0.12327327962E+03  0.23603689755E+03  0.17300000000E+03 0. -1.
         -6    1    1    2    0  502 -0.59018028380E+02  0.84291090052E+02  0.27306849215E+03  0.33923961582E+03  0.17300000000E+03 0. -1.
<mgrwt>
<rscale>  2 0.20128864E+03</rscale>
<asrwt>0</asrwt>
<pdfrwt beam="1">  1       21 0.55774748E-01 0.20128864E+03</pdfrwt>
<pdfrwt beam="2">  1       21 0.32729331E-01 0.20128864E+03</pdfrwt>
<totfact> 0.27075784E+04</totfact>
</mgrwt>
</event>
<event>
 4    1  0.3974123E+000  0.2433645E+03  0.7546771E-02  0.1117572E+00
         21   -1    0    0  501  502  0.00000000000E+00  0.00000000000E+00  0.50494014543E+03  0.50494014543E+03  0.00000000000E+00 0.  1.
         21   -1    0    0  502  503 -0.00000000000E+00 -0.00000000000E+00 -0.11816758426E+03  0.11816758426E+03  0.00000000000E+00 0. -1.
          6    1    1    2  501    0 -0.17093233769E+03 -0.89117672152E+01  0.16659349010E+03  0.29492316729E+03  0.17300000000E+03 0. -1.
         -6    1    1    2    0  503  0.17093233769E+03  0.89117672152E+01  0.22017907107E+03  0.32818456240E+03  0.17300000000E+03 0.  1.
<mgrwt>
<rscale>  2 0.24336451E+03</rscale>
<asrwt>0</asrwt>
<pdfrwt beam="1">  1       21 0.77683098E-01 0.24336451E+03</pdfrwt>
<pdfrwt beam="2">  1       21 0.18179629E-01 0.24336451E+03</pdfrwt>
<totfact> 0.39521603E+04</totfact>
</mgrwt>
</event>
<event>
 4    1  0.3974123E+000  0.2557741E+03  0.7546771E-02  0.1109709E+00
         21   -1    0    0  503  502  0.00000000000E+00  0.00000000000E+00  0.29878970891E+03  0.29878970891E+03  0.00000000000E+00 0.  1.
         21   -1    0    0  501  503 -0.00000000000E+00 -0.00000000000E+00 -0.43535225635E+03  0.43535225635E+03  0.00000000000E+00 0.  1.
          6    1    1    2  501    0  0.15843614316E+03  0.10192824408E+03 -0.32707831018E+03  0.41521151163E+03  0.17300000000E+03 0.  1.
         -6    1    1    2    0  502 -0.15843614316E+03 -0.10192824408E+03  0.19051576273E+03  0.31893045363E+03  0.17300000000E+03 0.  1.
<mgrwt>
<rscale>  2 0.25577408E+03</rscale>
<asrwt>0</asrwt>
<pdfrwt beam="1">  1       21 0.45967648E-01 0.25577408E+03</pdfrwt>
<pdfrwt beam="2">  1       21 0.66977270E-01 0.25577408E+03</pdfrwt>
<totfact> 0.88995952E+03</totfact>
</mgrwt>
</event>
<event>
 4    1  0.3974123E+000  0.2940536E+03  0.7546771E-02  0.1088252E+00
         21   -1    0    0  501  502  0.00000000000E+00  0.00000000000E+00  0.59890187810E+03  0.59890187810E+03  0.00000000000E+00 0. -1.
         21   -1    0    0  502  503 -0.00000000000E+00 -0.00000000000E+00 -0.19362044200E+03  0.19362044200E+03  0.00000000000E+00 0. -1.
          6    1    1    2  501    0  0.19264213679E+03  0.13938264701E+03  0.40248013047E+03  0.49845538474E+03  0.17300000000E+03 0. -1.
         -6    1    1    2    0  503 -0.19264213679E+03 -0.13938264701E+03  0.28013056320E+01  0.29406693536E+03  0.17300000000E+03 0. -1.
<mgrwt>
<rscale>  2 0.29405359E+03</rscale>
<asrwt>0</asrwt>
<pdfrwt beam="1">  1       21 0.92138749E-01 0.29405359E+03</pdfrwt>
<pdfrwt beam="2">  1       21 0.29787761E-01 0.29405359E+03</pdfrwt>
<totfact> 0.10138107E+04</totfact>
</mgrwt>
</event>
<event>
 4    1  0.3974123E+000  0.1743060E+03  0.7546771E-02  0.1173430E+00
         21   -1    0    0  503  502  0.00000000000E+00  0.00000000000E+00  0.35859611521E+03  0.35859611521E+03  0.00000000000E+00 0.  1.
         21   -1    0    0  501  503 -0.00000000000E+00 -0.00000000000E+00 -0.10207613465E+03  0.10207613465E+03  0.00000000000E+00 0.  1.
          6    1    1    2  501    0 -0.19945067133E+02  0.74688996254E+01  0.33298998813E+02  0.17745820208E+03  0.17300000000E+03 0. -1.
         -6    1    1    2    0  502  0.19945067133E+02 -0.74688996254E+01  0.22322098175E+03  0.28321404778E+03  0.17300000000E+03 0. -1.
<mgrwt>
<rscale>  2 0.17430602E+03</rscale>
<asrwt>0</asrwt>
<pdfrwt beam="1">  1       21 0.55168632E-01 0.17430602E+03</pdfrwt>
<pdfrwt beam="2">  1       21 0.15704021E-01 0.17430602E+03</pdfrwt>
<totfact> 0.11257220E+05</totfact>
</mgrwt>
</event>
<event>
 4    1  0.3974123E+000  0.2003587E+03  0.7546771E-02  0.1149437E+00
         21   -1    0    0  503  502  0.00000000000E+00  0.00000000000E+00  0.84847378484E+03  0.84847378484E+03  0.00000000000E+00 0.  1.
         21   -1    0    0  501  503 -0.00000000000E+00 -0.00000000000E+00 -0.10625572661E+03  0.10625572661E+03  0.00000000000E+00 0.  1.
          6    1    1    2  501    0 -0.15242758617E+02 -0.99911265593E+02  0.15567512294E+02  0.20096255900E+03  0.17300000000E+03 0.  1.
         -6    1    1    2    0  502  0.15242758617E+02  0.99911265593E+02  0.72665054594E+03  0.75376695244E+03  0.17300000000E+03 0.  1.
<mgrwt>
<rscale>  2 0.20035869E+03</rscale>
<asrwt>0</asrwt>
<pdfrwt beam="1">  1       21 0.13053442E+00 0.20035869E+03</pdfrwt>
<pdfrwt beam="2">  1       21 0.16347035E-01 0.20035869E+03</pdfrwt>
<totfact> 0.14265343E+04</totfact>
</mgrwt>
</event>
<event>
 4    1  0.3974123E+000  0.1896709E+03  0.7546771E-02  0.1158759E+00
         21   -1    0    0  503  502  0.00000000000E+00  0.00000000000E+00  0.21884897936E+02  0.21884897936E+02  0.00000000000E+00 0. -1.
         21   -1    0    0  501  503 -0.00000000000E+00 -0.00000000000E+00 -0.16441319189E+04  0.16441319189E+04  0.00000000000E+00 0.  1.
          6    1    1    2  501    0 -0.67097682877E+02 -0.39293116523E+02 -0.82241492722E+03  0.84400317568E+03  0.17300000000E+03 0.  1.
         -6    1    1    2    0  502  0.67097682877E+02  0.39293116523E+02 -0.79983209376E+03  0.82201364116E+03  0.17300000000E+03 0.  1.
<mgrwt>
<rscale>  2 0.18967089E+03</rscale>
<asrwt>0</asrwt>
<pdfrwt beam="1">  1       21 0.33669079E-02 0.18967089E+03</pdfrwt>
<pdfrwt beam="2">  1       21 0.25294333E+00 0.18967089E+03</pdfrwt>
<totfact> 0.33468617E+04</totfact>
</mgrwt>
</event>
<event>
 4    1  0.3974123E+000  0.3083389E+03  0.7546771E-02  0.1081145E+00
         21   -1    0    0  503  502  0.00000000000E+00  0.00000000000E+00  0.28879642261E+03  0.28879642261E+03  0.00000000000E+00 0.  1.
         21   -1    0    0  501  503 -0.00000000000E+00 -0.00000000000E+00 -0.40850053005E+03  0.40850053005E+03  0.00000000000E+00 0. -1.
          6    1    1    2  501    0  0.20559478766E+03 -0.15124379368E+03 -0.21346184154E+03  0.37501847906E+03  0.17300000000E+03 0. -1.
         -6    1    1    2    0  502 -0.20559478766E+03  0.15124379368E+03  0.93757734094E+02  0.32227847360E+03  0.17300000000E+03 0.  1.
<mgrwt>
<rscale>  2 0.30833894E+03</rscale>
<asrwt>0</asrwt>
<pdfrwt beam="1">  1       21 0.44430219E-01 0.30833894E+03</pdfrwt>
<pdfrwt beam="2">  1       21 0.62846235E-01 0.30833894E+03</pdfrwt>
<totfact> 0.10706342E+04</totfact>
</mgrwt>
</event>
<event>
 4    1  0.3974123E+000  0.2347193E+03  0.7546771E-02  0.1123361E+00
         21   -1    0    0  501  502  0.00000000000E+00  0.00000000000E+00  0.52111147029E+02  0.52111147029E+02  0.00000000000E+00 0. -1.
         21   -1    0    0  502  503 -0.00000000000E+00 -0.00000000000E+00 -0.10664573595E+04  0.10664573595E+04  0.00000000000E+00 0.  1.
          6    1    1    2  501    0  0.12848251376E+03  0.93039854475E+02 -0.55921267590E+03  0.60647505122E+03  0.17300000000E+03 0.  1.
         -6    1    1    2    0  503 -0.12848251376E+03 -0.93039854475E+02 -0.45513353659E+03  0.51209345533E+03  0.17300000000E+03 0.  1.
<mgrwt>
<rscale>  2 0.23471934E+03</rscale>
<asrwt>0</asrwt>
<pdfrwt beam="1">  1       21 0.80170997E-02 0.23471934E+03</pdfrwt>
<pdfrwt beam="2">  1       21 0.16407036E+00 0.23471934E+03</pdfrwt>
<totfact> 0.27389137E+04</totfact>
</mgrwt>
</event>
<event>
 4    1  0.3974123E+000  0.2414316E+03  0.7546771E-02  0.1118843E+00
         21   -1    0    0  503  502  0.00000000000E+00  0.00000000000E+00  0.12339204629E+03  0.12339204629E+03  0.00000000000E+00 0. -1.
         21   -1    0    0  501  503 -0.00000000000E+00 -0.00000000000E+00 -0.51154255427E+03  0.51154255427E+03  0.00000000000E+00 0.  1.
          6    1    1    2  501    0  0.79957477127E+02 -0.14821278465E+03 -0.28190376416E+03  0.37115894160E+03  0.17300000000E+03 0.  1.
         -6    1    1    2    0  502 -0.79957477127E+02  0.14821278465E+03 -0.10624674382E+03  0.26377565895E+03  0.17300000000E+03 0. -1.
<mgrwt>
<rscale>  2 0.24143162E+03</rscale>
<asrwt>0</asrwt>
<pdfrwt beam="1">  1       21 0.18983392E-01 0.24143162E+03</pdfrwt>
<pdfrwt beam="2">  1       21 0.78698854E-01 0.24143162E+03</pdfrwt>
<totfact> 0.35432319E+04</totfact>
</mgrwt>
</event>
<event>
 4    1  0.3974123E+000  0.1964752E+03  0.7546771E-02  0.1152747E+00
         21   -1    0    0  501  502  0.00000000000E+00  0.00000000000E+00  0.38878849762E+03  0.38878849762E+03  0.00000000000E+00 0.  1.
         21   -1    0    0  502  503 -0.00000000000E+00 -0.00000000000E+00 -0.16659166875E+03  0.16659166875E+03  0.00000000000E+00 0. -1.
          6    1    1    2  501    0  0.85427695709E+02  0.37089326706E+02  0.28760021579E+03  0.34830502935E+03  0.17300000000E+03 0.  1.
         -6    1    1    2    0  503 -0.85427695709E+02 -0.37089326706E+02 -0.65403386918E+02  0.20707513702E+03  0.17300000000E+03 0. -1.
<mgrwt>
<rscale>  2 0.19647521E+03</rscale>
<asrwt>0</asrwt>
<pdfrwt beam="1">  1       21 0.59813615E-01 0.19647521E+03</pdfrwt>
<pdfrwt beam="2">  1       21 0.25629488E-01 0.19647521E+03</pdfrwt>
<totfact> 0.37602221E+04</totfact>
</mgrwt>
</event>
<event>
 4    1  0.3974123E+000  0.2442649E+03  0.7546771E-02  0.1116984E+00
         21   -1    0    0  501  502  0.00000000000E+00  0.00000000000E+00  0.64035709148E+03  0.64035709148E+03  0.00000000000E+00 0. -1.
         21   -1    0    0  502  503 -0.00000000000E+00 -0.00000000000E+00 -0.10086698763E+03  0.10086698763E+03  0.00000000000E+00 0.  1.
          6    1    1    2  501    0  0.92196099568E+02 -0.14572651795E+03  0.37208880553E+03  0.44510158167E+03  0.17300000000E+03 0.  1.
         -6    1    1    2    0  503 -0.92196099568E+02  0.14572651795E+03  0.16740129832E+03  0.29612249744E+03  0.17300000000E+03 0. -1.
<mgrwt>
<rscale>  2 0.24426489E+03</rscale>
<asrwt>0</asrwt>
<pdfrwt beam="1">  1       21 0.98516473E-01 0.24426489E+03</pdfrwt>
<pdfrwt beam="2">  1       21 0.15517999E-01 0.24426489E+03</pdfrwt>
<totfact> 0.30522836E+04</totfact>
</mgrwt>
</event>
<event>
 4    1  0.3974123E+000  0.2650503E+03  0.7546771E-02  0.1104146E+00
         21   -1    0    0  503  502  0.00000000000E+00  0.00000000000E+00  0.38414152194E+03  0.38414152194E+03  0.00000000000E+00 0. -1.
         21   -1    0    0  501  503 -0.00000000000E+00 -0.00000000000E+00 -0.18400423382E+03  0.18400423382E+03  0.00000000000E+00 0. -1.
          6    1    1    2  501    0 -0.12599795324E+03  0.15635585513E+03  0.12227751962E+03  0.29189626489E+03  0.17300000000E+03 0. -1.
         -6    1    1    2    0  502  0.12599795324E+03 -0.15635585513E+03  0.77859768504E+02  0.27624949087E+03  0.17300000000E+03 0. -1.
<mgrwt>
<rscale>  2 0.26505025E+03</rscale>
<asrwt>0</asrwt>
<pdfrwt beam="1">  1       21 0.59098695E-01 0.26505025E+03</pdfrwt>
<pdfrwt beam="2">  1       21 0.28308344E-01 0.26505025E+03</pdfrwt>
<totfact> 0.30829091E+04</totfact>
</mgrwt>
</event>
<event>
 4    1  0.3974123E+000  0.2840435E+03  0.7546771E-02  0.1093501E+00
         21   -1    0    0  501  502  0.00000000000E+00  0.00000000000E+00  0.73236475333E+03  0.73236475333E+03  0.00000000000E+00 0. -1.
         21   -1    0    0  502  503 -0.00000000000E+00 -0.00000000000E+00 -0.24071970248E+03  0.24071970248E+03  0.00000000000E+00 0.  1.
          6    1    1    2  501    0  0.39173426608E+02  0.22184935054E+03  0.60413472623E+03  0.66757730573E+03  0.17300000000E+03 0. -1.
         -6    1    1    2    0  503 -0.39173426608E+02 -0.22184935054E+03 -0.11248967538E+03  0.30550715008E+03  0.17300000000E+03 0.  1.
<mgrwt>
<rscale>  2 0.28404347E+03</rscale>
<asrwt>0</asrwt>
<pdfrwt beam="1">  1       21 0.11267150E+00 0.28404347E+03</pdfrwt>
<pdfrwt beam="2">  1       21 0.37033801E-01 0.28404347E+03</pdfrwt>
<totfact> 0.40670590E+03</totfact>
</mgrwt>
</event>
<event>
 4    1  0.3974123E+000  0.1793733E+03  0.7546771E-02  0.1168411E+00
         21   -1    0    0  503  502  0.00000000000E+00  0.00000000000E+00  0.10319993065E+03  0.10319993065E+03  0.00000000000E+00 0. -1.
         21   -1    0    0  501  503 -0.00000000000E+00 -0.00000000000E+00 -0.32819982418E+03  0.32819982418E+03  0.00000000000E+00 0. -1.
          6    1    1    2  501    0  0.36717196210E+02  0.29960694235E+02 -0.16075886117E+03  0.24086968913E+03  0.17300000000E+03 0. -1.
         -6    1    1    2    0  502 -0.36717196210E+02 -0.29960694235E+02 -0.64241032363E+02  0.19053006570E+03  0.17300000000E+03 0. -1.
<mgrwt>
<rscale>  2 0.17937334E+03</rscale>
<asrwt>0</asrwt>
<pdfrwt beam="1">  1       21 0.15876912E-01 0.17937334E+03</pdfrwt>
<pdfrwt beam="2">  1       21 0.50492281E-01 0.17937334E+03</pdfrwt>
<totfact> 0.13262789E+05</totfact>
</mgrwt>
</event>
<event>
 4    1  0.3974123E+000  0.2141469E+03  0.7546771E-02  0.1138324E+00
         21   -1    0    0  501  502  0.00000000000E+00  0.00000000000E+00  0.16952497684E+04  0.16952497684E+04  0.00000000000E+00 0. -1.
         21   -1    0    0  502  503 -0.00000000000E+00 -0.00000000000E+00 -0.28013809748E+02  0.28013809748E+02  0.00000000000E+00 0.  1.
          6    1    1    2  501    0  0.68602785510E+02 -0.10594124963E+03  0.99332138339E+03  0.10161428351E+04  0.17300000000E+03 0. -1.
         -6    1    1    2    0  503 -0.68602785510E+02  0.10594124963E+03  0.67391457531E+03  0.70712074314E+03  0.17300000000E+03 0.  1.
<mgrwt>
<rscale>  2 0.21414689E+03</rscale>
<asrwt>0</asrwt>
<pdfrwt beam="1">  1       21 0.26080758E+00 0.21414689E+03</pdfrwt>
<pdfrwt beam="2">  1       21 0.43098182E-02 0.21414689E+03</pdfrwt>
<totfact> 0.19502942E+04</totfact>
</mgrwt>
</event>
<event>
 4    1  0.3974123E+000  0.1743630E+03  0.7546771E-02  0.1173373E+00
         21   -1    0    0  501  502  0.00000000000E+00  0.00000000000E+00  0.88078852926E+02  0.88078852926E+02  0.00000000000E+00 0.  1.
         21   -1    0    0  502  503 -0.00000000000E+00 -0.00000000000E+00 -0.37299759183E+03  0.37299759183E+03  0.00000000000E+00 0.  1.
          6    1    1    2  501    0  0.20018931280E+02  0.85259675892E+01 -0.79493727815E+02  0.19162907529E+03  0.17300000000E+03 0.  1.
         -6    1    1    2    0  503 -0.20018931280E+02 -0.85259675892E+01 -0.20542501109E+03  0.26944736947E+03  0.17300000000E+03 0.  1.
<mgrwt>
<rscale>  2 0.17436298E+03</rscale>
<asrwt>0</asrwt>
<pdfrwt beam="1">  1       21 0.13550593E-01 0.17436298E+03</pdfrwt>
<pdfrwt beam="2">  1       21 0.57384245E-01 0.17436298E+03</pdfrwt>
<totfact> 0.13530136E+05</totfact>
</mgrwt>
</event>
<event>
 4    1  0.3974123E+000  0.2124540E+03  0.7546771E-02  0.1139637E+00
         21   -1    0    0  501  502  0.00000000000E+00  0.00000000000E+00  0.32810827289E+02  0.32810827289E+02  0.00000000000E+00 0. -1.
         21   -1    0    0  502  503 -0.00000000000E+00 -0.00000000000E+00 -0.13775800936E+04  0.13775800936E+04  0.00000000000E+00 0.  1.
          6    1    1    2  501    0 -0.24568360237E+02  0.12084744357E+03 -0.64609173803E+03  0.68012590224E+03  0.17300000000E+03 0.  1.
         -6    1    1    2    0  503  0.24568360237E+02 -0.12084744357E+03 -0.69867752826E+03  0.73026501863E+03  0.17300000000E+03 0. -1.
<mgrwt>
<rscale>  2 0.21245402E+03</rscale>
<asrwt>0</asrwt>
<pdfrwt beam="1">  1       21 0.50478184E-02 0.21245402E+03</pdfrwt>
<pdfrwt beam="2">  1       21 0.21193545E+00 0.21245402E+03</pdfrwt>
<totfact> 0.29444121E+04</totfact>
</mgrwt>
</event>
<event>
 4    1  0.3974123E+000  0.2181704E+03  0.7546771E-02  0.1135254E+00
         21   -1    0    0  501  502  0.00000000000E+00  0.00000000000E+00  0.20959900725E+03  0.20959900725E+03  0.00000000000E+00 0. -1.
         21   -1    0    0  502  503 -0.00000000000E+00 -0.00000000000E+00 -0.27821499003E+03  0.27821499003E+03  0.00000000000E+00 0. -1.
          6    1    1    2  501    0 -0.78832745092E+02 -0.10702676719E+03  0.70246007111E+02  0.22920041908E+03  0.17300000000E+03 0. -1.
         -6    1    1    2    0  503  0.78832745092E+02  0.10702676719E+03 -0.13886198989E+03  0.25861357820E+03  0.17300000000E+03 0. -1.
<mgrwt>
<rscale>  2 0.21817042E+03</rscale>
<asrwt>0</asrwt>
<pdfrwt beam="1">  1       21 0.32246001E-01 0.21817042E+03</pdfrwt>
<pdfrwt beam="2">  1       21 0.42802306E-01 0.21817042E+03</pdfrwt>
<totfact> 0.47981470E+04</totfact>
</mgrwt>
</event>
<event>
 4    1  0.3974123E+000  0.1744092E+03  0.7546771E-02  0.1173326E+00
         21   -1    0    0  503  502  0.00000000000E+00  0.00000000000E+00  0.22834167317E+04  0.22834167317E+04  0.00000000000E+00 0. -1.
         21   -1    0    0  501  503 -0.00000000000E+00 -0.00000000000E+00 -0.37801794450E+02  0.37801794450E+02  0.00000000000E+00 0. -1.
          6    1    1    2  501    0  0.21588397320E+02 -0.48501573833E+01  0.18882664253E+03  0.25704879664E+03  0.17300000000E+03 0. -1.
         -6    1    1    2    0  502 -0.21588397320E+02  0.48501573833E+01  0.20567882947E+04  0.20641697295E+04  0.17300000000E+03 0. -1.
<mgrwt>
<rscale>  2 0.17440924E+03</rscale>
<asrwt>0</asrwt>
<pdfrwt beam="1">  1       21 0.35129477E+00 0.17440924E+03</pdfrwt>
<pdfrwt beam="2">  1       21 0.58156625E-02 0.17440924E+03</pdfrwt>
<totfact> 0.36647155E+03</totfact>
</mgrwt>
</event>
<event>
 4    1  0.3974123E+000  0.2362695E+03  0.7546771E-02  0.1122303E+00
         21   -1    0    0  501  502  0.00000000000E+00  0.00000000000E+00  0.12193642542E+04  0.12193642542E+04  0.00000000000E+00 0.  1.
         21   -1    0    0  502  503 -0.00000000000E+00 -0.00000000000E+00 -0.13642242904E+03  0.13642242904E+03  0.00000000000E+00 0.  1.
          6    1    1    2  501    0  0.15598785843E+03  0.39522743771E+02  0.10940351156E+04  0.11192569380E+04  0.17300000000E+03 0.  1.
         -6    1    1    2    0  503 -0.15598785843E+03 -0.39522743771E+02 -0.11093290443E+02  0.23652974516E+03  0.17300000000E+03 0.  1.
<mgrwt>
<rscale>  2 0.23626946E+03</rscale>
<asrwt>0</asrwt>
<pdfrwt beam="1">  1       21 0.18759449E+00 0.23626946E+03</pdfrwt>
<pdfrwt beam="2">  1       21 0.20988067E-01 0.23626946E+03</pdfrwt>
<totfact> 0.32833262E+03</totfact>
</mgrwt>
</event>
<event>
 4    1  0.3974123E+000  0.2321835E+03  0.7546771E-02  0.1125112E+00
         21   -1    0    0  501  502  0.00000000000E+00  0.00000000000E+00  0.92078592929E+03  0.92078592929E+03  0.00000000000E+00 0. -1.
         21   -1    0    0  502  503 -0.00000000000E+00 -0.00000000000E+00 -0.58592999189E+02  0.58592999189E+02  0.00000000000E+00 0. -1.
          6    1    1    2  501    0  0.14537147378E+03 -0.53360009016E+02  0.44483290122E+03  0.50178228940E+03  0.17300000000E+03 0. -1.
         -6    1    1    2    0  503 -0.14537147378E+03  0.53360009016E+02  0.41736002889E+03  0.47759663909E+03  0.17300000000E+03 0. -1.
<mgrwt>
<rscale>  2 0.23218345E+03</rscale>
<asrwt>0</asrwt>
<pdfrwt beam="1">  1       21 0.14165936E+00 0.23218345E+03</pdfrwt>
<pdfrwt beam="2">  1       21 0.90143082E-02 0.23218345E+03</pdfrwt>
<totfact> 0.33052616E+04</totfact>
</mgrwt>
</event>
<event>
 4    1  0.3974123E+000  0.1917428E+03  0.7546771E-02  0.1156899E+00
         21   -1    0    0  501  502  0.00000000000E+00  0.00000000000E+00  0.10501092732E+03  0.10501092732E+03  0.00000000000E+00 0.  1.
         21   -1    0    0  502  503 -0.00000000000E+00 -0.00000000000E+00 -0.16993264273E+04  0.16993264273E+04  0.00000000000E+00 0.  1.
          6    1    1    2  501    0 -0.81964815677E+02  0.10866868340E+02  0.67204191911E+01  0.19186058446E+03  0.17300000000E+03 0.  1.
         -6    1    1    2    0  503  0.81964815677E+02 -0.10866868340E+02 -0.16010359192E+04  0.16124767702E+04  0.17300000000E+03 0.  1.
<mgrwt>
<rscale>  2 0.19174285E+03</rscale>
<asrwt>0</asrwt>
<pdfrwt beam="1">  1       21 0.16155528E-01 0.19174285E+03</pdfrwt>
<pdfrwt beam="2">  1       21 0.26143483E+00 0.19174285E+03</pdfrwt>
<totfact> 0.19547524E+03</totfact>
</mgrwt>
</event>
<event>
 4    1  0.3974123E+000  0.2273471E+03  0.7546771E-02  0.1128521E+00
         21   -1    0    0  501  502  0.00000000000E+00  0.00000000000E+00  0.51663250876E+02  0.51663250876E+02  0.00000000000E+00 0.  1.
         21   -1    0    0  502  503 -0.00000000000E+00 -0.00000000000E+00 -0.10543844155E+04  0.10543844155E+04  0.00000000000E+00 0. -1.
          6    1    1    2  501    0  0.38298467024E+02 -0.14244627834E+03 -0.37628844929E+03  0.43963588555E+03  0.17300000000E+03 0.  1.
         -6    1    1    2    0  503 -0.38298467024E+02  0.14244627834E+03 -0.62643271533E+03  0.66641178083E+03  0.17300000000E+03 0. -1.
<mgrwt>
<rscale>  2 0.22734712E+03</rscale>
<asrwt>0</asrwt>
<pdfrwt beam="1">  1       21 0.79481930E-02 0.22734712E+03</pdfrwt>
<pdfrwt beam="2">  1       21 0.16221298E+00 0.22734712E+03</pdfrwt>
<totfact> 0.28806382E+04</totfact>
</mgrwt>
</event>
<event>
 4    1  0.3974123E+000  0.1816898E+03  0.7546771E-02  0.1166178E+00
         21   -1    0    0  503  502  0.00000000000E+00  0.00000000000E+00  0.83743324756E+02  0.83743324756E+02  0.00000000000E+00 0. -1.
         21   -1    0    0  501  503 -0.00000000000E+00 -0.00000000000E+00 -0.44801681332E+03  0.44801681332E+03  0.00000000000E+00 0. -1.
          6    1    1    2  501    0 -0.55145213161E+02 -0.64170078108E+01 -0.27429178777E+03  0.32900935756E+03  0.17300000000E+03 0. -1.
         -6    1    1    2    0  502  0.55145213161E+02  0.64170078108E+01 -0.89981700803E+02  0.20275078052E+03  0.17300000000E+03 0. -1.
<mgrwt>
<rscale>  2 0.18168977E+03</rscale>
<asrwt>0</asrwt>
<pdfrwt beam="1">  1       21 0.12883589E-01 0.18168977E+03</pdfrwt>
<pdfrwt beam="2">  1       21 0.68925663E-01 0.18168977E+03</pdfrwt>
<totfact> 0.99459459E+04</totfact>
</mgrwt>
</event>
<event>
 4    1  0.3974123E+000  0.1733319E+03  0.7546771E-02  0.1174417E+00
         21   -1    0    0  503  502  0.00000000000E+00  0.00000000000E+00  0.40242443012E+03  0.40242443012E+03  0.00000000000E+00 0.  1.
         21   -1    0    0  501  503 -0.00000000000E+00 -0.00000000000E+00 -0.18677016994E+03  0.18677016994E+03  0.00000000000E+00 0.  1.
          6    1    1    2  501    0 -0.95834477921E+01 -0.48079405558E+01 -0.12041854680E+03  0.21105588165E+03  0.17300000000E+03 0.  1.
         -6    1    1    2    0  502  0.95834477921E+01  0.48079405558E+01  0.33607280698E+03  0.37813871840E+03  0.17300000000E+03 0.  1.
<mgrwt>
<rscale>  2 0.17333193E+03</rscale>
<asrwt>0</asrwt>
<pdfrwt beam="1">  1       21 0.61911450E-01 0.17333193E+03</pdfrwt>
<pdfrwt beam="2">  1       21 0.28733872E-01 0.17333193E+03</pdfrwt>
<totfact> 0.28371660E+04</totfact>
</mgrwt>
</event>
<event>
 4    1  0.3974123E+000  0.2586039E+03  0.7546771E-02  0.1107985E+00
         21   -1    0    0  501  502  0.00000000000E+00  0.00000000000E+00  0.10077299065E+04  0.10077299065E+04  0.00000000000E+00 0. -1.
         21   -1    0    0  502  503 -0.00000000000E+00 -0.00000000000E+00 -0.14418683914E+03  0.14418683914E+03  0.00000000000E+00 0. -1.
          6    1    1    2  501    0  0.11755596995E+03 -0.15207747128E+03  0.85491209375E+03  0.89316888178E+03  0.17300000000E+03 0. -1.
         -6    1    1    2    0  503 -0.11755596995E+03  0.15207747128E+03  0.86309735974E+01  0.25874786385E+03  0.17300000000E+03 0. -1.
<mgrwt>
<rscale>  2 0.25860387E+03</rscale>
<asrwt>0</asrwt>
<pdfrwt beam="1">  1       21 0.15503537E+00 0.25860387E+03</pdfrwt>
<pdfrwt beam="2">  1       21 0.22182591E-01 0.25860387E+03</pdfrwt>
<totfact> 0.49544493E+03</totfact>
</mgrwt>
</event>
<event>
 4    1  0.3974123E+000  0.1741079E+03  0.7546771E-02  0.1173630E+00
         21   -1    0    0  503  502  0.00000000000E+00  0.00000000000E+00  0.66123190386E+03  0.66123190386E+03  0.00000000000E+00 0. -1.
         21   -1    0    0  501  503 -0.00000000000E+00 -0.00000000000E+00 -0.88577409173E+02  0.88577409173E+02  0.00000000000E+00 0. -1.
          6    1    1    2  501    0  0.84583991120E+01 -0.17691950577E+02  0.25926122733E+02  0.17602759292E+03  0.17300000000E+03 0. -1.
         -6    1    1    2    0  502 -0.84583991120E+01  0.17691950577E+02  0.54672837195E+03  0.57378172011E+03  0.17300000000E+03 0. -1.
<mgrwt>
<rscale>  2 0.17410787E+03</rscale>
<asrwt>0</asrwt>
<pdfrwt beam="1">  1       21 0.10172798E+00 0.17410787E+03</pdfrwt>
<pdfrwt beam="2">  1       21 0.13627294E-01 0.17410787E+03</pdfrwt>
<totfact> 0.37171582E+04</totfact>
</mgrwt>
</event>
<event>
 4    1  0.3974123E+000  0.1875812E+03  0.7546771E-02  0.1160661E+00
         21   -1    0    0  503  502  0.00000000000E+00  0.00000000000E+00  0.22139996214E+04  0.22139996214E+04  0.00000000000E+00 0. -1.
         21   -1    0    0  501  503 -0.00000000000E+00 -0.00000000000E+00 -0.25574321852E+02  0.25574321852E+02  0.00000000000E+00 0.  1.
          6    1    1    2  501    0  0.65140432778E+02  0.31850163914E+02  0.40523585088E+03  0.44654541064E+03  0.17300000000E+03 0.  1.
         -6    1    1    2    0  502 -0.65140432778E+02 -0.31850163914E+02  0.17831894487E+04  0.17930285326E+04  0.17300000000E+03 0. -1.
<mgrwt>
<rscale>  2 0.18758121E+03</rscale>
<asrwt>0</asrwt>
<pdfrwt beam="1">  1       21 0.34061518E+00 0.18758121E+03</pdfrwt>
<pdfrwt beam="2">  1       21 0.39345128E-02 0.18758121E+03</pdfrwt>
<totfact> 0.80484886E+03</totfact>
</mgrwt>
</event>
<event>
 4    1  0.3974123E+000  0.3151858E+03  0.7546771E-02  0.1077887E+00
         21   -1    0    0  503  502  0.00000000000E+00  0.00000000000E+00  0.34383685942E+03  0.34383685942E+03  0.00000000000E+00 0.  1.
         21   -1    0    0  501  503 -0.00000000000E+00 -0.00000000000E+00 -0.30152108276E+03  0.30152108276E+03  0.00000000000E+00 0. -1.
          6    1    1    2  501    0 -0.56727210030E+02 -0.25728407355E+03  0.87117697871E+02  0.32700392068E+03  0.17300000000E+03 0.  1.
         -6    1    1    2    0  502  0.56727210030E+02  0.25728407355E+03 -0.44801921203E+02  0.31835402150E+03  0.17300000000E+03 0.  1.
<mgrwt>
<rscale>  2 0.31518577E+03</rscale>
<asrwt>0</asrwt>
<pdfrwt beam="1">  1       21 0.52897979E-01 0.31518577E+03</pdfrwt>
<pdfrwt beam="2">  1       21 0.46387859E-01 0.31518577E+03</pdfrwt>
<totfact> 0.14157247E+04</totfact>
</mgrwt>
</event>
<event>
 4    1  0.3974123E+000  0.2149345E+03  0.7546771E-02  0.1137717E+00
         21   -1    0    0  501  502  0.00000000000E+00  0.00000000000E+00  0.40055833326E+03  0.40055833326E+03  0.00000000000E+00 0. -1.
         21   -1    0    0  502  503 -0.00000000000E+00 -0.00000000000E+00 -0.24543825429E+03  0.24543825429E+03  0.00000000000E+00 0. -1.
          6    1    1    2  501    0 -0.84452083030E+02  0.95580686632E+02  0.31272885799E+03  0.37946826034E+03  0.17300000000E+03 0. -1.
         -6    1    1    2    0  503  0.84452083030E+02 -0.95580686632E+02 -0.15760877902E+03  0.26652832722E+03  0.17300000000E+03 0. -1.
<mgrwt>
<rscale>  2 0.21493446E+03</rscale>
<asrwt>0</asrwt>
<pdfrwt beam="1">  1       21 0.61624359E-01 0.21493446E+03</pdfrwt>
<pdfrwt beam="2">  1       21 0.37759731E-01 0.21493446E+03</pdfrwt>
<totfact> 0.16322855E+04</totfact>
</mgrwt>
</event>
<event>
 4    1  0.3974123E+000  0.2001798E+03  0.7546771E-02  0.1149587E+00
         21   -1    0    0  501  502  0.00000000000E+00  0.00000000000E+00  0.46810465588E+03  0.46810465588E+03  0.00000000000E+00 0.  1.
         21   -1    0    0  502  503 -0.00000000000E+00 -0.00000000000E+00 -0.91263469750E+02  0.91263469750E+02  0.00000000000E+00 0.  1.
          6    1    1    2  501    0  0.66657943888E+02  0.75496178992E+02  0.25806409167E+03  0.32660225036E+03  0.17300000000E+03 0.  1.
         -6    1    1    2    0  503 -0.66657943888E+02 -0.75496178992E+02  0.11877709446E+03  0.23276587528E+03  0.17300000000E+03 0.  1.
<mgrwt>
<rscale>  2 0.20017981E+03</rscale>
<asrwt>0</asrwt>
<pdfrwt beam="1">  1       21 0.72016100E-01 0.20017981E+03</pdfrwt>
<pdfrwt beam="2">  1       21 0.14040534E-01 0.20017981E+03</pdfrwt>
<totfact> 0.76714176E+04</totfact>
</mgrwt>
</event>
<event>
 4    1  0.3974123E+000  0.1923985E+03  0.7546771E-02  0.1156316E+00
         21   -1    0    0  503  502  0.00000000000E+00  0.00000000000E+00  0.16026018649E+03  0.16026018649E+03  0.00000000000E+00 0. -1.
         21   -1    0    0  501  503 -0.00000000000E+00 -0.00000000000E+00 -0.25514561292E+03  0.25514561292E+03  0.00000000000E+00 0.  1.
          6    1    1    2  501    0  0.57480499047E+02  0.61515616527E+02 -0.11136196164E+03  0.22230309343E+03  0.17300000000E+03 0.  1.
         -6    1    1    2    0  502 -0.57480499047E+02 -0.61515616527E+02  0.16476535205E+02  0.19310270599E+03  0.17300000000E+03 0. -1.
<mgrwt>
<rscale>  2 0.19239849E+03</rscale>
<asrwt>0</asrwt>
<pdfrwt beam="1">  1       21 0.24655413E-01 0.19239849E+03</pdfrwt>
<pdfrwt beam="2">  1       21 0.39253171E-01 0.19239849E+03</pdfrwt>
<totfact> 0.97331471E+04</totfact>
</mgrwt>
</event>
<event>
 4    1  0.3974123E+000  0.1747442E+03  0.7546771E-02  0.1172989E+00
         21   -1    0    0  503  502  0.00000000000E+00  0.00000000000E+00  0.12475613724E+03  0.12475613724E+03  0.00000000000E+00 0. -1.
         21   -1    0    0  501  503 -0.00000000000E+00 -0.00000000000E+00 -0.47752133584E+03  0.47752133584E+03  0.00000000000E+00 0.  1.
          6    1    1    2  501    0 -0.23071813839E+02  0.86149913346E+01 -0.38662681194E+03  0.42428271044E+03  0.17300000000E+03 0.  1.
         -6    1    1    2    0  502  0.23071813839E+02 -0.86149913346E+01  0.33861613336E+02  0.17799476264E+03  0.17300000000E+03 0. -1.
<mgrwt>
<rscale>  2 0.17474417E+03</rscale>
<asrwt>0</asrwt>
<pdfrwt beam="1">  1       21 0.19193252E-01 0.17474417E+03</pdfrwt>
<pdfrwt beam="2">  1       21 0.73464822E-01 0.17474417E+03</pdfrwt>
<totfact> 0.41877845E+04</totfact>
</mgrwt>
</event>
<event>
 4    1  0.3974123E+000  0.2099973E+03  0.7546771E-02  0.1141568E+00
         21   -1    0    0  501  502  0.00000000000E+00  0.00000000000E+00  0.53685088669E+03  0.53685088669E+03  0.00000000000E+00 0.  1.
         21   -1    0    0  502  503 -0.00000000000E+00 -0.00000000000E+00 -0.10954128737E+03  0.10954128737E+03  0.00000000000E+00 0. -1.
          6    1    1    2  501    0  0.20227265901E+02 -0.11730609310E+03  0.37528933793E+03  0.43004761240E+03  0.17300000000E+03 0.  1.
         -6    1    1    2    0  503 -0.20227265901E+02  0.11730609310E+03  0.52020261388E+02  0.21634456166E+03  0.17300000000E+03 0. -1.
<mgrwt>
<rscale>  2 0.20999729E+03</rscale>
<asrwt>0</asrwt>
<pdfrwt beam="1">  1       21 0.82592443E-01 0.20999729E+03</pdfrwt>
<pdfrwt beam="2">  1       21 0.16852506E-01 0.20999729E+03</pdfrwt>
<totfact> 0.40193641E+04</totfact>
</mgrwt>
</event>
<event>
 4    1  0.3974123E+000  0.1751924E+03  0.7546771E-02  0.1172539E+00
         21   -1    0    0  501  502  0.00000000000E+00  0.00000000000E+00  0.29272847692E+02  0.29272847692E+02  0.00000000000E+00 0.  1.
         21   -1    0    0  502  503 -0.00000000000E+00 -0.00000000000E+00 -0.10486203702E+04  0.10486203702E+04  0.00000000000E+00 0.  1.
          6    1    1    2  501    0  0.16222237031E+02  0.22365130769E+02 -0.50372136928E+03  0.53331752073E+03  0.17300000000E+03 0.  1.
         -6    1    1    2    0  503 -0.16222237031E+02 -0.22365130769E+02 -0.51562615327E+03  0.54457569720E+03  0.17300000000E+03 0.  1.
<mgrwt>
<rscale>  2 0.17519235E+03</rscale>
<asrwt>0</asrwt>
<pdfrwt beam="1">  1       21 0.45035153E-02 0.17519235E+03</pdfrwt>
<pdfrwt beam="2">  1       21 0.16132620E+00 0.17519235E+03</pdfrwt>
<totfact> 0.79752338E+04</totfact>
</mgrwt>
</event>
<event>
 4    1  0.3974123E+000  0.1944988E+03  0.7546771E-02  0.1154465E+00
         21   -1    0    0  501  502  0.00000000000E+00  0.00000000000E+00  0.17773540013E+03  0.17773540013E+03  0.00000000000E+00 0. -1.
         21   -1    0    0  502  503 -0.00000000000E+00 -0.00000000000E+00 -0.23643676798E+03  0.23643676798E+03  0.00000000000E+00 0. -1.
          6    1    1    2  501    0 -0.19797293111E+02 -0.86653606216E+02  0.36066185359E+02  0.19781443327E+03  0.17300000000E+03 0. -1.
         -6    1    1    2    0  503  0.19797293111E+02  0.86653606216E+02 -0.94767553205E+02  0.21635773484E+03  0.17300000000E+03 0. -1.
<mgrwt>
<rscale>  2 0.19449879E+03</rscale>
<asrwt>0</asrwt>
<pdfrwt beam="1">  1       21 0.27343908E-01 0.19449879E+03</pdfrwt>
<pdfrwt beam="2">  1       21 0.36374887E-01 0.19449879E+03</pdfrwt>
<totfact> 0.92897429E+04</totfact>
</mgrwt>
</event>
<event>
 4    1  0.3974123E+000  0.3213189E+03  0.7546771E-02  0.1075044E+00
         21   -1    0    0  501  502  0.00000000000E+00  0.00000000000E+00  0.47059918329E+03  0.47059918329E+03  0.00000000000E+00 0. -1.
         21   -1    0    0  502  503 -0.00000000000E+00 -0.00000000000E+00 -0.24577861264E+03  0.24577861264E+03  0.00000000000E+00 0. -1.
          6    1    1    2  501    0  0.23057724882E+03  0.14195402090E+03  0.22977292639E+03  0.39502077087E+03  0.17300000000E+03 0. -1.
         -6    1    1    2    0  503 -0.23057724882E+03 -0.14195402090E+03 -0.49523557328E+01  0.32135702505E+03  0.17300000000E+03 0. -1.
<mgrwt>
<rscale>  2 0.32131886E+03</rscale>
<asrwt>0</asrwt>
<pdfrwt beam="1">  1       21 0.72399874E-01 0.32131886E+03</pdfrwt>
<pdfrwt beam="2">  1       21 0.37812094E-01 0.32131886E+03</pdfrwt>
<totfact> 0.10828847E+04</totfact>
</mgrwt>
</event>
<event>
 4    1  0.3974123E+000  0.2062125E+03  0.7546771E-02  0.1144601E+00
         21   -1    0    0  503  502  0.00000000000E+00  0.00000000000E+00  0.23570529420E+03  0.23570529420E+03  0.00000000000E+00 0. -1.
         21   -1    0    0  501  503 -0.00000000000E+00 -0.00000000000E+00 -0.22308649768E+03  0.22308649768E+03  0.00000000000E+00 0. -1.
          6    1    1    2  501    0  0.10638900509E+03  0.35720784468E+02 -0.94023493138E+02  0.22663629919E+03  0.17300000000E+03 0. -1.
         -6    1    1    2    0  502 -0.10638900509E+03 -0.35720784468E+02  0.10664228965E+03  0.23215549270E+03  0.17300000000E+03 0. -1.
<mgrwt>
<rscale>  2 0.20621250E+03</rscale>
<asrwt>0</asrwt>
<pdfrwt beam="1">  1       21 0.36262353E-01 0.20621250E+03</pdfrwt>
<pdfrwt beam="2">  1       21 0.34321000E-01 0.20621250E+03</pdfrwt>
<totfact> 0.59621948E+04</totfact>
</mgrwt>
</event>
<event>
 4    1  0.3974123E+000  0.2415549E+03  0.7546771E-02  0.1118761E+00
         21   -1    0    0  503  502  0.00000000000E+00  0.00000000000E+00  0.25020399062E+03  0.25020399062E+03  0.00000000000E+00 0. -1.
         21   -1    0    0  501  503 -0.00000000000E+00 -0.00000000000E+00 -0.25976395490E+03  0.25976395490E+03  0.00000000000E+00 0. -1.
          6    1    1    2  501    0 -0.16681377555E+03 -0.24349843243E+02 -0.86312574669E+02  0.25651239956E+03  0.17300000000E+03 0. -1.
         -6    1    1    2    0  502  0.16681377555E+03  0.24349843243E+02  0.76752610391E+02  0.25345554597E+03  0.17300000000E+03 0. -1.
<mgrwt>
<rscale>  2 0.24155486E+03</rscale>
<asrwt>0</asrwt>
<pdfrwt beam="1">  1       21 0.38492922E-01 0.24155486E+03</pdfrwt>
<pdfrwt beam="2">  1       21 0.39963685E-01 0.24155486E+03</pdfrwt>
<totfact> 0.38359908E+04</totfact>
</mgrwt>
</event>
<event>
 4    1  0.3974123E+000  0.1795450E+03  0.7546771E-02  0.1168244E+00
         21   -1    0    0  501  502  0.00000000000E+00  0.00000000000E+00  0.12238073665E+04  0.12238073665E+04  0.00000000000E+00 0. -1.
         21   -1    0    0  502  503 -0.00000000000E+00 -0.00000000000E+00 -0.40194537593E+02  0.40194537593E+02  0.00000000000E+00 0. -1.
          6    1    1    2  501    0 -0.62687286125E+01  0.47624570590E+02  0.96284018998E+03  0.97943740388E+03  0.17300000000E+03 0. -1.
         -6    1    1    2    0  503  0.62687286125E+01 -0.47624570590E+02  0.22077263893E+03  0.28456450022E+03  0.17300000000E+03 0. -1.
<mgrwt>
<rscale>  2 0.17954497E+03</rscale>
<asrwt>0</asrwt>
<pdfrwt beam="1">  1       21 0.18827803E+00 0.17954497E+03</pdfrwt>
<pdfrwt beam="2">  1       21 0.61837760E-02 0.17954497E+03</pdfrwt>
<totfact> 0.30254610E+04</totfact>
</mgrwt>
</event>
<event>
 4    1  0.3974123E+000  0.1875589E+03  0.7546771E-02  0.1160682E+00
         21   -1    0    0  501  502  0.00000000000E+00  0.00000000000E+00  0.92646714516E+02  0.92646714516E+02  0.00000000000E+00 0.  1.
         21   -1    0    0  502  503 -0.00000000000E+00 -0.00000000000E+00 -0.49938850138E+03  0.49938850138E+03  0.00000000000E+00 0.  1.
          6    1    1    2  501    0  0.50225563143E+02  0.52218144526E+02 -0.58454684435E+02  0.19645684499E+03  0.17300000000E+03 0.  1.
         -6    1    1    2    0  503 -0.50225563143E+02 -0.52218144526E+02 -0.34828710243E+03  0.39557837090E+03  0.17300000000E+03 0.  1.
<mgrwt>
<rscale>  2 0.18755890E+03</rscale>
<asrwt>0</asrwt>
<pdfrwt beam="1">  1       21 0.14253341E-01 0.18755890E+03</pdfrwt>
<pdfrwt beam="2">  1       21 0.76828999E-01 0.18755890E+03</pdfrwt>
<totfact> 0.64989445E+04</totfact>
</mgrwt>
</event>
<event>
 4    1  0.3974123E+000  0.1842329E+03  0.7546771E-02  0.1163768E+00
         21   -1    0    0  501  502  0.00000000000E+00  0.00000000000E+00  0.10182777514E+04  0.10182777514E+04  0.00000000000E+00 0.  1.
         21   -1    0    0  502  503 -0.00000000000E+00 -0.00000000000E+00 -0.83080970747E+02  0.83080970747E+02  0.00000000000E+00 0.  1.
          6    1    1    2  501    0 -0.45785636033E+02  0.43777145128E+02  0.89372416290E+03  0.91251555726E+03  0.17300000000E+03 0.  1.
         -6    1    1    2    0  503  0.45785636033E+02 -0.43777145128E+02  0.41472617765E+02  0.18884316489E+03  0.17300000000E+03 0.  1.
<mgrwt>
<rscale>  2 0.18423290E+03</rscale>
<asrwt>0</asrwt>
<pdfrwt beam="1">  1       21 0.15665811E+00 0.18423290E+03</pdfrwt>
<pdfrwt beam="2">  1       21 0.12781689E-01 0.18423290E+03</pdfrwt>
<totfact> 0.14045584E+04</totfact>
</mgrwt>
</event>
<event>
 4    1  0.3974123E+000  0.2244206E+03  0.7546771E-02  0.1130630E+00
         21   -1    0    0  501  502  0.00000000000E+00  0.00000000000E+00  0.49703611703E+03  0.49703611703E+03  0.00000000000E+00 0.  1.
         21   -1    0    0  502  503 -0.00000000000E+00 -0.00000000000E+00 -0.12087869339E+03  0.12087869339E+03  0.00000000000E+00 0.  1.
          6    1    1    2  501    0 -0.57876668198E+02  0.13071307679E+03  0.31232510007E+03  0.38459275253E+03  0.17300000000E+03 0.  1.
         -6    1    1    2    0  503  0.57876668198E+02 -0.13071307679E+03  0.63832323576E+02  0.23332205789E+03  0.17300000000E+03 0.  1.
<mgrwt>
<rscale>  2 0.22442063E+03</rscale>
<asrwt>0</asrwt>
<pdfrwt beam="1">  1       21 0.76467094E-01 0.22442063E+03</pdfrwt>
<pdfrwt beam="2">  1       21 0.18596722E-01 0.22442063E+03</pdfrwt>
<totfact> 0.39599460E+04</totfact>
</mgrwt>
</event>
<event>
 4    1  0.3974123E+000  0.2446124E+03  0.7546771E-02  0.1116758E+00
         21   -1    0    0  503  502  0.00000000000E+00  0.00000000000E+00  0.11246748125E+03  0.11246748125E+03  0.00000000000E+00 0. -1.
         21   -1    0    0  501  503 -0.00000000000E+00 -0.00000000000E+00 -0.54791663795E+03  0.54791663795E+03  0.00000000000E+00 0.  1.
          6    1    1    2  501    0 -0.13550454310E+03  0.10744655428E+03 -0.27396212016E+03  0.36727440220E+03  0.17300000000E+03 0.  1.
         -6    1    1    2    0  502  0.13550454310E+03 -0.10744655428E+03 -0.16148703655E+03  0.29310971700E+03  0.17300000000E+03 0. -1.
<mgrwt>
<rscale>  2 0.24461243E+03</rscale>
<asrwt>0</asrwt>
<pdfrwt beam="1">  1       21 0.17302689E-01 0.24461243E+03</pdfrwt>
<pdfrwt beam="2">  1       21 0.84294868E-01 0.24461243E+03</pdfrwt>
<totfact> 0.35940300E+04</totfact>
</mgrwt>
</event>
<event>
 4    1  0.3974123E+000  0.1823330E+03  0.7546771E-02  0.1165564E+00
         21   -1    0    0  503  502  0.00000000000E+00  0.00000000000E+00  0.29071205472E+03  0.29071205472E+03  0.00000000000E+00 0. -1.
         21   -1    0    0  501  503 -0.00000000000E+00 -0.00000000000E+00 -0.16874648626E+03  0.16874648626E+03  0.00000000000E+00 0. -1.
          6    1    1    2  501    0 -0.38881846211E+02 -0.42479680125E+02 -0.69439397464E+02  0.19510804983E+03  0.17300000000E+03 0. -1.
         -6    1    1    2    0  502  0.38881846211E+02  0.42479680125E+02  0.19140496593E+03  0.26435049115E+03  0.17300000000E+03 0. -1.
<mgrwt>
<rscale>  2 0.18233300E+03</rscale>
<asrwt>0</asrwt>
<pdfrwt beam="1">  1       21 0.44724931E-01 0.18233300E+03</pdfrwt>
<pdfrwt beam="2">  1       21 0.25960998E-01 0.18233300E+03</pdfrwt>
<totfact> 0.67923573E+04</totfact>
</mgrwt>
</event>
<event>
 4    1  0.3974123E+000  0.2296577E+03  0.7546771E-02  0.1126881E+00
         21   -1    0    0  503  502  0.00000000000E+00  0.00000000000E+00  0.17513725458E+03  0.17513725458E+03  0.00000000000E+00 0.  1.
         21   -1    0    0  501  503 -0.00000000000E+00 -0.00000000000E+00 -0.33320668122E+03  0.33320668122E+03  0.00000000000E+00 0.  1.
          6    1    1    2  501    0 -0.13770573255E+03 -0.62054654426E+02 -0.15787125739E+03  0.27868617264E+03  0.17300000000E+03 0.  1.
         -6    1    1    2    0  502  0.13770573255E+03  0.62054654426E+02 -0.19816925593E+00  0.22965776317E+03  0.17300000000E+03 0.  1.
<mgrwt>
<rscale>  2 0.22965768E+03</rscale>
<asrwt>0</asrwt>
<pdfrwt beam="1">  1       21 0.26944193E-01 0.22965768E+03</pdfrwt>
<pdfrwt beam="2">  1       21 0.51262566E-01 0.22965768E+03</pdfrwt>
<totfact> 0.46636482E+04</totfact>
</mgrwt>
</event>
<event>
 4    1  0.3974123E+000  0.2167500E+03  0.7546771E-02  0.1136330E+00
         21   -1    0    0  503  502  0.00000000000E+00  0.00000000000E+00  0.17381548470E+03  0.17381548470E+03  0.00000000000E+00 0. -1.
         21   -1    0    0  501  503 -0.00000000000E+00 -0.00000000000E+00 -0.27635583349E+03  0.27635583349E+03  0.00000000000E+00 0. -1.
          6    1    1    2  501    0 -0.12992836709E+03 -0.13044795602E+02 -0.84617960506E+02  0.23268164196E+03  0.17300000000E+03 0.  1.
         -6    1    1    2    0  502  0.12992836709E+03  0.13044795602E+02 -0.17922388285E+02  0.21748967623E+03  0.17300000000E+03 0.  1.
<mgrwt>
<rscale>  2 0.21674996E+03</rscale>
<asrwt>0</asrwt>
<pdfrwt beam="1">  1       21 0.26740844E-01 0.21674996E+03</pdfrwt>
<pdfrwt beam="2">  1       21 0.42516281E-01 0.21674996E+03</pdfrwt>
<totfact> 0.70118224E+04</totfact>
</mgrwt>
</event>
<event>
 4    1  0.3974123E+000  0.1889761E+03  0.7546771E-02  0.1159388E+00
         21   -1    0    0  503  502  0.00000000000E+00  0.00000000000E+00  0.15562438255E+02  0.15562438255E+02  0.00000000000E+00 0. -1.
         21   -1    0    0  501  503 -0.00000000000E+00 -0.00000000000E+00 -0.30541715600E+04  0.30541715600E+04  0.00000000000E+00 0. -1.
          6    1    1    2  501    0  0.72397607969E+02 -0.23270974492E+02 -0.22846625806E+04  0.22924648436E+04  0.17300000000E+03 0. -1.
         -6    1    1    2    0  502 -0.72397607969E+02  0.23270974492E+02 -0.75394654121E+03  0.77726915473E+03  0.17300000000E+03 0. -1.
<mgrwt>
<rscale>  2 0.18897606E+03</rscale>
<asrwt>0</asrwt>
<pdfrwt beam="1">  1       21 0.23942251E-02 0.18897606E+03</pdfrwt>
<pdfrwt beam="2">  1       21 0.46987179E+00 0.18897606E+03</pdfrwt>
<totfact> 0.28233493E+03</totfact>
</mgrwt>
</event>
<event>
 4    1  0.3974123E+000  0.1735964E+03  0.7546771E-02  0.1174148E+00
         21   -1    0    0  501  502  0.00000000000E+00  0.00000000000E+00  0.16254077322E+04  0.16254077322E+04  0.00000000000E+00 0. -1.
         21   -1    0    0  502  503 -0.00000000000E+00 -0.00000000000E+00 -0.24902838095E+02  0.24902838095E+02  0.00000000000E+00 0. -1.
          6    1    1    2  501    0 -0.10021020793E+02 -0.10309396253E+02  0.12173360853E+04  0.12296515153E+04  0.17300000000E+03 0. -1.
         -6    1    1    2    0  503  0.10021020793E+02  0.10309396253E+02  0.38316880882E+03  0.42065905501E+03  0.17300000000E+03 0. -1.
<mgrwt>
<rscale>  2 0.17359638E+03</rscale>
<asrwt>0</asrwt>
<pdfrwt beam="1">  1       21 0.25006265E+00 0.17359638E+03</pdfrwt>
<pdfrwt beam="2">  1       21 0.38312071E-02 0.17359638E+03</pdfrwt>
<totfact> 0.28447427E+04</totfact>
</mgrwt>
</event>
<event>
 4    1  0.3974123E+000  0.1838931E+03  0.7546771E-02  0.1164088E+00
         21   -1    0    0  503  502  0.00000000000E+00  0.00000000000E+00  0.61299937997E+03  0.61299937997E+03  0.00000000000E+00 0. -1.
         21   -1    0    0  501  503 -0.00000000000E+00 -0.00000000000E+00 -0.83050294991E+02  0.83050294991E+02  0.00000000000E+00 0. -1.
          6    1    1    2  501    0 -0.46998168028E+01 -0.62173762018E+02  0.63314324958E+02  0.19448745128E+03  0.17300000000E+03 0. -1.
         -6    1    1    2    0  502  0.46998168028E+01  0.62173762018E+02  0.46663476003E+03  0.50156222368E+03  0.17300000000E+03 0. -1.
<mgrwt>
<rscale>  2 0.18389308E+03</rscale>
<asrwt>0</asrwt>
<pdfrwt beam="1">  1       21 0.94307594E-01 0.18389308E+03</pdfrwt>
<pdfrwt beam="2">  1       21 0.12776969E-01 0.18389308E+03</pdfrwt>
<totfact> 0.49628078E+04</totfact>
</mgrwt>
</event>
<event>
 4    1  0.3974123E+000  0.2784652E+03  0.7546771E-02  0.1096530E+00
         21   -1    0    0  503  502  0.00000000000E+00  0.00000000000E+00  0.11335086008E+03  0.11335086008E+03  0.00000000000E+00 0.  1.
         21   -1    0    0  501  503 -0.00000000000E+00 -0.00000000000E+00 -0.80597451173E+03  0.80597451173E+03  0.00000000000E+00 0.  1.
          6    1    1    2  501    0 -0.68807774546E+02  0.20707325510E+03 -0.52506040345E+03  0.59433262580E+03  0.17300000000E+03 0.  1.
         -6    1    1    2    0  502  0.68807774546E+02 -0.20707325510E+03 -0.16756324820E+03  0.32499274602E+03  0.17300000000E+03 0.  1.
<mgrwt>
<rscale>  2 0.27846516E+03</rscale>
<asrwt>0</asrwt>
<pdfrwt beam="1">  1       21 0.17438595E-01 0.27846516E+03</pdfrwt>
<pdfrwt beam="2">  1       21 0.12399607E+00 0.27846516E+03</pdfrwt>
<totfact> 0.13777357E+04</totfact>
</mgrwt>
</event>
<event>
 4    1  0.3974123E+000  0.1757922E+03  0.7546771E-02  0.1171939E+00
         21   -1    0    0  501  502  0.00000000000E+00  0.00000000000E+00  0.81192989991E+02  0.81192989991E+02  0.00000000000E+00 0. -1.
         21   -1    0    0  502  503 -0.00000000000E+00 -0.00000000000E+00 -0.39413900369E+03  0.39413900369E+03  0.00000000000E+00 0. -1.
          6    1    1    2  501    0 -0.11625950727E+02 -0.28961184175E+02 -0.11244129551E+03  0.20867668259E+03  0.17300000000E+03 0. -1.
         -6    1    1    2    0  503  0.11625950727E+02  0.28961184175E+02 -0.20050471818E+03  0.26665531109E+03  0.17300000000E+03 0. -1.
<mgrwt>
<rscale>  2 0.17579224E+03</rscale>
<asrwt>0</asrwt>
<pdfrwt beam="1">  1       21 0.12491229E-01 0.17579224E+03</pdfrwt>
<pdfrwt beam="2">  1       21 0.60636770E-01 0.17579224E+03</pdfrwt>
<totfact> 0.13913763E+05</totfact>
</mgrwt>
</event>
<event>
 4    1  0.3974123E+000  0.1871469E+03  0.7546771E-02  0.1161060E+00
         21   -1    0    0  501  502  0.00000000000E+00  0.00000000000E+00  0.92431462578E+02  0.92431462578E+02  0.00000000000E+00 0.  1.
         21   -1    0    0  502  503 -0.00000000000E+00 -0.00000000000E+00 -0.10946977921E+04  0.10946977921E+04  0.00000000000E+00 0.  1.
          6    1    1    2  501    0 -0.55232156588E+02 -0.45214757215E+02 -0.21167091261E+02  0.18834014746E+03  0.17300000000E+03 0.  1.
         -6    1    1    2    0  503  0.55232156588E+02  0.45214757215E+02 -0.98109923830E+03  0.99878910726E+03  0.17300000000E+03 0.  1.
<mgrwt>
<rscale>  2 0.18714691E+03</rscale>
<asrwt>0</asrwt>
<pdfrwt beam="1">  1       21 0.14220226E-01 0.18714691E+03</pdfrwt>
<pdfrwt beam="2">  1       21 0.16841504E+00 0.18714691E+03</pdfrwt>
<totfact> 0.95051451E+03</totfact>
</mgrwt>
</event>
<event>
 4    1  0.3974123E+000  0.2125047E+03  0.7546771E-02  0.1139598E+00
         21   -1    0    0  503  502  0.00000000000E+00  0.00000000000E+00  0.11645226612E+03  0.11645226612E+03  0.00000000000E+00 0. -1.
         21   -1    0    0  501  503 -0.00000000000E+00 -0.00000000000E+00 -0.72820281952E+03  0.72820281952E+03  0.00000000000E+00 0. -1.
          6    1    1    2  501    0  0.93086891072E+02  0.81019031063E+02 -0.59463087134E+03  0.63146189579E+03  0.17300000000E+03 0. -1.
         -6    1    1    2    0  502 -0.93086891072E+02 -0.81019031063E+02 -0.17119682063E+02  0.21319318985E+03  0.17300000000E+03 0. -1.
<mgrwt>
<rscale>  2 0.21250471E+03</rscale>
<asrwt>0</asrwt>
<pdfrwt beam="1">  1       21 0.17915733E-01 0.21250471E+03</pdfrwt>
<pdfrwt beam="2">  1       21 0.11203120E+00 0.21250471E+03</pdfrwt>
<totfact> 0.17471539E+04</totfact>
</mgrwt>
</event>
<event>
 4    1  0.3974123E+000  0.2011555E+03  0.7546771E-02  0.1148768E+00
         21   -1    0    0  503  502  0.00000000000E+00  0.00000000000E+00  0.34819147862E+03  0.34819147862E+03  0.00000000000E+00 0. -1.
         21   -1    0    0  501  503 -0.00000000000E+00 -0.00000000000E+00 -0.12123145128E+03  0.12123145128E+03  0.00000000000E+00 0. -1.
          6    1    1    2  501    0 -0.10160209879E+03  0.14544102320E+02  0.65714085708E+02  0.21161724516E+03  0.17300000000E+03 0. -1.
         -6    1    1    2    0  502  0.10160209879E+03 -0.14544102320E+02  0.16124594163E+03  0.25780568474E+03  0.17300000000E+03 0. -1.
<mgrwt>
<rscale>  2 0.20115546E+03</rscale>
<asrwt>0</asrwt>
<pdfrwt beam="1">  1       21 0.53567919E-01 0.20115546E+03</pdfrwt>
<pdfrwt beam="2">  1       21 0.18650993E-01 0.20115546E+03</pdfrwt>
<totfact> 0.86382078E+04</totfact>
</mgrwt>
</event>
<event>
 4    1  0.3974123E+000  0.1769027E+03  0.7546771E-02  0.1170835E+00
         21   -1    0    0  501  502  0.00000000000E+00  0.00000000000E+00  0.23419862252E+02  0.23419862252E+02  0.00000000000E+00 0.  1.
         21   -1    0    0  502  503 -0.00000000000E+00 -0.00000000000E+00 -0.13620048619E+04  0.13620048619E+04  0.00000000000E+00 0.  1.
          6    1    1    2  501    0 -0.34618098255E+02 -0.12928555469E+02 -0.57401809480E+03  0.60065908254E+03  0.17300000000E+03 0.  1.
         -6    1    1    2    0  503  0.34618098255E+02  0.12928555469E+02 -0.76456690484E+03  0.78476564161E+03  0.17300000000E+03 0.  1.
<mgrwt>
<rscale>  2 0.17690269E+03</rscale>
<asrwt>0</asrwt>
<pdfrwt beam="1">  1       21 0.36030558E-02 0.17690269E+03</pdfrwt>
<pdfrwt beam="2">  1       21 0.20953920E+00 0.17690269E+03</pdfrwt>
<totfact> 0.55098811E+04</totfact>
</mgrwt>
</event>
<event>
 4    1  0.3974123E+000  0.2324922E+03  0.7546771E-02  0.1124898E+00
         21   -1    0    0  501  502  0.00000000000E+00  0.00000000000E+00  0.16585865910E+03  0.16585865910E+03  0.00000000000E+00 0. -1.
         21   -1    0    0  502  503 -0.00000000000E+00 -0.00000000000E+00 -0.39052243004E+03  0.39052243004E+03  0.00000000000E+00 0. -1.
          6    1    1    2  501    0 -0.14343100497E+03 -0.59591604529E+02  0.83664929601E+00  0.23249368271E+03  0.17300000000E+03 0. -1.
         -6    1    1    2    0  503  0.14343100497E+03  0.59591604529E+02 -0.22550042024E+03  0.32388740643E+03  0.17300000000E+03 0. -1.
<mgrwt>
<rscale>  2 0.23249218E+03</rscale>
<asrwt>0</asrwt>
<pdfrwt beam="1">  1       21 0.25516717E-01 0.23249218E+03</pdfrwt>
<pdfrwt beam="2">  1       21 0.60080373E-01 0.23249218E+03</pdfrwt>
<totfact> 0.36894316E+04</totfact>
</mgrwt>
</event>
<event>
 4    1  0.3974123E+000  0.1878026E+03  0.7546771E-02  0.1160458E+00
         21   -1    0    0  503  502  0.00000000000E+00  0.00000000000E+00  0.51362847060E+02  0.51362847060E+02  0.00000000000E+00 0.  1.
         21   -1    0    0  501  503 -0.00000000000E+00 -0.00000000000E+00 -0.80715354032E+03  0.80715354032E+03  0.00000000000E+00 0.  1.
          6    1    1    2  501    0 -0.66336109470E+02 -0.30664968827E+02 -0.54373449433E+03  0.57525387444E+03  0.17300000000E+03 0.  1.
         -6    1    1    2    0  502  0.66336109470E+02  0.30664968827E+02 -0.21205619893E+03  0.28326251294E+03  0.17300000000E+03 0.  1.
<mgrwt>
<rscale>  2 0.18780261E+03</rscale>
<asrwt>0</asrwt>
<pdfrwt beam="1">  1       21 0.79019772E-02 0.18780261E+03</pdfrwt>
<pdfrwt beam="2">  1       21 0.12417746E+00 0.18780261E+03</pdfrwt>
<totfact> 0.59603420E+04</totfact>
</mgrwt>
</event>
<event>
 4    1  0.3974123E+000  0.1850435E+03  0.7546771E-02  0.1163009E+00
         21   -1    0    0  501  502  0.00000000000E+00  0.00000000000E+00  0.75696698386E+03  0.75696698386E+03  0.00000000000E+00 0.  1.
         21   -1    0    0  502  503 -0.00000000000E+00 -0.00000000000E+00 -0.53396737937E+02  0.53396737937E+02  0.00000000000E+00 0.  1.
          6    1    1    2  501    0 -0.34017090502E+01 -0.65578350532E+02  0.51019959130E+03  0.54271973858E+03  0.17300000000E+03 0.  1.
         -6    1    1    2    0  503  0.34017090502E+01  0.65578350532E+02  0.19337065463E+03  0.26764398322E+03  0.17300000000E+03 0.  1.
<mgrwt>
<rscale>  2 0.18504349E+03</rscale>
<asrwt>0</asrwt>
<pdfrwt beam="1">  1       21 0.11645645E+00 0.18504349E+03</pdfrwt>
<pdfrwt beam="2">  1       21 0.82148833E-02 0.18504349E+03</pdfrwt>
<totfact> 0.65383224E+04</totfact>
</mgrwt>
</event>
<event>
 4    1  0.3974123E+000  0.1852111E+03  0.7546771E-02  0.1162853E+00
         21   -1    0    0  503  502  0.00000000000E+00  0.00000000000E+00  0.18168362065E+03  0.18168362065E+03  0.00000000000E+00 0.  1.
         21   -1    0    0  501  503 -0.00000000000E+00 -0.00000000000E+00 -0.38367717027E+03  0.38367717027E+03  0.00000000000E+00 0.  1.
          6    1    1    2  501    0 -0.24394398121E+02 -0.61474127439E+02 -0.30245513630E+03  0.35465795420E+03  0.17300000000E+03 0.  1.
         -6    1    1    2    0  502  0.24394398121E+02  0.61474127439E+02  0.10046158667E+03  0.21070283672E+03  0.17300000000E+03 0.  1.
<mgrwt>
<rscale>  2 0.18521111E+03</rscale>
<asrwt>0</asrwt>
<pdfrwt beam="1">  1       21 0.27951326E-01 0.18521111E+03</pdfrwt>
<pdfrwt beam="2">  1       21 0.59027257E-01 0.18521111E+03</pdfrwt>
<totfact> 0.32934969E+04</totfact>
</mgrwt>
</event>
<event>
 4    1  0.3974123E+000  0.1950533E+03  0.7546771E-02  0.1153981E+00
         21   -1    0    0  501  502  0.00000000000E+00  0.00000000000E+00  0.35112869058E+03  0.35112869058E+03  0.00000000000E+00 0. -1.
         21   -1    0    0  502  503 -0.00000000000E+00 -0.00000000000E+00 -0.12820722793E+03  0.12820722793E+03  0.00000000000E+00 0.  1.
          6    1    1    2  501    0 -0.60107883233E+01 -0.89892444665E+02  0.20577605835E+03  0.28353054046E+03  0.17300000000E+03 0. -1.
         -6    1    1    2    0  503  0.60107883233E+01  0.89892444665E+02  0.17145404308E+02  0.19580537805E+03  0.17300000000E+03 0.  1.
<mgrwt>
<rscale>  2 0.19505328E+03</rscale>
<asrwt>0</asrwt>
<pdfrwt beam="1">  1       21 0.54019798E-01 0.19505328E+03</pdfrwt>
<pdfrwt beam="2">  1       21 0.19724189E-01 0.19505328E+03</pdfrwt>
<totfact> 0.76675120E+04</totfact>
</mgrwt>
</event>
<event>
 4    1  0.3974123E+000  0.2305842E+03  0.7546771E-02  0.1126229E+00
         21   -1    0    0  503  502  0.00000000000E+00  0.00000000000E+00  0.52993732495E+03  0.52993732495E+03  0.00000000000E+00 0. -1.
         21   -1    0    0  501  503 -0.00000000000E+00 -0.00000000000E+00 -0.14334005928E+03  0.14334005928E+03  0.00000000000E+00 0.  1.
          6    1    1    2  501    0  0.99135730462E+02  0.11581092539E+03  0.88986151730E+01  0.23075582083E+03  0.17300000000E+03 0. -1.
         -6    1    1    2    0  502 -0.99135730462E+02 -0.11581092539E+03  0.37769865049E+03  0.44252156340E+03  0.17300000000E+03 0.  1.
<mgrwt>
<rscale>  2 0.23058418E+03</rscale>
<asrwt>0</asrwt>
<pdfrwt beam="1">  1       21 0.81528818E-01 0.23058418E+03</pdfrwt>
<pdfrwt beam="2">  1       21 0.22052317E-01 0.23058418E+03</pdfrwt>
<totfact> 0.24794547E+04</totfact>
</mgrwt>
</event>
<event>
 4    1  0.3974123E+000  0.1839105E+03  0.7546771E-02  0.1164071E+00
         21   -1    0    0  501  502  0.00000000000E+00  0.00000000000E+00  0.23957214006E+04  0.23957214006E+04  0.00000000000E+00 0. -1.
         21   -1    0    0  502  503 -0.00000000000E+00 -0.00000000000E+00 -0.10410112732E+03  0.10410112732E+03  0.00000000000E+00 0. -1.
          6    1    1    2  501    0  0.68003308885E+01  0.62030748080E+02  0.23078786703E+04  0.23151948115E+04  0.17300000000E+03 0. -1.
         -6    1    1    2    0  503 -0.68003308885E+01 -0.62030748080E+02 -0.16258397020E+02  0.18462771645E+03  0.17300000000E+03 0. -1.
<mgrwt>
<rscale>  2 0.18391046E+03</rscale>
<asrwt>0</asrwt>
<pdfrwt beam="1">  1       21 0.36857248E+00 0.18391046E+03</pdfrwt>
<pdfrwt beam="2">  1       21 0.16015560E-01 0.18391046E+03</pdfrwt>
<totfact> 0.47869344E+02</totfact>
</mgrwt>
</event>
<event>
 4    1  0.3974123E+000  0.1767552E+03  0.7546771E-02  0.1170981E+00
         21   -1    0    0  501  502  0.00000000000E+00  0.00000000000E+00  0.34367430175E+03  0.34367430175E+03  0.00000000000E+00 0. -1.
         21   -1    0    0  502  503 -0.00000000000E+00 -0.00000000000E+00 -0.10601809053E+03  0.10601809053E+03  0.00000000000E+00 0. -1.
          6    1    1    2  501    0  0.20869927568E+02  0.29628709215E+02  0.20371543130E+03  0.26970797399E+03  0.17300000000E+03 0. -1.
         -6    1    1    2    0  503 -0.20869927568E+02 -0.29628709215E+02  0.33940779918E+02  0.17998441829E+03  0.17300000000E+03 0. -1.
<mgrwt>
<rscale>  2 0.17675524E+03</rscale>
<asrwt>0</asrwt>
<pdfrwt beam="1">  1       21 0.52872969E-01 0.17675524E+03</pdfrwt>
<pdfrwt beam="2">  1       21 0.16310476E-01 0.17675524E+03</pdfrwt>
<totfact> 0.11476766E+05</totfact>
</mgrwt>
</event>
<event>
 4    1  0.3974123E+000  0.2566425E+03  0.7546771E-02  0.1109177E+00
         21   -1    0    0  503  502  0.00000000000E+00  0.00000000000E+00  0.12558912048E+03  0.12558912048E+03  0.00000000000E+00 0.  1.
         21   -1    0    0  501  503 -0.00000000000E+00 -0.00000000000E+00 -0.11159219219E+04  0.11159219219E+04  0.00000000000E+00 0.  1.
          6    1    1    2  501    0  0.18891691933E+03  0.15709609932E+02 -0.94709541730E+03  0.98125181464E+03  0.17300000000E+03 0.  1.
         -6    1    1    2    0  502 -0.18891691933E+03 -0.15709609932E+02 -0.43237384149E+02  0.26025922777E+03  0.17300000000E+03 0.  1.
<mgrwt>
<rscale>  2 0.25664254E+03</rscale>
<asrwt>0</asrwt>
<pdfrwt beam="1">  1       21 0.19321403E-01 0.25664254E+03</pdfrwt>
<pdfrwt beam="2">  1       21 0.17168030E+00 0.25664254E+03</pdfrwt>
<totfact> 0.48647111E+03</totfact>
</mgrwt>
</event>
<event>
 4    1  0.3974123E+000  0.2124043E+03  0.7546771E-02  0.1139676E+00
         21   -1    0    0  501  502  0.00000000000E+00  0.00000000000E+00  0.38315785281E+02  0.38315785281E+02  0.00000000000E+00 0.  1.
         21   -1    0    0  502  503 -0.00000000000E+00 -0.00000000000E+00 -0.12004850035E+04  0.12004850035E+04  0.00000000000E+00 0. -1.
          6    1    1    2  501    0  0.99510928919E+02  0.72692361058E+02 -0.49531781874E+03  0.53893909294E+03  0.17300000000E+03 0. -1.
         -6    1    1    2    0  503 -0.99510928919E+02 -0.72692361058E+02 -0.66685139950E+03  0.69986169587E+03  0.17300000000E+03 0.  1.
<mgrwt>
<rscale>  2 0.21240434E+03</rscale>
<asrwt>0</asrwt>
<pdfrwt beam="1">  1       21 0.58947374E-02 0.21240434E+03</pdfrwt>
<pdfrwt beam="2">  1       21 0.18468996E+00 0.21240434E+03</pdfrwt>
<totfact> 0.33937539E+04</totfact>
</mgrwt>
</event>
<event>
 4    1  0.3974123E+000  0.1813736E+03  0.7546771E-02  0.1166480E+00
         21   -1    0    0  503  502  0.00000000000E+00  0.00000000000E+00  0.51796639848E+03  0.51796639848E+03  0.00000000000E+00 0.  1.
         21   -1    0    0  501  503 -0.00000000000E+00 -0.00000000000E+00 -0.31317366438E+03  0.31317366438E+03  0.00000000000E+00 0.  1.
          6    1    1    2  501    0  0.44635023188E+02  0.31226596688E+02 -0.26865044455E+03  0.32414417624E+03  0.17300000000E+03 0.  1.
         -6    1    1    2    0  502 -0.44635023188E+02 -0.31226596688E+02  0.47344317865E+03  0.50699588662E+03  0.17300000000E+03 0.  1.
<mgrwt>
<rscale>  2 0.18137361E+03</rscale>
<asrwt>0</asrwt>
<pdfrwt beam="1">  1       21 0.79687138E-01 0.18137361E+03</pdfrwt>
<pdfrwt beam="2">  1       21 0.48180564E-01 0.18137361E+03</pdfrwt>
<totfact> 0.57609733E+03</totfact>
</mgrwt>
</event>
<event>
 4    1  0.3974123E+000  0.2397532E+03  0.7546771E-02  0.1119957E+00
         21   -1    0    0  503  502  0.00000000000E+00  0.00000000000E+00  0.38374548614E+03  0.38374548614E+03  0.00000000000E+00 0.  1.
         21   -1    0    0  501  503 -0.00000000000E+00 -0.00000000000E+00 -0.52962948363E+03  0.52962948363E+03  0.00000000000E+00 0. -1.
          6    1    1    2  501    0  0.10357433092E+03 -0.12971108387E+03 -0.45969396858E+03  0.51845940251E+03  0.17300000000E+03 0. -1.
         -6    1    1    2    0  502 -0.10357433092E+03  0.12971108387E+03  0.31380997109E+03  0.39491556725E+03  0.17300000000E+03 0.  1.
<mgrwt>
<rscale>  2 0.23975322E+03</rscale>
<asrwt>0</asrwt>
<pdfrwt beam="1">  1       21 0.59037767E-01 0.23975322E+03</pdfrwt>
<pdfrwt beam="2">  1       21 0.81481459E-01 0.23975322E+03</pdfrwt>
<totfact> 0.34139167E+03</totfact>
</mgrwt>
</event>
<event>
 4    1  0.3974123E+000  0.1876513E+03  0.7546771E-02  0.1160597E+00
         21   -1    0    0  503  502  0.00000000000E+00  0.00000000000E+00  0.10198422205E+04  0.10198422205E+04  0.00000000000E+00 0. -1.
         21   -1    0    0  501  503 -0.00000000000E+00 -0.00000000000E+00 -0.35272017066E+02  0.35272017066E+02  0.00000000000E+00 0.  1.
          6    1    1    2  501    0 -0.68903395645E+02 -0.23158629229E+02  0.41565879716E+03  0.45605398332E+03  0.17300000000E+03 0. -1.
         -6    1    1    2    0  502  0.68903395645E+02  0.23158629229E+02  0.56891140630E+03  0.59906025428E+03  0.17300000000E+03 0. -1.
<mgrwt>
<rscale>  2 0.18765127E+03</rscale>
<asrwt>0</asrwt>
<pdfrwt beam="1">  1       21 0.15689878E+00 0.18765127E+03</pdfrwt>
<pdfrwt beam="2">  1       21 0.54264649E-02 0.18765127E+03</pdfrwt>
<totfact> 0.62266143E+04</totfact>
</mgrwt>
</event>
<event>
 4    1  0.3974123E+000  0.1763325E+03  0.7546771E-02  0.1171400E+00
         21   -1    0    0  503  502  0.00000000000E+00  0.00000000000E+00  0.17612475454E+04  0.17612475454E+04  0.00000000000E+00 0. -1.
         21   -1    0    0  501  503 -0.00000000000E+00 -0.00000000000E+00 -0.47858778597E+02  0.47858778597E+02  0.00000000000E+00 0. -1.
          6    1    1    2  501    0  0.13756464488E+02  0.31223303288E+02  0.13808839837E+03  0.22396772256E+03  0.17300000000E+03 0. -1.
         -6    1    1    2    0  502 -0.13756464488E+02 -0.31223303288E+02  0.15753003685E+04  0.15851386015E+04  0.17300000000E+03 0. -1.
<mgrwt>
<rscale>  2 0.17633246E+03</rscale>
<asrwt>0</asrwt>
<pdfrwt beam="1">  1       21 0.27096111E+00 0.17633246E+03</pdfrwt>
<pdfrwt beam="2">  1       21 0.73628904E-02 0.17633246E+03</pdfrwt>
<totfact> 0.70806156E+03</totfact>
</mgrwt>
</event>
<event>
 4    1  0.3974123E+000  0.1752506E+03  0.7546771E-02  0.1172480E+00
         21   -1    0    0  503  502  0.00000000000E+00  0.00000000000E+00  0.12066394472E+04  0.12066394472E+04  0.00000000000E+00 0.  1.
         21   -1    0    0  501  503 -0.00000000000E+00 -0.00000000000E+00 -0.26999086183E+02  0.26999086183E+02  0.00000000000E+00 0.  1.
          6    1    1    2  501    0 -0.24261491360E+02 -0.13969412992E+02  0.44222220936E+03  0.47568187575E+03  0.17300000000E+03 0.  1.
         -6    1    1    2    0  502  0.24261491360E+02  0.13969412992E+02  0.73741815166E+03  0.75795665764E+03  0.17300000000E+03 0.  1.
<mgrwt>
<rscale>  2 0.17525058E+03</rscale>
<asrwt>0</asrwt>
<pdfrwt beam="1">  1       21 0.18563680E+00 0.17525058E+03</pdfrwt>
<pdfrwt beam="2">  1       21 0.41537065E-02 0.17525058E+03</pdfrwt>
<totfact> 0.61975518E+04</totfact>
</mgrwt>
</event>
<event>
 4    1  0.3974123E+000  0.2327192E+03  0.7546771E-02  0.1124740E+00
         21   -1    0    0  501  502  0.00000000000E+00  0.00000000000E+00  0.36789349413E+03  0.36789349413E+03  0.00000000000E+00 0.  1.
         21   -1    0    0  502  503 -0.00000000000E+00 -0.00000000000E+00 -0.14852761365E+03  0.14852761365E+03  0.00000000000E+00 0. -1.
          6    1    1    2  501    0  0.15155765810E+03 -0.35489606739E+02  0.13398706278E+03  0.26853448364E+03  0.17300000000E+03 0. -1.
         -6    1    1    2    0  503 -0.15155765810E+03  0.35489606739E+02  0.85378817697E+02  0.24788662414E+03  0.17300000000E+03 0.  1.
<mgrwt>
<rscale>  2 0.23271922E+03</rscale>
<asrwt>0</asrwt>
<pdfrwt beam="1">  1       21 0.56598999E-01 0.23271922E+03</pdfrwt>
<pdfrwt beam="2">  1       21 0.22850402E-01 0.23271922E+03</pdfrwt>
<totfact> 0.51781735E+04</totfact>
</mgrwt>
</event>
<event>
 4    1  0.3974123E+000  0.1857608E+03  0.7546771E-02  0.1162341E+00
         21   -1    0    0  503  502  0.00000000000E+00  0.00000000000E+00  0.17717060780E+04  0.17717060780E+04  0.00000000000E+00 0. -1.
         21   -1    0    0  501  503 -0.00000000000E+00 -0.00000000000E+00 -0.50352659660E+02  0.50352659660E+02  0.00000000000E+00 0. -1.
          6    1    1    2  501    0 -0.19324149298E+02  0.64843356101E+02  0.14728013076E+03  0.23706227134E+03  0.17300000000E+03 0. -1.
         -6    1    1    2    0  502  0.19324149298E+02 -0.64843356101E+02  0.15740732876E+04  0.15849964663E+04  0.17300000000E+03 0. -1.
<mgrwt>
<rscale>  2 0.18576082E+03</rscale>
<asrwt>0</asrwt>
<pdfrwt beam="1">  1       21 0.27257012E+00 0.18576082E+03</pdfrwt>
<pdfrwt beam="2">  1       21 0.77465644E-02 0.18576082E+03</pdfrwt>
<totfact> 0.62809535E+03</totfact>
</mgrwt>
</event>
<event>
 4    1  0.3974123E+000  0.1775751E+03  0.7546771E-02  0.1170171E+00
         21   -1    0    0  503  502  0.00000000000E+00  0.00000000000E+00  0.11409969047E+03  0.11409969047E+03  0.00000000000E+00 0. -1.
         21   -1    0    0  501  503 -0.00000000000E+00 -0.00000000000E+00 -0.34411238928E+03  0.34411238928E+03  0.00000000000E+00 0. -1.
          6    1    1    2  501    0  0.33083349890E+02 -0.22570322799E+02 -0.21666380225E+03  0.28013591472E+03  0.17300000000E+03 0. -1.
         -6    1    1    2    0  502 -0.33083349890E+02  0.22570322799E+02 -0.13348896564E+02  0.17807616503E+03  0.17300000000E+03 0. -1.
<mgrwt>
<rscale>  2 0.17757513E+03</rscale>
<asrwt>0</asrwt>
<pdfrwt beam="1">  1       21 0.17553799E-01 0.17757513E+03</pdfrwt>
<pdfrwt beam="2">  1       21 0.52940367E-01 0.17757513E+03</pdfrwt>
<totfact> 0.99992480E+04</totfact>
</mgrwt>
</event>
<event>
 4    1  0.3974123E+000  0.2857437E+03  0.7546771E-02  0.1092593E+00
         21   -1    0    0  503  502  0.00000000000E+00  0.00000000000E+00  0.21863591996E+03  0.21863591996E+03  0.00000000000E+00 0. -1.
         21   -1    0    0  501  503 -0.00000000000E+00 -0.00000000000E+00 -0.47073812060E+03  0.47073812060E+03  0.00000000000E+00 0.  1.
          6    1    1    2  501    0  0.20581728303E+02  0.22648812836E+03 -0.28275009805E+03  0.40199141505E+03  0.17300000000E+03 0.  1.
         -6    1    1    2    0  502 -0.20581728303E+02 -0.22648812836E+03  0.30647897407E+02  0.28738262551E+03  0.17300000000E+03 0. -1.
<mgrwt>
<rscale>  2 0.28574373E+03</rscale>
<asrwt>0</asrwt>
<pdfrwt beam="1">  1       21 0.33636296E-01 0.28574373E+03</pdfrwt>
<pdfrwt beam="2">  1       21 0.72421248E-01 0.28574373E+03</pdfrwt>
<totfact> 0.13905192E+04</totfact>
</mgrwt>
</event>
<event>
 4    1  0.3974123E+000  0.1747747E+03  0.7546771E-02  0.1172958E+00
         21   -1    0    0  501  502  0.00000000000E+00  0.00000000000E+00  0.13785645800E+02  0.13785645800E+02  0.00000000000E+00 0. -1.
         21   -1    0    0  502  503 -0.00000000000E+00 -0.00000000000E+00 -0.23481371899E+04  0.23481371899E+04  0.00000000000E+00 0. -1.
          6    1    1    2  501    0 -0.17253490946E+02 -0.17875042956E+02 -0.88681389467E+03  0.90387227189E+03  0.17300000000E+03 0.  1.
         -6    1    1    2    0  503  0.17253490946E+02  0.17875042956E+02 -0.14475376494E+04  0.14580505638E+04  0.17300000000E+03 0.  1.
<mgrwt>
<rscale>  2 0.17477471E+03</rscale>
<asrwt>0</asrwt>
<pdfrwt beam="1">  1       21 0.21208658E-02 0.17477471E+03</pdfrwt>
<pdfrwt beam="2">  1       21 0.36125235E+00 0.17477471E+03</pdfrwt>
<totfact> 0.17142905E+04</totfact>
</mgrwt>
</event>
<event>
 4    1  0.3974123E+000  0.1810761E+03  0.7546771E-02  0.1166766E+00
         21   -1    0    0  501  502  0.00000000000E+00  0.00000000000E+00  0.98340976146E+03  0.98340976146E+03  0.00000000000E+00 0. -1.
         21   -1    0    0  502  503 -0.00000000000E+00 -0.00000000000E+00 -0.33883701993E+02  0.33883701993E+02  0.00000000000E+00 0. -1.
          6    1    1    2  501    0  0.52049240619E+02  0.12264566459E+02  0.41043127010E+03  0.44860045756E+03  0.17300000000E+03 0. -1.
         -6    1    1    2    0  503 -0.52049240619E+02 -0.12264566459E+02  0.53909478936E+03  0.56869300590E+03  0.17300000000E+03 0. -1.
<mgrwt>
<rscale>  2 0.18107607E+03</rscale>
<asrwt>0</asrwt>
<pdfrwt beam="1">  1       21 0.15129379E+00 0.18107607E+03</pdfrwt>
<pdfrwt beam="2">  1       21 0.52128780E-02 0.18107607E+03</pdfrwt>
<totfact> 0.73670733E+04</totfact>
</mgrwt>
</event>
<event>
 4    1  0.3974123E+000  0.1856945E+03  0.7546771E-02  0.1162403E+00
         21   -1    0    0  501  502  0.00000000000E+00  0.00000000000E+00  0.58806468385E+02  0.58806468385E+02  0.00000000000E+00 0. -1.
         21   -1    0    0  502  503 -0.00000000000E+00 -0.00000000000E+00 -0.70313772257E+03  0.70313772257E+03  0.00000000000E+00 0.  1.
          6    1    1    2  501    0  0.66397466304E+02  0.12034106377E+02 -0.16691570606E+03  0.24968639566E+03  0.17300000000E+03 0. -1.
         -6    1    1    2    0  503 -0.66397466304E+02 -0.12034106377E+02 -0.47741554813E+03  0.51225779530E+03  0.17300000000E+03 0.  1.
<mgrwt>
<rscale>  2 0.18569449E+03</rscale>
<asrwt>0</asrwt>
<pdfrwt beam="1">  1       21 0.90471493E-02 0.18569449E+03</pdfrwt>
<pdfrwt beam="2">  1       21 0.10817503E+00 0.18569449E+03</pdfrwt>
<totfact> 0.66038054E+04</totfact>
</mgrwt>
</event>
<event>
 4    1  0.3974123E+000  0.2049589E+03  0.7546771E-02  0.1145621E+00
         21   -1    0    0  503  502  0.00000000000E+00  0.00000000000E+00  0.11222659325E+04  0.11222659325E+04  0.00000000000E+00 0. -1.
         21   -1    0    0  501  503 -0.00000000000E+00 -0.00000000000E+00 -0.55784873731E+02  0.55784873731E+02  0.00000000000E+00 0. -1.
          6    1    1    2  501    0  0.64252922787E+02 -0.89166732741E+02  0.19538326913E+03  0.28316561615E+03  0.17300000000E+03 0. -1.
         -6    1    1    2    0  502 -0.64252922787E+02  0.89166732741E+02  0.87109778969E+03  0.89488519013E+03  0.17300000000E+03 0. -1.
<mgrwt>
<rscale>  2 0.20495888E+03</rscale>
<asrwt>0</asrwt>
<pdfrwt beam="1">  1       21 0.17265628E+00 0.20495888E+03</pdfrwt>
<pdfrwt beam="2">  1       21 0.85822891E-02 0.20495888E+03</pdfrwt>
<totfact> 0.21518306E+04</totfact>
</mgrwt>
</event>
<event>
 4    1  0.3974123E+000  0.2020219E+03  0.7546771E-02  0.1148044E+00
         21   -1    0    0  501  502  0.00000000000E+00  0.00000000000E+00  0.15352545472E+03  0.15352545472E+03  0.00000000000E+00 0. -1.
         21   -1    0    0  502  503 -0.00000000000E+00 -0.00000000000E+00 -0.26592806562E+03  0.26592806562E+03  0.00000000000E+00 0. -1.
          6    1    1    2  501    0 -0.77385662917E+02  0.69966528120E+02 -0.60067114270E+02  0.21076269618E+03  0.17300000000E+03 0. -1.
         -6    1    1    2    0  503  0.77385662917E+02 -0.69966528120E+02 -0.52335496624E+02  0.20869082416E+03  0.17300000000E+03 0. -1.
<mgrwt>
<rscale>  2 0.20202192E+03</rscale>
<asrwt>0</asrwt>
<pdfrwt beam="1">  1       21 0.23619301E-01 0.20202192E+03</pdfrwt>
<pdfrwt beam="2">  1       21 0.40912010E-01 0.20202192E+03</pdfrwt>
<totfact> 0.96753228E+04</totfact>
</mgrwt>
</event>
<event>
 4    1  0.3974123E+000  0.1780840E+03  0.7546771E-02  0.1169670E+00
         21   -1    0    0  503  502  0.00000000000E+00  0.00000000000E+00  0.12521311086E+04  0.12521311086E+04  0.00000000000E+00 0.  1.
         21   -1    0    0  501  503 -0.00000000000E+00 -0.00000000000E+00 -0.34672160061E+02  0.34672160061E+02  0.00000000000E+00 0.  1.
          6    1    1    2  501    0 -0.34875219594E+02 -0.23845728811E+02  0.27471654836E+03  0.32738827357E+03  0.17300000000E+03 0.  1.
         -6    1    1    2    0  502  0.34875219594E+02  0.23845728811E+02  0.94274240019E+03  0.95941499511E+03  0.17300000000E+03 0.  1.
<mgrwt>
<rscale>  2 0.17808397E+03</rscale>
<asrwt>0</asrwt>
<pdfrwt beam="1">  1       21 0.19263552E+00 0.17808397E+03</pdfrwt>
<pdfrwt beam="2">  1       21 0.53341795E-02 0.17808397E+03</pdfrwt>
<totfact> 0.36482647E+04</totfact>
</mgrwt>
</event>
<event>
 4    1  0.3974123E+000  0.1874555E+03  0.7546771E-02  0.1160776E+00
         21   -1    0    0  503  502  0.00000000000E+00  0.00000000000E+00  0.17879145829E+04  0.17879145829E+04  0.00000000000E+00 0. -1.
         21   -1    0    0  501  503 -0.00000000000E+00 -0.00000000000E+00 -0.23612997670E+02  0.23612997670E+02  0.00000000000E+00 0. -1.
          6    1    1    2  501    0 -0.20307822113E+01  0.72155792155E+02  0.51126960824E+03  0.54455137015E+03  0.17300000000E+03 0. -1.
         -6    1    1    2    0  502  0.20307822113E+01 -0.72155792155E+02  0.12530319770E+04  0.12669762104E+04  0.17300000000E+03 0. -1.
<mgrwt>
<rscale>  2 0.18745555E+03</rscale>
<asrwt>0</asrwt>
<pdfrwt beam="1">  1       21 0.27506368E+00 0.18745555E+03</pdfrwt>
<pdfrwt beam="2">  1       21 0.36327703E-02 0.18745555E+03</pdfrwt>
<totfact> 0.21981352E+04</totfact>
</mgrwt>
</event>
<event>
 4    1  0.3974123E+000  0.1738121E+03  0.7546771E-02  0.1173930E+00
         21   -1    0    0  501  502  0.00000000000E+00  0.00000000000E+00  0.95414010507E+02  0.95414010507E+02  0.00000000000E+00 0. -1.
         21   -1    0    0  502  503 -0.00000000000E+00 -0.00000000000E+00 -0.33406889771E+03  0.33406889771E+03  0.00000000000E+00 0. -1.
          6    1    1    2  501    0 -0.52593887763E+01 -0.15936661540E+02 -0.70259652964E+02  0.18747548423E+03  0.17300000000E+03 0. -1.
         -6    1    1    2    0  503  0.52593887763E+01  0.15936661540E+02 -0.16839523424E+03  0.24200742399E+03  0.17300000000E+03 0. -1.
<mgrwt>
<rscale>  2 0.17381208E+03</rscale>
<asrwt>0</asrwt>
<pdfrwt beam="1">  1       21 0.14679079E-01 0.17381208E+03</pdfrwt>
<pdfrwt beam="2">  1       21 0.51395215E-01 0.17381208E+03</pdfrwt>
<totfact> 0.14770808E+05</totfact>
</mgrwt>
</event>
<event>
 4    1  0.3974123E+000  0.2447229E+03  0.7546771E-02  0.1116686E+00
         21   -1    0    0  501  502  0.00000000000E+00  0.00000000000E+00  0.31938498679E+03  0.31938498679E+03  0.00000000000E+00 0. -1.
         21   -1    0    0  502  503 -0.00000000000E+00 -0.00000000000E+00 -0.18906021590E+03  0.18906021590E+03  0.00000000000E+00 0.  1.
          6    1    1    2  501    0  0.49319377447E+02  0.16591536912E+03  0.88149332609E+02  0.26011462001E+03  0.17300000000E+03 0. -1.
         -6    1    1    2    0  503 -0.49319377447E+02 -0.16591536912E+03  0.42175438280E+02  0.24833058269E+03  0.17300000000E+03 0. -1.
<mgrwt>
<rscale>  2 0.24472293E+03</rscale>
<asrwt>0</asrwt>
<pdfrwt beam="1">  1       21 0.49136152E-01 0.24472293E+03</pdfrwt>
<pdfrwt beam="2">  1       21 0.29086187E-01 0.24472293E+03</pdfrwt>
<totfact> 0.43648178E+04</totfact>
</mgrwt>
</event>
<event>
 4    1  0.3974123E+000  0.2218286E+03  0.7546771E-02  0.1132527E+00
         21   -1    0    0  503  502  0.00000000000E+00  0.00000000000E+00  0.99524283188E+03  0.99524283188E+03  0.00000000000E+00 0. -1.
         21   -1    0    0  501  503 -0.00000000000E+00 -0.00000000000E+00 -0.31727171286E+03  0.31727171286E+03  0.00000000000E+00 0. -1.
          6    1    1    2  501    0  0.75362852912E+01  0.13864395433E+03 -0.26397221195E+03  0.34480323425E+03  0.17300000000E+03 0. -1.
         -6    1    1    2    0  502 -0.75362852912E+01 -0.13864395433E+03  0.94194333098E+03  0.96771131049E+03  0.17300000000E+03 0. -1.
<mgrwt>
<rscale>  2 0.22182863E+03</rscale>
<asrwt>0</asrwt>
<pdfrwt beam="1">  1       21 0.15311428E+00 0.22182863E+03</pdfrwt>
<pdfrwt beam="2">  1       21 0.48811033E-01 0.22182863E+03</pdfrwt>
<totfact> 0.11019679E+03</totfact>
</mgrwt>
</event>
<event>
 4    1  0.3974123E+000  0.3692829E+03  0.7546771E-02  0.1054968E+00
         21   -1    0    0  503  502  0.00000000000E+00  0.00000000000E+00  0.20208937068E+03  0.20208937068E+03  0.00000000000E+00 0.  1.
         21   -1    0    0  501  503 -0.00000000000E+00 -0.00000000000E+00 -0.69141835444E+03  0.69141835444E+03  0.00000000000E+00 0. -1.
          6    1    1    2  501    0 -0.70183754726E+02 -0.31861429910E+03 -0.31392677558E+03  0.48468531177E+03  0.17300000000E+03 0.  1.
         -6    1    1    2    0  502  0.70183754726E+02  0.31861429910E+03 -0.17540220818E+03  0.40882241335E+03  0.17300000000E+03 0. -1.
<mgrwt>
<rscale>  2 0.36928286E+03</rscale>
<asrwt>0</asrwt>
<pdfrwt beam="1">  1       21 0.31090673E-01 0.36928286E+03</pdfrwt>
<pdfrwt beam="2">  1       21 0.10637205E+00 0.36928286E+03</pdfrwt>
<totfact> 0.63845723E+03</totfact>
</mgrwt>
</event>
<event>
 4    1  0.3974123E+000  0.2785667E+03  0.7546771E-02  0.1096474E+00
         21   -1    0    0  503  502  0.00000000000E+00  0.00000000000E+00  0.45728730631E+03  0.45728730631E+03  0.00000000000E+00 0.  1.
         21   -1    0    0  501  503 -0.00000000000E+00 -0.00000000000E+00 -0.18365587390E+03  0.18365587390E+03  0.00000000000E+00 0.  1.
          6    1    1    2  501    0 -0.73116252481E+01  0.21821309748E+03  0.48458535489E+02  0.28275014666E+03  0.17300000000E+03 0.  1.
         -6    1    1    2    0  502  0.73116252481E+01 -0.21821309748E+03  0.22517289693E+03  0.35819303355E+03  0.17300000000E+03 0.  1.
<mgrwt>
<rscale>  2 0.27856672E+03</rscale>
<asrwt>0</asrwt>
<pdfrwt beam="1">  1       21 0.70351893E-01 0.27856672E+03</pdfrwt>
<pdfrwt beam="2">  1       21 0.28254750E-01 0.27856672E+03</pdfrwt>
<totfact> 0.20993018E+04</totfact>
</mgrwt>
</event>
<event>
 4    1  0.3974123E+000  0.2377255E+03  0.7546771E-02  0.1121317E+00
         21   -1    0    0  501  502  0.00000000000E+00  0.00000000000E+00  0.79991961229E+03  0.79991961229E+03  0.00000000000E+00 0.  1.
         21   -1    0    0  502  503 -0.00000000000E+00 -0.00000000000E+00 -0.11640559288E+03  0.11640559288E+03  0.00000000000E+00 0. -1.
          6    1    1    2  501    0 -0.16250294653E+03  0.13312368462E+02  0.62900705772E+03  0.67243089269E+03  0.17300000000E+03 0. -1.
         -6    1    1    2    0  503  0.16250294653E+03 -0.13312368462E+02  0.54506961695E+02  0.24389431248E+03  0.17300000000E+03 0. -1.
<mgrwt>
<rscale>  2 0.23772553E+03</rscale>
<asrwt>0</asrwt>
<pdfrwt beam="1">  1       21 0.12306455E+00 0.23772553E+03</pdfrwt>
<pdfrwt beam="2">  1       21 0.17908553E-01 0.23772553E+03</pdfrwt>
<totfact> 0.13657312E+04</totfact>
</mgrwt>
</event>
<event>
 4    1  0.3974123E+000  0.2541546E+03  0.7546771E-02  0.1110707E+00
         21   -1    0    0  503  502  0.00000000000E+00  0.00000000000E+00  0.25138265428E+03  0.25138265428E+03  0.00000000000E+00 0. -1.
         21   -1    0    0  501  503 -0.00000000000E+00 -0.00000000000E+00 -0.51902285086E+03  0.51902285086E+03  0.00000000000E+00 0. -1.
          6    1    1    2  501    0 -0.18323558146E+03 -0.33019672723E+02 -0.40753674603E+03  0.48029238643E+03  0.17300000000E+03 0. -1.
         -6    1    1    2    0  502  0.18323558146E+03  0.33019672723E+02  0.13989654945E+03  0.29011311871E+03  0.17300000000E+03 0. -1.
<mgrwt>
<rscale>  2 0.25415463E+03</rscale>
<asrwt>0</asrwt>
<pdfrwt beam="1">  1       21 0.38674255E-01 0.25415463E+03</pdfrwt>
<pdfrwt beam="2">  1       21 0.79849669E-01 0.25415463E+03</pdfrwt>
<totfact> 0.85615234E+03</totfact>
</mgrwt>
</event>
<event>
 4    1  0.3974123E+000  0.1892171E+03  0.7546771E-02  0.1159169E+00
         21   -1    0    0  501  502  0.00000000000E+00  0.00000000000E+00  0.39836522944E+03  0.39836522944E+03  0.00000000000E+00 0. -1.
         21   -1    0    0  502  503 -0.00000000000E+00 -0.00000000000E+00 -0.38783941849E+03  0.38783941849E+03  0.00000000000E+00 0. -1.
          6    1    1    2  501    0 -0.68921349016E+02 -0.33525337183E+02  0.34982047389E+03  0.39771530589E+03  0.17300000000E+03 0. -1.
         -6    1    1    2    0  503  0.68921349016E+02  0.33525337183E+02 -0.33929466294E+03  0.38848934204E+03  0.17300000000E+03 0. -1.
<mgrwt>
<rscale>  2 0.18921707E+03</rscale>
<asrwt>0</asrwt>
<pdfrwt beam="1">  1       21 0.61286958E-01 0.18921707E+03</pdfrwt>
<pdfrwt beam="2">  1       21 0.59667603E-01 0.18921707E+03</pdfrwt>
<totfact> 0.65083973E+03</totfact>
</mgrwt>
</event>
<event>
 4    1  0.3974123E+000  0.2235844E+03  0.7546771E-02  0.1131239E+00
         21   -1    0    0  501  502  0.00000000000E+00  0.00000000000E+00  0.21086613058E+03  0.21086613058E+03  0.00000000000E+00 0.  1.
         21   -1    0    0  502  503 -0.00000000000E+00 -0.00000000000E+00 -0.34877775976E+03  0.34877775976E+03  0.00000000000E+00 0.  1.
          6    1    1    2  501    0 -0.13911588204E+03  0.26603380131E+02  0.89405701447E+02  0.24079731710E+03  0.17300000000E+03 0.  1.
         -6    1    1    2    0  503  0.13911588204E+03 -0.26603380131E+02 -0.22731733063E+03  0.31884657325E+03  0.17300000000E+03 0.  1.
<mgrwt>
<rscale>  2 0.22358437E+03</rscale>
<asrwt>0</asrwt>
<pdfrwt beam="1">  1       21 0.32440943E-01 0.22358437E+03</pdfrwt>
<pdfrwt beam="2">  1       21 0.53658117E-01 0.22358437E+03</pdfrwt>
<totfact> 0.29554800E+04</totfact>
</mgrwt>
</event>
<event>
 4    1  0.3974123E+000  0.2214306E+03  0.7546771E-02  0.1132821E+00
         21   -1    0    0  501  502  0.00000000000E+00  0.00000000000E+00  0.15576563603E+03  0.15576563603E+03  0.00000000000E+00 0. -1.
         21   -1    0    0  502  503 -0.00000000000E+00 -0.00000000000E+00 -0.34786290864E+03  0.34786290864E+03  0.00000000000E+00 0.  1.
          6    1    1    2  501    0 -0.13663965107E+03  0.20787294237E+02 -0.18389059125E+02  0.22219285169E+03  0.17300000000E+03 0. -1.
         -6    1    1    2    0  503  0.13663965107E+03 -0.20787294237E+02 -0.17370821349E+03  0.28143569298E+03  0.17300000000E+03 0.  1.
<mgrwt>
<rscale>  2 0.22143059E+03</rscale>
<asrwt>0</asrwt>
<pdfrwt beam="1">  1       21 0.23963944E-01 0.22143059E+03</pdfrwt>
<pdfrwt beam="2">  1       21 0.53517370E-01 0.22143059E+03</pdfrwt>
<totfact> 0.53531332E+04</totfact>
</mgrwt>
</event>
<event>
 4    1  0.3974123E+000  0.2239242E+03  0.7546771E-02  0.1130991E+00
         21   -1    0    0  501  502  0.00000000000E+00  0.00000000000E+00  0.11469361087E+04  0.11469361087E+04  0.00000000000E+00 0.  1.
         21   -1    0    0  502  503 -0.00000000000E+00 -0.00000000000E+00 -0.53801729039E+02  0.53801729039E+02  0.00000000000E+00 0. -1.
          6    1    1    2  501    0 -0.14188440842E+03 -0.90484768728E+01  0.80647833007E+03  0.83698826584E+03  0.17300000000E+03 0.  1.
         -6    1    1    2    0  503  0.14188440842E+03  0.90484768728E+01  0.28665604959E+03  0.36374957189E+03  0.17300000000E+03 0. -1.
<mgrwt>
<rscale>  2 0.22392423E+03</rscale>
<asrwt>0</asrwt>
<pdfrwt beam="1">  1       21 0.17645169E+00 0.22392423E+03</pdfrwt>
<pdfrwt beam="2">  1       21 0.82771899E-02 0.22392423E+03</pdfrwt>
<totfact> 0.21303291E+04</totfact>
</mgrwt>
</event>
<event>
 4    1  0.3974123E+000  0.1802973E+03  0.7546771E-02  0.1167516E+00
         21   -1    0    0  503  502  0.00000000000E+00  0.00000000000E+00  0.31348024135E+02  0.31348024135E+02  0.00000000000E+00 0.  1.
         21   -1    0    0  501  503 -0.00000000000E+00 -0.00000000000E+00 -0.18465098022E+04  0.18465098022E+04  0.00000000000E+00 0. -1.
          6    1    1    2  501    0  0.38174401217E+02  0.33479007163E+02 -0.15292718709E+04  0.15398634953E+04  0.17300000000E+03 0. -1.
         -6    1    1    2    0  502 -0.38174401217E+02 -0.33479007163E+02 -0.28588990708E+03  0.33799433101E+03  0.17300000000E+03 0.  1.
<mgrwt>
<rscale>  2 0.18029733E+03</rscale>
<asrwt>0</asrwt>
<pdfrwt beam="1">  1       21 0.48227745E-02 0.18029733E+03</pdfrwt>
<pdfrwt beam="2">  1       21 0.28407834E+00 0.18029733E+03</pdfrwt>
<totfact> 0.12211439E+04</totfact>
</mgrwt>
</event>
<event>
 4    1  0.3974123E+000  0.2258887E+03  0.7546771E-02  0.1129567E+00
         21   -1    0    0  501  502  0.00000000000E+00  0.00000000000E+00  0.20690228613E+03  0.20690228613E+03  0.00000000000E+00 0.  1.
         21   -1    0    0  502  503 -0.00000000000E+00 -0.00000000000E+00 -0.25651165236E+03  0.25651165236E+03  0.00000000000E+00 0.  1.
          6    1    1    2  501    0 -0.96067777542E+02  0.10893888357E+03  0.20702257101E+02  0.22683536251E+03  0.17300000000E+03 0.  1.
         -6    1    1    2    0  503  0.96067777542E+02 -0.10893888357E+03 -0.70311623335E+02  0.23657857598E+03  0.17300000000E+03 0.  1.
<mgrwt>
<rscale>  2 0.22588869E+03</rscale>
<asrwt>0</asrwt>
<pdfrwt beam="1">  1       21 0.31831121E-01 0.22588869E+03</pdfrwt>
<pdfrwt beam="2">  1       21 0.39463331E-01 0.22588869E+03</pdfrwt>
<totfact> 0.57873146E+04</totfact>
</mgrwt>
</event>
<event>
 4    1  0.3974123E+000  0.2095546E+03  0.7546771E-02  0.1141919E+00
         21   -1    0    0  501  502  0.00000000000E+00  0.00000000000E+00  0.11153587639E+03  0.11153587639E+03  0.00000000000E+00 0. -1.
         21   -1    0    0  502  503 -0.00000000000E+00 -0.00000000000E+00 -0.95586405393E+03  0.95586405393E+03  0.00000000000E+00 0. -1.
          6    1    1    2  501    0 -0.21766082900E+02 -0.11623418027E+03 -0.12879354783E+02  0.20995005313E+03  0.17300000000E+03 0. -1.
         -6    1    1    2    0  503  0.21766082900E+02  0.11623418027E+03 -0.83144882275E+03  0.85744987719E+03  0.17300000000E+03 0. -1.
<mgrwt>
<rscale>  2 0.20955464E+03</rscale>
<asrwt>0</asrwt>
<pdfrwt beam="1">  1       21 0.17159366E-01 0.20955464E+03</pdfrwt>
<pdfrwt beam="2">  1       21 0.14705600E+00 0.20955464E+03</pdfrwt>
<totfact> 0.95342925E+03</totfact>
</mgrwt>
</event>
<event>
 4    1  0.3974123E+000  0.2078028E+03  0.7546771E-02  0.1143318E+00
         21   -1    0    0  503  502  0.00000000000E+00  0.00000000000E+00  0.75596863522E+02  0.75596863522E+02  0.00000000000E+00 0. -1.
         21   -1    0    0  501  503 -0.00000000000E+00 -0.00000000000E+00 -0.10284145690E+04  0.10284145690E+04  0.00000000000E+00 0.  1.
          6    1    1    2  501    0  0.60154093831E+02  0.98155424769E+02 -0.84446387468E+03  0.86965581586E+03  0.17300000000E+03 0.  1.
         -6    1    1    2    0  502 -0.60154093831E+02 -0.98155424769E+02 -0.10835383081E+03  0.23435561667E+03  0.17300000000E+03 0. -1.
<mgrwt>
<rscale>  2 0.20780280E+03</rscale>
<asrwt>0</asrwt>
<pdfrwt beam="1">  1       21 0.11630288E-01 0.20780280E+03</pdfrwt>
<pdfrwt beam="2">  1       21 0.15821761E+00 0.20780280E+03</pdfrwt>
<totfact> 0.15926445E+04</totfact>
</mgrwt>
</event>
<event>
 4    1  0.3974123E+000  0.1895727E+03  0.7546771E-02  0.1158847E+00
         21   -1    0    0  503  502  0.00000000000E+00  0.00000000000E+00  0.14559771851E+03  0.14559771851E+03  0.00000000000E+00 0.  1.
         21   -1    0    0  501  503 -0.00000000000E+00 -0.00000000000E+00 -0.25740921846E+03  0.25740921846E+03  0.00000000000E+00 0.  1.
          6    1    1    2  501    0 -0.94252808034E+01  0.76941295745E+02 -0.96757379773E+02  0.21283747191E+03  0.17300000000E+03 0.  1.
         -6    1    1    2    0  502  0.94252808034E+01 -0.76941295745E+02 -0.15054120179E+02  0.19016946507E+03  0.17300000000E+03 0.  1.
<mgrwt>
<rscale>  2 0.18957267E+03</rscale>
<asrwt>0</asrwt>
<pdfrwt beam="1">  1       21 0.22399649E-01 0.18957267E+03</pdfrwt>
<pdfrwt beam="2">  1       21 0.39601417E-01 0.18957267E+03</pdfrwt>
<totfact> 0.11481490E+05</totfact>
</mgrwt>
</event>
<event>
 4    1  0.3974123E+000  0.1791520E+03  0.7546771E-02  0.1168626E+00
         21   -1    0    0  503  502  0.00000000000E+00  0.00000000000E+00  0.38193342529E+02  0.38193342529E+02  0.00000000000E+00 0.  1.
         21   -1    0    0  501  503 -0.00000000000E+00 -0.00000000000E+00 -0.17865072111E+04  0.17865072111E+04  0.00000000000E+00 0.  1.
          6    1    1    2  501    0 -0.40313486222E+02 -0.23264944232E+02 -0.15381184685E+04  0.15485166638E+04  0.17300000000E+03 0.  1.
         -6    1    1    2    0  502  0.40313486222E+02  0.23264944232E+02 -0.21019539999E+03  0.27618388979E+03  0.17300000000E+03 0.  1.
<mgrwt>
<rscale>  2 0.17915199E+03</rscale>
<asrwt>0</asrwt>
<pdfrwt beam="1">  1       21 0.58758986E-02 0.17915199E+03</pdfrwt>
<pdfrwt beam="2">  1       21 0.27484727E+00 0.17915199E+03</pdfrwt>
<totfact> 0.98776301E+03</totfact>
</mgrwt>
</event>
<event>
 4    1  0.3974123E+000  0.1753481E+03  0.7546771E-02  0.1172383E+00
         21   -1    0    0  503  502  0.00000000000E+00  0.00000000000E+00  0.78381422359E+03  0.78381422359E+03  0.00000000000E+00 0.  1.
         21   -1    0    0  501  503 -0.00000000000E+00 -0.00000000000E+00 -0.16727155927E+03  0.16727155927E+03  0.00000000000E+00 0.  1.
          6    1    1    2  501    0  0.28584952644E+02 -0.93062942413E+00 -0.10779118243E+03  0.20582979521E+03  0.17300000000E+03 0.  1.
         -6    1    1    2    0  502 -0.28584952644E+02  0.93062942413E+00  0.72433384675E+03  0.74525598765E+03  0.17300000000E+03 0.  1.
<mgrwt>
<rscale>  2 0.17534813E+03</rscale>
<asrwt>0</asrwt>
<pdfrwt beam="1">  1       21 0.12058680E+00 0.17534813E+03</pdfrwt>
<pdfrwt beam="2">  1       21 0.25734086E-01 0.17534813E+03</pdfrwt>
<totfact> 0.75783462E+03</totfact>
</mgrwt>
</event>
<event>
 4    1  0.3974123E+000  0.1871775E+03  0.7546771E-02  0.1161032E+00
         21   -1    0    0  503  502  0.00000000000E+00  0.00000000000E+00  0.84605947487E+03  0.84605947487E+03  0.00000000000E+00 0.  1.
         21   -1    0    0  501  503 -0.00000000000E+00 -0.00000000000E+00 -0.12918583825E+03  0.12918583825E+03  0.00000000000E+00 0.  1.
          6    1    1    2  501    0 -0.22955999807E+02 -0.67671554591E+02 -0.43505413151E+02  0.19216695398E+03  0.17300000000E+03 0.  1.
         -6    1    1    2    0  502  0.22955999807E+02  0.67671554591E+02  0.76037904977E+03  0.78307835914E+03  0.17300000000E+03 0.  1.
<mgrwt>
<rscale>  2 0.18717750E+03</rscale>
<asrwt>0</asrwt>
<pdfrwt beam="1">  1       21 0.13016299E+00 0.18717750E+03</pdfrwt>
<pdfrwt beam="2">  1       21 0.19874745E-01 0.18717750E+03</pdfrwt>
<totfact> 0.10104011E+04</totfact>
</mgrwt>
</event>
<event>
 4    1  0.3974123E+000  0.1956009E+03  0.7546771E-02  0.1153505E+00
         21   -1    0    0  503  502  0.00000000000E+00  0.00000000000E+00  0.36652679099E+03  0.36652679099E+03  0.00000000000E+00 0.  1.
         21   -1    0    0  501  503 -0.00000000000E+00 -0.00000000000E+00 -0.14040957342E+03  0.14040957342E+03  0.00000000000E+00 0. -1.
          6    1    1    2  501    0 -0.56371371874E+02  0.71784178052E+02 -0.15330383805E+02  0.19620071471E+03  0.17300000000E+03 0. -1.
         -6    1    1    2    0  502  0.56371371874E+02 -0.71784178052E+02  0.24144760137E+03  0.31073564970E+03  0.17300000000E+03 0.  1.
<mgrwt>
<rscale>  2 0.19560087E+03</rscale>
<asrwt>0</asrwt>
<pdfrwt beam="1">  1       21 0.56388737E-01 0.19560087E+03</pdfrwt>
<pdfrwt beam="2">  1       21 0.21601473E-01 0.19560087E+03</pdfrwt>
<totfact> 0.59030606E+04</totfact>
</mgrwt>
</event>
<event>
 4    1  0.3974123E+000  0.1867523E+03  0.7546771E-02  0.1161424E+00
         21   -1    0    0  501  502  0.00000000000E+00  0.00000000000E+00  0.15388002644E+04  0.15388002644E+04  0.00000000000E+00 0. -1.
         21   -1    0    0  502  503 -0.00000000000E+00 -0.00000000000E+00 -0.26818410855E+02  0.26818410855E+02  0.00000000000E+00 0. -1.
          6    1    1    2  501    0  0.68060245595E+02 -0.17754215763E+02  0.10640676385E+04  0.10803315919E+04  0.17300000000E+03 0. -1.
         -6    1    1    2    0  503 -0.68060245595E+02  0.17754215763E+02  0.44791421505E+03  0.48528708333E+03  0.17300000000E+03 0. -1.
<mgrwt>
<rscale>  2 0.18675227E+03</rscale>
<asrwt>0</asrwt>
<pdfrwt beam="1">  1       21 0.23673843E+00 0.18675227E+03</pdfrwt>
<pdfrwt beam="2">  1       21 0.41259106E-02 0.18675227E+03</pdfrwt>
<totfact> 0.29779554E+04</totfact>
</mgrwt>
</event>
<event>
 4    1  0.3974123E+000  0.2049867E+03  0.7546771E-02  0.1145599E+00
         21   -1    0    0  503  502  0.00000000000E+00  0.00000000000E+00  0.10867767193E+04  0.10867767193E+04  0.00000000000E+00 0.  1.
         21   -1    0    0  501  503 -0.00000000000E+00 -0.00000000000E+00 -0.60662222899E+02  0.60662222899E+02  0.00000000000E+00 0. -1.
          6    1    1    2  501    0 -0.32588579209E+02 -0.10501677018E+03  0.16757115307E+03  0.26476334500E+03  0.17300000000E+03 0. -1.
         -6    1    1    2    0  502  0.32588579209E+02  0.10501677018E+03  0.85854334329E+03  0.88267559716E+03  0.17300000000E+03 0.  1.
<mgrwt>
<rscale>  2 0.20498668E+03</rscale>
<asrwt>0</asrwt>
<pdfrwt beam="1">  1       21 0.16719640E+00 0.20498668E+03</pdfrwt>
<pdfrwt beam="2">  1       21 0.93326505E-02 0.20498668E+03</pdfrwt>
<totfact> 0.20294348E+04</totfact>
</mgrwt>
</event>
<event>
 4    1  0.3974123E+000  0.1818933E+03  0.7546771E-02  0.1165983E+00
         21   -1    0    0  501  502  0.00000000000E+00  0.00000000000E+00  0.15553945062E+03  0.15553945062E+03  0.00000000000E+00 0. -1.
         21   -1    0    0  502  503 -0.00000000000E+00 -0.00000000000E+00 -0.23838784632E+03  0.23838784632E+03  0.00000000000E+00 0. -1.
          6    1    1    2  501    0 -0.20326984136E+02 -0.52373536064E+02  0.23216021808E+02  0.18336891021E+03  0.17300000000E+03 0. -1.
         -6    1    1    2    0  503  0.20326984136E+02  0.52373536064E+02 -0.10606441751E+03  0.21055838674E+03  0.17300000000E+03 0. -1.
<mgrwt>
<rscale>  2 0.18189330E+03</rscale>
<asrwt>0</asrwt>
<pdfrwt beam="1">  1       21 0.23929146E-01 0.18189330E+03</pdfrwt>
<pdfrwt beam="2">  1       21 0.36675053E-01 0.18189330E+03</pdfrwt>
<totfact> 0.11849679E+05</totfact>
</mgrwt>
</event>
<event>
 4    1  0.3974123E+000  0.1939323E+03  0.7546771E-02  0.1154962E+00
         21   -1    0    0  501  502  0.00000000000E+00  0.00000000000E+00  0.29422025373E+03  0.29422025373E+03  0.00000000000E+00 0.  1.
         21   -1    0    0  502  503 -0.00000000000E+00 -0.00000000000E+00 -0.13296984319E+03  0.13296984319E+03  0.00000000000E+00 0. -1.
          6    1    1    2  501    0  0.85518974173E+02 -0.19163059837E+02  0.12262577503E+03  0.22944890174E+03  0.17300000000E+03 0.  1.
         -6    1    1    2    0  503 -0.85518974173E+02  0.19163059837E+02  0.38624635511E+02  0.19774119519E+03  0.17300000000E+03 0. -1.
<mgrwt>
<rscale>  2 0.19393225E+03</rscale>
<asrwt>0</asrwt>
<pdfrwt beam="1">  1       21 0.45264654E-01 0.19393225E+03</pdfrwt>
<pdfrwt beam="2">  1       21 0.20456899E-01 0.19393225E+03</pdfrwt>
<totfact> 0.10355717E+05</totfact>
</mgrwt>
</event>
<event>
 4    1  0.3974123E+000  0.1792268E+03  0.7546771E-02  0.1168553E+00
         21   -1    0    0  501  502  0.00000000000E+00  0.00000000000E+00  0.60575919424E+02  0.60575919424E+02  0.00000000000E+00 0.  1.
         21   -1    0    0  502  503 -0.00000000000E+00 -0.00000000000E+00 -0.57523139936E+03  0.57523139936E+03  0.00000000000E+00 0.  1.
          6    1    1    2  501    0 -0.10088733949E+02  0.45732435022E+02 -0.16846029704E+03  0.24596973360E+03  0.17300000000E+03 0.  1.
         -6    1    1    2    0  503  0.10088733949E+02 -0.45732435022E+02 -0.34619518289E+03  0.38983758518E+03  0.17300000000E+03 0.  1.
<mgrwt>
<rscale>  2 0.17922678E+03</rscale>
<asrwt>0</asrwt>
<pdfrwt beam="1">  1       21 0.93193720E-02 0.17922678E+03</pdfrwt>
<pdfrwt beam="2">  1       21 0.88497140E-01 0.17922678E+03</pdfrwt>
<totfact> 0.10089708E+05</totfact>
</mgrwt>
</event>
<event>
 4    1  0.3974123E+000  0.1977625E+03  0.7546771E-02  0.1151641E+00
         21   -1    0    0  503  502  0.00000000000E+00  0.00000000000E+00  0.30876227411E+02  0.30876227411E+02  0.00000000000E+00 0.  1.
         21   -1    0    0  501  503 -0.00000000000E+00 -0.00000000000E+00 -0.13550193736E+04  0.13550193736E+04  0.00000000000E+00 0.  1.
          6    1    1    2  501    0  0.87828020181E+02 -0.38304798806E+02 -0.83901209156E+03  0.86200423927E+03  0.17300000000E+03 0.  1.
         -6    1    1    2    0  502 -0.87828020181E+02  0.38304798806E+02 -0.48513105466E+03  0.52389136176E+03  0.17300000000E+03 0.  1.
<mgrwt>
<rscale>  2 0.19776253E+03</rscale>
<asrwt>0</asrwt>
<pdfrwt beam="1">  1       21 0.47501894E-02 0.19776253E+03</pdfrwt>
<pdfrwt beam="2">  1       21 0.20846449E+00 0.19776253E+03</pdfrwt>
<totfact> 0.34679785E+04</totfact>
</mgrwt>
</event>
<event>
 4    1  0.3974123E+000  0.2208172E+03  0.7546771E-02  0.1133275E+00
         21   -1    0    0  503  502  0.00000000000E+00  0.00000000000E+00  0.47326309871E+03  0.47326309871E+03  0.00000000000E+00 0. -1.
         21   -1    0    0  501  503 -0.00000000000E+00 -0.00000000000E+00 -0.11260082117E+03  0.11260082117E+03  0.00000000000E+00 0.  1.
          6    1    1    2  501    0 -0.13630014799E+03  0.15922448352E+02  0.94928240398E+02  0.24035728724E+03  0.17300000000E+03 0.  1.
         -6    1    1    2    0  502  0.13630014799E+03 -0.15922448352E+02  0.26573403714E+03  0.34550663264E+03  0.17300000000E+03 0. -1.
<mgrwt>
<rscale>  2 0.22081724E+03</rscale>
<asrwt>0</asrwt>
<pdfrwt beam="1">  1       21 0.72809706E-01 0.22081724E+03</pdfrwt>
<pdfrwt beam="2">  1       21 0.17323204E-01 0.22081724E+03</pdfrwt>
<totfact> 0.50491640E+04</totfact>
</mgrwt>
</event>
<event>
 4    1  0.3974123E+000  0.1781634E+03  0.7546771E-02  0.1169592E+00
         21   -1    0    0  501  502  0.00000000000E+00  0.00000000000E+00  0.23547403354E+03  0.23547403354E+03  0.00000000000E+00 0.  1.
         21   -1    0    0  502  503 -0.00000000000E+00 -0.00000000000E+00 -0.49017721832E+03  0.49017721832E+03  0.00000000000E+00 0.  1.
          6    1    1    2  501    0  0.21794721089E+01  0.42525856260E+02  0.18158219456E+03  0.25439003897E+03  0.17300000000E+03 0.  1.
         -6    1    1    2    0  503 -0.21794721089E+01 -0.42525856260E+02 -0.43628537933E+03  0.47126121288E+03  0.17300000000E+03 0.  1.
<mgrwt>
<rscale>  2 0.17816340E+03</rscale>
<asrwt>0</asrwt>
<pdfrwt beam="1">  1       21 0.36226775E-01 0.17816340E+03</pdfrwt>
<pdfrwt beam="2">  1       21 0.75411879E-01 0.17816340E+03</pdfrwt>
<totfact> 0.11655151E+04</totfact>
</mgrwt>
</event>
<event>
 4    1  0.3974123E+000  0.1780658E+03  0.7546771E-02  0.1169688E+00
         21   -1    0    0  503  502  0.00000000000E+00  0.00000000000E+00  0.16896962169E+03  0.16896962169E+03  0.00000000000E+00 0.  1.
         21   -1    0    0  501  503 -0.00000000000E+00 -0.00000000000E+00 -0.97496497135E+03  0.97496497135E+03  0.00000000000E+00 0.  1.
          6    1    1    2  501    0  0.40156953785E+02 -0.12877640844E+02 -0.91698275641E+03  0.93411176533E+03  0.17300000000E+03 0.  1.
         -6    1    1    2    0  502 -0.40156953785E+02  0.12877640844E+02  0.11098740676E+03  0.20982282771E+03  0.17300000000E+03 0.  1.
<mgrwt>
<rscale>  2 0.17806576E+03</rscale>
<asrwt>0</asrwt>
<pdfrwt beam="1">  1       21 0.25995326E-01 0.17806576E+03</pdfrwt>
<pdfrwt beam="2">  1       21 0.14999461E+00 0.17806576E+03</pdfrwt>
<totfact> 0.42565917E+03</totfact>
</mgrwt>
</event>
<event>
 4    1  0.3974123E+000  0.2037322E+03  0.7546771E-02  0.1146628E+00
         21   -1    0    0  501  502  0.00000000000E+00  0.00000000000E+00  0.76395602803E+03  0.76395602803E+03  0.00000000000E+00 0. -1.
         21   -1    0    0  502  503 -0.00000000000E+00 -0.00000000000E+00 -0.56487433503E+02  0.56487433503E+02  0.00000000000E+00 0. -1.
          6    1    1    2  501    0  0.71571026427E+02 -0.80345542556E+02  0.43387777565E+03  0.47932947149E+03  0.17300000000E+03 0. -1.
         -6    1    1    2    0  503 -0.71571026427E+02  0.80345542556E+02  0.27359081888E+03  0.34111399005E+03  0.17300000000E+03 0. -1.
<mgrwt>
<rscale>  2 0.20373222E+03</rscale>
<asrwt>0</asrwt>
<pdfrwt beam="1">  1       21 0.11753169E+00 0.20373222E+03</pdfrwt>
<pdfrwt beam="2">  1       21 0.86903749E-02 0.20373222E+03</pdfrwt>
<totfact> 0.57408092E+04</totfact>
</mgrwt>
</event>
<event>
 4    1  0.3974123E+000  0.1730580E+03  0.7546771E-02  0.1174696E+00
         21   -1    0    0  503  502  0.00000000000E+00  0.00000000000E+00  0.17129932102E+03  0.17129932102E+03  0.00000000000E+00 0. -1.
         21   -1    0    0  501  503 -0.00000000000E+00 -0.00000000000E+00 -0.17483561968E+03  0.17483561968E+03  0.00000000000E+00 0. -1.
          6    1    1    2  501    0  0.40618889920E+01  0.18946461014E+01 -0.21346588022E+01  0.17307121481E+03  0.17300000000E+03 0. -1.
         -6    1    1    2    0  502 -0.40618889920E+01 -0.18946461014E+01 -0.14016398602E+01  0.17306372589E+03  0.17300000000E+03 0. -1.
<mgrwt>
<rscale>  2 0.17305805E+03</rscale>
<asrwt>0</asrwt>
<pdfrwt beam="1">  1       21 0.26353742E-01 0.17305805E+03</pdfrwt>
<pdfrwt beam="2">  1       21 0.26897788E-01 0.17305805E+03</pdfrwt>
<totfact> 0.18131765E+05</totfact>
</mgrwt>
</event>
<event>
 4    1  0.3974123E+000  0.1955614E+03  0.7546771E-02  0.1153539E+00
         21   -1    0    0  503  502  0.00000000000E+00  0.00000000000E+00  0.13256465810E+04  0.13256465810E+04  0.00000000000E+00 0.  1.
         21   -1    0    0  501  503 -0.00000000000E+00 -0.00000000000E+00 -0.31290956202E+02  0.31290956202E+02  0.00000000000E+00 0.  1.
          6    1    1    2  501    0  0.87505400453E+02 -0.25653110956E+02  0.45766329425E+03  0.49769465349E+03  0.17300000000E+03 0.  1.
         -6    1    1    2    0  502 -0.87505400453E+02  0.25653110956E+02  0.83669233056E+03  0.85924288372E+03  0.17300000000E+03 0.  1.
<mgrwt>
<rscale>  2 0.19556144E+03</rscale>
<asrwt>0</asrwt>
<pdfrwt beam="1">  1       21 0.20394558E+00 0.19556144E+03</pdfrwt>
<pdfrwt beam="2">  1       21 0.48139943E-02 0.19556144E+03</pdfrwt>
<totfact> 0.36267811E+04</totfact>
</mgrwt>
</event>
<event>
 4    1  0.3974123E+000  0.2717033E+03  0.7546771E-02  0.1100309E+00
         21   -1    0    0  503  502  0.00000000000E+00  0.00000000000E+00  0.17752737700E+03  0.17752737700E+03  0.00000000000E+00 0. -1.
         21   -1    0    0  501  503 -0.00000000000E+00 -0.00000000000E+00 -0.74242097511E+03  0.74242097511E+03  0.00000000000E+00 0.  1.
          6    1    1    2  501    0 -0.20848596710E+03  0.20671520402E+02 -0.58752052153E+03  0.64730446735E+03  0.17300000000E+03 0.  1.
         -6    1    1    2    0  502  0.20848596710E+03 -0.20671520402E+02  0.22626923421E+02  0.27264388476E+03  0.17300000000E+03 0. -1.
<mgrwt>
<rscale>  2 0.27170335E+03</rscale>
<asrwt>0</asrwt>
<pdfrwt beam="1">  1       21 0.27311904E-01 0.27170335E+03</pdfrwt>
<pdfrwt beam="2">  1       21 0.11421861E+00 0.27170335E+03</pdfrwt>
<totfact> 0.72370424E+03</totfact>
</mgrwt>
</event>
<event>
 4    1  0.3974123E+000  0.2139724E+03  0.7546771E-02  0.1138458E+00
         21   -1    0    0  503  502  0.00000000000E+00  0.00000000000E+00  0.88240324439E+02  0.88240324439E+02  0.00000000000E+00 0. -1.
         21   -1    0    0  501  503 -0.00000000000E+00 -0.00000000000E+00 -0.57705300793E+03  0.57705300793E+03  0.00000000000E+00 0.  1.
          6    1    1    2  501    0 -0.74301497341E+02 -0.10165865013E+03 -0.35004390658E+03  0.41026202626E+03  0.17300000000E+03 0. -1.
         -6    1    1    2    0  502  0.74301497341E+02  0.10165865013E+03 -0.13876877690E+03  0.25503130611E+03  0.17300000000E+03 0. -1.
<mgrwt>
<rscale>  2 0.21397241E+03</rscale>
<asrwt>0</asrwt>
<pdfrwt beam="1">  1       21 0.13575435E-01 0.21397241E+03</pdfrwt>
<pdfrwt beam="2">  1       21 0.88777384E-01 0.21397241E+03</pdfrwt>
<totfact> 0.50439906E+04</totfact>
</mgrwt>
</event>
<event>
 4    1  0.3974123E+000  0.2013763E+03  0.7546771E-02  0.1148583E+00
         21   -1    0    0  501  502  0.00000000000E+00  0.00000000000E+00  0.74003353448E+03  0.74003353448E+03  0.00000000000E+00 0. -1.
         21   -1    0    0  502  503 -0.00000000000E+00 -0.00000000000E+00 -0.55977219313E+02  0.55977219313E+02  0.00000000000E+00 0. -1.
          6    1    1    2  501    0 -0.28211812051E+01  0.10303136971E+03  0.39979312049E+03  0.44764602243E+03  0.17300000000E+03 0. -1.
         -6    1    1    2    0  503  0.28211812051E+01 -0.10303136971E+03  0.28426319468E+03  0.34836473136E+03  0.17300000000E+03 0. -1.
<mgrwt>
<rscale>  2 0.20137632E+03</rscale>
<asrwt>0</asrwt>
<pdfrwt beam="1">  1       21 0.11385131E+00 0.20137632E+03</pdfrwt>
<pdfrwt beam="2">  1       21 0.86118804E-02 0.20137632E+03</pdfrwt>
<totfact> 0.63119689E+04</totfact>
</mgrwt>
</event>
<event>
 4    1  0.3974123E+000  0.1859769E+03  0.7546771E-02  0.1162141E+00
         21   -1    0    0  503  502  0.00000000000E+00  0.00000000000E+00  0.50001261224E+03  0.50001261224E+03  0.00000000000E+00 0.  1.
         21   -1    0    0  501  503 -0.00000000000E+00 -0.00000000000E+00 -0.70760639752E+02  0.70760639752E+02  0.00000000000E+00 0. -1.
          6    1    1    2  501    0  0.11696330371E+02  0.67242751929E+02  0.17187871315E+03  0.25323839335E+03  0.17300000000E+03 0. -1.
         -6    1    1    2    0  502 -0.11696330371E+02 -0.67242751929E+02  0.25737325933E+03  0.31753485864E+03  0.17300000000E+03 0.  1.
<mgrwt>
<rscale>  2 0.18597686E+03</rscale>
<asrwt>0</asrwt>
<pdfrwt beam="1">  1       21 0.76925015E-01 0.18597686E+03</pdfrwt>
<pdfrwt beam="2">  1       21 0.10886253E-01 0.18597686E+03</pdfrwt>
<totfact> 0.10514361E+05</totfact>
</mgrwt>
</event>
<event>
 4    1  0.3974123E+000  0.2061942E+03  0.7546771E-02  0.1144616E+00
         21   -1    0    0  501  502  0.00000000000E+00  0.00000000000E+00  0.89677412584E+02  0.89677412584E+02  0.00000000000E+00 0.  1.
         21   -1    0    0  502  503 -0.00000000000E+00 -0.00000000000E+00 -0.56580540026E+03  0.56580540026E+03  0.00000000000E+00 0.  1.
          6    1    1    2  501    0 -0.14946764542E+02  0.11119196544E+03 -0.10611828015E+03  0.23189900459E+03  0.17300000000E+03 0.  1.
         -6    1    1    2    0  503  0.14946764542E+02 -0.11119196544E+03 -0.37000970753E+03  0.42358380826E+03  0.17300000000E+03 0.  1.
<mgrwt>
<rscale>  2 0.20619423E+03</rscale>
<asrwt>0</asrwt>
<pdfrwt beam="1">  1       21 0.13796525E-01 0.20619423E+03</pdfrwt>
<pdfrwt beam="2">  1       21 0.87046983E-01 0.20619423E+03</pdfrwt>
<totfact> 0.51455846E+04</totfact>
</mgrwt>
</event>
<event>
 4    1  0.3974123E+000  0.1969202E+03  0.7546771E-02  0.1152364E+00
         21   -1    0    0  501  502  0.00000000000E+00  0.00000000000E+00  0.26483399065E+03  0.26483399065E+03  0.00000000000E+00 0. -1.
         21   -1    0    0  502  503 -0.00000000000E+00 -0.00000000000E+00 -0.19203147924E+03  0.19203147924E+03  0.00000000000E+00 0. -1.
          6    1    1    2  501    0  0.63505695151E+02 -0.69394471268E+02  0.14772784471E+03  0.24617287028E+03  0.17300000000E+03 0. -1.
         -6    1    1    2    0  503 -0.63505695151E+02  0.69394471268E+02 -0.74925333300E+02  0.21069259961E+03  0.17300000000E+03 0. -1.
<mgrwt>
<rscale>  2 0.19692020E+03</rscale>
<asrwt>0</asrwt>
<pdfrwt beam="1">  1       21 0.40743691E-01 0.19692020E+03</pdfrwt>
<pdfrwt beam="2">  1       21 0.29543305E-01 0.19692020E+03</pdfrwt>
<totfact> 0.63591764E+04</totfact>
</mgrwt>
</event>
<event>
 4    1  0.3974123E+000  0.2932959E+03  0.7546771E-02  0.1088641E+00
         21   -1    0    0  503  502  0.00000000000E+00  0.00000000000E+00  0.76817510934E+02  0.76817510934E+02  0.00000000000E+00 0.  1.
         21   -1    0    0  501  503 -0.00000000000E+00 -0.00000000000E+00 -0.12097750425E+04  0.12097750425E+04  0.00000000000E+00 0. -1.
          6    1    1    2  501    0  0.23148692811E+03 -0.50072886913E+02 -0.74188671541E+03  0.79775835338E+03  0.17300000000E+03 0. -1.
         -6    1    1    2    0  502 -0.23148692811E+03  0.50072886913E+02 -0.39107081614E+03  0.48883420004E+03  0.17300000000E+03 0.  1.
<mgrwt>
<rscale>  2 0.29329591E+03</rscale>
<asrwt>0</asrwt>
<pdfrwt beam="1">  1       21 0.11818079E-01 0.29329591E+03</pdfrwt>
<pdfrwt beam="2">  1       21 0.18611923E+00 0.29329591E+03</pdfrwt>
<totfact> 0.93216186E+03</totfact>
</mgrwt>
</event>
<event>
 4    1  0.3974123E+000  0.2418771E+03  0.7546771E-02  0.1118549E+00
         21   -1    0    0  501  502  0.00000000000E+00  0.00000000000E+00  0.38126339548E+03  0.38126339548E+03  0.00000000000E+00 0.  1.
         21   -1    0    0  502  503 -0.00000000000E+00 -0.00000000000E+00 -0.16070643822E+03  0.16070643822E+03  0.00000000000E+00 0. -1.
          6    1    1    2  501    0 -0.49803853594E+02  0.16153975566E+03  0.16786459920E+03  0.29441983655E+03  0.17300000000E+03 0. -1.
         -6    1    1    2    0  503  0.49803853594E+02 -0.16153975566E+03  0.52692358065E+02  0.24754999715E+03  0.17300000000E+03 0. -1.
<mgrwt>
<rscale>  2 0.24187707E+03</rscale>
<asrwt>0</asrwt>
<pdfrwt beam="1">  1       21 0.58655907E-01 0.24187707E+03</pdfrwt>
<pdfrwt beam="2">  1       21 0.24724067E-01 0.24187707E+03</pdfrwt>
<totfact> 0.41107925E+04</totfact>
</mgrwt>
</event>
<event>
 4    1  0.3974123E+000  0.1940759E+03  0.7546771E-02  0.1154836E+00
         21   -1    0    0  503  502  0.00000000000E+00  0.00000000000E+00  0.98672874073E+03  0.98672874073E+03  0.00000000000E+00 0.  1.
         21   -1    0    0  501  503 -0.00000000000E+00 -0.00000000000E+00 -0.39850708905E+02  0.39850708905E+02  0.00000000000E+00 0.  1.
          6    1    1    2  501    0 -0.87909572560E+02  0.28899188235E+01  0.36809068914E+03  0.41612041528E+03  0.17300000000E+03 0.  1.
         -6    1    1    2    0  502  0.87909572560E+02 -0.28899188235E+01  0.57878734268E+03  0.61045903436E+03  0.17300000000E+03 0.  1.
<mgrwt>
<rscale>  2 0.19407587E+03</rscale>
<asrwt>0</asrwt>
<pdfrwt beam="1">  1       21 0.15180440E+00 0.19407587E+03</pdfrwt>
<pdfrwt beam="2">  1       21 0.61308791E-02 0.19407587E+03</pdfrwt>
<totfact> 0.54994234E+04</totfact>
</mgrwt>
</event>
<event>
 4    1  0.3974123E+000  0.1856168E+03  0.7546771E-02  0.1162475E+00
         21   -1    0    0  501  502  0.00000000000E+00  0.00000000000E+00  0.31493057009E+03  0.31493057009E+03  0.00000000000E+00 0.  1.
         21   -1    0    0  502  503 -0.00000000000E+00 -0.00000000000E+00 -0.11729358874E+03  0.11729358874E+03  0.00000000000E+00 0.  1.
          6    1    1    2  501    0 -0.66186756902E+02 -0.11996312686E+02  0.42757313685E+02  0.19047778396E+03  0.17300000000E+03 0.  1.
         -6    1    1    2    0  503  0.66186756902E+02  0.11996312686E+02  0.15487966767E+03  0.24174637488E+03  0.17300000000E+03 0.  1.
<mgrwt>
<rscale>  2 0.18561681E+03</rscale>
<asrwt>0</asrwt>
<pdfrwt beam="1">  1       21 0.48450857E-01 0.18561681E+03</pdfrwt>
<pdfrwt beam="2">  1       21 0.18045168E-01 0.18561681E+03</pdfrwt>
<totfact> 0.11397905E+05</totfact>
</mgrwt>
</event>
<event>
 4    1  0.3974123E+000  0.1848502E+03  0.7546771E-02  0.1163190E+00
         21   -1    0    0  501  502  0.00000000000E+00  0.00000000000E+00  0.60109607903E+03  0.60109607903E+03  0.00000000000E+00 0. -1.
         21   -1    0    0  502  503 -0.00000000000E+00 -0.00000000000E+00 -0.63405748749E+02  0.63405748749E+02  0.00000000000E+00 0. -1.
          6    1    1    2  501    0  0.65115555358E+02 -0.74097066151E+00  0.37571699933E+03  0.41872765394E+03  0.17300000000E+03 0. -1.
         -6    1    1    2    0  503 -0.65115555358E+02  0.74097066151E+00  0.16197333095E+03  0.24577417384E+03  0.17300000000E+03 0. -1.
<mgrwt>
<rscale>  2 0.18485017E+03</rscale>
<asrwt>0</asrwt>
<pdfrwt beam="1">  1       21 0.92476316E-01 0.18485017E+03</pdfrwt>
<pdfrwt beam="2">  1       21 0.97547310E-02 0.18485017E+03</pdfrwt>
<totfact> 0.83908482E+04</totfact>
</mgrwt>
</event>
<event>
 4    1  0.3974123E+000  0.1756292E+03  0.7546771E-02  0.1172101E+00
         21   -1    0    0  503  502  0.00000000000E+00  0.00000000000E+00  0.17769501284E+03  0.17769501284E+03  0.00000000000E+00 0.  1.
         21   -1    0    0  501  503 -0.00000000000E+00 -0.00000000000E+00 -0.22060702243E+03  0.22060702243E+03  0.00000000000E+00 0.  1.
          6    1    1    2  501    0 -0.29290917856E+02  0.76581914020E+01 -0.11339773648E+03  0.20905657704E+03  0.17300000000E+03 0. -1.
         -6    1    1    2    0  502  0.29290917856E+02 -0.76581914020E+01  0.70485726890E+02  0.18924545823E+03  0.17300000000E+03 0. -1.
<mgrwt>
<rscale>  2 0.17562917E+03</rscale>
<asrwt>0</asrwt>
<pdfrwt beam="1">  1       21 0.27337694E-01 0.17562917E+03</pdfrwt>
<pdfrwt beam="2">  1       21 0.33939542E-01 0.17562917E+03</pdfrwt>
<totfact> 0.10739678E+05</totfact>
</mgrwt>
</event>
<event>
 4    1  0.3974123E+000  0.2696054E+03  0.7546771E-02  0.1101506E+00
         21   -1    0    0  501  502  0.00000000000E+00  0.00000000000E+00  0.46374866601E+03  0.46374866601E+03  0.00000000000E+00 0. -1.
         21   -1    0    0  502  503 -0.00000000000E+00 -0.00000000000E+00 -0.15678782085E+03  0.15678782085E+03  0.00000000000E+00 0.  1.
          6    1    1    2  501    0  0.15851262709E+03  0.13278488296E+03  0.14795438911E+03  0.30753467991E+03  0.17300000000E+03 0.  1.
         -6    1    1    2    0  503 -0.15851262709E+03 -0.13278488296E+03  0.15900645605E+03  0.31300180695E+03  0.17300000000E+03 0. -1.
<mgrwt>
<rscale>  2 0.26960541E+03</rscale>
<asrwt>0</asrwt>
<pdfrwt beam="1">  1       21 0.71345948E-01 0.26960541E+03</pdfrwt>
<pdfrwt beam="2">  1       21 0.24121203E-01 0.26960541E+03</pdfrwt>
<totfact> 0.27734459E+04</totfact>
</mgrwt>
</event>
<event>
 4    1  0.3974123E+000  0.1827691E+03  0.7546771E-02  0.1165150E+00
         21   -1    0    0  503  502  0.00000000000E+00  0.00000000000E+00  0.39221926841E+03  0.39221926841E+03  0.00000000000E+00 0. -1.
         21   -1    0    0  501  503 -0.00000000000E+00 -0.00000000000E+00 -0.85581557594E+02  0.85581557594E+02  0.00000000000E+00 0.  1.
          6    1    1    2  501    0  0.52024871185E+02 -0.27729779181E+02  0.13671157479E+03  0.22824237678E+03  0.17300000000E+03 0.  1.
         -6    1    1    2    0  502 -0.52024871185E+02  0.27729779181E+02  0.16992613602E+03  0.24955844922E+03  0.17300000000E+03 0.  1.
<mgrwt>
<rscale>  2 0.18276906E+03</rscale>
<asrwt>0</asrwt>
<pdfrwt beam="1">  1       21 0.60341425E-01 0.18276906E+03</pdfrwt>
<pdfrwt beam="2">  1       21 0.13166394E-01 0.18276906E+03</pdfrwt>
<totfact> 0.12761069E+05</totfact>
</mgrwt>
</event>
<event>
 4    1  0.3974123E+000  0.1910041E+03  0.7546771E-02  0.1157559E+00
         21   -1    0    0  503  502  0.00000000000E+00  0.00000000000E+00  0.16627296531E+03  0.16627296531E+03  0.00000000000E+00 0.  1.
         21   -1    0    0  501  503 -0.00000000000E+00 -0.00000000000E+00 -0.28730278940E+03  0.28730278940E+03  0.00000000000E+00 0.  1.
          6    1    1    2  501    0  0.26049198461E+02 -0.76648574381E+02 -0.17075763762E+03  0.25620447986E+03  0.17300000000E+03 0.  1.
         -6    1    1    2    0  502 -0.26049198461E+02  0.76648574381E+02  0.49727813540E+02  0.19737127485E+03  0.17300000000E+03 0.  1.
<mgrwt>
<rscale>  2 0.19100410E+03</rscale>
<asrwt>0</asrwt>
<pdfrwt beam="1">  1       21 0.25580456E-01 0.19100410E+03</pdfrwt>
<pdfrwt beam="2">  1       21 0.44200429E-01 0.19100410E+03</pdfrwt>
<totfact> 0.71319557E+04</totfact>
</mgrwt>
</event>
<event>
 4    1  0.3974123E+000  0.1747396E+03  0.7546771E-02  0.1172993E+00
         21   -1    0    0  503  502  0.00000000000E+00  0.00000000000E+00  0.26391882250E+03  0.26391882250E+03  0.00000000000E+00 0.  1.
         21   -1    0    0  501  503 -0.00000000000E+00 -0.00000000000E+00 -0.12406169525E+03  0.12406169525E+03  0.00000000000E+00 0.  1.
          6    1    1    2  501    0 -0.22513925713E+02 -0.99027957204E+01  0.19549232751E+02  0.17582978904E+03  0.17300000000E+03 0.  1.
         -6    1    1    2    0  502  0.22513925713E+02  0.99027957204E+01  0.12030789449E+03  0.21215072871E+03  0.17300000000E+03 0.  1.
<mgrwt>
<rscale>  2 0.17473964E+03</rscale>
<asrwt>0</asrwt>
<pdfrwt beam="1">  1       21 0.40602896E-01 0.17473964E+03</pdfrwt>
<pdfrwt beam="2">  1       21 0.19086415E-01 0.17473964E+03</pdfrwt>
<totfact> 0.14804570E+05</totfact>
</mgrwt>
</event>
<event>
 4    1  0.3974123E+000  0.2201617E+03  0.7546771E-02  0.1133763E+00
         21   -1    0    0  503  502  0.00000000000E+00  0.00000000000E+00  0.32687335669E+03  0.32687335669E+03  0.00000000000E+00 0. -1.
         21   -1    0    0  501  503 -0.00000000000E+00 -0.00000000000E+00 -0.22521663492E+03  0.22521663492E+03  0.00000000000E+00 0. -1.
          6    1    1    2  501    0 -0.12660404068E+03 -0.50135540828E+02 -0.11050557836E+03  0.24633846313E+03  0.17300000000E+03 0. -1.
         -6    1    1    2    0  502  0.12660404068E+03  0.50135540828E+02  0.21216230013E+03  0.30575152848E+03  0.17300000000E+03 0. -1.
<mgrwt>
<rscale>  2 0.22016166E+03</rscale>
<asrwt>0</asrwt>
<pdfrwt beam="1">  1       21 0.50288209E-01 0.22016166E+03</pdfrwt>
<pdfrwt beam="2">  1       21 0.34648713E-01 0.22016166E+03</pdfrwt>
<totfact> 0.29785567E+04</totfact>
</mgrwt>
</event>
<event>
 4    1  0.3974123E+000  0.3116065E+03  0.7546771E-02  0.1079578E+00
         21   -1    0    0  503  502  0.00000000000E+00  0.00000000000E+00  0.94218985046E+03  0.94218985046E+03  0.00000000000E+00 0.  1.
         21   -1    0    0  501  503 -0.00000000000E+00 -0.00000000000E+00 -0.12378183522E+03  0.12378183522E+03  0.00000000000E+00 0. -1.
          6    1    1    2  501    0  0.25816905998E+03 -0.22767639294E+02  0.19111199058E+03  0.36554400812E+03  0.17300000000E+03 0. -1.
         -6    1    1    2    0  502 -0.25816905998E+03  0.22767639294E+02  0.62729602466E+03  0.70042767755E+03  0.17300000000E+03 0.  1.
<mgrwt>
<rscale>  2 0.31160653E+03</rscale>
<asrwt>0</asrwt>
<pdfrwt beam="1">  1       21 0.14495228E+00 0.31160653E+03</pdfrwt>
<pdfrwt beam="2">  1       21 0.19043360E-01 0.31160653E+03</pdfrwt>
<totfact> 0.76783443E+03</totfact>
</mgrwt>
</event>
<event>
 4    1  0.3974123E+000  0.1859322E+03  0.7546771E-02  0.1162182E+00
         21   -1    0    0  503  502  0.00000000000E+00  0.00000000000E+00  0.51126207818E+03  0.51126207818E+03  0.00000000000E+00 0.  1.
         21   -1    0    0  501  503 -0.00000000000E+00 -0.00000000000E+00 -0.68078239913E+02  0.68078239913E+02  0.00000000000E+00 0.  1.
          6    1    1    2  501    0  0.40544223989E+02 -0.54753694740E+02  0.19778893782E+03  0.27146135105E+03  0.17300000000E+03 0.  1.
         -6    1    1    2    0  502 -0.40544223989E+02  0.54753694740E+02  0.24539490045E+03  0.30787896705E+03  0.17300000000E+03 0.  1.
<mgrwt>
<rscale>  2 0.18593225E+03</rscale>
<asrwt>0</asrwt>
<pdfrwt beam="1">  1       21 0.78655702E-01 0.18593225E+03</pdfrwt>
<pdfrwt beam="2">  1       21 0.10473576E-01 0.18593225E+03</pdfrwt>
<totfact> 0.10711398E+05</totfact>
</mgrwt>
</event>
<event>
 4    1  0.3974123E+000  0.1873359E+03  0.7546771E-02  0.1160886E+00
         21   -1    0    0  503  502  0.00000000000E+00  0.00000000000E+00  0.93488308752E+02  0.93488308752E+02  0.00000000000E+00 0. -1.
         21   -1    0    0  501  503 -0.00000000000E+00 -0.00000000000E+00 -0.87972044904E+03  0.87972044904E+03  0.00000000000E+00 0.  1.
          6    1    1    2  501    0  0.46253281290E+02 -0.55012431358E+02 -0.76155078092E+03  0.78425399301E+03  0.17300000000E+03 0.  1.
         -6    1    1    2    0  502 -0.46253281290E+02  0.55012431358E+02 -0.24681359372E+02  0.18895476478E+03  0.17300000000E+03 0. -1.
<mgrwt>
<rscale>  2 0.18733588E+03</rscale>
<asrwt>0</asrwt>
<pdfrwt beam="1">  1       21 0.14382817E-01 0.18733588E+03</pdfrwt>
<pdfrwt beam="2">  1       21 0.13534161E+00 0.18733588E+03</pdfrwt>
<totfact> 0.16586160E+04</totfact>
</mgrwt>
</event>
<event>
 4    1  0.3974123E+000  0.1877268E+03  0.7546771E-02  0.1160528E+00
         21   -1    0    0  501  502  0.00000000000E+00  0.00000000000E+00  0.25075057824E+03  0.25075057824E+03  0.00000000000E+00 0.  1.
         21   -1    0    0  502  503 -0.00000000000E+00 -0.00000000000E+00 -0.22466385098E+03  0.22466385098E+03  0.00000000000E+00 0.  1.
          6    1    1    2  501    0 -0.56936725884E+02  0.45503373401E+02  0.15849763125E+03  0.24568851592E+03  0.17300000000E+03 0.  1.
         -6    1    1    2    0  503  0.56936725884E+02 -0.45503373401E+02 -0.13241090399E+03  0.22972591330E+03  0.17300000000E+03 0.  1.
<mgrwt>
<rscale>  2 0.18772679E+03</rscale>
<asrwt>0</asrwt>
<pdfrwt beam="1">  1       21 0.38577012E-01 0.18772679E+03</pdfrwt>
<pdfrwt beam="2">  1       21 0.34563669E-01 0.18772679E+03</pdfrwt>
<totfact> 0.52393968E+04</totfact>
</mgrwt>
</event>
<event>
 4    1  0.3974123E+000  0.2938477E+03  0.7546771E-02  0.1088357E+00
         21   -1    0    0  503  502  0.00000000000E+00  0.00000000000E+00  0.16572088808E+03  0.16572088808E+03  0.00000000000E+00 0. -1.
         21   -1    0    0  501  503 -0.00000000000E+00 -0.00000000000E+00 -0.77948219786E+03  0.77948219786E+03  0.00000000000E+00 0.  1.
          6    1    1    2  501    0  0.19571306217E+03  0.13458774374E+03 -0.57901135576E+03  0.64930779571E+03  0.17300000000E+03 0.  1.
         -6    1    1    2    0  502 -0.19571306217E+03 -0.13458774374E+03 -0.34749954015E+02  0.29589529022E+03  0.17300000000E+03 0. -1.
<mgrwt>
<rscale>  2 0.29384769E+03</rscale>
<asrwt>0</asrwt>
<pdfrwt beam="1">  1       21 0.25495521E-01 0.29384769E+03</pdfrwt>
<pdfrwt beam="2">  1       21 0.11992034E+00 0.29384769E+03</pdfrwt>
<totfact> 0.72424367E+03</totfact>
</mgrwt>
</event>
<event>
 4    1  0.3974123E+000  0.1886195E+03  0.7546771E-02  0.1159712E+00
         21   -1    0    0  503  502  0.00000000000E+00  0.00000000000E+00  0.18610029008E+04  0.18610029008E+04  0.00000000000E+00 0. -1.
         21   -1    0    0  501  503 -0.00000000000E+00 -0.00000000000E+00 -0.25241380553E+02  0.25241380553E+02  0.00000000000E+00 0. -1.
          6    1    1    2  501    0 -0.20126949881E+02  0.72409966947E+02  0.45333034600E+03  0.49100478616E+03  0.17300000000E+03 0. -1.
         -6    1    1    2    0  502  0.20126949881E+02 -0.72409966947E+02  0.13824311743E+04  0.13952394952E+04  0.17300000000E+03 0. -1.
<mgrwt>
<rscale>  2 0.18861945E+03</rscale>
<asrwt>0</asrwt>
<pdfrwt beam="1">  1       21 0.28630803E+00 0.18861945E+03</pdfrwt>
<pdfrwt beam="2">  1       21 0.38832908E-02 0.18861945E+03</pdfrwt>
<totfact> 0.16921123E+04</totfact>
</mgrwt>
</event>
<event>
 4    1  0.3974123E+000  0.1813034E+03  0.7546771E-02  0.1166548E+00
         21   -1    0    0  503  502  0.00000000000E+00  0.00000000000E+00  0.23027362733E+02  0.23027362733E+02  0.00000000000E+00 0. -1.
         21   -1    0    0  501  503 -0.00000000000E+00 -0.00000000000E+00 -0.14839877412E+04  0.14839877412E+04  0.00000000000E+00 0. -1.
          6    1    1    2  501    0 -0.28974978191E+02  0.45851495314E+02 -0.87752789714E+03  0.89606144837E+03  0.17300000000E+03 0. -1.
         -6    1    1    2    0  502  0.28974978191E+02 -0.45851495314E+02 -0.58343248129E+03  0.61095365553E+03  0.17300000000E+03 0. -1.
<mgrwt>
<rscale>  2 0.18130336E+03</rscale>
<asrwt>0</asrwt>
<pdfrwt beam="1">  1       21 0.35426705E-02 0.18130336E+03</pdfrwt>
<pdfrwt beam="2">  1       21 0.22830585E+00 0.18130336E+03</pdfrwt>
<totfact> 0.43347100E+04</totfact>
</mgrwt>
</event>
<event>
 4    1  0.3974123E+000  0.2231635E+03  0.7546771E-02  0.1131546E+00
         21   -1    0    0  501  502  0.00000000000E+00  0.00000000000E+00  0.28012571808E+03  0.28012571808E+03  0.00000000000E+00 0. -1.
         21   -1    0    0  502  503 -0.00000000000E+00 -0.00000000000E+00 -0.22550741851E+03  0.22550741851E+03  0.00000000000E+00 0. -1.
          6    1    1    2  501    0  0.13588200727E+03 -0.37537312283E+02  0.14361171105E+03  0.26537952683E+03  0.17300000000E+03 0. -1.
         -6    1    1    2    0  503 -0.13588200727E+03  0.37537312283E+02 -0.88993411481E+02  0.24025360975E+03  0.17300000000E+03 0. -1.
<mgrwt>
<rscale>  2 0.22316355E+03</rscale>
<asrwt>0</asrwt>
<pdfrwt beam="1">  1       21 0.43096264E-01 0.22316355E+03</pdfrwt>
<pdfrwt beam="2">  1       21 0.34693449E-01 0.22316355E+03</pdfrwt>
<totfact> 0.40838246E+04</totfact>
</mgrwt>
</event>
<event>
 4    1  0.3974123E+000  0.2077019E+03  0.7546771E-02  0.1143399E+00
         21   -1    0    0  501  502  0.00000000000E+00  0.00000000000E+00  0.32835856486E+03  0.32835856486E+03  0.00000000000E+00 0. -1.
         21   -1    0    0  502  503 -0.00000000000E+00 -0.00000000000E+00 -0.13768152540E+03  0.13768152540E+03  0.00000000000E+00 0. -1.
          6    1    1    2  501    0 -0.52453981130E+02  0.10227240284E+03  0.14518621691E+03  0.25341488137E+03  0.17300000000E+03 0. -1.
         -6    1    1    2    0  503  0.52453981130E+02 -0.10227240284E+03  0.45490822551E+02  0.21262520889E+03  0.17300000000E+03 0. -1.
<mgrwt>
<rscale>  2 0.20770186E+03</rscale>
<asrwt>0</asrwt>
<pdfrwt beam="1">  1       21 0.50516702E-01 0.20770186E+03</pdfrwt>
<pdfrwt beam="2">  1       21 0.21181773E-01 0.20770186E+03</pdfrwt>
<totfact> 0.76808746E+04</totfact>
</mgrwt>
</event>
<event>
 4    1  0.3974123E+000  0.2012889E+03  0.7546771E-02  0.1148656E+00
         21   -1    0    0  501  502  0.00000000000E+00  0.00000000000E+00  0.12721803783E+04  0.12721803783E+04  0.00000000000E+00 0.  1.
         21   -1    0    0  502  503 -0.00000000000E+00 -0.00000000000E+00 -0.53838209832E+02  0.53838209832E+02  0.00000000000E+00 0.  1.
          6    1    1    2  501    0 -0.51110982737E+02  0.89307860644E+02  0.10328946198E+04  0.10523252929E+04  0.17300000000E+03 0.  1.
         -6    1    1    2    0  503  0.51110982737E+02 -0.89307860644E+02  0.18544754866E+03  0.27369329519E+03  0.17300000000E+03 0.  1.
<mgrwt>
<rscale>  2 0.20128891E+03</rscale>
<asrwt>0</asrwt>
<pdfrwt beam="1">  1       21 0.19572004E+00 0.20128891E+03</pdfrwt>
<pdfrwt beam="2">  1       21 0.82828024E-02 0.20128891E+03</pdfrwt>
<totfact> 0.16054627E+04</totfact>
</mgrwt>
</event>
<event>
 4    1  0.3974123E+000  0.2418084E+03  0.7546771E-02  0.1118594E+00
         21   -1    0    0  501  502  0.00000000000E+00  0.00000000000E+00  0.23217204127E+04  0.23217204127E+04  0.00000000000E+00 0. -1.
         21   -1    0    0  502  503 -0.00000000000E+00 -0.00000000000E+00 -0.35002952512E+02  0.35002952512E+02  0.00000000000E+00 0. -1.
          6    1    1    2  501    0 -0.62303453091E+02 -0.15703685401E+03  0.17674505624E+04  0.17839150160E+04  0.17300000000E+03 0. -1.
         -6    1    1    2    0  503  0.62303453091E+02  0.15703685401E+03  0.51926689776E+03  0.57280834918E+03  0.17300000000E+03 0. -1.
<mgrwt>
<rscale>  2 0.24180838E+03</rscale>
<asrwt>0</asrwt>
<pdfrwt beam="1">  1       21 0.35718764E+00 0.24180838E+03</pdfrwt>
<pdfrwt beam="2">  1       21 0.53850714E-02 0.24180838E+03</pdfrwt>
<totfact> 0.35465295E+03</totfact>
</mgrwt>
</event>
<event>
 4    1  0.3974123E+000  0.1937697E+03  0.7546771E-02  0.1155105E+00
         21   -1    0    0  503  502  0.00000000000E+00  0.00000000000E+00  0.54783704856E+03  0.54783704856E+03  0.00000000000E+00 0.  1.
         21   -1    0    0  501  503 -0.00000000000E+00 -0.00000000000E+00 -0.93186475169E+02  0.93186475169E+02  0.00000000000E+00 0.  1.
          6    1    1    2  501    0 -0.55289059347E+02  0.67533680436E+02  0.62479338268E+02  0.20359357993E+03  0.17300000000E+03 0.  1.
         -6    1    1    2    0  502  0.55289059347E+02 -0.67533680436E+02  0.39217123512E+03  0.43742994380E+03  0.17300000000E+03 0.  1.
<mgrwt>
<rscale>  2 0.19376965E+03</rscale>
<asrwt>0</asrwt>
<pdfrwt beam="1">  1       21 0.84282621E-01 0.19376965E+03</pdfrwt>
<pdfrwt beam="2">  1       21 0.14336381E-01 0.19376965E+03</pdfrwt>
<totfact> 0.52007556E+04</totfact>
</mgrwt>
</event>
<event>
 4    1  0.3974123E+000  0.2397686E+03  0.7546771E-02  0.1119947E+00
         21   -1    0    0  503  502  0.00000000000E+00  0.00000000000E+00  0.71579754442E+02  0.71579754442E+02  0.00000000000E+00 0. -1.
         21   -1    0    0  501  503 -0.00000000000E+00 -0.00000000000E+00 -0.86838267134E+03  0.86838267134E+03  0.00000000000E+00 0. -1.
          6    1    1    2  501    0  0.13445313610E+03  0.97377236303E+02 -0.52721805489E+03  0.57917859885E+03  0.17300000000E+03 0. -1.
         -6    1    1    2    0  502 -0.13445313610E+03 -0.97377236303E+02 -0.26958486201E+03  0.36078382694E+03  0.17300000000E+03 0. -1.
<mgrwt>
<rscale>  2 0.23976858E+03</rscale>
<asrwt>0</asrwt>
<pdfrwt beam="1">  1       21 0.11012269E-01 0.23976858E+03</pdfrwt>
<pdfrwt beam="2">  1       21 0.13359735E+00 0.23976858E+03</pdfrwt>
<totfact> 0.26854392E+04</totfact>
</mgrwt>
</event>
<event>
 4    1  0.3974123E+000  0.1926054E+03  0.7546771E-02  0.1156132E+00
         21   -1    0    0  503  502  0.00000000000E+00  0.00000000000E+00  0.22757466112E+03  0.22757466112E+03  0.00000000000E+00 0.  1.
         21   -1    0    0  501  503 -0.00000000000E+00 -0.00000000000E+00 -0.18292067126E+03  0.18292067126E+03  0.00000000000E+00 0.  1.
          6    1    1    2  501    0 -0.53743011286E+02 -0.65418075137E+02 -0.45389589105E+02  0.19788140543E+03  0.17300000000E+03 0.  1.
         -6    1    1    2    0  502  0.53743011286E+02  0.65418075137E+02  0.90043578972E+02  0.21261392694E+03  0.17300000000E+03 0.  1.
<mgrwt>
<rscale>  2 0.19260539E+03</rscale>
<asrwt>0</asrwt>
<pdfrwt beam="1">  1       21 0.35011486E-01 0.19260539E+03</pdfrwt>
<pdfrwt beam="2">  1       21 0.28141642E-01 0.19260539E+03</pdfrwt>
<totfact> 0.94891547E+04</totfact>
</mgrwt>
</event>
<event>
 4    1  0.3974123E+000  0.2215597E+03  0.7546771E-02  0.1132726E+00
         21   -1    0    0  501  502  0.00000000000E+00  0.00000000000E+00  0.30031390931E+03  0.30031390931E+03  0.00000000000E+00 0. -1.
         21   -1    0    0  502  503 -0.00000000000E+00 -0.00000000000E+00 -0.27860673744E+03  0.27860673744E+03  0.00000000000E+00 0.  1.
          6    1    1    2  501    0  0.97246170473E+02  0.98503145205E+02  0.19694355972E+03  0.29643794123E+03  0.17300000000E+03 0. -1.
         -6    1    1    2    0  503 -0.97246170473E+02 -0.98503145205E+02 -0.17523638785E+03  0.28248270551E+03  0.17300000000E+03 0. -1.
<mgrwt>
<rscale>  2 0.22155967E+03</rscale>
<asrwt>0</asrwt>
<pdfrwt beam="1">  1       21 0.46202140E-01 0.22155967E+03</pdfrwt>
<pdfrwt beam="2">  1       21 0.42862575E-01 0.22155967E+03</pdfrwt>
<totfact> 0.23117411E+04</totfact>
</mgrwt>
</event>
<event>
 4    1  0.3974123E+000  0.1781918E+03  0.7546771E-02  0.1169565E+00
         21   -1    0    0  501  502  0.00000000000E+00  0.00000000000E+00  0.46871878279E+03  0.46871878279E+03  0.00000000000E+00 0. -1.
         21   -1    0    0  502  503 -0.00000000000E+00 -0.00000000000E+00 -0.95864610949E+02  0.95864610949E+02  0.00000000000E+00 0. -1.
          6    1    1    2  501    0 -0.41598020728E+02  0.96403283468E+01  0.33932108825E+03  0.38326378930E+03  0.17300000000E+03 0. -1.
         -6    1    1    2    0  503  0.41598020728E+02 -0.96403283468E+01  0.33533083594E+02  0.18131960444E+03  0.17300000000E+03 0. -1.
<mgrwt>
<rscale>  2 0.17819184E+03</rscale>
<asrwt>0</asrwt>
<pdfrwt beam="1">  1       21 0.72110580E-01 0.17819184E+03</pdfrwt>
<pdfrwt beam="2">  1       21 0.14748402E-01 0.17819184E+03</pdfrwt>
<totfact> 0.70637914E+04</totfact>
</mgrwt>
</event>
<event>
 4    1  0.3974123E+000  0.2079157E+03  0.7546771E-02  0.1143227E+00
         21   -1    0    0  501  502  0.00000000000E+00  0.00000000000E+00  0.88788192558E+03  0.88788192558E+03  0.00000000000E+00 0. -1.
         21   -1    0    0  502  503 -0.00000000000E+00 -0.00000000000E+00 -0.53897169745E+02  0.53897169745E+02  0.00000000000E+00 0.  1.
          6    1    1    2  501    0 -0.76876767264E+02 -0.85964436700E+02  0.56338971062E+03  0.60053050526E+03  0.17300000000E+03 0. -1.
         -6    1    1    2    0  503  0.76876767264E+02  0.85964436700E+02  0.27059504521E+03  0.34124859006E+03  0.17300000000E+03 0.  1.
<mgrwt>
<rscale>  2 0.20791566E+03</rscale>
<asrwt>0</asrwt>
<pdfrwt beam="1">  1       21 0.13659721E+00 0.20791566E+03</pdfrwt>
<pdfrwt beam="2">  1       21 0.82918729E-02 0.20791566E+03</pdfrwt>
<totfact> 0.42611194E+04</totfact>
</mgrwt>
</event>
<event>
 4    1  0.3974123E+000  0.2065170E+03  0.7546771E-02  0.1144354E+00
         21   -1    0    0  503  502  0.00000000000E+00  0.00000000000E+00  0.10045039413E+03  0.10045039413E+03  0.00000000000E+00 0.  1.
         21   -1    0    0  501  503 -0.00000000000E+00 -0.00000000000E+00 -0.52686998083E+03  0.52686998083E+03  0.00000000000E+00 0. -1.
          6    1    1    2  501    0  0.43326355172E+02  0.10413013710E+03 -0.35141473804E+03  0.40760468179E+03  0.17300000000E+03 0. -1.
         -6    1    1    2    0  502 -0.43326355172E+02 -0.10413013710E+03 -0.75004848657E+02  0.21971569317E+03  0.17300000000E+03 0.  1.
<mgrwt>
<rscale>  2 0.20651697E+03</rscale>
<asrwt>0</asrwt>
<pdfrwt beam="1">  1       21 0.15453907E-01 0.20651697E+03</pdfrwt>
<pdfrwt beam="2">  1       21 0.81056920E-01 0.20651697E+03</pdfrwt>
<totfact> 0.49260723E+04</totfact>
</mgrwt>
</event>
<event>
 4    1  0.3974123E+000  0.2113157E+03  0.7546771E-02  0.1140528E+00
         21   -1    0    0  503  502  0.00000000000E+00  0.00000000000E+00  0.11058067015E+04  0.11058067015E+04  0.00000000000E+00 0. -1.
         21   -1    0    0  501  503 -0.00000000000E+00 -0.00000000000E+00 -0.51888220719E+02  0.51888220719E+02  0.00000000000E+00 0. -1.
          6    1    1    2  501    0  0.90385223626E+02 -0.80967996830E+02  0.25437383652E+03  0.33069677027E+03  0.17300000000E+03 0. -1.
         -6    1    1    2    0  502 -0.90385223626E+02  0.80967996830E+02  0.79954464428E+03  0.82699815196E+03  0.17300000000E+03 0. -1.
<mgrwt>
<rscale>  2 0.21131565E+03</rscale>
<asrwt>0</asrwt>
<pdfrwt beam="1">  1       21 0.17012409E+00 0.21131565E+03</pdfrwt>
<pdfrwt beam="2">  1       21 0.79828040E-02 0.21131565E+03</pdfrwt>
<totfact> 0.25333258E+04</totfact>
</mgrwt>
</event>
<event>
 4    1  0.3974123E+000  0.1935366E+03  0.7546771E-02  0.1155310E+00
         21   -1    0    0  501  502  0.00000000000E+00  0.00000000000E+00  0.38390168115E+03  0.38390168115E+03  0.00000000000E+00 0.  1.
         21   -1    0    0  502  503 -0.00000000000E+00 -0.00000000000E+00 -0.22559527279E+03  0.22559527279E+03  0.00000000000E+00 0.  1.
          6    1    1    2  501    0  0.95638752552E+01 -0.86231892759E+02  0.30873015804E+03  0.36437716383E+03  0.17300000000E+03 0.  1.
         -6    1    1    2    0  503 -0.95638752552E+01  0.86231892759E+02 -0.15042374967E+03  0.24511979011E+03  0.17300000000E+03 0.  1.
<mgrwt>
<rscale>  2 0.19353658E+03</rscale>
<asrwt>0</asrwt>
<pdfrwt beam="1">  1       21 0.59061797E-01 0.19353658E+03</pdfrwt>
<pdfrwt beam="2">  1       21 0.34706965E-01 0.19353658E+03</pdfrwt>
<totfact> 0.21437063E+04</totfact>
</mgrwt>
</event>
<event>
 4    1  0.3974123E+000  0.1812439E+03  0.7546771E-02  0.1166605E+00
         21   -1    0    0  503  502  0.00000000000E+00  0.00000000000E+00  0.95656479269E+02  0.95656479269E+02  0.00000000000E+00 0. -1.
         21   -1    0    0  501  503 -0.00000000000E+00 -0.00000000000E+00 -0.39242734570E+03  0.39242734570E+03  0.00000000000E+00 0. -1.
          6    1    1    2  501    0  0.27701191376E+02  0.46400492098E+02 -0.23463582313E+03  0.29648495943E+03  0.17300000000E+03 0. -1.
         -6    1    1    2    0  502 -0.27701191376E+02 -0.46400492098E+02 -0.62135043300E+02  0.19159886554E+03  0.17300000000E+03 0. -1.
<mgrwt>
<rscale>  2 0.18124393E+03</rscale>
<asrwt>0</asrwt>
<pdfrwt beam="1">  1       21 0.14716381E-01 0.18124393E+03</pdfrwt>
<pdfrwt beam="2">  1       21 0.60373439E-01 0.18124393E+03</pdfrwt>
<totfact> 0.10429474E+05</totfact>
</mgrwt>
</event>
<event>
 4    1  0.3974123E+000  0.2152569E+03  0.7546771E-02  0.1137469E+00
         21   -1    0    0  501  502  0.00000000000E+00  0.00000000000E+00  0.45001052874E+03  0.45001052874E+03  0.00000000000E+00 0.  1.
         21   -1    0    0  502  503 -0.00000000000E+00 -0.00000000000E+00 -0.15024621619E+03  0.15024621619E+03  0.00000000000E+00 0.  1.
          6    1    1    2  501    0  0.56263941830E+02  0.11506915924E+03  0.31824547328E+03  0.38420791744E+03  0.17300000000E+03 0.  1.
         -6    1    1    2    0  503 -0.56263941830E+02 -0.11506915924E+03 -0.18481160723E+02  0.21604882749E+03  0.17300000000E+03 0.  1.
<mgrwt>
<rscale>  2 0.21525692E+03</rscale>
<asrwt>0</asrwt>
<pdfrwt beam="1">  1       21 0.69232388E-01 0.21525692E+03</pdfrwt>
<pdfrwt beam="2">  1       21 0.23114803E-01 0.21525692E+03</pdfrwt>
<totfact> 0.32978644E+04</totfact>
</mgrwt>
</event>
<event>
 4    1  0.3974123E+000  0.1883248E+03  0.7546771E-02  0.1159981E+00
         21   -1    0    0  503  502  0.00000000000E+00  0.00000000000E+00  0.94598795495E+02  0.94598795495E+02  0.00000000000E+00 0. -1.
         21   -1    0    0  501  503 -0.00000000000E+00 -0.00000000000E+00 -0.62841137995E+03  0.62841137995E+03  0.00000000000E+00 0. -1.
          6    1    1    2  501    0  0.27938145275E+02  0.68968843178E+02 -0.49651094470E+03  0.53102670319E+03  0.17300000000E+03 0. -1.
         -6    1    1    2    0  502 -0.27938145275E+02 -0.68968843178E+02 -0.37301639752E+02  0.19198347225E+03  0.17300000000E+03 0. -1.
<mgrwt>
<rscale>  2 0.18832483E+03</rscale>
<asrwt>0</asrwt>
<pdfrwt beam="1">  1       21 0.14553661E-01 0.18832483E+03</pdfrwt>
<pdfrwt beam="2">  1       21 0.96678676E-01 0.18832483E+03</pdfrwt>
<totfact> 0.36931144E+04</totfact>
</mgrwt>
</event>
<event>
 4    1  0.3974123E+000  0.2836934E+03  0.7546771E-02  0.1093689E+00
         21   -1    0    0  501  502  0.00000000000E+00  0.00000000000E+00  0.68814151398E+03  0.68814151398E+03  0.00000000000E+00 0.  1.
         21   -1    0    0  502  503 -0.00000000000E+00 -0.00000000000E+00 -0.12209314050E+03  0.12209314050E+03  0.00000000000E+00 0. -1.
          6    1    1    2  501    0 -0.22462814535E+03  0.97553244838E+01  0.36612683813E+03  0.46317473122E+03  0.17300000000E+03 0.  1.
         -6    1    1    2    0  503  0.22462814535E+03 -0.97553244838E+01  0.19992153535E+03  0.34705992326E+03  0.17300000000E+03 0.  1.
<mgrwt>
<rscale>  2 0.28369344E+03</rscale>
<asrwt>0</asrwt>
<pdfrwt beam="1">  1       21 0.10586792E+00 0.28369344E+03</pdfrwt>
<pdfrwt beam="2">  1       21 0.18783560E-01 0.28369344E+03</pdfrwt>
<totfact> 0.17688630E+04</totfact>
</mgrwt>
</event>
<event>
 4    1  0.3974123E+000  0.1894285E+03  0.7546771E-02  0.1158978E+00
         21   -1    0    0  501  502  0.00000000000E+00  0.00000000000E+00  0.18915845460E+02  0.18915845460E+02  0.00000000000E+00 0. -1.
         21   -1    0    0  502  503 -0.00000000000E+00 -0.00000000000E+00 -0.26147381607E+04  0.26147381607E+04  0.00000000000E+00 0. -1.
          6    1    1    2  501    0  0.57086829932E+02 -0.51915719539E+02 -0.60798754244E+03  0.63681394446E+03  0.17300000000E+03 0. -1.
         -6    1    1    2    0  503 -0.57086829932E+02  0.51915719539E+02 -0.19878347728E+04  0.19968400617E+04  0.17300000000E+03 0. -1.
<mgrwt>
<rscale>  2 0.18942848E+03</rscale>
<asrwt>0</asrwt>
<pdfrwt beam="1">  1       21 0.29101302E-02 0.18942848E+03</pdfrwt>
<pdfrwt beam="2">  1       21 0.40226739E+00 0.18942848E+03</pdfrwt>
<totfact> 0.56363095E+03</totfact>
</mgrwt>
</event>
<event>
 4    1  0.3974123E+000  0.2958909E+03  0.7546771E-02  0.1087313E+00
         21   -1    0    0  503  502  0.00000000000E+00  0.00000000000E+00  0.16673539547E+03  0.16673539547E+03  0.00000000000E+00 0. -1.
         21   -1    0    0  501  503 -0.00000000000E+00 -0.00000000000E+00 -0.77864499513E+03  0.77864499513E+03  0.00000000000E+00 0.  1.
          6    1    1    2  501    0  0.22298117450E+03 -0.88892152873E+02 -0.57569224214E+03  0.64728121916E+03  0.17300000000E+03 0.  1.
         -6    1    1    2    0  502 -0.22298117450E+03  0.88892152873E+02 -0.36217357524E+02  0.29809917144E+03  0.17300000000E+03 0. -1.
<mgrwt>
<rscale>  2 0.29589089E+03</rscale>
<asrwt>0</asrwt>
<pdfrwt beam="1">  1       21 0.25651599E-01 0.29589089E+03</pdfrwt>
<pdfrwt beam="2">  1       21 0.11979154E+00 0.29589089E+03</pdfrwt>
<totfact> 0.71694905E+03</totfact>
</mgrwt>
</event>
<event>
 4    1  0.3974123E+000  0.2480619E+03  0.7546771E-02  0.1114536E+00
         21   -1    0    0  501  502  0.00000000000E+00  0.00000000000E+00  0.12690910935E+04  0.12690910935E+04  0.00000000000E+00 0. -1.
         21   -1    0    0  502  503 -0.00000000000E+00 -0.00000000000E+00 -0.10340013821E+03  0.10340013821E+03  0.00000000000E+00 0. -1.
          6    1    1    2  501    0  0.71695094883E+02 -0.16268220827E+03  0.10829448634E+04  0.11109924684E+04  0.17300000000E+03 0. -1.
         -6    1    1    2    0  503 -0.71695094883E+02  0.16268220827E+03  0.82746091863E+02  0.26149876336E+03  0.17300000000E+03 0. -1.
<mgrwt>
<rscale>  2 0.24806186E+03</rscale>
<asrwt>0</asrwt>
<pdfrwt beam="1">  1       21 0.19524477E+00 0.24806186E+03</pdfrwt>
<pdfrwt beam="2">  1       21 0.15907714E-01 0.24806186E+03</pdfrwt>
<totfact> 0.48507882E+03</totfact>
</mgrwt>
</event>
<event>
 4    1  0.3974123E+000  0.1858688E+03  0.7546771E-02  0.1162241E+00
         21   -1    0    0  503  502  0.00000000000E+00  0.00000000000E+00  0.10537558267E+03  0.10537558267E+03  0.00000000000E+00 0.  1.
         21   -1    0    0  501  503 -0.00000000000E+00 -0.00000000000E+00 -0.57594594442E+03  0.57594594442E+03  0.00000000000E+00 0.  1.
          6    1    1    2  501    0  0.60056650914E+02  0.31802866124E+02 -0.45887005753E+03  0.49508479406E+03  0.17300000000E+03 0.  1.
         -6    1    1    2    0  502 -0.60056650914E+02 -0.31802866124E+02 -0.11700304224E+02  0.18623673304E+03  0.17300000000E+03 0.  1.
<mgrwt>
<rscale>  2 0.18586883E+03</rscale>
<asrwt>0</asrwt>
<pdfrwt beam="1">  1       21 0.16211628E-01 0.18586883E+03</pdfrwt>
<pdfrwt beam="2">  1       21 0.88607070E-01 0.18586883E+03</pdfrwt>
<totfact> 0.37205561E+04</totfact>
</mgrwt>
</event>
<event>
 4    1  0.3974123E+000  0.2184637E+03  0.7546771E-02  0.1135034E+00
         21   -1    0    0  503  502  0.00000000000E+00  0.00000000000E+00  0.20538216445E+03  0.20538216445E+03  0.00000000000E+00 0.  1.
         21   -1    0    0  501  503 -0.00000000000E+00 -0.00000000000E+00 -0.12211833419E+04  0.12211833419E+04  0.00000000000E+00 0.  1.
          6    1    1    2  501    0 -0.32456561899E+02  0.12939844366E+03 -0.11497403153E+04  0.11703115732E+04  0.17300000000E+03 0.  1.
         -6    1    1    2    0  502  0.32456561899E+02 -0.12939844366E+03  0.13393913785E+03  0.25625393320E+03  0.17300000000E+03 0.  1.
<mgrwt>
<rscale>  2 0.21846369E+03</rscale>
<asrwt>0</asrwt>
<pdfrwt beam="1">  1       21 0.31597256E-01 0.21846369E+03</pdfrwt>
<pdfrwt beam="2">  1       21 0.18787436E+00 0.21846369E+03</pdfrwt>
<totfact> 0.15113205E+03</totfact>
</mgrwt>
</event>
<event>
 4    1  0.3974123E+000  0.2229670E+03  0.7546771E-02  0.1131690E+00
         21   -1    0    0  501  502  0.00000000000E+00  0.00000000000E+00  0.15361345021E+03  0.15361345021E+03  0.00000000000E+00 0. -1.
         21   -1    0    0  502  503 -0.00000000000E+00 -0.00000000000E+00 -0.34035649659E+03  0.34035649659E+03  0.00000000000E+00 0. -1.
          6    1    1    2  501    0  0.13757550150E+03  0.29296017936E+02 -0.38622540967E+02  0.22628737471E+03  0.17300000000E+03 0. -1.
         -6    1    1    2    0  503 -0.13757550150E+03 -0.29296017936E+02 -0.14812050541E+03  0.26768257210E+03  0.17300000000E+03 0. -1.
<mgrwt>
<rscale>  2 0.22296698E+03</rscale>
<asrwt>0</asrwt>
<pdfrwt beam="1">  1       21 0.23632838E-01 0.22296698E+03</pdfrwt>
<pdfrwt beam="2">  1       21 0.52362538E-01 0.22296698E+03</pdfrwt>
<totfact> 0.57521757E+04</totfact>
</mgrwt>
</event>
<event>
 4    1  0.3974123E+000  0.2635207E+03  0.7546771E-02  0.1105046E+00
         21   -1    0    0  503  502  0.00000000000E+00  0.00000000000E+00  0.72302433637E+03  0.72302433637E+03  0.00000000000E+00 0. -1.
         21   -1    0    0  501  503 -0.00000000000E+00 -0.00000000000E+00 -0.12534969899E+03  0.12534969899E+03  0.00000000000E+00 0. -1.
          6    1    1    2  501    0  0.18570894837E+03 -0.70896696965E+02  0.93739302567E+02  0.27969664279E+03  0.17300000000E+03 0. -1.
         -6    1    1    2    0  502 -0.18570894837E+03  0.70896696965E+02  0.50393533481E+03  0.56867739257E+03  0.17300000000E+03 0. -1.
<mgrwt>
<rscale>  2 0.26352069E+03</rscale>
<asrwt>0</asrwt>
<pdfrwt beam="1">  1       21 0.11123451E+00 0.26352069E+03</pdfrwt>
<pdfrwt beam="2">  1       21 0.19284569E-01 0.26352069E+03</pdfrwt>
<totfact> 0.15067193E+04</totfact>
</mgrwt>
</event>
<event>
 4    1  0.3974123E+000  0.1957168E+03  0.7546771E-02  0.1153404E+00
         21   -1    0    0  503  502  0.00000000000E+00  0.00000000000E+00  0.40681146619E+03  0.40681146619E+03  0.00000000000E+00 0. -1.
         21   -1    0    0  501  503 -0.00000000000E+00 -0.00000000000E+00 -0.14991535106E+03  0.14991535106E+03  0.00000000000E+00 0. -1.
          6    1    1    2  501    0  0.11809355337E+02 -0.90755723322E+02 -0.41311914291E+02  0.20002933898E+03  0.17300000000E+03 0. -1.
         -6    1    1    2    0  502 -0.11809355337E+02  0.90755723322E+02  0.29820802943E+03  0.35669747827E+03  0.17300000000E+03 0. -1.
<mgrwt>
<rscale>  2 0.19571679E+03</rscale>
<asrwt>0</asrwt>
<pdfrwt beam="1">  1       21 0.62586379E-01 0.19571679E+03</pdfrwt>
<pdfrwt beam="2">  1       21 0.23063900E-01 0.19571679E+03</pdfrwt>
<totfact> 0.41707672E+04</totfact>
</mgrwt>
</event>
<event>
 4    1  0.3974123E+000  0.2119627E+03  0.7546771E-02  0.1140021E+00
         21   -1    0    0  503  502  0.00000000000E+00  0.00000000000E+00  0.19882156889E+03  0.19882156889E+03  0.00000000000E+00 0. -1.
         21   -1    0    0  501  503 -0.00000000000E+00 -0.00000000000E+00 -0.27155291574E+03  0.27155291574E+03  0.00000000000E+00 0. -1.
          6    1    1    2  501    0  0.60592308993E+02 -0.10643197364E+03 -0.13272106096E+03  0.25008613105E+03  0.17300000000E+03 0. -1.
         -6    1    1    2    0  502 -0.60592308993E+02  0.10643197364E+03  0.59989714109E+02  0.22028835358E+03  0.17300000000E+03 0. -1.
<mgrwt>
<rscale>  2 0.21196272E+03</rscale>
<asrwt>0</asrwt>
<pdfrwt beam="1">  1       21 0.30587934E-01 0.21196272E+03</pdfrwt>
<pdfrwt beam="2">  1       21 0.41777372E-01 0.21196272E+03</pdfrwt>
<totfact> 0.56082097E+04</totfact>
</mgrwt>
</event>
<event>
 4    1  0.3974123E+000  0.1872834E+03  0.7546771E-02  0.1160935E+00
         21   -1    0    0  501  502  0.00000000000E+00  0.00000000000E+00  0.36063295036E+03  0.36063295036E+03  0.00000000000E+00 0.  1.
         21   -1    0    0  502  503 -0.00000000000E+00 -0.00000000000E+00 -0.62295465301E+03  0.62295465301E+03  0.00000000000E+00 0.  1.
          6    1    1    2  501    0 -0.58563398150E+02  0.41429388288E+02  0.32061365749E+03  0.37130605056E+03  0.17300000000E+03 0.  1.
         -6    1    1    2    0  503  0.58563398150E+02 -0.41429388288E+02 -0.58293536013E+03  0.61228155281E+03  0.17300000000E+03 0.  1.
<mgrwt>
<rscale>  2 0.18728338E+03</rscale>
<asrwt>0</asrwt>
<pdfrwt beam="1">  1       21 0.55481993E-01 0.18728338E+03</pdfrwt>
<pdfrwt beam="2">  1       21 0.95839177E-01 0.18728338E+03</pdfrwt>
<totfact> 0.27917849E+03</totfact>
</mgrwt>
</event>
<event>
 4    1  0.3974123E+000  0.2178309E+03  0.7546771E-02  0.1135511E+00
         21   -1    0    0  501  502  0.00000000000E+00  0.00000000000E+00  0.29093003675E+03  0.29093003675E+03  0.00000000000E+00 0. -1.
         21   -1    0    0  502  503 -0.00000000000E+00 -0.00000000000E+00 -0.22283525287E+03  0.22283525287E+03  0.00000000000E+00 0. -1.
          6    1    1    2  501    0  0.13171299922E+03  0.13152120377E+02  0.16705090834E+03  0.27451101693E+03  0.17300000000E+03 0. -1.
         -6    1    1    2    0  503 -0.13171299922E+03 -0.13152120377E+02 -0.98956124465E+02  0.23925427270E+03  0.17300000000E+03 0. -1.
<mgrwt>
<rscale>  2 0.21783088E+03</rscale>
<asrwt>0</asrwt>
<pdfrwt beam="1">  1       21 0.44758467E-01 0.21783088E+03</pdfrwt>
<pdfrwt beam="2">  1       21 0.34282346E-01 0.21783088E+03</pdfrwt>
<totfact> 0.38788307E+04</totfact>
</mgrwt>
</event>
<event>
 4    1  0.3974123E+000  0.1941238E+03  0.7546771E-02  0.1154794E+00
         21   -1    0    0  503  502  0.00000000000E+00  0.00000000000E+00  0.12405494078E+03  0.12405494078E+03  0.00000000000E+00 0. -1.
         21   -1    0    0  501  503 -0.00000000000E+00 -0.00000000000E+00 -0.85454525891E+03  0.85454525891E+03  0.00000000000E+00 0. -1.
          6    1    1    2  501    0  0.14322031580E+02 -0.86890356498E+02 -0.75806674630E+03  0.78252747331E+03  0.17300000000E+03 0. -1.
         -6    1    1    2    0  502 -0.14322031580E+02  0.86890356498E+02  0.27576428172E+02  0.19607272638E+03  0.17300000000E+03 0. -1.
<mgrwt>
<rscale>  2 0.19412381E+03</rscale>
<asrwt>0</asrwt>
<pdfrwt beam="1">  1       21 0.19085375E-01 0.19412381E+03</pdfrwt>
<pdfrwt beam="2">  1       21 0.13146850E+00 0.19412381E+03</pdfrwt>
<totfact> 0.10571854E+04</totfact>
</mgrwt>
</event>
<event>
 4    1  0.3974123E+000  0.2071743E+03  0.7546771E-02  0.1143823E+00
         21   -1    0    0  501  502  0.00000000000E+00  0.00000000000E+00  0.44819601484E+03  0.44819601484E+03  0.00000000000E+00 0.  1.
         21   -1    0    0  502  503 -0.00000000000E+00 -0.00000000000E+00 -0.14046172955E+03  0.14046172955E+03  0.00000000000E+00 0. -1.
          6    1    1    2  501    0 -0.29443624250E+02 -0.11011479313E+03  0.31990034710E+03  0.38112652328E+03  0.17300000000E+03 0.  1.
         -6    1    1    2    0  503  0.29443624250E+02  0.11011479313E+03 -0.12166061809E+02  0.20753122111E+03  0.17300000000E+03 0. -1.
<mgrwt>
<rscale>  2 0.20717431E+03</rscale>
<asrwt>0</asrwt>
<pdfrwt beam="1">  1       21 0.68953232E-01 0.20717431E+03</pdfrwt>
<pdfrwt beam="2">  1       21 0.21609497E-01 0.20717431E+03</pdfrwt>
<totfact> 0.37951492E+04</totfact>
</mgrwt>
</event>
<event>
 4    1  0.3974123E+000  0.2118494E+03  0.7546771E-02  0.1140110E+00
         21   -1    0    0  503  502  0.00000000000E+00  0.00000000000E+00  0.62004807921E+03  0.62004807921E+03  0.00000000000E+00 0.  1.
         21   -1    0    0  501  503 -0.00000000000E+00 -0.00000000000E+00 -0.72408760820E+02  0.72408760820E+02  0.00000000000E+00 0.  1.
          6    1    1    2  501    0 -0.84234748491E+02 -0.88632323360E+02  0.26713588954E+03  0.34094246593E+03  0.17300000000E+03 0.  1.
         -6    1    1    2    0  502  0.84234748491E+02  0.88632323360E+02  0.28050342885E+03  0.35151437409E+03  0.17300000000E+03 0.  1.
<mgrwt>
<rscale>  2 0.21184943E+03</rscale>
<asrwt>0</asrwt>
<pdfrwt beam="1">  1       21 0.95392009E-01 0.21184943E+03</pdfrwt>
<pdfrwt beam="2">  1       21 0.11139810E-01 0.21184943E+03</pdfrwt>
<totfact> 0.60914917E+04</totfact>
</mgrwt>
</event>
<event>
 4    1  0.3974123E+000  0.1812923E+03  0.7546771E-02  0.1166558E+00
         21   -1    0    0  501  502  0.00000000000E+00  0.00000000000E+00  0.82894016367E+02  0.82894016367E+02  0.00000000000E+00 0. -1.
         21   -1    0    0  502  503 -0.00000000000E+00 -0.00000000000E+00 -0.49231008073E+03  0.49231008073E+03  0.00000000000E+00 0. -1.
          6    1    1    2  501    0 -0.35713062010E+01  0.54084568745E+02 -0.77827747416E+02  0.19729179677E+03  0.17300000000E+03 0. -1.
         -6    1    1    2    0  503  0.35713062010E+01 -0.54084568745E+02 -0.33158831695E+03  0.37791230033E+03  0.17300000000E+03 0. -1.
<mgrwt>
<rscale>  2 0.18129229E+03</rscale>
<asrwt>0</asrwt>
<pdfrwt beam="1">  1       21 0.12752925E-01 0.18129229E+03</pdfrwt>
<pdfrwt beam="2">  1       21 0.75740014E-01 0.18129229E+03</pdfrwt>
<totfact> 0.82227271E+04</totfact>
</mgrwt>
</event>
<event>
 4    1  0.3974123E+000  0.2458080E+03  0.7546771E-02  0.1115983E+00
         21   -1    0    0  503  502  0.00000000000E+00  0.00000000000E+00  0.50051302518E+03  0.50051302518E+03  0.00000000000E+00 0.  1.
         21   -1    0    0  501  503 -0.00000000000E+00 -0.00000000000E+00 -0.19999415392E+03  0.19999415392E+03  0.00000000000E+00 0. -1.
          6    1    1    2  501    0  0.55084816473E+02  0.16570523593E+03 -0.70257413322E+02  0.25565145481E+03  0.17300000000E+03 0. -1.
         -6    1    1    2    0  502 -0.55084816473E+02 -0.16570523593E+03  0.37077628458E+03  0.44485572428E+03  0.17300000000E+03 0.  1.
<mgrwt>
<rscale>  2 0.24580798E+03</rscale>
<asrwt>0</asrwt>
<pdfrwt beam="1">  1       21 0.77002004E-01 0.24580798E+03</pdfrwt>
<pdfrwt beam="2">  1       21 0.30768331E-01 0.24580798E+03</pdfrwt>
<totfact> 0.14733930E+04</totfact>
</mgrwt>
</event>
<event>
 4    1  0.3974123E+000  0.2037804E+03  0.7546771E-02  0.1146588E+00
         21   -1    0    0  503  502  0.00000000000E+00  0.00000000000E+00  0.17105490139E+03  0.17105490139E+03  0.00000000000E+00 0.  1.
         21   -1    0    0  501  503 -0.00000000000E+00 -0.00000000000E+00 -0.26557144976E+03  0.26557144976E+03  0.00000000000E+00 0.  1.
          6    1    1    2  501    0  0.50461221461E+02 -0.95137336105E+02 -0.11123192708E+03  0.23216155839E+03  0.17300000000E+03 0. -1.
         -6    1    1    2    0  502 -0.50461221461E+02  0.95137336105E+02  0.16715378705E+02  0.20446479276E+03  0.17300000000E+03 0. -1.
<mgrwt>
<rscale>  2 0.20378039E+03</rscale>
<asrwt>0</asrwt>
<pdfrwt beam="1">  1       21 0.26316139E-01 0.20378039E+03</pdfrwt>
<pdfrwt beam="2">  1       21 0.40857146E-01 0.20378039E+03</pdfrwt>
<totfact> 0.78849192E+04</totfact>
</mgrwt>
</event>
<event>
 4    1  0.3974123E+000  0.2359650E+03  0.7546771E-02  0.1122510E+00
         21   -1    0    0  503  502  0.00000000000E+00  0.00000000000E+00  0.27385429581E+03  0.27385429581E+03  0.00000000000E+00 0. -1.
         21   -1    0    0  501  503 -0.00000000000E+00 -0.00000000000E+00 -0.20454491273E+03  0.20454491273E+03  0.00000000000E+00 0. -1.
          6    1    1    2  501    0 -0.13330100709E+03  0.89338118021E+02  0.16127687539E+02  0.23651545431E+03  0.17300000000E+03 0. -1.
         -6    1    1    2    0  502  0.13330100709E+03 -0.89338118021E+02  0.53181695538E+02  0.24188375423E+03  0.17300000000E+03 0. -1.
<mgrwt>
<rscale>  2 0.23596495E+03</rscale>
<asrwt>0</asrwt>
<pdfrwt beam="1">  1       21 0.42131430E-01 0.23596495E+03</pdfrwt>
<pdfrwt beam="2">  1       21 0.31468448E-01 0.23596495E+03</pdfrwt>
<totfact> 0.51598344E+04</totfact>
</mgrwt>
</event>
<event>
 4    1  0.3974123E+000  0.4361167E+03  0.7546771E-02  0.1031945E+00
         21   -1    0    0  503  502  0.00000000000E+00  0.00000000000E+00  0.46396095950E+03  0.46396095950E+03  0.00000000000E+00 0. -1.
         21   -1    0    0  501  503 -0.00000000000E+00 -0.00000000000E+00 -0.12086258959E+04  0.12086258959E+04  0.00000000000E+00 0.  1.
          6    1    1    2  501    0  0.36323858294E+03 -0.16830477610E+03 -0.10521616460E+04  0.11389652739E+04  0.17300000000E+03 0. -1.
         -6    1    1    2    0  502 -0.36323858294E+03  0.16830477610E+03  0.30749670963E+03  0.53362158149E+03  0.17300000000E+03 0.  1.
<mgrwt>
<rscale>  2 0.43611669E+03</rscale>
<asrwt>0</asrwt>
<pdfrwt beam="1">  1       21 0.71378609E-01 0.43611669E+03</pdfrwt>
<pdfrwt beam="2">  1       21 0.18594244E+00 0.43611669E+03</pdfrwt>
<totfact> 0.24153058E+02</totfact>
</mgrwt>
</event>
<event>
 4    1  0.3974123E+000  0.2123587E+03  0.7546771E-02  0.1139712E+00
         21   -1    0    0  503  502  0.00000000000E+00  0.00000000000E+00  0.79665181718E+02  0.79665181718E+02  0.00000000000E+00 0. -1.
         21   -1    0    0  501  503 -0.00000000000E+00 -0.00000000000E+00 -0.10805488179E+04  0.10805488179E+04  0.00000000000E+00 0. -1.
          6    1    1    2  501    0  0.70265811411E+02 -0.10114313050E+03 -0.90072641304E+03  0.92542114102E+03  0.17300000000E+03 0. -1.
         -6    1    1    2    0  502 -0.70265811411E+02  0.10114313050E+03 -0.10015722315E+03  0.23479285860E+03  0.17300000000E+03 0. -1.
<mgrwt>
<rscale>  2 0.21235870E+03</rscale>
<asrwt>0</asrwt>
<pdfrwt beam="1">  1       21 0.12256183E-01 0.21235870E+03</pdfrwt>
<pdfrwt beam="2">  1       21 0.16623827E+00 0.21235870E+03</pdfrwt>
<totfact> 0.12634335E+04</totfact>
</mgrwt>
</event>
<event>
 4    1  0.3974123E+000  0.2177057E+03  0.7546771E-02  0.1135605E+00
         21   -1    0    0  501  502  0.00000000000E+00  0.00000000000E+00  0.26574746961E+03  0.26574746961E+03  0.00000000000E+00 0. -1.
         21   -1    0    0  502  503 -0.00000000000E+00 -0.00000000000E+00 -0.27437702320E+03  0.27437702320E+03  0.00000000000E+00 0. -1.
          6    1    1    2  501    0  0.45491498804E+02  0.12408592605E+03  0.15545293558E+03  0.26750964223E+03  0.17300000000E+03 0. -1.
         -6    1    1    2    0  503 -0.45491498804E+02 -0.12408592605E+03 -0.16408248916E+03  0.27261485058E+03  0.17300000000E+03 0. -1.
<mgrwt>
<rscale>  2 0.21770575E+03</rscale>
<asrwt>0</asrwt>
<pdfrwt beam="1">  1       21 0.40884226E-01 0.21770575E+03</pdfrwt>
<pdfrwt beam="2">  1       21 0.42211850E-01 0.21770575E+03</pdfrwt>
<totfact> 0.30709909E+04</totfact>
</mgrwt>
</event>
<event>
 4    1  0.3974123E+000  0.1966116E+03  0.7546771E-02  0.1152630E+00
         21   -1    0    0  501  502  0.00000000000E+00  0.00000000000E+00  0.22414239842E+03  0.22414239842E+03  0.00000000000E+00 0. -1.
         21   -1    0    0  502  503 -0.00000000000E+00 -0.00000000000E+00 -0.17269257501E+03  0.17269257501E+03  0.00000000000E+00 0.  1.
          6    1    1    2  501    0  0.93375149047E+02 -0.28624000179E+01  0.18479318479E+02  0.19747809247E+03  0.17300000000E+03 0. -1.
         -6    1    1    2    0  503 -0.93375149047E+02  0.28624000179E+01  0.32970504933E+02  0.19935688097E+03  0.17300000000E+03 0. -1.
<mgrwt>
<rscale>  2 0.19661158E+03</rscale>
<asrwt>0</asrwt>
<pdfrwt beam="1">  1       21 0.34483446E-01 0.19661158E+03</pdfrwt>
<pdfrwt beam="2">  1       21 0.26568088E-01 0.19661158E+03</pdfrwt>
<totfact> 0.10909507E+05</totfact>
</mgrwt>
</event>
<event>
 4    1  0.3974123E+000  0.3275386E+03  0.7546771E-02  0.1072231E+00
         21   -1    0    0  503  502  0.00000000000E+00  0.00000000000E+00  0.21083762616E+03  0.21083762616E+03  0.00000000000E+00 0.  1.
         21   -1    0    0  501  503 -0.00000000000E+00 -0.00000000000E+00 -0.50993047649E+03  0.50993047649E+03  0.00000000000E+00 0.  1.
          6    1    1    2  501    0  0.25544704127E+03  0.10999715839E+03 -0.16625000294E+03  0.36731543559E+03  0.17300000000E+03 0.  1.
         -6    1    1    2    0  502 -0.25544704127E+03 -0.10999715839E+03 -0.13284284739E+03  0.35345266705E+03  0.17300000000E+03 0.  1.
<mgrwt>
<rscale>  2 0.32753865E+03</rscale>
<asrwt>0</asrwt>
<pdfrwt beam="1">  1       21 0.32436558E-01 0.32753865E+03</pdfrwt>
<pdfrwt beam="2">  1       21 0.78450842E-01 0.32753865E+03</pdfrwt>
<totfact> 0.12255782E+04</totfact>
</mgrwt>
</event>
<event>
 4    1  0.3974123E+000  0.1896818E+03  0.7546771E-02  0.1158749E+00
         21   -1    0    0  501  502  0.00000000000E+00  0.00000000000E+00  0.48189909422E+03  0.48189909422E+03  0.00000000000E+00 0.  1.
         21   -1    0    0  502  503 -0.00000000000E+00 -0.00000000000E+00 -0.95812882549E+02  0.95812882549E+02  0.00000000000E+00 0.  1.
          6    1    1    2  501    0  0.77612597868E+02  0.51441460879E+01  0.32876240451E+03  0.37955750053E+03  0.17300000000E+03 0.  1.
         -6    1    1    2    0  503 -0.77612597868E+02 -0.51441460879E+01  0.57323807158E+02  0.19815447624E+03  0.17300000000E+03 0.  1.
<mgrwt>
<rscale>  2 0.18968178E+03</rscale>
<asrwt>0</asrwt>
<pdfrwt beam="1">  1       21 0.74138321E-01 0.18968178E+03</pdfrwt>
<pdfrwt beam="2">  1       21 0.14740444E-01 0.18968178E+03</pdfrwt>
<totfact> 0.66151769E+04</totfact>
</mgrwt>
</event>
<event>
 4    1  0.3974123E+000  0.1959385E+03  0.7546771E-02  0.1153212E+00
         21   -1    0    0  501  502  0.00000000000E+00  0.00000000000E+00  0.44060950315E+02  0.44060950315E+02  0.00000000000E+00 0.  1.
         21   -1    0    0  502  503 -0.00000000000E+00 -0.00000000000E+00 -0.94529832144E+03  0.94529832144E+03  0.00000000000E+00 0.  1.
          6    1    1    2  501    0  0.87060640980E+02 -0.29721045978E+02 -0.31224783277E+03  0.36863342883E+03  0.17300000000E+03 0.  1.
         -6    1    1    2    0  503 -0.87060640980E+02  0.29721045978E+02 -0.58898953835E+03  0.62072584292E+03  0.17300000000E+03 0.  1.
<mgrwt>
<rscale>  2 0.19593850E+03</rscale>
<asrwt>0</asrwt>
<pdfrwt beam="1">  1       21 0.67786083E-02 0.19593850E+03</pdfrwt>
<pdfrwt beam="2">  1       21 0.14543050E+00 0.19593850E+03</pdfrwt>
<totfact> 0.51734664E+04</totfact>
</mgrwt>
</event>
<event>
 4    1  0.3974123E+000  0.1919903E+03  0.7546771E-02  0.1156678E+00
         21   -1    0    0  501  502  0.00000000000E+00  0.00000000000E+00  0.89653997317E+03  0.89653997317E+03  0.00000000000E+00 0.  1.
         21   -1    0    0  502  503 -0.00000000000E+00 -0.00000000000E+00 -0.53489034604E+02  0.53489034604E+02  0.00000000000E+00 0.  1.
          6    1    1    2  501    0  0.43173503051E+02 -0.71185170680E+02  0.65000587711E+03  0.67776686269E+03  0.17300000000E+03 0.  1.
         -6    1    1    2    0  503 -0.43173503051E+02  0.71185170680E+02  0.19304506145E+03  0.27226214508E+03  0.17300000000E+03 0.  1.
<mgrwt>
<rscale>  2 0.19199031E+03</rscale>
<asrwt>0</asrwt>
<pdfrwt beam="1">  1       21 0.13792922E+00 0.19199031E+03</pdfrwt>
<pdfrwt beam="2">  1       21 0.82290829E-02 0.19199031E+03</pdfrwt>
<totfact> 0.42498471E+04</totfact>
</mgrwt>
</event>
<event>
 4    1  0.3974123E+000  0.2057893E+03  0.7546771E-02  0.1144944E+00
         21   -1    0    0  503  502  0.00000000000E+00  0.00000000000E+00  0.96657898398E+02  0.96657898398E+02  0.00000000000E+00 0.  1.
         21   -1    0    0  501  503 -0.00000000000E+00 -0.00000000000E+00 -0.65087863309E+03  0.65087863309E+03  0.00000000000E+00 0.  1.
          6    1    1    2  501    0 -0.79914388681E+02  0.77678279536E+02 -0.49079856278E+03  0.53219587922E+03  0.17300000000E+03 0.  1.
         -6    1    1    2    0  502  0.79914388681E+02 -0.77678279536E+02 -0.63422171912E+02  0.21534065227E+03  0.17300000000E+03 0.  1.
<mgrwt>
<rscale>  2 0.20578927E+03</rscale>
<asrwt>0</asrwt>
<pdfrwt beam="1">  1       21 0.14870446E-01 0.20578927E+03</pdfrwt>
<pdfrwt beam="2">  1       21 0.10013517E+00 0.20578927E+03</pdfrwt>
<totfact> 0.32372871E+04</totfact>
</mgrwt>
</event>
<event>
 4    1  0.3974123E+000  0.2135710E+03  0.7546771E-02  0.1138769E+00
         21   -1    0    0  501  502  0.00000000000E+00  0.00000000000E+00  0.12550662475E+03  0.12550662475E+03  0.00000000000E+00 0.  1.
         21   -1    0    0  502  503 -0.00000000000E+00 -0.00000000000E+00 -0.54209787414E+03  0.54209787414E+03  0.00000000000E+00 0. -1.
          6    1    1    2  501    0  0.10972525636E+03  0.60365042792E+02 -0.16659857425E+02  0.21421979629E+03  0.17300000000E+03 0.  1.
         -6    1    1    2    0  503 -0.10972525636E+03 -0.60365042792E+02 -0.39993139196E+03  0.45338470260E+03  0.17300000000E+03 0. -1.
<mgrwt>
<rscale>  2 0.21357100E+03</rscale>
<asrwt>0</asrwt>
<pdfrwt beam="1">  1       21 0.19308711E-01 0.21357100E+03</pdfrwt>
<pdfrwt beam="2">  1       21 0.83399675E-01 0.21357100E+03</pdfrwt>
<totfact> 0.30491442E+04</totfact>
</mgrwt>
</event>
<event>
 4    1  0.3974123E+000  0.1732443E+03  0.7546771E-02  0.1174506E+00
         21   -1    0    0  503  502  0.00000000000E+00  0.00000000000E+00  0.66466160869E+02  0.66466160869E+02  0.00000000000E+00 0.  1.
         21   -1    0    0  501  503 -0.00000000000E+00 -0.00000000000E+00 -0.45372795389E+03  0.45372795389E+03  0.00000000000E+00 0.  1.
          6    1    1    2  501    0 -0.14521775682E+01  0.90819977327E+01 -0.21160154834E+03  0.27347542259E+03  0.17300000000E+03 0. -1.
         -6    1    1    2    0  502  0.14521775682E+01 -0.90819977327E+01 -0.17566024468E+03  0.24671869217E+03  0.17300000000E+03 0. -1.
<mgrwt>
<rscale>  2 0.17324431E+03</rscale>
<asrwt>0</asrwt>
<pdfrwt beam="1">  1       21 0.10225563E-01 0.17324431E+03</pdfrwt>
<pdfrwt beam="2">  1       21 0.69804299E-01 0.17324431E+03</pdfrwt>
<totfact> 0.14640742E+05</totfact>
</mgrwt>
</event>
<event>
 4    1  0.3974123E+000  0.1942194E+03  0.7546771E-02  0.1154710E+00
         21   -1    0    0  501  502  0.00000000000E+00  0.00000000000E+00  0.95943781905E+02  0.95943781905E+02  0.00000000000E+00 0.  1.
         21   -1    0    0  502  503 -0.00000000000E+00 -0.00000000000E+00 -0.83468580393E+03  0.83468580393E+03  0.00000000000E+00 0.  1.
          6    1    1    2  501    0  0.55763187252E+02  0.68429805478E+02 -0.30944924781E+02  0.19666916306E+03  0.17300000000E+03 0.  1.
         -6    1    1    2    0  503 -0.55763187252E+02 -0.68429805478E+02 -0.70779709724E+03  0.73396042277E+03  0.17300000000E+03 0.  1.
<mgrwt>
<rscale>  2 0.19421939E+03</rscale>
<asrwt>0</asrwt>
<pdfrwt beam="1">  1       21 0.14760581E-01 0.19421939E+03</pdfrwt>
<pdfrwt beam="2">  1       21 0.12841321E+00 0.19421939E+03</pdfrwt>
<totfact> 0.17991266E+04</totfact>
</mgrwt>
</event>
<event>
 4    1  0.3974123E+000  0.1978563E+03  0.7546771E-02  0.1151560E+00
         21   -1    0    0  501  502  0.00000000000E+00  0.00000000000E+00  0.75602880320E+02  0.75602880320E+02  0.00000000000E+00 0. -1.
         21   -1    0    0  502  503 -0.00000000000E+00 -0.00000000000E+00 -0.62259766689E+03  0.62259766689E+03  0.00000000000E+00 0. -1.
          6    1    1    2  501    0 -0.24346384407E+02  0.92872808857E+02 -0.13027066522E+03  0.23689143352E+03  0.17300000000E+03 0. -1.
         -6    1    1    2    0  503  0.24346384407E+02 -0.92872808857E+02 -0.41672412134E+03  0.46130911369E+03  0.17300000000E+03 0. -1.
<mgrwt>
<rscale>  2 0.19785627E+03</rscale>
<asrwt>0</asrwt>
<pdfrwt beam="1">  1       21 0.11631213E-01 0.19785627E+03</pdfrwt>
<pdfrwt beam="2">  1       21 0.95784255E-01 0.19785627E+03</pdfrwt>
<totfact> 0.56236622E+04</totfact>
</mgrwt>
</event>
<event>
 4    1  0.3974123E+000  0.2104628E+03  0.7546771E-02  0.1141200E+00
         21   -1    0    0  501  502  0.00000000000E+00  0.00000000000E+00  0.15997832937E+03  0.15997832937E+03  0.00000000000E+00 0.  1.
         21   -1    0    0  502  503 -0.00000000000E+00 -0.00000000000E+00 -0.27703256024E+03  0.27703256024E+03  0.00000000000E+00 0.  1.
          6    1    1    2  501    0  0.11650336716E+03 -0.28152452244E+02 -0.53378016062E+02  0.21712624836E+03  0.17300000000E+03 0.  1.
         -6    1    1    2    0  503 -0.11650336716E+03  0.28152452244E+02 -0.63676214807E+02  0.21988464125E+03  0.17300000000E+03 0.  1.
<mgrwt>
<rscale>  2 0.21046281E+03</rscale>
<asrwt>0</asrwt>
<pdfrwt beam="1">  1       21 0.24612051E-01 0.21046281E+03</pdfrwt>
<pdfrwt beam="2">  1       21 0.42620394E-01 0.21046281E+03</pdfrwt>
<totfact> 0.82021578E+04</totfact>
</mgrwt>
</event>
<event>
 4    1  0.3974123E+000  0.1744275E+03  0.7546771E-02  0.1173308E+00
         21   -1    0    0  501  502  0.00000000000E+00  0.00000000000E+00  0.30476261601E+03  0.30476261601E+03  0.00000000000E+00 0. -1.
         21   -1    0    0  502  503 -0.00000000000E+00 -0.00000000000E+00 -0.21230531512E+03  0.21230531512E+03  0.00000000000E+00 0. -1.
          6    1    1    2  501    0  0.22098895603E+02  0.27569663021E+01  0.23440392231E+03  0.29218172572E+03  0.17300000000E+03 0. -1.
         -6    1    1    2    0  503 -0.22098895603E+02 -0.27569663021E+01 -0.14194662142E+03  0.22488620541E+03  0.17300000000E+03 0. -1.
<mgrwt>
<rscale>  2 0.17442753E+03</rscale>
<asrwt>0</asrwt>
<pdfrwt beam="1">  1       21 0.46886557E-01 0.17442753E+03</pdfrwt>
<pdfrwt beam="2">  1       21 0.32662356E-01 0.17442753E+03</pdfrwt>
<totfact> 0.39648040E+04</totfact>
</mgrwt>
</event>
<event>
 4    1  0.3974123E+000  0.2152134E+03  0.7546771E-02  0.1137503E+00
         21   -1    0    0  503  502  0.00000000000E+00  0.00000000000E+00  0.14553642380E+04  0.14553642380E+04  0.00000000000E+00 0.  1.
         21   -1    0    0  501  503 -0.00000000000E+00 -0.00000000000E+00 -0.36695232672E+02  0.36695232672E+02  0.00000000000E+00 0.  1.
          6    1    1    2  501    0 -0.72028294435E+02  0.10582880911E+03  0.43754610482E+03  0.48760989108E+03  0.17300000000E+03 0.  1.
         -6    1    1    2    0  502  0.72028294435E+02 -0.10582880911E+03  0.98112290047E+03  0.10044495796E+04  0.17300000000E+03 0.  1.
<mgrwt>
<rscale>  2 0.21521341E+03</rscale>
<asrwt>0</asrwt>
<pdfrwt beam="1">  1       21 0.22390215E+00 0.21521341E+03</pdfrwt>
<pdfrwt beam="2">  1       21 0.56454215E-02 0.21521341E+03</pdfrwt>
<totfact> 0.20469512E+04</totfact>
</mgrwt>
</event>
<event>
 4    1  0.3974123E+000  0.2025975E+03  0.7546771E-02  0.1147566E+00
         21   -1    0    0  501  502  0.00000000000E+00  0.00000000000E+00  0.60430951064E+03  0.60430951064E+03  0.00000000000E+00 0.  1.
         21   -1    0    0  502  503 -0.00000000000E+00 -0.00000000000E+00 -0.33166711912E+03  0.33166711912E+03  0.00000000000E+00 0.  1.
          6    1    1    2  501    0 -0.10412914335E+03  0.16549178638E+02  0.55364795169E+03  0.58955220992E+03  0.17300000000E+03 0.  1.
         -6    1    1    2    0  503  0.10412914335E+03 -0.16549178638E+02 -0.28100556018E+03  0.34642441984E+03  0.17300000000E+03 0.  1.
<mgrwt>
<rscale>  2 0.20259752E+03</rscale>
<asrwt>0</asrwt>
<pdfrwt beam="1">  1       21 0.92970694E-01 0.20259752E+03</pdfrwt>
<pdfrwt beam="2">  1       21 0.51025711E-01 0.20259752E+03</pdfrwt>
<totfact> 0.35289794E+03</totfact>
</mgrwt>
</event>
<event>
 4    1  0.3974123E+000  0.2465299E+03  0.7546771E-02  0.1115518E+00
         21   -1    0    0  501  502  0.00000000000E+00  0.00000000000E+00  0.10544777981E+04  0.10544777981E+04  0.00000000000E+00 0. -1.
         21   -1    0    0  502  503 -0.00000000000E+00 -0.00000000000E+00 -0.65223605877E+02  0.65223605877E+02  0.00000000000E+00 0. -1.
          6    1    1    2  501    0 -0.50270434422E+02  0.16828803730E+03  0.68556511525E+03  0.72854410115E+03  0.17300000000E+03 0. -1.
         -6    1    1    2    0  503  0.50270434422E+02 -0.16828803730E+03  0.30368907695E+03  0.39115730280E+03  0.17300000000E+03 0. -1.
<mgrwt>
<rscale>  2 0.24652988E+03</rscale>
<asrwt>0</asrwt>
<pdfrwt beam="1">  1       21 0.16222734E+00 0.24652988E+03</pdfrwt>
<pdfrwt beam="2">  1       21 0.10034402E-01 0.24652988E+03</pdfrwt>
<totfact> 0.18894711E+04</totfact>
</mgrwt>
</event>
<event>
 4    1  0.3974123E+000  0.1811023E+03  0.7546771E-02  0.1166740E+00
         21   -1    0    0  503  502  0.00000000000E+00  0.00000000000E+00  0.68715199696E+03  0.68715199696E+03  0.00000000000E+00 0. -1.
         21   -1    0    0  501  503 -0.00000000000E+00 -0.00000000000E+00 -0.60110778913E+02  0.60110778913E+02  0.00000000000E+00 0. -1.
          6    1    1    2  501    0 -0.47376214506E+02 -0.24990725320E+02  0.14395644107E+03  0.23134713955E+03  0.17300000000E+03 0. -1.
         -6    1    1    2    0  502  0.47376214506E+02  0.24990725320E+02  0.48308477698E+03  0.51591563632E+03  0.17300000000E+03 0. -1.
<mgrwt>
<rscale>  2 0.18110230E+03</rscale>
<asrwt>0</asrwt>
<pdfrwt beam="1">  1       21 0.10571569E+00 0.18110230E+03</pdfrwt>
<pdfrwt beam="2">  1       21 0.92478126E-02 0.18110230E+03</pdfrwt>
<totfact> 0.67303951E+04</totfact>
</mgrwt>
</event>
<event>
 4    1  0.3974123E+000  0.1846218E+03  0.7546771E-02  0.1163404E+00
         21   -1    0    0  501  502  0.00000000000E+00  0.00000000000E+00  0.55976671962E+03  0.55976671962E+03  0.00000000000E+00 0. -1.
         21   -1    0    0  502  503 -0.00000000000E+00 -0.00000000000E+00 -0.10599936506E+03  0.10599936506E+03  0.00000000000E+00 0. -1.
          6    1    1    2  501    0 -0.22477254258E+02  0.60423383837E+02  0.44403608727E+03  0.48088799015E+03  0.17300000000E+03 0. -1.
         -6    1    1    2    0  503  0.22477254258E+02 -0.60423383837E+02  0.97312672951E+01  0.18487809453E+03  0.17300000000E+03 0. -1.
<mgrwt>
<rscale>  2 0.18462181E+03</rscale>
<asrwt>0</asrwt>
<pdfrwt beam="1">  1       21 0.86117955E-01 0.18462181E+03</pdfrwt>
<pdfrwt beam="2">  1       21 0.16307595E-01 0.18462181E+03</pdfrwt>
<totfact> 0.39321443E+04</totfact>
</mgrwt>
</event>
<event>
 4    1  0.3974123E+000  0.1992539E+03  0.7546771E-02  0.1150370E+00
         21   -1    0    0  503  502  0.00000000000E+00  0.00000000000E+00  0.58862434402E+03  0.58862434402E+03  0.00000000000E+00 0.  1.
         21   -1    0    0  501  503 -0.00000000000E+00 -0.00000000000E+00 -0.30064608360E+03  0.30064608360E+03  0.00000000000E+00 0.  1.
          6    1    1    2  501    0 -0.54515404884E+02 -0.82469363128E+02 -0.24760631672E+03  0.31782229831E+03  0.17300000000E+03 0.  1.
         -6    1    1    2    0  502  0.54515404884E+02  0.82469363128E+02  0.53558457713E+03  0.57144812931E+03  0.17300000000E+03 0.  1.
<mgrwt>
<rscale>  2 0.19925392E+03</rscale>
<asrwt>0</asrwt>
<pdfrwt beam="1">  1       21 0.90557591E-01 0.19925392E+03</pdfrwt>
<pdfrwt beam="2">  1       21 0.46253244E-01 0.19925392E+03</pdfrwt>
<totfact> 0.46136032E+03</totfact>
</mgrwt>
</event>
<event>
 4    1  0.3974123E+000  0.1991189E+03  0.7546771E-02  0.1150485E+00
         21   -1    0    0  501  502  0.00000000000E+00  0.00000000000E+00  0.10784015764E+04  0.10784015764E+04  0.00000000000E+00 0.  1.
         21   -1    0    0  502  503 -0.00000000000E+00 -0.00000000000E+00 -0.45476857410E+02  0.45476857410E+02  0.00000000000E+00 0.  1.
          6    1    1    2  501    0  0.98401105984E+02 -0.60472640355E+01  0.76240191977E+03  0.78797527520E+03  0.17300000000E+03 0.  1.
         -6    1    1    2    0  503 -0.98401105984E+02  0.60472640355E+01  0.27052279919E+03  0.33590315858E+03  0.17300000000E+03 0.  1.
<mgrwt>
<rscale>  2 0.19911893E+03</rscale>
<asrwt>0</asrwt>
<pdfrwt beam="1">  1       21 0.16590792E+00 0.19911893E+03</pdfrwt>
<pdfrwt beam="2">  1       21 0.69964404E-02 0.19911893E+03</pdfrwt>
<totfact> 0.34394107E+04</totfact>
</mgrwt>
</event>
<event>
 4    1  0.3974123E+000  0.2023160E+03  0.7546771E-02  0.1147800E+00
         21   -1    0    0  503  502  0.00000000000E+00  0.00000000000E+00  0.66393226606E+03  0.66393226606E+03  0.00000000000E+00 0.  1.
         21   -1    0    0  501  503 -0.00000000000E+00 -0.00000000000E+00 -0.30198527695E+03  0.30198527695E+03  0.00000000000E+00 0. -1.
          6    1    1    2  501    0 -0.75316119765E+02 -0.73008541740E+02 -0.24987588361E+03  0.32151162074E+03  0.17300000000E+03 0. -1.
         -6    1    1    2    0  502  0.75316119765E+02  0.73008541740E+02  0.61182287272E+03  0.64440592226E+03  0.17300000000E+03 0.  1.
<mgrwt>
<rscale>  2 0.20231600E+03</rscale>
<asrwt>0</asrwt>
<pdfrwt beam="1">  1       21 0.10214343E+00 0.20231600E+03</pdfrwt>
<pdfrwt beam="2">  1       21 0.46459274E-01 0.20231600E+03</pdfrwt>
<totfact> 0.34354406E+03</totfact>
</mgrwt>
</event>
<event>
 4    1  0.3974123E+000  0.2062613E+03  0.7546771E-02  0.1144561E+00
         21   -1    0    0  501  502  0.00000000000E+00  0.00000000000E+00  0.59604540941E+03  0.59604540941E+03  0.00000000000E+00 0.  1.
         21   -1    0    0  502  503 -0.00000000000E+00 -0.00000000000E+00 -0.78771358362E+02  0.78771358362E+02  0.00000000000E+00 0. -1.
          6    1    1    2  501    0 -0.70081121521E+02 -0.87768805936E+02  0.36201597473E+03  0.41665248451E+03  0.17300000000E+03 0.  1.
         -6    1    1    2    0  503  0.70081121521E+02  0.87768805936E+02  0.15525807631E+03  0.25816428326E+03  0.17300000000E+03 0. -1.
<mgrwt>
<rscale>  2 0.20626131E+03</rscale>
<asrwt>0</asrwt>
<pdfrwt beam="1">  1       21 0.91699291E-01 0.20626131E+03</pdfrwt>
<pdfrwt beam="2">  1       21 0.12118671E-01 0.20626131E+03</pdfrwt>
<totfact> 0.57618279E+04</totfact>
</mgrwt>
</event>
<event>
 4    1  0.3974123E+000  0.1781146E+03  0.7546771E-02  0.1169640E+00
         21   -1    0    0  503  502  0.00000000000E+00  0.00000000000E+00  0.59453126970E+02  0.59453126970E+02  0.00000000000E+00 0.  1.
         21   -1    0    0  501  503 -0.00000000000E+00 -0.00000000000E+00 -0.14239322199E+04  0.14239322199E+04  0.00000000000E+00 0.  1.
          6    1    1    2  501    0 -0.26607911881E+02  0.32982294650E+02 -0.12687190177E+04  0.12811607076E+04  0.17300000000E+03 0.  1.
         -6    1    1    2    0  502  0.26607911881E+02 -0.32982294650E+02 -0.95760075233E+02  0.20222463931E+03  0.17300000000E+03 0.  1.
<mgrwt>
<rscale>  2 0.17811461E+03</rscale>
<asrwt>0</asrwt>
<pdfrwt beam="1">  1       21 0.91466348E-02 0.17811461E+03</pdfrwt>
<pdfrwt beam="2">  1       21 0.21906650E+00 0.17811461E+03</pdfrwt>
<totfact> 0.98075203E+03</totfact>
</mgrwt>
</event>
<event>
 4    1  0.3974123E+000  0.1827378E+03  0.7546771E-02  0.1165179E+00
         21   -1    0    0  503  502  0.00000000000E+00  0.00000000000E+00  0.63949317982E+03  0.63949317982E+03  0.00000000000E+00 0. -1.
         21   -1    0    0  501  503 -0.00000000000E+00 -0.00000000000E+00 -0.73056723877E+02  0.73056723877E+02  0.00000000000E+00 0.  1.
          6    1    1    2  501    0  0.52641306593E+02  0.26324508622E+02  0.92939503557E+02  0.20501423910E+03  0.17300000000E+03 0.  1.
         -6    1    1    2    0  502 -0.52641306593E+02 -0.26324508622E+02  0.47349695238E+03  0.50753566459E+03  0.17300000000E+03 0. -1.
<mgrwt>
<rscale>  2 0.18273775E+03</rscale>
<asrwt>0</asrwt>
<pdfrwt beam="1">  1       21 0.98383562E-01 0.18273775E+03</pdfrwt>
<pdfrwt beam="2">  1       21 0.11239496E-01 0.18273775E+03</pdfrwt>
<totfact> 0.56543083E+04</totfact>
</mgrwt>
</event>
<event>
 4    1  0.3974123E+000  0.1940806E+03  0.7546771E-02  0.1154832E+00
         21   -1    0    0  503  502  0.00000000000E+00  0.00000000000E+00  0.40016194691E+03  0.40016194691E+03  0.00000000000E+00 0. -1.
         21   -1    0    0  501  503 -0.00000000000E+00 -0.00000000000E+00 -0.12599070803E+03  0.12599070803E+03  0.00000000000E+00 0. -1.
          6    1    1    2  501    0  0.64602490697E+02  0.59705817711E+02  0.47917126198E+01  0.19413970996E+03  0.17300000000E+03 0. -1.
         -6    1    1    2    0  502 -0.64602490697E+02 -0.59705817711E+02  0.26937952626E+03  0.33201294499E+03  0.17300000000E+03 0. -1.
<mgrwt>
<rscale>  2 0.19408057E+03</rscale>
<asrwt>0</asrwt>
<pdfrwt beam="1">  1       21 0.61563376E-01 0.19408057E+03</pdfrwt>
<pdfrwt beam="2">  1       21 0.19383186E-01 0.19408057E+03</pdfrwt>
<totfact> 0.59960673E+04</totfact>
</mgrwt>
</event>
<event>
 4    1  0.3974123E+000  0.1741812E+03  0.7546771E-02  0.1173556E+00
         21   -1    0    0  503  502  0.00000000000E+00  0.00000000000E+00  0.30066951441E+03  0.30066951441E+03  0.00000000000E+00 0. -1.
         21   -1    0    0  501  503 -0.00000000000E+00 -0.00000000000E+00 -0.12583236381E+03  0.12583236381E+03  0.00000000000E+00 0. -1.
          6    1    1    2  501    0  0.19923133590E+02  0.36273602318E+01 -0.74958088480E+01  0.17434241063E+03  0.17300000000E+03 0. -1.
         -6    1    1    2    0  502 -0.19923133590E+02 -0.36273602318E+01  0.18233295945E+03  0.25215946759E+03  0.17300000000E+03 0. -1.
<mgrwt>
<rscale>  2 0.17418120E+03</rscale>
<asrwt>0</asrwt>
<pdfrwt beam="1">  1       21 0.46256848E-01 0.17418120E+03</pdfrwt>
<pdfrwt beam="2">  1       21 0.19358825E-01 0.17418120E+03</pdfrwt>
<totfact> 0.11058138E+05</totfact>
</mgrwt>
</event>
<event>
 4    1  0.3974123E+000  0.2305749E+03  0.7546771E-02  0.1126236E+00
         21   -1    0    0  503  502  0.00000000000E+00  0.00000000000E+00  0.81269248674E+03  0.81269248674E+03  0.00000000000E+00 0. -1.
         21   -1    0    0  501  503 -0.00000000000E+00 -0.00000000000E+00 -0.93823067993E+02  0.93823067993E+02  0.00000000000E+00 0.  1.
          6    1    1    2  501    0  0.38530064640E+02 -0.14748292224E+03  0.11003968126E+03  0.25548680922E+03  0.17300000000E+03 0.  1.
         -6    1    1    2    0  502 -0.38530064640E+02  0.14748292224E+03  0.60882973749E+03  0.65102874551E+03  0.17300000000E+03 0. -1.
<mgrwt>
<rscale>  2 0.23057489E+03</rscale>
<asrwt>0</asrwt>
<pdfrwt beam="1">  1       21 0.12502961E+00 0.23057489E+03</pdfrwt>
<pdfrwt beam="2">  1       21 0.14434319E-01 0.23057489E+03</pdfrwt>
<totfact> 0.19594957E+04</totfact>
</mgrwt>
</event>
<event>
 4    1  0.3974123E+000  0.2003590E+03  0.7546771E-02  0.1149436E+00
         21   -1    0    0  501  502  0.00000000000E+00  0.00000000000E+00  0.61086063241E+03  0.61086063241E+03  0.00000000000E+00 0.  1.
         21   -1    0    0  502  503 -0.00000000000E+00 -0.00000000000E+00 -0.10024405525E+03  0.10024405525E+03  0.00000000000E+00 0. -1.
          6    1    1    2  501    0  0.47503762992E+02 -0.89208280429E+02  0.46397640515E+03  0.50538879027E+03  0.17300000000E+03 0.  1.
         -6    1    1    2    0  503 -0.47503762992E+02  0.89208280429E+02  0.46640172012E+02  0.20571589739E+03  0.17300000000E+03 0. -1.
<mgrwt>
<rscale>  2 0.20035899E+03</rscale>
<asrwt>0</asrwt>
<pdfrwt beam="1">  1       21 0.93978556E-01 0.20035899E+03</pdfrwt>
<pdfrwt beam="2">  1       21 0.15422163E-01 0.20035899E+03</pdfrwt>
<totfact> 0.35280540E+04</totfact>
</mgrwt>
</event>
<event>
 4    1  0.3974123E+000  0.3551649E+03  0.7546771E-02  0.1060515E+00
         21   -1    0    0  503  502  0.00000000000E+00  0.00000000000E+00  0.21507240352E+03  0.21507240352E+03  0.00000000000E+00 0. -1.
         21   -1    0    0  501  503 -0.00000000000E+00 -0.00000000000E+00 -0.16021112287E+04  0.16021112287E+04  0.00000000000E+00 0. -1.
          6    1    1    2  501    0  0.29824610820E+03  0.85219356002E+02 -0.14169287879E+04  0.14607632490E+04  0.17300000000E+03 0. -1.
         -6    1    1    2    0  502 -0.29824610820E+03 -0.85219356002E+02  0.29889962718E+02  0.35642038320E+03  0.17300000000E+03 0. -1.
<mgrwt>
<rscale>  2 0.35516486E+03</rscale>
<asrwt>0</asrwt>
<pdfrwt beam="1">  1       21 0.33088062E-01 0.35516486E+03</pdfrwt>
<pdfrwt beam="2">  1       21 0.24647865E+00 0.35516486E+03</pdfrwt>
<totfact> 0.52682999E+02</totfact>
</mgrwt>
</event>
<event>
 4    1  0.3974123E+000  0.1926893E+03  0.7546771E-02  0.1156058E+00
         21   -1    0    0  501  502  0.00000000000E+00  0.00000000000E+00  0.30074582437E+03  0.30074582437E+03  0.00000000000E+00 0.  1.
         21   -1    0    0  502  503 -0.00000000000E+00 -0.00000000000E+00 -0.18178347185E+03  0.18178347185E+03  0.00000000000E+00 0.  1.
          6    1    1    2  501    0  0.20963194581E+02  0.82223525166E+02  0.19614372491E+03  0.27495731385E+03  0.17300000000E+03 0.  1.
         -6    1    1    2    0  503 -0.20963194581E+02 -0.82223525166E+02 -0.77181372392E+02  0.20757198236E+03  0.17300000000E+03 0.  1.
<mgrwt>
<rscale>  2 0.19268929E+03</rscale>
<asrwt>0</asrwt>
<pdfrwt beam="1">  1       21 0.46268588E-01 0.19268929E+03</pdfrwt>
<pdfrwt beam="2">  1       21 0.27966688E-01 0.19268929E+03</pdfrwt>
<totfact> 0.54651838E+04</totfact>
</mgrwt>
</event>
<event>
 4    1  0.3974123E+000  0.2568783E+03  0.7546771E-02  0.1109033E+00
         21   -1    0    0  501  502  0.00000000000E+00  0.00000000000E+00  0.77258893835E+03  0.77258893835E+03  0.00000000000E+00 0.  1.
         21   -1    0    0  502  503 -0.00000000000E+00 -0.00000000000E+00 -0.87896077638E+02  0.87896077638E+02  0.00000000000E+00 0. -1.
          6    1    1    2  501    0  0.57118127523E+02 -0.18109383933E+03  0.41471114347E+03  0.48782352511E+03  0.17300000000E+03 0.  1.
         -6    1    1    2    0  503 -0.57118127523E+02  0.18109383933E+03  0.26998171723E+03  0.37266149087E+03  0.17300000000E+03 0. -1.
<mgrwt>
<rscale>  2 0.25687830E+03</rscale>
<asrwt>0</asrwt>
<pdfrwt beam="1">  1       21 0.11885983E+00 0.25687830E+03</pdfrwt>
<pdfrwt beam="2">  1       21 0.13522474E-01 0.25687830E+03</pdfrwt>
<totfact> 0.24715918E+04</totfact>
</mgrwt>
</event>
<event>
 4    1  0.3974123E+000  0.1911598E+03  0.7546771E-02  0.1157419E+00
         21   -1    0    0  503  502  0.00000000000E+00  0.00000000000E+00  0.91019963490E+02  0.91019963490E+02  0.00000000000E+00 0. -1.
         21   -1    0    0  501  503 -0.00000000000E+00 -0.00000000000E+00 -0.41074072590E+03  0.41074072590E+03  0.00000000000E+00 0. -1.
          6    1    1    2  501    0  0.81255042877E+02  0.32688468252E+01 -0.19754523948E+03  0.27489305010E+03  0.17300000000E+03 0. -1.
         -6    1    1    2    0  502 -0.81255042877E+02 -0.32688468252E+01 -0.12217552292E+03  0.22686763928E+03  0.17300000000E+03 0. -1.
<mgrwt>
<rscale>  2 0.19115980E+03</rscale>
<asrwt>0</asrwt>
<pdfrwt beam="1">  1       21 0.14003071E-01 0.19115980E+03</pdfrwt>
<pdfrwt beam="2">  1       21 0.63190882E-01 0.19115980E+03</pdfrwt>
<totfact> 0.10305574E+05</totfact>
</mgrwt>
</event>
<event>
 4    1  0.3974123E+000  0.2437686E+03  0.7546771E-02  0.1117307E+00
         21   -1    0    0  503  502  0.00000000000E+00  0.00000000000E+00  0.38471393939E+03  0.38471393939E+03  0.00000000000E+00 0.  1.
         21   -1    0    0  501  503 -0.00000000000E+00 -0.00000000000E+00 -0.17254808291E+03  0.17254808291E+03  0.00000000000E+00 0.  1.
          6    1    1    2  501    0 -0.22774497852E+02 -0.17022178761E+03  0.15871034945E+02  0.24428472011E+03  0.17300000000E+03 0.  1.
         -6    1    1    2    0  502  0.22774497852E+02  0.17022178761E+03  0.19629482153E+03  0.31297730220E+03  0.17300000000E+03 0.  1.
<mgrwt>
<rscale>  2 0.24376861E+03</rscale>
<asrwt>0</asrwt>
<pdfrwt beam="1">  1       21 0.59186760E-01 0.24376861E+03</pdfrwt>
<pdfrwt beam="2">  1       21 0.26545859E-01 0.24376861E+03</pdfrwt>
<totfact> 0.35133337E+04</totfact>
</mgrwt>
</event>
<event>
 4    1  0.3974123E+000  0.2218307E+03  0.7546771E-02  0.1132526E+00
         21   -1    0    0  503  502  0.00000000000E+00  0.00000000000E+00  0.15801639219E+03  0.15801639219E+03  0.00000000000E+00 0. -1.
         21   -1    0    0  501  503 -0.00000000000E+00 -0.00000000000E+00 -0.33707169641E+03  0.33707169641E+03  0.00000000000E+00 0. -1.
          6    1    1    2  501    0 -0.81562559158E+02  0.11237165378E+03 -0.15782170338E+03  0.27224351174E+03  0.17300000000E+03 0. -1.
         -6    1    1    2    0  502  0.81562559158E+02 -0.11237165378E+03 -0.21233600852E+02  0.22284457686E+03  0.17300000000E+03 0. -1.
<mgrwt>
<rscale>  2 0.22183066E+03</rscale>
<asrwt>0</asrwt>
<pdfrwt beam="1">  1       21 0.24310215E-01 0.22183066E+03</pdfrwt>
<pdfrwt beam="2">  1       21 0.51857183E-01 0.22183066E+03</pdfrwt>
<totfact> 0.55654917E+04</totfact>
</mgrwt>
</event>
<event>
 4    1  0.3974123E+000  0.1949267E+03  0.7546771E-02  0.1154091E+00
         21   -1    0    0  501  502  0.00000000000E+00  0.00000000000E+00  0.35157620097E+03  0.35157620097E+03  0.00000000000E+00 0.  1.
         21   -1    0    0  502  503 -0.00000000000E+00 -0.00000000000E+00 -0.23315437491E+03  0.23315437491E+03  0.00000000000E+00 0.  1.
          6    1    1    2  501    0  0.87089633372E+02  0.21972769549E+02  0.27335092292E+03  0.33573372471E+03  0.17300000000E+03 0.  1.
         -6    1    1    2    0  503 -0.87089633372E+02 -0.21972769549E+02 -0.15492909685E+03  0.24899685117E+03  0.17300000000E+03 0.  1.
<mgrwt>
<rscale>  2 0.19492667E+03</rscale>
<asrwt>0</asrwt>
<pdfrwt beam="1">  1       21 0.54088646E-01 0.19492667E+03</pdfrwt>
<pdfrwt beam="2">  1       21 0.35869904E-01 0.19492667E+03</pdfrwt>
<totfact> 0.24186088E+04</totfact>
</mgrwt>
</event>
<event>
 4    1  0.3974123E+000  0.1815321E+03  0.7546771E-02  0.1166328E+00
         21   -1    0    0  503  502  0.00000000000E+00  0.00000000000E+00  0.10606225903E+03  0.10606225903E+03  0.00000000000E+00 0.  1.
         21   -1    0    0  501  503 -0.00000000000E+00 -0.00000000000E+00 -0.31521684050E+03  0.31521684050E+03  0.00000000000E+00 0. -1.
          6    1    1    2  501    0  0.52581819507E+02  0.16126467679E+02 -0.79372316620E+02  0.19812590782E+03  0.17300000000E+03 0.  1.
         -6    1    1    2    0  502 -0.52581819507E+02 -0.16126467679E+02 -0.12978226485E+03  0.22315319172E+03  0.17300000000E+03 0. -1.
<mgrwt>
<rscale>  2 0.18153212E+03</rscale>
<asrwt>0</asrwt>
<pdfrwt beam="1">  1       21 0.16317271E-01 0.18153212E+03</pdfrwt>
<pdfrwt beam="2">  1       21 0.48494897E-01 0.18153212E+03</pdfrwt>
<totfact> 0.13709425E+05</totfact>
</mgrwt>
</event>
<event>
 4    1  0.3974123E+000  0.4007447E+03  0.7546771E-02  0.1043522E+00
         21   -1    0    0  503  502  0.00000000000E+00  0.00000000000E+00  0.98602655715E+02  0.98602655715E+02  0.00000000000E+00 0.  1.
         21   -1    0    0  501  503 -0.00000000000E+00 -0.00000000000E+00 -0.23049108349E+04  0.23049108349E+04  0.00000000000E+00 0.  1.
          6    1    1    2  501    0  0.32799311438E+02  0.35998821912E+03 -0.17540679323E+04  0.17992639117E+04  0.17300000000E+03 0.  1.
         -6    1    1    2    0  502 -0.32799311438E+02 -0.35998821912E+03 -0.45224024685E+03  0.60424957891E+03  0.17300000000E+03 0.  1.
<mgrwt>
<rscale>  2 0.40074470E+03</rscale>
<asrwt>0</asrwt>
<pdfrwt beam="1">  1       21 0.15169640E-01 0.40074470E+03</pdfrwt>
<pdfrwt beam="2">  1       21 0.35460166E+00 0.40074470E+03</pdfrwt>
<totfact> 0.51074610E+02</totfact>
</mgrwt>
</event>
<event>
 4    1  0.3974123E+000  0.2232510E+03  0.7546771E-02  0.1131482E+00
         21   -1    0    0  503  502  0.00000000000E+00  0.00000000000E+00  0.59599260202E+03  0.59599260202E+03  0.00000000000E+00 0.  1.
         21   -1    0    0  501  503 -0.00000000000E+00 -0.00000000000E+00 -0.94823302693E+02  0.94823302693E+02  0.00000000000E+00 0.  1.
          6    1    1    2  501    0 -0.13812427709E+03  0.28873406270E+02  0.13189445656E+03  0.25930124794E+03  0.17300000000E+03 0.  1.
         -6    1    1    2    0  502  0.13812427709E+03 -0.28873406270E+02  0.36927484276E+03  0.43151465677E+03  0.17300000000E+03 0.  1.
<mgrwt>
<rscale>  2 0.22325096E+03</rscale>
<asrwt>0</asrwt>
<pdfrwt beam="1">  1       21 0.91691167E-01 0.22325096E+03</pdfrwt>
<pdfrwt beam="2">  1       21 0.14588201E-01 0.22325096E+03</pdfrwt>
<totfact> 0.40876023E+04</totfact>
</mgrwt>
</event>
<event>
 4    1  0.3974123E+000  0.2161244E+03  0.7546771E-02  0.1136806E+00
         21   -1    0    0  503  502  0.00000000000E+00  0.00000000000E+00  0.61455888853E+03  0.61455888853E+03  0.00000000000E+00 0. -1.
         21   -1    0    0  501  503 -0.00000000000E+00 -0.00000000000E+00 -0.85941389245E+02  0.85941389245E+02  0.00000000000E+00 0. -1.
          6    1    1    2  501    0  0.26595975797E+02  0.12678088943E+03  0.14521619307E+03  0.26037949724E+03  0.17300000000E+03 0. -1.
         -6    1    1    2    0  502 -0.26595975797E+02 -0.12678088943E+03  0.38340130621E+03  0.44012078053E+03  0.17300000000E+03 0. -1.
<mgrwt>
<rscale>  2 0.21612436E+03</rscale>
<asrwt>0</asrwt>
<pdfrwt beam="1">  1       21 0.94547519E-01 0.21612436E+03</pdfrwt>
<pdfrwt beam="2">  1       21 0.13221753E-01 0.21612436E+03</pdfrwt>
<totfact> 0.45638744E+04</totfact>
</mgrwt>
</event>
<event>
 4    1  0.3974123E+000  0.3015477E+03  0.7546771E-02  0.1084469E+00
         21   -1    0    0  501  502  0.00000000000E+00  0.00000000000E+00  0.21519794510E+03  0.21519794510E+03  0.00000000000E+00 0.  1.
         21   -1    0    0  502  503 -0.00000000000E+00 -0.00000000000E+00 -0.42341673327E+03  0.42341673327E+03  0.00000000000E+00 0.  1.
          6    1    1    2  501    0  0.21613969537E+03  0.11952265362E+03 -0.11858929038E+03  0.32402847473E+03  0.17300000000E+03 0.  1.
         -6    1    1    2    0  503 -0.21613969537E+03 -0.11952265362E+03 -0.89629497787E+02  0.31458620364E+03  0.17300000000E+03 0.  1.
<mgrwt>
<rscale>  2 0.30154773E+03</rscale>
<asrwt>0</asrwt>
<pdfrwt beam="1">  1       21 0.33107376E-01 0.30154773E+03</pdfrwt>
<pdfrwt beam="2">  1       21 0.65141036E-01 0.30154773E+03</pdfrwt>
<totfact> 0.18038148E+04</totfact>
</mgrwt>
</event>
<event>
 4    1  0.3974123E+000  0.1779377E+03  0.7546771E-02  0.1169814E+00
         21   -1    0    0  501  502  0.00000000000E+00  0.00000000000E+00  0.12825657256E+03  0.12825657256E+03  0.00000000000E+00 0. -1.
         21   -1    0    0  502  503 -0.00000000000E+00 -0.00000000000E+00 -0.24686329303E+03  0.24686329303E+03  0.00000000000E+00 0. -1.
          6    1    1    2  501    0  0.26673228204E+02  0.31959010034E+02 -0.59281550339E+02  0.18755303686E+03  0.17300000000E+03 0. -1.
         -6    1    1    2    0  503 -0.26673228204E+02 -0.31959010034E+02 -0.59325170132E+02  0.18756682872E+03  0.17300000000E+03 0. -1.
<mgrwt>
<rscale>  2 0.17793774E+03</rscale>
<asrwt>0</asrwt>
<pdfrwt beam="1">  1       21 0.19731781E-01 0.17793774E+03</pdfrwt>
<pdfrwt beam="2">  1       21 0.37978968E-01 0.17793774E+03</pdfrwt>
<totfact> 0.15900849E+05</totfact>
</mgrwt>
</event>
<event>
 4    1  0.3974123E+000  0.1911328E+03  0.7546771E-02  0.1157444E+00
         21   -1    0    0  501  502  0.00000000000E+00  0.00000000000E+00  0.27514984931E+03  0.27514984931E+03  0.00000000000E+00 0. -1.
         21   -1    0    0  502  503 -0.00000000000E+00 -0.00000000000E+00 -0.13304103346E+03  0.13304103346E+03  0.00000000000E+00 0. -1.
          6    1    1    2  501    0  0.28839296071E+02 -0.75967426182E+02  0.80259610079E+02  0.20730016847E+03  0.17300000000E+03 0. -1.
         -6    1    1    2    0  503 -0.28839296071E+02  0.75967426182E+02  0.61849205765E+02  0.20089071430E+03  0.17300000000E+03 0. -1.
<mgrwt>
<rscale>  2 0.19113282E+03</rscale>
<asrwt>0</asrwt>
<pdfrwt beam="1">  1       21 0.42330746E-01 0.19113282E+03</pdfrwt>
<pdfrwt beam="2">  1       21 0.20467851E-01 0.19113282E+03</pdfrwt>
<totfact> 0.11877541E+05</totfact>
</mgrwt>
</event>
<event>
 4    1  0.3974123E+000  0.2092416E+03  0.7546771E-02  0.1142168E+00
         21   -1    0    0  503  502  0.00000000000E+00  0.00000000000E+00  0.32863031903E+02  0.32863031903E+02  0.00000000000E+00 0. -1.
         21   -1    0    0  501  503 -0.00000000000E+00 -0.00000000000E+00 -0.13390945447E+04  0.13390945447E+04  0.00000000000E+00 0.  1.
          6    1    1    2  501    0 -0.92117385625E+02  0.73262752882E+02 -0.70212941005E+03  0.73264435585E+03  0.17300000000E+03 0.  1.
         -6    1    1    2    0  502  0.92117385625E+02 -0.73262752882E+02 -0.60410210276E+03  0.63931322077E+03  0.17300000000E+03 0. -1.
<mgrwt>
<rscale>  2 0.20924159E+03</rscale>
<asrwt>0</asrwt>
<pdfrwt beam="1">  1       21 0.50558501E-02 0.20924159E+03</pdfrwt>
<pdfrwt beam="2">  1       21 0.20601458E+00 0.20924159E+03</pdfrwt>
<totfact> 0.32072305E+04</totfact>
</mgrwt>
</event>
<event>
 4    1  0.3974123E+000  0.1789179E+03  0.7546771E-02  0.1168854E+00
         21   -1    0    0  501  502  0.00000000000E+00  0.00000000000E+00  0.18778721970E+03  0.18778721970E+03  0.00000000000E+00 0. -1.
         21   -1    0    0  502  503 -0.00000000000E+00 -0.00000000000E+00 -0.19691580657E+03  0.19691580657E+03  0.00000000000E+00 0. -1.
          6    1    1    2  501    0 -0.45811150544E+01  0.45404961641E+02  0.65930194244E+02  0.19067875516E+03  0.17300000000E+03 0. -1.
         -6    1    1    2    0  503  0.45811150544E+01 -0.45404961641E+02 -0.75058781113E+02  0.19402427111E+03  0.17300000000E+03 0. -1.
<mgrwt>
<rscale>  2 0.17891785E+03</rscale>
<asrwt>0</asrwt>
<pdfrwt beam="1">  1       21 0.28890342E-01 0.17891785E+03</pdfrwt>
<pdfrwt beam="2">  1       21 0.30294739E-01 0.17891785E+03</pdfrwt>
<totfact> 0.12046211E+05</totfact>
</mgrwt>
</event>
<event>
 4    1  0.3974123E+000  0.2149771E+03  0.7546771E-02  0.1137684E+00
         21   -1    0    0  503  502  0.00000000000E+00  0.00000000000E+00  0.17311232242E+04  0.17311232242E+04  0.00000000000E+00 0. -1.
         21   -1    0    0  501  503 -0.00000000000E+00 -0.00000000000E+00 -0.30078319266E+02  0.30078319266E+02  0.00000000000E+00 0. -1.
          6    1    1    2  501    0 -0.11657882170E+03  0.51918387064E+02  0.55525219139E+03  0.59541593582E+03  0.17300000000E+03 0. -1.
         -6    1    1    2    0  502  0.11657882170E+03 -0.51918387064E+02  0.11457927136E+04  0.11657856077E+04  0.17300000000E+03 0. -1.
<mgrwt>
<rscale>  2 0.21497707E+03</rscale>
<asrwt>0</asrwt>
<pdfrwt beam="1">  1       21 0.26632657E+00 0.21497707E+03</pdfrwt>
<pdfrwt beam="2">  1       21 0.46274351E-02 0.21497707E+03</pdfrwt>
<totfact> 0.16044772E+04</totfact>
</mgrwt>
</event>
<event>
 4    1  0.3974123E+000  0.1901846E+03  0.7546771E-02  0.1158295E+00
         21   -1    0    0  501  502  0.00000000000E+00  0.00000000000E+00  0.53640094832E+03  0.53640094832E+03  0.00000000000E+00 0.  1.
         21   -1    0    0  502  503 -0.00000000000E+00 -0.00000000000E+00 -0.67653342968E+02  0.67653342968E+02  0.00000000000E+00 0.  1.
          6    1    1    2  501    0 -0.51820621940E+02 -0.59630622903E+02  0.21706903251E+03  0.28859860173E+03  0.17300000000E+03 0.  1.
         -6    1    1    2    0  503  0.51820621940E+02  0.59630622903E+02  0.25167857285E+03  0.31545568956E+03  0.17300000000E+03 0.  1.
<mgrwt>
<rscale>  2 0.19018462E+03</rscale>
<asrwt>0</asrwt>
<pdfrwt beam="1">  1       21 0.82523220E-01 0.19018462E+03</pdfrwt>
<pdfrwt beam="2">  1       21 0.10408207E-01 0.19018462E+03</pdfrwt>
<totfact> 0.97007216E+04</totfact>
</mgrwt>
</event>
<event>
 4    1  0.3974123E+000  0.1966455E+03  0.7546771E-02  0.1152600E+00
         21   -1    0    0  503  502  0.00000000000E+00  0.00000000000E+00  0.17451429771E+03  0.17451429771E+03  0.00000000000E+00 0.  1.
         21   -1    0    0  501  503 -0.00000000000E+00 -0.00000000000E+00 -0.31882172863E+03  0.31882172863E+03  0.00000000000E+00 0.  1.
          6    1    1    2  501    0  0.73385891566E+02  0.57921964213E+02 -0.20837908226E+03  0.28651576735E+03  0.17300000000E+03 0.  1.
         -6    1    1    2    0  502 -0.73385891566E+02 -0.57921964213E+02  0.64071651337E+02  0.20682025898E+03  0.17300000000E+03 0.  1.
<mgrwt>
<rscale>  2 0.19664548E+03</rscale>
<asrwt>0</asrwt>
<pdfrwt beam="1">  1       21 0.26848354E-01 0.19664548E+03</pdfrwt>
<pdfrwt beam="2">  1       21 0.49049496E-01 0.19664548E+03</pdfrwt>
<totfact> 0.52294926E+04</totfact>
</mgrwt>
</event>
<event>
 4    1  0.3974123E+000  0.2025737E+03  0.7546771E-02  0.1147586E+00
         21   -1    0    0  501  502  0.00000000000E+00  0.00000000000E+00  0.64148650225E+03  0.64148650225E+03  0.00000000000E+00 0. -1.
         21   -1    0    0  502  503 -0.00000000000E+00 -0.00000000000E+00 -0.64383514637E+02  0.64383514637E+02  0.00000000000E+00 0.  1.
          6    1    1    2  501    0  0.19530903241E+02  0.10356463927E+03  0.31682565727E+03  0.37605131005E+03  0.17300000000E+03 0.  1.
         -6    1    1    2    0  503 -0.19530903241E+02 -0.10356463927E+03  0.26027733035E+03  0.32981870684E+03  0.17300000000E+03 0. -1.
<mgrwt>
<rscale>  2 0.20257367E+03</rscale>
<asrwt>0</asrwt>
<pdfrwt beam="1">  1       21 0.98690226E-01 0.20257367E+03</pdfrwt>
<pdfrwt beam="2">  1       21 0.99051566E-02 0.20257367E+03</pdfrwt>
<totfact> 0.69565461E+04</totfact>
</mgrwt>
</event>
<event>
 4    1  0.3974123E+000  0.1999402E+03  0.7546771E-02  0.1149789E+00
         21   -1    0    0  503  502  0.00000000000E+00  0.00000000000E+00  0.74063262440E+03  0.74063262440E+03  0.00000000000E+00 0.  1.
         21   -1    0    0  501  503 -0.00000000000E+00 -0.00000000000E+00 -0.59669821436E+02  0.59669821436E+02  0.00000000000E+00 0. -1.
          6    1    1    2  501    0  0.83283538822E+01 -0.99888503503E+02  0.21686822625E+03  0.29497101920E+03  0.17300000000E+03 0. -1.
         -6    1    1    2    0  502 -0.83283538822E+01  0.99888503503E+02  0.46409457671E+03  0.50533142664E+03  0.17300000000E+03 0. -1.
<mgrwt>
<rscale>  2 0.19994018E+03</rscale>
<asrwt>0</asrwt>
<pdfrwt beam="1">  1       21 0.11394347E+00 0.19994018E+03</pdfrwt>
<pdfrwt beam="2">  1       21 0.91799730E-02 0.19994018E+03</pdfrwt>
<totfact> 0.56357924E+04</totfact>
</mgrwt>
</event>
<event>
 4    1  0.3974123E+000  0.1945391E+03  0.7546771E-02  0.1154430E+00
         21   -1    0    0  501  502  0.00000000000E+00  0.00000000000E+00  0.43174310332E+03  0.43174310332E+03  0.00000000000E+00 0.  1.
         21   -1    0    0  502  503 -0.00000000000E+00 -0.00000000000E+00 -0.19934182428E+03  0.19934182428E+03  0.00000000000E+00 0. -1.
          6    1    1    2  501    0 -0.82914869124E+02 -0.32273529044E+02  0.35238710157E+03  0.40251972070E+03  0.17300000000E+03 0.  1.
         -6    1    1    2    0  503  0.82914869124E+02  0.32273529044E+02 -0.11998582253E+03  0.22856520690E+03  0.17300000000E+03 0. -1.
<mgrwt>
<rscale>  2 0.19453909E+03</rscale>
<asrwt>0</asrwt>
<pdfrwt beam="1">  1       21 0.66422016E-01 0.19453909E+03</pdfrwt>
<pdfrwt beam="2">  1       21 0.30667973E-01 0.19453909E+03</pdfrwt>
<totfact> 0.21199810E+04</totfact>
</mgrwt>
</event>
<event>
 4    1  0.3974123E+000  0.1793397E+03  0.7546771E-02  0.1168444E+00
         21   -1    0    0  501  502  0.00000000000E+00  0.00000000000E+00  0.47329855368E+02  0.47329855368E+02  0.00000000000E+00 0. -1.
         21   -1    0    0  502  503 -0.00000000000E+00 -0.00000000000E+00 -0.89013344807E+03  0.89013344807E+03  0.00000000000E+00 0. -1.
          6    1    1    2  501    0 -0.45335779065E+02 -0.13355797736E+02 -0.19341209975E+03  0.26376305755E+03  0.17300000000E+03 0.  1.
         -6    1    1    2    0  503  0.45335779065E+02  0.13355797736E+02 -0.64939149295E+03  0.67370024589E+03  0.17300000000E+03 0.  1.
<mgrwt>
<rscale>  2 0.17933965E+03</rscale>
<asrwt>0</asrwt>
<pdfrwt beam="1">  1       21 0.72815168E-02 0.17933965E+03</pdfrwt>
<pdfrwt beam="2">  1       21 0.13694360E+00 0.17933965E+03</pdfrwt>
<totfact> 0.53900683E+04</totfact>
</mgrwt>
</event>
<event>
 4    1  0.3974123E+000  0.2933200E+03  0.7546771E-02  0.1088628E+00
         21   -1    0    0  503  502  0.00000000000E+00  0.00000000000E+00  0.56855848815E+02  0.56855848815E+02  0.00000000000E+00 0. -1.
         21   -1    0    0  501  503 -0.00000000000E+00 -0.00000000000E+00 -0.17366563121E+04  0.17366563121E+04  0.00000000000E+00 0.  1.
          6    1    1    2  501    0  0.19525400944E+03  0.13410253365E+03 -0.11615428440E+04  0.11980060084E+04  0.17300000000E+03 0.  1.
         -6    1    1    2    0  502 -0.19525400944E+03 -0.13410253365E+03 -0.51825761935E+03  0.59550615257E+03  0.17300000000E+03 0. -1.
<mgrwt>
<rscale>  2 0.29331999E+03</rscale>
<asrwt>0</asrwt>
<pdfrwt beam="1">  1       21 0.87470546E-02 0.29331999E+03</pdfrwt>
<pdfrwt beam="2">  1       21 0.26717787E+00 0.29331999E+03</pdfrwt>
<totfact> 0.49641623E+03</totfact>
</mgrwt>
</event>
<event>
 4    1  0.3974123E+000  0.1955365E+03  0.7546771E-02  0.1153560E+00
         21   -1    0    0  503  502  0.00000000000E+00  0.00000000000E+00  0.20831686525E+02  0.20831686525E+02  0.00000000000E+00 0. -1.
         21   -1    0    0  501  503 -0.00000000000E+00 -0.00000000000E+00 -0.18556291824E+04  0.18556291824E+04  0.00000000000E+00 0. -1.
          6    1    1    2  501    0 -0.55973987948E+02 -0.71919746308E+02 -0.81944472545E+03  0.84245130144E+03  0.17300000000E+03 0. -1.
         -6    1    1    2    0  502  0.55973987948E+02  0.71919746308E+02 -0.10153527705E+04  0.10340095675E+04  0.17300000000E+03 0. -1.
<mgrwt>
<rscale>  2 0.19553654E+03</rscale>
<asrwt>0</asrwt>
<pdfrwt beam="1">  1       21 0.32048761E-02 0.19553654E+03</pdfrwt>
<pdfrwt beam="2">  1       21 0.28548130E+00 0.19553654E+03</pdfrwt>
<totfact> 0.23403120E+04</totfact>
</mgrwt>
</event>
<event>
 4    1  0.3974123E+000  0.2892163E+03  0.7546771E-02  0.1090759E+00
         21   -1    0    0  503  502  0.00000000000E+00  0.00000000000E+00  0.22936677055E+03  0.22936677055E+03  0.00000000000E+00 0.  1.
         21   -1    0    0  501  503 -0.00000000000E+00 -0.00000000000E+00 -0.36839910982E+03  0.36839910982E+03  0.00000000000E+00 0.  1.
          6    1    1    2  501    0 -0.17350152741E+03  0.15366938711E+03 -0.99536256985E+02  0.30586521052E+03  0.17300000000E+03 0.  1.
         -6    1    1    2    0  502  0.17350152741E+03 -0.15366938711E+03 -0.39496082286E+02  0.29190066986E+03  0.17300000000E+03 0.  1.
<mgrwt>
<rscale>  2 0.28921629E+03</rscale>
<asrwt>0</asrwt>
<pdfrwt beam="1">  1       21 0.35287196E-01 0.28921629E+03</pdfrwt>
<pdfrwt beam="2">  1       21 0.56676786E-01 0.28921629E+03</pdfrwt>
<totfact> 0.21600973E+04</totfact>
</mgrwt>
</event>
<event>
 4    1  0.3974123E+000  0.2007044E+03  0.7546771E-02  0.1149146E+00
         21   -1    0    0  503  502  0.00000000000E+00  0.00000000000E+00  0.12343597915E+03  0.12343597915E+03  0.00000000000E+00 0.  1.
         21   -1    0    0  501  503 -0.00000000000E+00 -0.00000000000E+00 -0.33979161308E+03  0.33979161308E+03  0.00000000000E+00 0.  1.
          6    1    1    2  501    0  0.10096740780E+03 -0.12603432649E+02 -0.15425898750E+03  0.25313652280E+03  0.17300000000E+03 0.  1.
         -6    1    1    2    0  502 -0.10096740780E+03  0.12603432649E+02 -0.62096646433E+02  0.21009106942E+03  0.17300000000E+03 0.  1.
<mgrwt>
<rscale>  2 0.20070442E+03</rscale>
<asrwt>0</asrwt>
<pdfrwt beam="1">  1       21 0.18990151E-01 0.20070442E+03</pdfrwt>
<pdfrwt beam="2">  1       21 0.52275632E-01 0.20070442E+03</pdfrwt>
<totfact> 0.87959888E+04</totfact>
</mgrwt>
</event>
<event>
 4    1  0.3974123E+000  0.1750171E+03  0.7546771E-02  0.1172715E+00
         21   -1    0    0  503  502  0.00000000000E+00  0.00000000000E+00  0.64322413974E+03  0.64322413974E+03  0.00000000000E+00 0.  1.
         21   -1    0    0  501  503 -0.00000000000E+00 -0.00000000000E+00 -0.18030483666E+03  0.18030483666E+03  0.00000000000E+00 0.  1.
          6    1    1    2  501    0 -0.25450032424E+02 -0.73677215019E+01 -0.12176758520E+03  0.21320959705E+03  0.17300000000E+03 0.  1.
         -6    1    1    2    0  502  0.25450032424E+02  0.73677215019E+01  0.58468688829E+03  0.61031937935E+03  0.17300000000E+03 0.  1.
<mgrwt>
<rscale>  2 0.17501711E+03</rscale>
<asrwt>0</asrwt>
<pdfrwt beam="1">  1       21 0.98957559E-01 0.17501711E+03</pdfrwt>
<pdfrwt beam="2">  1       21 0.27739206E-01 0.17501711E+03</pdfrwt>
<totfact> 0.10572299E+04</totfact>
</mgrwt>
</event>
<event>
 4    1  0.3974123E+000  0.2289501E+03  0.7546771E-02  0.1127381E+00
         21   -1    0    0  503  502  0.00000000000E+00  0.00000000000E+00  0.34668039095E+02  0.34668039095E+02  0.00000000000E+00 0. -1.
         21   -1    0    0  501  503 -0.00000000000E+00 -0.00000000000E+00 -0.18472475842E+04  0.18472475842E+04  0.00000000000E+00 0. -1.
          6    1    1    2  501    0 -0.40749140425E+02 -0.14432130491E+03 -0.13071466816E+04  0.13270458088E+04  0.17300000000E+03 0. -1.
         -6    1    1    2    0  502  0.40749140425E+02  0.14432130491E+03 -0.50543286348E+03  0.55486981444E+03  0.17300000000E+03 0. -1.
<mgrwt>
<rscale>  2 0.22895006E+03</rscale>
<asrwt>0</asrwt>
<pdfrwt beam="1">  1       21 0.53335433E-02 0.22895006E+03</pdfrwt>
<pdfrwt beam="2">  1       21 0.28419200E+00 0.22895006E+03</pdfrwt>
<totfact> 0.97945903E+03</totfact>
</mgrwt>
</event>
<event>
 4    1  0.3974123E+000  0.3505239E+03  0.7546771E-02  0.1062400E+00
         21   -1    0    0  503  502  0.00000000000E+00  0.00000000000E+00  0.21023284779E+03  0.21023284779E+03  0.00000000000E+00 0.  1.
         21   -1    0    0  501  503 -0.00000000000E+00 -0.00000000000E+00 -0.87706133066E+03  0.87706133066E+03  0.00000000000E+00 0. -1.
          6    1    1    2  501    0 -0.18841556811E+03 -0.23966143346E+03 -0.64743634395E+03  0.73623423478E+03  0.17300000000E+03 0. -1.
         -6    1    1    2    0  502  0.18841556811E+03  0.23966143346E+03 -0.19392138915E+02  0.35105994366E+03  0.17300000000E+03 0.  1.
<mgrwt>
<rscale>  2 0.35052393E+03</rscale>
<asrwt>0</asrwt>
<pdfrwt beam="1">  1       21 0.32343515E-01 0.35052393E+03</pdfrwt>
<pdfrwt beam="2">  1       21 0.13493251E+00 0.35052393E+03</pdfrwt>
<totfact> 0.32663373E+03</totfact>
</mgrwt>
</event>
<event>
 4    1  0.3974123E+000  0.1781720E+03  0.7546771E-02  0.1169584E+00
         21   -1    0    0  503  502  0.00000000000E+00  0.00000000000E+00  0.50060680721E+03  0.50060680721E+03  0.00000000000E+00 0.  1.
         21   -1    0    0  501  503 -0.00000000000E+00 -0.00000000000E+00 -0.12014620222E+03  0.12014620222E+03  0.00000000000E+00 0.  1.
          6    1    1    2  501    0 -0.39189613432E+02 -0.16746450083E+02 -0.23049753600E+02  0.17965678538E+03  0.17300000000E+03 0.  1.
         -6    1    1    2    0  502  0.39189613432E+02  0.16746450083E+02  0.40351035858E+03  0.44109622406E+03  0.17300000000E+03 0.  1.
<mgrwt>
<rscale>  2 0.17817202E+03</rscale>
<asrwt>0</asrwt>
<pdfrwt beam="1">  1       21 0.77016431E-01 0.17817202E+03</pdfrwt>
<pdfrwt beam="2">  1       21 0.18484031E-01 0.17817202E+03</pdfrwt>
<totfact> 0.40346652E+04</totfact>
</mgrwt>
</event>
<event>
 4    1  0.3974123E+000  0.1904515E+03  0.7546771E-02  0.1158055E+00
         21   -1    0    0  503  502  0.00000000000E+00  0.00000000000E+00  0.33271586776E+03  0.33271586776E+03  0.00000000000E+00 0.  1.
         21   -1    0    0  501  503 -0.00000000000E+00 -0.00000000000E+00 -0.12703075306E+03  0.12703075306E+03  0.00000000000E+00 0.  1.
          6    1    1    2  501    0  0.30585602847E+02  0.73534226242E+02  0.16279323819E+02  0.19114595971E+03  0.17300000000E+03 0.  1.
         -6    1    1    2    0  502 -0.30585602847E+02 -0.73534226242E+02  0.18940579088E+03  0.26860066111E+03  0.17300000000E+03 0.  1.
<mgrwt>
<rscale>  2 0.19045147E+03</rscale>
<asrwt>0</asrwt>
<pdfrwt beam="1">  1       21 0.51187056E-01 0.19045147E+03</pdfrwt>
<pdfrwt beam="2">  1       21 0.19543193E-01 0.19045147E+03</pdfrwt>
<totfact> 0.87517948E+04</totfact>
</mgrwt>
</event>
<event>
 4    1  0.3974123E+000  0.1938541E+03  0.7546771E-02  0.1155030E+00
         21   -1    0    0  503  502  0.00000000000E+00  0.00000000000E+00  0.42432428621E+03  0.42432428621E+03  0.00000000000E+00 0.  1.
         21   -1    0    0  501  503 -0.00000000000E+00 -0.00000000000E+00 -0.31910578293E+03  0.31910578293E+03  0.00000000000E+00 0.  1.
          6    1    1    2  501    0  0.81816298515E+02 -0.30927555246E+02 -0.26334090916E+03  0.32699824895E+03  0.17300000000E+03 0.  1.
         -6    1    1    2    0  502 -0.81816298515E+02  0.30927555246E+02  0.36855941244E+03  0.41643182020E+03  0.17300000000E+03 0.  1.
<mgrwt>
<rscale>  2 0.19385412E+03</rscale>
<asrwt>0</asrwt>
<pdfrwt beam="1">  1       21 0.65280660E-01 0.19385412E+03</pdfrwt>
<pdfrwt beam="2">  1       21 0.49093197E-01 0.19385412E+03</pdfrwt>
<totfact> 0.85400474E+03</totfact>
</mgrwt>
</event>
<event>
 4    1  0.3974123E+000  0.3203815E+03  0.7546771E-02  0.1075474E+00
         21   -1    0    0  503  502  0.00000000000E+00  0.00000000000E+00  0.55241364733E+03  0.55241364733E+03  0.00000000000E+00 0.  1.
         21   -1    0    0  501  503 -0.00000000000E+00 -0.00000000000E+00 -0.29756399848E+03  0.29756399848E+03  0.00000000000E+00 0. -1.
          6    1    1    2  501    0 -0.26938038790E+03  0.12227445388E+02 -0.13302118723E+03  0.34689903438E+03  0.17300000000E+03 0. -1.
         -6    1    1    2    0  502  0.26938038790E+03 -0.12227445388E+02  0.38787083607E+03  0.50307861143E+03  0.17300000000E+03 0.  1.
<mgrwt>
<rscale>  2 0.32038150E+03</rscale>
<asrwt>0</asrwt>
<pdfrwt beam="1">  1       21 0.84986715E-01 0.32038150E+03</pdfrwt>
<pdfrwt beam="2">  1       21 0.45779077E-01 0.32038150E+03</pdfrwt>
<totfact> 0.50712928E+03</totfact>
</mgrwt>
</event>
<event>
 4    1  0.3974123E+000  0.2173604E+03  0.7546771E-02  0.1135866E+00
         21   -1    0    0  501  502  0.00000000000E+00  0.00000000000E+00  0.84305136444E+03  0.84305136444E+03  0.00000000000E+00 0.  1.
         21   -1    0    0  502  503 -0.00000000000E+00 -0.00000000000E+00 -0.65905937349E+02  0.65905937349E+02  0.00000000000E+00 0.  1.
          6    1    1    2  501    0  0.12737832317E+03  0.33035144459E+02  0.56440367109E+03  0.60481159208E+03  0.17300000000E+03 0. -1.
         -6    1    1    2    0  503 -0.12737832317E+03 -0.33035144459E+02  0.21274175600E+03  0.30414570970E+03  0.17300000000E+03 0. -1.
<mgrwt>
<rscale>  2 0.21736043E+03</rscale>
<asrwt>0</asrwt>
<pdfrwt beam="1">  1       21 0.12970020E+00 0.21736043E+03</pdfrwt>
<pdfrwt beam="2">  1       21 0.10139376E-01 0.21736043E+03</pdfrwt>
<totfact> 0.33944046E+04</totfact>
</mgrwt>
</event>
<event>
 4    1  0.3974123E+000  0.2154766E+03  0.7546771E-02  0.1137301E+00
         21   -1    0    0  501  502  0.00000000000E+00  0.00000000000E+00  0.85516237373E+02  0.85516237373E+02  0.00000000000E+00 0. -1.
         21   -1    0    0  502  503 -0.00000000000E+00 -0.00000000000E+00 -0.56284841854E+03  0.56284841854E+03  0.00000000000E+00 0.  1.
          6    1    1    2  501    0 -0.87935229684E+02  0.93640582216E+02 -0.17769627476E+03  0.27929577390E+03  0.17300000000E+03 0. -1.
         -6    1    1    2    0  503  0.87935229684E+02 -0.93640582216E+02 -0.29963590641E+03  0.36906888201E+03  0.17300000000E+03 0.  1.
<mgrwt>
<rscale>  2 0.21547660E+03</rscale>
<asrwt>0</asrwt>
<pdfrwt beam="1">  1       21 0.13156344E-01 0.21547660E+03</pdfrwt>
<pdfrwt beam="2">  1       21 0.86592064E-01 0.21547660E+03</pdfrwt>
<totfact> 0.56506674E+04</totfact>
</mgrwt>
</event>
<event>
 4    1  0.3974123E+000  0.2021276E+03  0.7546771E-02  0.1147956E+00
         21   -1    0    0  503  502  0.00000000000E+00  0.00000000000E+00  0.54126425199E+03  0.54126425199E+03  0.00000000000E+00 0.  1.
         21   -1    0    0  501  503 -0.00000000000E+00 -0.00000000000E+00 -0.75551914715E+02  0.75551914715E+02  0.00000000000E+00 0. -1.
          6    1    1    2  501    0 -0.57778054576E+02 -0.87110676843E+02  0.22345766671E+03  0.30131196860E+03  0.17300000000E+03 0.  1.
         -6    1    1    2    0  502  0.57778054576E+02  0.87110676843E+02  0.24225467056E+03  0.31550419810E+03  0.17300000000E+03 0. -1.
<mgrwt>
<rscale>  2 0.20212762E+03</rscale>
<asrwt>0</asrwt>
<pdfrwt beam="1">  1       21 0.83271421E-01 0.20212762E+03</pdfrwt>
<pdfrwt beam="2">  1       21 0.11623372E-01 0.20212762E+03</pdfrwt>
<totfact> 0.77682051E+04</totfact>
</mgrwt>
</event>
<event>
 4    1  0.3974123E+000  0.1741181E+03  0.7546771E-02  0.1173620E+00
         21   -1    0    0  503  502  0.00000000000E+00  0.00000000000E+00  0.33628572533E+03  0.33628572533E+03  0.00000000000E+00 0.  1.
         21   -1    0    0  501  503 -0.00000000000E+00 -0.00000000000E+00 -0.15113389851E+03  0.15113389851E+03  0.00000000000E+00 0.  1.
          6    1    1    2  501    0  0.95652170246E+01  0.17222696035E+02 -0.62230709249E+02  0.18490477498E+03  0.17300000000E+03 0.  1.
         -6    1    1    2    0  502 -0.95652170246E+01 -0.17222696035E+02  0.24738253606E+03  0.30251484886E+03  0.17300000000E+03 0.  1.
<mgrwt>
<rscale>  2 0.17411811E+03</rscale>
<asrwt>0</asrwt>
<pdfrwt beam="1">  1       21 0.51736265E-01 0.17411811E+03</pdfrwt>
<pdfrwt beam="2">  1       21 0.23251369E-01 0.17411811E+03</pdfrwt>
<totfact> 0.62202593E+04</totfact>
</mgrwt>
</event>
<event>
 4    1  0.3974123E+000  0.3028287E+03  0.7546771E-02  0.1083835E+00
         21   -1    0    0  501  502  0.00000000000E+00  0.00000000000E+00  0.32536451433E+03  0.32536451433E+03  0.00000000000E+00 0.  1.
         21   -1    0    0  502  503 -0.00000000000E+00 -0.00000000000E+00 -0.15605890014E+04  0.15605890014E+04  0.00000000000E+00 0.  1.
          6    1    1    2  501    0 -0.24798643517E+03 -0.16701748302E+02  0.23597325886E+03  0.38391222867E+03  0.17300000000E+03 0.  1.
         -6    1    1    2    0  503  0.24798643517E+03  0.16701748302E+02 -0.14711977459E+04  0.15020412870E+04  0.17300000000E+03 0.  1.
<mgrwt>
<rscale>  2 0.30282870E+03</rscale>
<asrwt>0</asrwt>
<pdfrwt beam="1">  1       21 0.50056080E-01 0.30282870E+03</pdfrwt>
<pdfrwt beam="2">  1       21 0.24009061E+00 0.30282870E+03</pdfrwt>
<totfact> 0.25652366E+02</totfact>
</mgrwt>
</event>
<event>
 4    1  0.3974123E+000  0.1869424E+03  0.7546771E-02  0.1161248E+00
         21   -1    0    0  501  502  0.00000000000E+00  0.00000000000E+00  0.32182717986E+03  0.32182717986E+03  0.00000000000E+00 0.  1.
         21   -1    0    0  502  503 -0.00000000000E+00 -0.00000000000E+00 -0.37563394488E+03  0.37563394488E+03  0.00000000000E+00 0.  1.
          6    1    1    2  501    0  0.44288994991E+01  0.70702543955E+02  0.26713114202E+03  0.32604679405E+03  0.17300000000E+03 0.  1.
         -6    1    1    2    0  503 -0.44288994991E+01 -0.70702543955E+02 -0.32093790704E+03  0.37141433070E+03  0.17300000000E+03 0.  1.
<mgrwt>
<rscale>  2 0.18694241E+03</rscale>
<asrwt>0</asrwt>
<pdfrwt beam="1">  1       21 0.49511874E-01 0.18694241E+03</pdfrwt>
<pdfrwt beam="2">  1       21 0.57789838E-01 0.18694241E+03</pdfrwt>
<totfact> 0.10962662E+04</totfact>
</mgrwt>
</event>
<event>
 4    1  0.3974123E+000  0.1802842E+03  0.7546771E-02  0.1167528E+00
         21   -1    0    0  503  502  0.00000000000E+00  0.00000000000E+00  0.75168283826E+03  0.75168283826E+03  0.00000000000E+00 0.  1.
         21   -1    0    0  501  503 -0.00000000000E+00 -0.00000000000E+00 -0.45569723447E+02  0.45569723447E+02  0.00000000000E+00 0.  1.
          6    1    1    2  501    0  0.49198705227E+02 -0.12363949299E+02  0.26291443373E+03  0.31878892594E+03  0.17300000000E+03 0.  1.
         -6    1    1    2    0  502 -0.49198705227E+02  0.12363949299E+02  0.44319868108E+03  0.47846363577E+03  0.17300000000E+03 0.  1.
<mgrwt>
<rscale>  2 0.18028416E+03</rscale>
<asrwt>0</asrwt>
<pdfrwt beam="1">  1       21 0.11564350E+00 0.18028416E+03</pdfrwt>
<pdfrwt beam="2">  1       21 0.70107273E-02 0.18028416E+03</pdfrwt>
<totfact> 0.87731782E+04</totfact>
</mgrwt>
</event>
<event>
 4    1  0.3974123E+000  0.2800759E+03  0.7546771E-02  0.1095648E+00
         21   -1    0    0  501  502  0.00000000000E+00  0.00000000000E+00  0.95387464404E+02  0.95387464404E+02  0.00000000000E+00 0. -1.
         21   -1    0    0  502  503 -0.00000000000E+00 -0.00000000000E+00 -0.82605802919E+03  0.82605802919E+03  0.00000000000E+00 0. -1.
          6    1    1    2  501    0 -0.52820783013E+02  0.21383045800E+03 -0.39617609970E+03  0.48517831965E+03  0.17300000000E+03 0. -1.
         -6    1    1    2    0  503  0.52820783013E+02 -0.21383045800E+03 -0.33449446508E+03  0.43626717394E+03  0.17300000000E+03 0. -1.
<mgrwt>
<rscale>  2 0.28007588E+03</rscale>
<asrwt>0</asrwt>
<pdfrwt beam="1">  1       21 0.14674995E-01 0.28007588E+03</pdfrwt>
<pdfrwt beam="2">  1       21 0.12708585E+00 0.28007588E+03</pdfrwt>
<totfact> 0.17785358E+04</totfact>
</mgrwt>
</event>
<event>
 4    1  0.3974123E+000  0.2013121E+03  0.7546771E-02  0.1148637E+00
         21   -1    0    0  503  502  0.00000000000E+00  0.00000000000E+00  0.24694212132E+02  0.24694212132E+02  0.00000000000E+00 0.  1.
         21   -1    0    0  501  503 -0.00000000000E+00 -0.00000000000E+00 -0.22354518856E+04  0.22354518856E+04  0.00000000000E+00 0.  1.
          6    1    1    2  501    0  0.83954318590E+02 -0.59575479323E+02 -0.16880619771E+04  0.17000234715E+04  0.17300000000E+03 0.  1.
         -6    1    1    2    0  502 -0.83954318590E+02  0.59575479323E+02 -0.52269569645E+03  0.56012262625E+03  0.17300000000E+03 0.  1.
<mgrwt>
<rscale>  2 0.20131211E+03</rscale>
<asrwt>0</asrwt>
<pdfrwt beam="1">  1       21 0.37991088E-02 0.20131211E+03</pdfrwt>
<pdfrwt beam="2">  1       21 0.34391574E+00 0.20131211E+03</pdfrwt>
<totfact> 0.80295372E+03</totfact>
</mgrwt>
</event>
<event>
 4    1  0.3974123E+000  0.2139573E+03  0.7546771E-02  0.1138470E+00
         21   -1    0    0  501  502  0.00000000000E+00  0.00000000000E+00  0.46810595644E+02  0.46810595644E+02  0.00000000000E+00 0.  1.
         21   -1    0    0  502  503 -0.00000000000E+00 -0.00000000000E+00 -0.19178944519E+04  0.19178944519E+04  0.00000000000E+00 0.  1.
          6    1    1    2  501    0  0.11735775647E+03 -0.45562085455E+02 -0.24782543278E+03  0.32740676806E+03  0.17300000000E+03 0.  1.
         -6    1    1    2    0  503 -0.11735775647E+03  0.45562085455E+02 -0.16232584235E+04  0.16372982795E+04  0.17300000000E+03 0.  1.
<mgrwt>
<rscale>  2 0.21395735E+03</rscale>
<asrwt>0</asrwt>
<pdfrwt beam="1">  1       21 0.72016304E-02 0.21395735E+03</pdfrwt>
<pdfrwt beam="2">  1       21 0.29506067E+00 0.21395735E+03</pdfrwt>
<totfact> 0.51277398E+03</totfact>
</mgrwt>
</event>
<event>
 4    1  0.3974123E+000  0.1862486E+03  0.7546771E-02  0.1161889E+00
         21   -1    0    0  501  502  0.00000000000E+00  0.00000000000E+00  0.14841292111E+04  0.14841292111E+04  0.00000000000E+00 0. -1.
         21   -1    0    0  502  503 -0.00000000000E+00 -0.00000000000E+00 -0.24808939553E+02  0.24808939553E+02  0.00000000000E+00 0. -1.
          6    1    1    2  501    0  0.34763331860E+02  0.59590643848E+02  0.91117293472E+03  0.93001325315E+03  0.17300000000E+03 0. -1.
         -6    1    1    2    0  503 -0.34763331860E+02 -0.59590643848E+02  0.54814733687E+03  0.57892489755E+03  0.17300000000E+03 0. -1.
<mgrwt>
<rscale>  2 0.18624858E+03</rscale>
<asrwt>0</asrwt>
<pdfrwt beam="1">  1       21 0.22832750E+00 0.18624858E+03</pdfrwt>
<pdfrwt beam="2">  1       21 0.38167611E-02 0.18624858E+03</pdfrwt>
<totfact> 0.38124812E+04</totfact>
</mgrwt>
</event>
<event>
 4    1  0.3974123E+000  0.2185922E+03  0.7546771E-02  0.1134937E+00
         21   -1    0    0  503  502  0.00000000000E+00  0.00000000000E+00  0.12294918079E+03  0.12294918079E+03  0.00000000000E+00 0. -1.
         21   -1    0    0  501  503 -0.00000000000E+00 -0.00000000000E+00 -0.38992659175E+03  0.38992659175E+03  0.00000000000E+00 0. -1.
          6    1    1    2  501    0 -0.45814366986E+02 -0.12551734856E+03 -0.14823800304E+03  0.26411563103E+03  0.17300000000E+03 0. -1.
         -6    1    1    2    0  502  0.45814366986E+02  0.12551734856E+03 -0.11873940792E+03  0.24876014151E+03  0.17300000000E+03 0. -1.
<mgrwt>
<rscale>  2 0.21859223E+03</rscale>
<asrwt>0</asrwt>
<pdfrwt beam="1">  1       21 0.18915259E-01 0.21859223E+03</pdfrwt>
<pdfrwt beam="2">  1       21 0.59988706E-01 0.21859223E+03</pdfrwt>
<totfact> 0.65622804E+04</totfact>
</mgrwt>
</event>
<event>
 4    1  0.3974123E+000  0.1818461E+03  0.7546771E-02  0.1166028E+00
         21   -1    0    0  503  502  0.00000000000E+00  0.00000000000E+00  0.30961585531E+02  0.30961585531E+02  0.00000000000E+00 0.  1.
         21   -1    0    0  501  503 -0.00000000000E+00 -0.00000000000E+00 -0.10704843507E+04  0.10704843507E+04  0.00000000000E+00 0.  1.
          6    1    1    2  501    0  0.53917051760E+02 -0.15230019715E+02 -0.49340862691E+03  0.52585176151E+03  0.17300000000E+03 0. -1.
         -6    1    1    2    0  502 -0.53917051760E+02  0.15230019715E+02 -0.54611413827E+03  0.57559417474E+03  0.17300000000E+03 0. -1.
<mgrwt>
<rscale>  2 0.18184609E+03</rscale>
<asrwt>0</asrwt>
<pdfrwt beam="1">  1       21 0.47633211E-02 0.18184609E+03</pdfrwt>
<pdfrwt beam="2">  1       21 0.16468989E+00 0.18184609E+03</pdfrwt>
<totfact> 0.68366307E+04</totfact>
</mgrwt>
</event>
<event>
 4    1  0.3974123E+000  0.3083692E+03  0.7546771E-02  0.1081130E+00
         21   -1    0    0  503  502  0.00000000000E+00  0.00000000000E+00  0.54758136194E+02  0.54758136194E+02  0.00000000000E+00 0. -1.
         21   -1    0    0  501  503 -0.00000000000E+00 -0.00000000000E+00 -0.18669305279E+04  0.18669305279E+04  0.00000000000E+00 0. -1.
          6    1    1    2  501    0  0.11871049973E+03  0.22598756543E+03 -0.11599817739E+04  0.12002705021E+04  0.17300000000E+03 0. -1.
         -6    1    1    2    0  502 -0.11871049973E+03 -0.22598756543E+03 -0.65219061778E+03  0.72141816195E+03  0.17300000000E+03 0. -1.
<mgrwt>
<rscale>  2 0.30836920E+03</rscale>
<asrwt>0</asrwt>
<pdfrwt beam="1">  1       21 0.84243286E-02 0.30836920E+03</pdfrwt>
<pdfrwt beam="2">  1       21 0.28722008E+00 0.30836920E+03</pdfrwt>
<totfact> 0.39947815E+03</totfact>
</mgrwt>
</event>
<event>
 4    1  0.3974123E+000  0.1796539E+03  0.7546771E-02  0.1168138E+00
         21   -1    0    0  503  502  0.00000000000E+00  0.00000000000E+00  0.28478919602E+03  0.28478919602E+03  0.00000000000E+00 0.  1.
         21   -1    0    0  501  503 -0.00000000000E+00 -0.00000000000E+00 -0.12097589993E+03  0.12097589993E+03  0.00000000000E+00 0.  1.
          6    1    1    2  501    0 -0.25226975080E+02  0.41353552457E+02  0.30906203533E+02  0.18229292359E+03  0.17300000000E+03 0.  1.
         -6    1    1    2    0  502  0.25226975080E+02 -0.41353552457E+02  0.13290709256E+03  0.22347217237E+03  0.17300000000E+03 0.  1.
<mgrwt>
<rscale>  2 0.17965388E+03</rscale>
<asrwt>0</asrwt>
<pdfrwt beam="1">  1       21 0.43813722E-01 0.17965388E+03</pdfrwt>
<pdfrwt beam="2">  1       21 0.18611677E-01 0.17965388E+03</pdfrwt>
<totfact> 0.13268221E+05</totfact>
</mgrwt>
</event>
<event>
 4    1  0.3974123E+000  0.3259316E+03  0.7546771E-02  0.1072951E+00
         21   -1    0    0  503  502  0.00000000000E+00  0.00000000000E+00  0.60003889911E+03  0.60003889911E+03  0.00000000000E+00 0.  1.
         21   -1    0    0  501  503 -0.00000000000E+00 -0.00000000000E+00 -0.23176069696E+03  0.23176069696E+03  0.00000000000E+00 0. -1.
          6    1    1    2  501    0 -0.99492434720E+02 -0.25768912215E+03 -0.17949140034E+02  0.32642548900E+03  0.17300000000E+03 0. -1.
         -6    1    1    2    0  502  0.99492434720E+02  0.25768912215E+03  0.38622734219E+03  0.50537410707E+03  0.17300000000E+03 0.  1.
<mgrwt>
<rscale>  2 0.32593163E+03</rscale>
<asrwt>0</asrwt>
<pdfrwt beam="1">  1       21 0.92313676E-01 0.32593163E+03</pdfrwt>
<pdfrwt beam="2">  1       21 0.35655492E-01 0.32593163E+03</pdfrwt>
<totfact> 0.69546495E+03</totfact>
</mgrwt>
</event>
<event>
 4    1  0.3974123E+000  0.1798841E+03  0.7546771E-02  0.1167915E+00
         21   -1    0    0  503  502  0.00000000000E+00  0.00000000000E+00  0.12362116774E+03  0.12362116774E+03  0.00000000000E+00 0. -1.
         21   -1    0    0  501  503 -0.00000000000E+00 -0.00000000000E+00 -0.32640702639E+03  0.32640702639E+03  0.00000000000E+00 0. -1.
          6    1    1    2  501    0 -0.16268569595E+02  0.46525321821E+02 -0.20153720386E+03  0.27013980911E+03  0.17300000000E+03 0.  1.
         -6    1    1    2    0  502  0.16268569595E+02 -0.46525321821E+02 -0.12486547957E+01  0.17988838502E+03  0.17300000000E+03 0.  1.
<mgrwt>
<rscale>  2 0.17988405E+03</rscale>
<asrwt>0</asrwt>
<pdfrwt beam="1">  1       21 0.19018641E-01 0.17988405E+03</pdfrwt>
<pdfrwt beam="2">  1       21 0.50216465E-01 0.17988405E+03</pdfrwt>
<totfact> 0.96206246E+04</totfact>
</mgrwt>
</event>
<event>
 4    1  0.3974123E+000  0.2441856E+03  0.7546771E-02  0.1117035E+00
         21   -1    0    0  503  502  0.00000000000E+00  0.00000000000E+00  0.10811830625E+03  0.10811830625E+03  0.00000000000E+00 0.  1.
         21   -1    0    0  501  503 -0.00000000000E+00 -0.00000000000E+00 -0.56773778348E+03  0.56773778348E+03  0.00000000000E+00 0.  1.
          6    1    1    2  501    0  0.16627837219E+03 -0.45267343812E+02 -0.28696943859E+03  0.37679979851E+03  0.17300000000E+03 0.  1.
         -6    1    1    2    0  502 -0.16627837219E+03  0.45267343812E+02 -0.17265003864E+03  0.29905629122E+03  0.17300000000E+03 0.  1.
<mgrwt>
<rscale>  2 0.24418565E+03</rscale>
<asrwt>0</asrwt>
<pdfrwt beam="1">  1       21 0.16633586E-01 0.24418565E+03</pdfrwt>
<pdfrwt beam="2">  1       21 0.87344273E-01 0.24418565E+03</pdfrwt>
<totfact> 0.35623372E+04</totfact>
</mgrwt>
</event>
<event>
 4    1  0.3974123E+000  0.1954287E+03  0.7546771E-02  0.1153654E+00
         21   -1    0    0  501  502  0.00000000000E+00  0.00000000000E+00  0.94813040740E+02  0.94813040740E+02  0.00000000000E+00 0.  1.
         21   -1    0    0  502  503 -0.00000000000E+00 -0.00000000000E+00 -0.44705048457E+03  0.44705048457E+03  0.00000000000E+00 0.  1.
          6    1    1    2  501    0 -0.84961252019E+02  0.32326044842E+02 -0.90896486389E+02  0.21553319642E+03  0.17300000000E+03 0.  1.
         -6    1    1    2    0  503  0.84961252019E+02 -0.32326044842E+02 -0.26134095744E+03  0.32633032889E+03  0.17300000000E+03 0.  1.
<mgrwt>
<rscale>  2 0.19542873E+03</rscale>
<asrwt>0</asrwt>
<pdfrwt beam="1">  1       21 0.14586622E-01 0.19542873E+03</pdfrwt>
<pdfrwt beam="2">  1       21 0.68776996E-01 0.19542873E+03</pdfrwt>
<totfact> 0.79408492E+04</totfact>
</mgrwt>
</event>
<event>
 4    1  0.3974123E+000  0.2696520E+03  0.7546771E-02  0.1101479E+00
         21   -1    0    0  501  502  0.00000000000E+00  0.00000000000E+00  0.26648504905E+04  0.26648504905E+04  0.00000000000E+00 0.  1.
         21   -1    0    0  502  503 -0.00000000000E+00 -0.00000000000E+00 -0.16100661822E+03  0.16100661822E+03  0.00000000000E+00 0. -1.
          6    1    1    2  501    0  0.14994130532E+03 -0.14248088212E+03  0.25395726785E+04  0.25538483875E+04  0.17300000000E+03 0.  1.
         -6    1    1    2    0  503 -0.14994130532E+03  0.14248088212E+03 -0.35728806262E+02  0.27200872120E+03  0.17300000000E+03 0. -1.
<mgrwt>
<rscale>  2 0.26965199E+03</rscale>
<asrwt>0</asrwt>
<pdfrwt beam="1">  1       21 0.40997697E+00 0.26965199E+03</pdfrwt>
<pdfrwt beam="2">  1       21 0.24770251E-01 0.26965199E+03</pdfrwt>
<totfact> 0.10340842E+02</totfact>
</mgrwt>
</event>
<event>
 4    1  0.3974123E+000  0.1806615E+03  0.7546771E-02  0.1167164E+00
         21   -1    0    0  503  502  0.00000000000E+00  0.00000000000E+00  0.91403099446E+03  0.91403099446E+03  0.00000000000E+00 0. -1.
         21   -1    0    0  501  503 -0.00000000000E+00 -0.00000000000E+00 -0.68216408549E+02  0.68216408549E+02  0.00000000000E+00 0. -1.
          6    1    1    2  501    0  0.51236315005E+02 -0.91875324553E+01  0.83874466434E+02  0.19918206959E+03  0.17300000000E+03 0. -1.
         -6    1    1    2    0  502 -0.51236315005E+02  0.91875324553E+01  0.76194011947E+03  0.78306533341E+03  0.17300000000E+03 0. -1.
<mgrwt>
<rscale>  2 0.18066148E+03</rscale>
<asrwt>0</asrwt>
<pdfrwt beam="1">  1       21 0.14062014E+00 0.18066148E+03</pdfrwt>
<pdfrwt beam="2">  1       21 0.10494833E-01 0.18066148E+03</pdfrwt>
<totfact> 0.26553554E+04</totfact>
</mgrwt>
</event>
<event>
 4    1  0.3974123E+000  0.2550321E+03  0.7546771E-02  0.1110165E+00
         21   -1    0    0  501  502  0.00000000000E+00  0.00000000000E+00  0.16047453007E+03  0.16047453007E+03  0.00000000000E+00 0.  1.
         21   -1    0    0  502  503 -0.00000000000E+00 -0.00000000000E+00 -0.41625888354E+03  0.41625888354E+03  0.00000000000E+00 0.  1.
          6    1    1    2  501    0 -0.18432408155E+03  0.33719707642E+02 -0.17466738768E+03  0.30911176303E+03  0.17300000000E+03 0.  1.
         -6    1    1    2    0  503  0.18432408155E+03 -0.33719707642E+02 -0.81116965785E+02  0.26762165058E+03  0.17300000000E+03 0.  1.
<mgrwt>
<rscale>  2 0.25503213E+03</rscale>
<asrwt>0</asrwt>
<pdfrwt beam="1">  1       21 0.24688390E-01 0.25503213E+03</pdfrwt>
<pdfrwt beam="2">  1       21 0.64039828E-01 0.25503213E+03</pdfrwt>
<totfact> 0.33882544E+04</totfact>
</mgrwt>
</event>
<event>
 4    1  0.3974123E+000  0.2758460E+03  0.7546771E-02  0.1097980E+00
         21   -1    0    0  503  502  0.00000000000E+00  0.00000000000E+00  0.19922318330E+03  0.19922318330E+03  0.00000000000E+00 0. -1.
         21   -1    0    0  501  503 -0.00000000000E+00 -0.00000000000E+00 -0.44857400492E+03  0.44857400492E+03  0.00000000000E+00 0. -1.
          6    1    1    2  501    0  0.13596714862E+03  0.16635785142E+03 -0.24951286871E+03  0.37195116868E+03  0.17300000000E+03 0. -1.
         -6    1    1    2    0  502 -0.13596714862E+03 -0.16635785142E+03  0.16204709050E+00  0.27584601953E+03  0.17300000000E+03 0. -1.
<mgrwt>
<rscale>  2 0.27584597E+03</rscale>
<asrwt>0</asrwt>
<pdfrwt beam="1">  1       21 0.30649721E-01 0.27584597E+03</pdfrwt>
<pdfrwt beam="2">  1       21 0.69011384E-01 0.27584597E+03</pdfrwt>
<totfact> 0.18700756E+04</totfact>
</mgrwt>
</event>
<event>
 4    1  0.3974123E+000  0.3277078E+03  0.7546771E-02  0.1072156E+00
         21   -1    0    0  503  502  0.00000000000E+00  0.00000000000E+00  0.95492990246E+02  0.95492990246E+02  0.00000000000E+00 0.  1.
         21   -1    0    0  501  503 -0.00000000000E+00 -0.00000000000E+00 -0.14349958494E+04  0.14349958494E+04  0.00000000000E+00 0. -1.
          6    1    1    2  501    0  0.26577725453E+03 -0.82618790811E+02 -0.10256493898E+04  0.10767307391E+04  0.17300000000E+03 0.  1.
         -6    1    1    2    0  502 -0.26577725453E+03  0.82618790811E+02 -0.31385346932E+03  0.45375810056E+03  0.17300000000E+03 0. -1.
<mgrwt>
<rscale>  2 0.32770782E+03</rscale>
<asrwt>0</asrwt>
<pdfrwt beam="1">  1       21 0.14691230E-01 0.32770782E+03</pdfrwt>
<pdfrwt beam="2">  1       21 0.22076859E+00 0.32770782E+03</pdfrwt>
<totfact> 0.36546583E+03</totfact>
</mgrwt>
</event>
<event>
 4    1  0.3974123E+000  0.1794046E+03  0.7546771E-02  0.1168381E+00
         21   -1    0    0  503  502  0.00000000000E+00  0.00000000000E+00  0.31413435441E+03  0.31413435441E+03  0.00000000000E+00 0.  1.
         21   -1    0    0  501  503 -0.00000000000E+00 -0.00000000000E+00 -0.14626674542E+03  0.14626674542E+03  0.00000000000E+00 0. -1.
          6    1    1    2  501    0 -0.36002842369E+02 -0.30996832028E+02 -0.42047810617E+02  0.18426618418E+03  0.17300000000E+03 0. -1.
         -6    1    1    2    0  502  0.36002842369E+02  0.30996832028E+02  0.20991541960E+03  0.27613491565E+03  0.17300000000E+03 0.  1.
<mgrwt>
<rscale>  2 0.17940459E+03</rscale>
<asrwt>0</asrwt>
<pdfrwt beam="1">  1       21 0.48328362E-01 0.17940459E+03</pdfrwt>
<pdfrwt beam="2">  1       21 0.22502576E-01 0.17940459E+03</pdfrwt>
<totfact> 0.76066850E+04</totfact>
</mgrwt>
</event>
<event>
 4    1  0.3974123E+000  0.2059969E+03  0.7546771E-02  0.1144776E+00
         21   -1    0    0  501  502  0.00000000000E+00  0.00000000000E+00  0.15469010728E+04  0.15469010728E+04  0.00000000000E+00 0.  1.
         21   -1    0    0  502  503 -0.00000000000E+00 -0.00000000000E+00 -0.27661349471E+02  0.27661349471E+02  0.00000000000E+00 0. -1.
          6    1    1    2  501    0 -0.75944806094E+01  0.11157087145E+03  0.68794726341E+03  0.71812685002E+03  0.17300000000E+03 0. -1.
         -6    1    1    2    0  503  0.75944806094E+01 -0.11157087145E+03  0.83129245994E+03  0.85643557227E+03  0.17300000000E+03 0.  1.
<mgrwt>
<rscale>  2 0.20599693E+03</rscale>
<asrwt>0</asrwt>
<pdfrwt beam="1">  1       21 0.23798471E+00 0.20599693E+03</pdfrwt>
<pdfrwt beam="2">  1       21 0.42555934E-02 0.20599693E+03</pdfrwt>
<totfact> 0.27366810E+04</totfact>
</mgrwt>
</event>
<event>
 4    1  0.3974123E+000  0.1832173E+03  0.7546771E-02  0.1164725E+00
         21   -1    0    0  501  502  0.00000000000E+00  0.00000000000E+00  0.12973934297E+03  0.12973934297E+03  0.00000000000E+00 0. -1.
         21   -1    0    0  502  503 -0.00000000000E+00 -0.00000000000E+00 -0.38895820952E+03  0.38895820952E+03  0.00000000000E+00 0. -1.
          6    1    1    2  501    0  0.59143932596E+02 -0.11898634594E+02  0.20452606441E+02  0.18435533998E+03  0.17300000000E+03 0. -1.
         -6    1    1    2    0  503 -0.59143932596E+02  0.11898634594E+02 -0.27967147299E+03  0.33434221252E+03  0.17300000000E+03 0. -1.
<mgrwt>
<rscale>  2 0.18321731E+03</rscale>
<asrwt>0</asrwt>
<pdfrwt beam="1">  1       21 0.19959899E-01 0.18321731E+03</pdfrwt>
<pdfrwt beam="2">  1       21 0.59839724E-01 0.18321731E+03</pdfrwt>
<totfact> 0.60638162E+04</totfact>
</mgrwt>
</event>
<event>
 4    1  0.3974123E+000  0.5182221E+03  0.7546771E-02  0.1009129E+00
         21   -1    0    0  503  502  0.00000000000E+00  0.00000000000E+00  0.43915309904E+03  0.43915309904E+03  0.00000000000E+00 0.  1.
         21   -1    0    0  501  503 -0.00000000000E+00 -0.00000000000E+00 -0.91443966628E+03  0.91443966628E+03  0.00000000000E+00 0. -1.
          6    1    1    2  501    0 -0.40352624809E+03  0.27530296734E+03 -0.62717150188E+03  0.81357129343E+03  0.17300000000E+03 0. -1.
         -6    1    1    2    0  502  0.40352624809E+03 -0.27530296734E+03  0.15188493465E+03  0.54002147188E+03  0.17300000000E+03 0.  1.
<mgrwt>
<rscale>  2 0.51822211E+03</rscale>
<asrwt>0</asrwt>
<pdfrwt beam="1">  1       21 0.67562016E-01 0.51822211E+03</pdfrwt>
<pdfrwt beam="2">  1       21 0.14068302E+00 0.51822211E+03</pdfrwt>
<totfact> 0.57585337E+02</totfact>
</mgrwt>
</event>
<event>
 4    1  0.3974123E+000  0.2105207E+03  0.7546771E-02  0.1141154E+00
         21   -1    0    0  503  502  0.00000000000E+00  0.00000000000E+00  0.13904310895E+04  0.13904310895E+04  0.00000000000E+00 0.  1.
         21   -1    0    0  501  503 -0.00000000000E+00 -0.00000000000E+00 -0.31901548989E+02  0.31901548989E+02  0.00000000000E+00 0. -1.
          6    1    1    2  501    0  0.11908011875E+03  0.14486959332E+02  0.70006878030E+03  0.73103710154E+03  0.17300000000E+03 0. -1.
         -6    1    1    2    0  502 -0.11908011875E+03 -0.14486959332E+02  0.65846076019E+03  0.69129553694E+03  0.17300000000E+03 0.  1.
<mgrwt>
<rscale>  2 0.21052066E+03</rscale>
<asrwt>0</asrwt>
<pdfrwt beam="1">  1       21 0.21391243E+00 0.21052066E+03</pdfrwt>
<pdfrwt beam="2">  1       21 0.49079317E-02 0.21052066E+03</pdfrwt>
<totfact> 0.30056894E+04</totfact>
</mgrwt>
</event>
<event>
 4    1  0.3974123E+000  0.1931608E+03  0.7546771E-02  0.1155641E+00
         21   -1    0    0  503  502  0.00000000000E+00  0.00000000000E+00  0.15274852776E+03  0.15274852776E+03  0.00000000000E+00 0. -1.
         21   -1    0    0  501  503 -0.00000000000E+00 -0.00000000000E+00 -0.31752475437E+03  0.31752475437E+03  0.00000000000E+00 0.  1.
          6    1    1    2  501    0 -0.69755105661E+02  0.50163104129E+02 -0.19533243133E+03  0.27471052130E+03  0.17300000000E+03 0.  1.
         -6    1    1    2    0  502  0.69755105661E+02 -0.50163104129E+02  0.30556204718E+02  0.19556276084E+03  0.17300000000E+03 0. -1.
<mgrwt>
<rscale>  2 0.19316084E+03</rscale>
<asrwt>0</asrwt>
<pdfrwt beam="1">  1       21 0.23499774E-01 0.19316084E+03</pdfrwt>
<pdfrwt beam="2">  1       21 0.48849962E-01 0.19316084E+03</pdfrwt>
<totfact> 0.68141554E+04</totfact>
</mgrwt>
</event>
<event>
 4    1  0.3974123E+000  0.1864210E+03  0.7546771E-02  0.1161730E+00
         21   -1    0    0  501  502  0.00000000000E+00  0.00000000000E+00  0.14892058277E+03  0.14892058277E+03  0.00000000000E+00 0.  1.
         21   -1    0    0  502  503 -0.00000000000E+00 -0.00000000000E+00 -0.25118477849E+03  0.25118477849E+03  0.00000000000E+00 0. -1.
          6    1    1    2  501    0  0.11133604979E+02 -0.68555351418E+02  0.21527399037E+01  0.18643344029E+03  0.17300000000E+03 0. -1.
         -6    1    1    2    0  503 -0.11133604979E+02  0.68555351418E+02 -0.10441693562E+03  0.21367192097E+03  0.17300000000E+03 0.  1.
<mgrwt>
<rscale>  2 0.18642101E+03</rscale>
<asrwt>0</asrwt>
<pdfrwt beam="1">  1       21 0.22910859E-01 0.18642101E+03</pdfrwt>
<pdfrwt beam="2">  1       21 0.38643812E-01 0.18642101E+03</pdfrwt>
<totfact> 0.11570483E+05</totfact>
</mgrwt>
</event>
<event>
 4    1  0.3974123E+000  0.1862416E+03  0.7546771E-02  0.1161895E+00
         21   -1    0    0  503  502  0.00000000000E+00  0.00000000000E+00  0.52310960787E+03  0.52310960787E+03  0.00000000000E+00 0.  1.
         21   -1    0    0  501  503 -0.00000000000E+00 -0.00000000000E+00 -0.12196560722E+03  0.12196560722E+03  0.00000000000E+00 0.  1.
          6    1    1    2  501    0 -0.58108268942E+02 -0.37153435473E+02 -0.17312803547E+02  0.18704459857E+03  0.17300000000E+03 0.  1.
         -6    1    1    2    0  502  0.58108268942E+02  0.37153435473E+02  0.41845680420E+03  0.45803061652E+03  0.17300000000E+03 0.  1.
<mgrwt>
<rscale>  2 0.18624164E+03</rscale>
<asrwt>0</asrwt>
<pdfrwt beam="1">  1       21 0.80478400E-01 0.18624164E+03</pdfrwt>
<pdfrwt beam="2">  1       21 0.18763940E-01 0.18624164E+03</pdfrwt>
<totfact> 0.35392932E+04</totfact>
</mgrwt>
</event>
<event>
 4    1  0.3974123E+000  0.2110652E+03  0.7546771E-02  0.1140725E+00
         21   -1    0    0  503  502  0.00000000000E+00  0.00000000000E+00  0.15753593571E+04  0.15753593571E+04  0.00000000000E+00 0.  1.
         21   -1    0    0  501  503 -0.00000000000E+00 -0.00000000000E+00 -0.28398800073E+02  0.28398800073E+02  0.00000000000E+00 0. -1.
          6    1    1    2  501    0  0.22557611111E+02 -0.11878838252E+03  0.72125202713E+03  0.75150050718E+03  0.17300000000E+03 0. -1.
         -6    1    1    2    0  502 -0.22557611111E+02  0.11878838252E+03  0.82570852991E+03  0.85225765001E+03  0.17300000000E+03 0. -1.
<mgrwt>
<rscale>  2 0.21106522E+03</rscale>
<asrwt>0</asrwt>
<pdfrwt beam="1">  1       21 0.24236291E+00 0.21106522E+03</pdfrwt>
<pdfrwt beam="2">  1       21 0.43690474E-02 0.21106522E+03</pdfrwt>
<totfact> 0.24552755E+04</totfact>
</mgrwt>
</event>
<event>
 4    1  0.3974123E+000  0.1860398E+03  0.7546771E-02  0.1162082E+00
         21   -1    0    0  501  502  0.00000000000E+00  0.00000000000E+00  0.11861662122E+04  0.11861662122E+04  0.00000000000E+00 0. -1.
         21   -1    0    0  502  503 -0.00000000000E+00 -0.00000000000E+00 -0.80512796319E+02  0.80512796319E+02  0.00000000000E+00 0. -1.
          6    1    1    2  501    0 -0.17098490467E+02 -0.66252878236E+02  0.10585431018E+04  0.10747670914E+04  0.17300000000E+03 0. -1.
         -6    1    1    2    0  503  0.17098490467E+02  0.66252878236E+02  0.47110314035E+02  0.19191191714E+03  0.17300000000E+03 0. -1.
<mgrwt>
<rscale>  2 0.18603979E+03</rscale>
<asrwt>0</asrwt>
<pdfrwt beam="1">  1       21 0.18248710E+00 0.18603979E+03</pdfrwt>
<pdfrwt beam="2">  1       21 0.12386585E-01 0.18603979E+03</pdfrwt>
<totfact> 0.97569357E+03</totfact>
</mgrwt>
</event>
<event>
 4    1  0.3974123E+000  0.1777635E+03  0.7546771E-02  0.1169985E+00
         21   -1    0    0  501  502  0.00000000000E+00  0.00000000000E+00  0.27385751288E+03  0.27385751288E+03  0.00000000000E+00 0.  1.
         21   -1    0    0  502  503 -0.00000000000E+00 -0.00000000000E+00 -0.15937831633E+03  0.15937831633E+03  0.00000000000E+00 0.  1.
          6    1    1    2  501    0  0.29296281700E+02 -0.28505821575E+02  0.17104387864E+03  0.24668981010E+03  0.17300000000E+03 0.  1.
         -6    1    1    2    0  503 -0.29296281700E+02  0.28505821575E+02 -0.56564682102E+02  0.18654601911E+03  0.17300000000E+03 0.  1.
<mgrwt>
<rscale>  2 0.17776348E+03</rscale>
<asrwt>0</asrwt>
<pdfrwt beam="1">  1       21 0.42131925E-01 0.17776348E+03</pdfrwt>
<pdfrwt beam="2">  1       21 0.24519741E-01 0.17776348E+03</pdfrwt>
<totfact> 0.85721058E+04</totfact>
</mgrwt>
</event>
<event>
 4    1  0.3974123E+000  0.1864608E+03  0.7546771E-02  0.1161693E+00
         21   -1    0    0  501  502  0.00000000000E+00  0.00000000000E+00  0.97900273834E+03  0.97900273834E+03  0.00000000000E+00 0.  1.
         21   -1    0    0  502  503 -0.00000000000E+00 -0.00000000000E+00 -0.35954667704E+02  0.35954667704E+02  0.00000000000E+00 0.  1.
          6    1    1    2  501    0  0.45431131529E+02 -0.52674936091E+02  0.52774924471E+03  0.55972037831E+03  0.17300000000E+03 0.  1.
         -6    1    1    2    0  503 -0.45431131529E+02  0.52674936091E+02  0.41529882592E+03  0.45523702773E+03  0.17300000000E+03 0.  1.
<mgrwt>
<rscale>  2 0.18646082E+03</rscale>
<asrwt>0</asrwt>
<pdfrwt beam="1">  1       21 0.15061579E+00 0.18646082E+03</pdfrwt>
<pdfrwt beam="2">  1       21 0.55314881E-02 0.18646082E+03</pdfrwt>
<totfact> 0.67206451E+04</totfact>
</mgrwt>
</event>
<event>
 4    1  0.3974123E+000  0.3342829E+03  0.7546771E-02  0.1069257E+00
         21   -1    0    0  503  502  0.00000000000E+00  0.00000000000E+00  0.66678267191E+03  0.66678267191E+03  0.00000000000E+00 0. -1.
         21   -1    0    0  501  503 -0.00000000000E+00 -0.00000000000E+00 -0.17702919545E+03  0.17702919545E+03  0.00000000000E+00 0.  1.
          6    1    1    2  501    0 -0.22647702190E+03 -0.17471181051E+03  0.14744579848E+03  0.36535643099E+03  0.17300000000E+03 0. -1.
         -6    1    1    2    0  502  0.22647702190E+03  0.17471181051E+03  0.34230767798E+03  0.47845543636E+03  0.17300000000E+03 0. -1.
<mgrwt>
<rscale>  2 0.33428290E+03</rscale>
<asrwt>0</asrwt>
<pdfrwt beam="1">  1       21 0.10258195E+00 0.33428290E+03</pdfrwt>
<pdfrwt beam="2">  1       21 0.27235261E-01 0.33428290E+03</pdfrwt>
<totfact> 0.91846540E+03</totfact>
</mgrwt>
</event>
<event>
 4    1  0.3974123E+000  0.2496406E+03  0.7546771E-02  0.1113532E+00
         21   -1    0    0  501  502  0.00000000000E+00  0.00000000000E+00  0.44483127608E+03  0.44483127608E+03  0.00000000000E+00 0.  1.
         21   -1    0    0  502  503 -0.00000000000E+00 -0.00000000000E+00 -0.14477285532E+03  0.14477285532E+03  0.00000000000E+00 0.  1.
          6    1    1    2  501    0 -0.31168865898E+02  0.17725672349E+03  0.20299820572E+03  0.32175878504E+03  0.17300000000E+03 0.  1.
         -6    1    1    2    0  503  0.31168865898E+02 -0.17725672349E+03  0.97060215040E+02  0.26784534636E+03  0.17300000000E+03 0.  1.
<mgrwt>
<rscale>  2 0.24964063E+03</rscale>
<asrwt>0</asrwt>
<pdfrwt beam="1">  1       21 0.68435581E-01 0.24964063E+03</pdfrwt>
<pdfrwt beam="2">  1       21 0.22272747E-01 0.24964063E+03</pdfrwt>
<totfact> 0.35723254E+04</totfact>
</mgrwt>
</event>
<event>
 4    1  0.3974123E+000  0.1756562E+03  0.7546771E-02  0.1172074E+00
         21   -1    0    0  503  502  0.00000000000E+00  0.00000000000E+00  0.63741197176E+02  0.63741197176E+02  0.00000000000E+00 0. -1.
         21   -1    0    0  501  503 -0.00000000000E+00 -0.00000000000E+00 -0.71833075688E+03  0.71833075688E+03  0.00000000000E+00 0. -1.
          6    1    1    2  501    0 -0.52121439464E+01 -0.29981942612E+02 -0.55060364891E+03  0.57794416817E+03  0.17300000000E+03 0. -1.
         -6    1    1    2    0  502  0.52121439464E+01  0.29981942612E+02 -0.10398591079E+03  0.20412778588E+03  0.17300000000E+03 0. -1.
<mgrwt>
<rscale>  2 0.17565615E+03</rscale>
<asrwt>0</asrwt>
<pdfrwt beam="1">  1       21 0.98063381E-02 0.17565615E+03</pdfrwt>
<pdfrwt beam="2">  1       21 0.11051242E+00 0.17565615E+03</pdfrwt>
<totfact> 0.54709555E+04</totfact>
</mgrwt>
</event>
<event>
 4    1  0.3974123E+000  0.2490446E+03  0.7546771E-02  0.1113910E+00
         21   -1    0    0  501  502  0.00000000000E+00  0.00000000000E+00  0.69138628974E+03  0.69138628974E+03  0.00000000000E+00 0. -1.
         21   -1    0    0  502  503 -0.00000000000E+00 -0.00000000000E+00 -0.11403905895E+03  0.11403905895E+03  0.00000000000E+00 0.  1.
          6    1    1    2  501    0 -0.17582040704E+03 -0.34371389335E+02  0.47468724822E+03  0.53605148219E+03  0.17300000000E+03 0. -1.
         -6    1    1    2    0  503  0.17582040704E+03  0.34371389335E+02  0.10265998258E+03  0.26937386651E+03  0.17300000000E+03 0.  1.
<mgrwt>
<rscale>  2 0.24904459E+03</rscale>
<asrwt>0</asrwt>
<pdfrwt beam="1">  1       21 0.10636712E+00 0.24904459E+03</pdfrwt>
<pdfrwt beam="2">  1       21 0.17544471E-01 0.24904459E+03</pdfrwt>
<totfact> 0.20190518E+04</totfact>
</mgrwt>
</event>
<event>
 4    1  0.3974123E+000  0.2103311E+03  0.7546771E-02  0.1141304E+00
         21   -1    0    0  501  502  0.00000000000E+00  0.00000000000E+00  0.42253677334E+03  0.42253677334E+03  0.00000000000E+00 0. -1.
         21   -1    0    0  502  503 -0.00000000000E+00 -0.00000000000E+00 -0.10658265545E+03  0.10658265545E+03  0.00000000000E+00 0.  1.
          6    1    1    2  501    0  0.32257426728E+02 -0.11519390834E+03  0.19314776214E+03  0.28556126509E+03  0.17300000000E+03 0.  1.
         -6    1    1    2    0  503 -0.32257426728E+02  0.11519390834E+03  0.12280635575E+03  0.24355816371E+03  0.17300000000E+03 0.  1.
<mgrwt>
<rscale>  2 0.21033112E+03</rscale>
<asrwt>0</asrwt>
<pdfrwt beam="1">  1       21 0.65005656E-01 0.21033112E+03</pdfrwt>
<pdfrwt beam="2">  1       21 0.16397332E-01 0.21033112E+03</pdfrwt>
<totfact> 0.72071648E+04</totfact>
</mgrwt>
</event>
<event>
 4    1  0.3974123E+000  0.1804936E+03  0.7546771E-02  0.1167326E+00
         21   -1    0    0  503  502  0.00000000000E+00  0.00000000000E+00  0.86919190231E+03  0.86919190231E+03  0.00000000000E+00 0. -1.
         21   -1    0    0  501  503 -0.00000000000E+00 -0.00000000000E+00 -0.39282763026E+02  0.39282763026E+02  0.00000000000E+00 0. -1.
          6    1    1    2  501    0  0.23421039015E+02  0.45830205873E+02  0.51224326425E+03  0.54311243275E+03  0.17300000000E+03 0. -1.
         -6    1    1    2    0  502 -0.23421039015E+02 -0.45830205873E+02  0.31766587503E+03  0.36536223258E+03  0.17300000000E+03 0. -1.
<mgrwt>
<rscale>  2 0.18049364E+03</rscale>
<asrwt>0</asrwt>
<pdfrwt beam="1">  1       21 0.13372182E+00 0.18049364E+03</pdfrwt>
<pdfrwt beam="2">  1       21 0.60435027E-02 0.18049364E+03</pdfrwt>
<totfact> 0.78838331E+04</totfact>
</mgrwt>
</event>
<event>
 4    1  0.3974123E+000  0.2310926E+03  0.7546771E-02  0.1125873E+00
         21   -1    0    0  501  502  0.00000000000E+00  0.00000000000E+00  0.71775431293E+03  0.71775431293E+03  0.00000000000E+00 0.  1.
         21   -1    0    0  502  503 -0.00000000000E+00 -0.00000000000E+00 -0.90803823780E+02  0.90803823780E+02  0.00000000000E+00 0.  1.
          6    1    1    2  501    0 -0.90353639676E+02  0.12373763048E+03  0.48528545593E+03  0.53749953966E+03  0.17300000000E+03 0.  1.
         -6    1    1    2    0  503  0.90353639676E+02 -0.12373763048E+03  0.14166503323E+03  0.27105859705E+03  0.17300000000E+03 0.  1.
<mgrwt>
<rscale>  2 0.23109258E+03</rscale>
<asrwt>0</asrwt>
<pdfrwt beam="1">  1       21 0.11042374E+00 0.23109258E+03</pdfrwt>
<pdfrwt beam="2">  1       21 0.13969820E-01 0.23109258E+03</pdfrwt>
<totfact> 0.28269768E+04</totfact>
</mgrwt>
</event>
<event>
 4    1  0.3974123E+000  0.2066137E+03  0.7546771E-02  0.1144276E+00
         21   -1    0    0  503  502  0.00000000000E+00  0.00000000000E+00  0.50277783337E+03  0.50277783337E+03  0.00000000000E+00 0. -1.
         21   -1    0    0  501  503 -0.00000000000E+00 -0.00000000000E+00 -0.10388845462E+03  0.10388845462E+03  0.00000000000E+00 0. -1.
          6    1    1    2  501    0 -0.10133732011E+03  0.49909594774E+02  0.69785263180E+02  0.21808072601E+03  0.17300000000E+03 0. -1.
         -6    1    1    2    0  502  0.10133732011E+03 -0.49909594774E+02  0.32910411557E+03  0.38858556199E+03  0.17300000000E+03 0. -1.
<mgrwt>
<rscale>  2 0.20661370E+03</rscale>
<asrwt>0</asrwt>
<pdfrwt beam="1">  1       21 0.77350435E-01 0.20661370E+03</pdfrwt>
<pdfrwt beam="2">  1       21 0.15982839E-01 0.20661370E+03</pdfrwt>
<totfact> 0.51482760E+04</totfact>
</mgrwt>
</event>
<event>
 4    1  0.3974123E+000  0.1806801E+03  0.7546771E-02  0.1167147E+00
         21   -1    0    0  501  502  0.00000000000E+00  0.00000000000E+00  0.34904471429E+03  0.34904471429E+03  0.00000000000E+00 0.  1.
         21   -1    0    0  502  503 -0.00000000000E+00 -0.00000000000E+00 -0.10136738612E+03  0.10136738612E+03  0.00000000000E+00 0.  1.
          6    1    1    2  501    0 -0.58462293050E+01  0.51789028388E+02  0.18646912691E+03  0.25964594576E+03  0.17300000000E+03 0.  1.
         -6    1    1    2    0  503  0.58462293050E+01 -0.51789028388E+02  0.61208201268E+02  0.19076615465E+03  0.17300000000E+03 0.  1.
<mgrwt>
<rscale>  2 0.18068005E+03</rscale>
<asrwt>0</asrwt>
<pdfrwt beam="1">  1       21 0.53699186E-01 0.18068005E+03</pdfrwt>
<pdfrwt beam="2">  1       21 0.15594983E-01 0.18068005E+03</pdfrwt>
<totfact> 0.12040083E+05</totfact>
</mgrwt>
</event>
<event>
 4    1  0.3974123E+000  0.1814948E+03  0.7546771E-02  0.1166364E+00
         21   -1    0    0  501  502  0.00000000000E+00  0.00000000000E+00  0.29866648648E+03  0.29866648648E+03  0.00000000000E+00 0.  1.
         21   -1    0    0  502  503 -0.00000000000E+00 -0.00000000000E+00 -0.39174888177E+03  0.39174888177E+03  0.00000000000E+00 0.  1.
          6    1    1    2  501    0  0.27675027767E+02 -0.47386379094E+02  0.24606457506E+03  0.30575832153E+03  0.17300000000E+03 0.  1.
         -6    1    1    2    0  503 -0.27675027767E+02  0.47386379094E+02 -0.33914697036E+03  0.38465704672E+03  0.17300000000E+03 0.  1.
<mgrwt>
<rscale>  2 0.18149484E+03</rscale>
<asrwt>0</asrwt>
<pdfrwt beam="1">  1       21 0.45948690E-01 0.18149484E+03</pdfrwt>
<pdfrwt beam="2">  1       21 0.60269059E-01 0.18149484E+03</pdfrwt>
<totfact> 0.11737905E+04</totfact>
</mgrwt>
</event>
<event>
 4    1  0.3974123E+000  0.3415187E+03  0.7546771E-02  0.1066151E+00
         21   -1    0    0  501  502  0.00000000000E+00  0.00000000000E+00  0.24299409792E+03  0.24299409792E+03  0.00000000000E+00 0.  1.
         21   -1    0    0  502  503 -0.00000000000E+00 -0.00000000000E+00 -0.48742804000E+03  0.48742804000E+03  0.00000000000E+00 0.  1.
          6    1    1    2  501    0  0.17439056048E+03 -0.23726346357E+03 -0.77105801296E+02  0.35011472880E+03  0.17300000000E+03 0.  1.
         -6    1    1    2    0  503 -0.17439056048E+03  0.23726346357E+03 -0.16732814078E+03  0.38030740911E+03  0.17300000000E+03 0.  1.
<mgrwt>
<rscale>  2 0.34151869E+03</rscale>
<asrwt>0</asrwt>
<pdfrwt beam="1">  1       21 0.37383707E-01 0.34151869E+03</pdfrwt>
<pdfrwt beam="2">  1       21 0.74988929E-01 0.34151869E+03</pdfrwt>
<totfact> 0.10153330E+04</totfact>
</mgrwt>
</event>
<event>
 4    1  0.3974123E+000  0.1741258E+03  0.7546771E-02  0.1173612E+00
         21   -1    0    0  503  502  0.00000000000E+00  0.00000000000E+00  0.24798348800E+03  0.24798348800E+03  0.00000000000E+00 0. -1.
         21   -1    0    0  501  503 -0.00000000000E+00 -0.00000000000E+00 -0.13979275362E+03  0.13979275362E+03  0.00000000000E+00 0. -1.
          6    1    1    2  501    0  0.13618353755E+02  0.14329190454E+02 -0.14558941776E+02  0.17473336271E+03  0.17300000000E+03 0. -1.
         -6    1    1    2    0  502 -0.13618353755E+02 -0.14329190454E+02  0.12274967616E+03  0.21304287891E+03  0.17300000000E+03 0. -1.
<mgrwt>
<rscale>  2 0.17412577E+03</rscale>
<asrwt>0</asrwt>
<pdfrwt beam="1">  1       21 0.38151306E-01 0.17412577E+03</pdfrwt>
<pdfrwt beam="2">  1       21 0.21506578E-01 0.17412577E+03</pdfrwt>
<totfact> 0.13431912E+05</totfact>
</mgrwt>
</event>
<event>
 4    1  0.3974123E+000  0.2188220E+03  0.7546771E-02  0.1134764E+00
         21   -1    0    0  501  502  0.00000000000E+00  0.00000000000E+00  0.86463057805E+03  0.86463057805E+03  0.00000000000E+00 0.  1.
         21   -1    0    0  502  503 -0.00000000000E+00 -0.00000000000E+00 -0.55528946859E+02  0.55528946859E+02  0.00000000000E+00 0.  1.
          6    1    1    2  501    0  0.39644912889E+02  0.12799354556E+03  0.42839504375E+03  0.48104613119E+03  0.17300000000E+03 0.  1.
         -6    1    1    2    0  503 -0.39644912889E+02 -0.12799354556E+03  0.38070658745E+03  0.43911339373E+03  0.17300000000E+03 0.  1.
<mgrwt>
<rscale>  2 0.21882200E+03</rscale>
<asrwt>0</asrwt>
<pdfrwt beam="1">  1       21 0.13302008E+00 0.21882200E+03</pdfrwt>
<pdfrwt beam="2">  1       21 0.85429155E-02 0.21882200E+03</pdfrwt>
<totfact> 0.43025962E+04</totfact>
</mgrwt>
</event>
<event>
 4    1  0.3974123E+000  0.2157039E+03  0.7546771E-02  0.1137127E+00
         21   -1    0    0  501  502  0.00000000000E+00  0.00000000000E+00  0.19570562965E+03  0.19570562965E+03  0.00000000000E+00 0. -1.
         21   -1    0    0  502  503 -0.00000000000E+00 -0.00000000000E+00 -0.27704791324E+03  0.27704791324E+03  0.00000000000E+00 0. -1.
          6    1    1    2  501    0 -0.12810935827E+03  0.13681259133E+02  0.48358679697E+02  0.22105824217E+03  0.17300000000E+03 0.  1.
         -6    1    1    2    0  503  0.12810935827E+03 -0.13681259133E+02 -0.12970096329E+03  0.25169530072E+03  0.17300000000E+03 0.  1.
<mgrwt>
<rscale>  2 0.21570393E+03</rscale>
<asrwt>0</asrwt>
<pdfrwt beam="1">  1       21 0.30108558E-01 0.21570393E+03</pdfrwt>
<pdfrwt beam="2">  1       21 0.42622756E-01 0.21570393E+03</pdfrwt>
<totfact> 0.55432434E+04</totfact>
</mgrwt>
</event>
<event>
 4    1  0.3974123E+000  0.3313653E+03  0.7546771E-02  0.1070534E+00
         21   -1    0    0  503  502  0.00000000000E+00  0.00000000000E+00  0.37546238643E+03  0.37546238643E+03  0.00000000000E+00 0. -1.
         21   -1    0    0  501  503 -0.00000000000E+00 -0.00000000000E+00 -0.47462826783E+03  0.47462826783E+03  0.00000000000E+00 0.  1.
          6    1    1    2  501    0  0.28254885882E+03  0.63315057378E+01  0.21375291577E+03  0.39432633007E+03  0.17300000000E+03 0. -1.
         -6    1    1    2    0  502 -0.28254885882E+03 -0.63315057378E+01 -0.31291879718E+03  0.45576432420E+03  0.17300000000E+03 0.  1.
<mgrwt>
<rscale>  2 0.33136528E+03</rscale>
<asrwt>0</asrwt>
<pdfrwt beam="1">  1       21 0.57763444E-01 0.33136528E+03</pdfrwt>
<pdfrwt beam="2">  1       21 0.73019734E-01 0.33136528E+03</pdfrwt>
<totfact> 0.43577512E+03</totfact>
</mgrwt>
</event>
<event>
 4    1  0.3974123E+000  0.1738459E+03  0.7546771E-02  0.1173896E+00
         21   -1    0    0  501  502  0.00000000000E+00  0.00000000000E+00  0.71980473880E+03  0.71980473880E+03  0.00000000000E+00 0.  1.
         21   -1    0    0  502  503 -0.00000000000E+00 -0.00000000000E+00 -0.58298259305E+02  0.58298259305E+02  0.00000000000E+00 0.  1.
          6    1    1    2  501    0 -0.12411233341E+02 -0.11804514717E+02  0.53654315400E+03  0.56400438064E+03  0.17300000000E+03 0.  1.
         -6    1    1    2    0  503  0.12411233341E+02  0.11804514717E+02  0.12496332550E+03  0.21409861747E+03  0.17300000000E+03 0.  1.
<mgrwt>
<rscale>  2 0.17384587E+03</rscale>
<asrwt>0</asrwt>
<pdfrwt beam="1">  1       21 0.11073918E+00 0.17384587E+03</pdfrwt>
<pdfrwt beam="2">  1       21 0.89689635E-02 0.17384587E+03</pdfrwt>
<totfact> 0.63731099E+04</totfact>
</mgrwt>
</event>
<event>
 4    1  0.3974123E+000  0.2013662E+03  0.7546771E-02  0.1148591E+00
         21   -1    0    0  501  502  0.00000000000E+00  0.00000000000E+00  0.17745340301E+04  0.17745340301E+04  0.00000000000E+00 0.  1.
         21   -1    0    0  502  503 -0.00000000000E+00 -0.00000000000E+00 -0.39762417874E+02  0.39762417874E+02  0.00000000000E+00 0.  1.
          6    1    1    2  501    0 -0.10284451667E+03 -0.65076213338E+01  0.14590059702E+04  0.14728362994E+04  0.17300000000E+03 0.  1.
         -6    1    1    2    0  503  0.10284451667E+03  0.65076213338E+01  0.27576564203E+03  0.34146014858E+03  0.17300000000E+03 0.  1.
<mgrwt>
<rscale>  2 0.20136619E+03</rscale>
<asrwt>0</asrwt>
<pdfrwt beam="1">  1       21 0.27300517E+00 0.20136619E+03</pdfrwt>
<pdfrwt beam="2">  1       21 0.61172964E-02 0.20136619E+03</pdfrwt>
<totfact> 0.92345575E+03</totfact>
</mgrwt>
</event>
<event>
 4    1  0.3974123E+000  0.2011293E+03  0.7546771E-02  0.1148790E+00
         21   -1    0    0  501  502  0.00000000000E+00  0.00000000000E+00  0.11962375781E+03  0.11962375781E+03  0.00000000000E+00 0. -1.
         21   -1    0    0  502  503 -0.00000000000E+00 -0.00000000000E+00 -0.46867249935E+03  0.46867249935E+03  0.00000000000E+00 0. -1.
          6    1    1    2  501    0 -0.10257511252E+03  0.15238947901E+01 -0.19305894880E+02  0.20205368975E+03  0.17300000000E+03 0. -1.
         -6    1    1    2    0  503  0.10257511252E+03 -0.15238947901E+01 -0.32974284665E+03  0.38624256741E+03  0.17300000000E+03 0. -1.
<mgrwt>
<rscale>  2 0.20112925E+03</rscale>
<asrwt>0</asrwt>
<pdfrwt beam="1">  1       21 0.18403655E-01 0.20112925E+03</pdfrwt>
<pdfrwt beam="2">  1       21 0.72103462E-01 0.20112925E+03</pdfrwt>
<totfact> 0.46566697E+04</totfact>
</mgrwt>
</event>
<event>
 4    1  0.3974123E+000  0.1846577E+03  0.7546771E-02  0.1163370E+00
         21   -1    0    0  501  502  0.00000000000E+00  0.00000000000E+00  0.82321781440E+03  0.82321781440E+03  0.00000000000E+00 0.  1.
         21   -1    0    0  502  503 -0.00000000000E+00 -0.00000000000E+00 -0.71921441045E+02  0.71921441045E+02  0.00000000000E+00 0.  1.
          6    1    1    2  501    0  0.64503704156E+02 -0.29529789855E+01  0.66711222050E+03  0.69219734374E+03  0.17300000000E+03 0.  1.
         -6    1    1    2    0  503 -0.64503704156E+02  0.29529789855E+01  0.84184152849E+02  0.20294191170E+03  0.17300000000E+03 0.  1.
<mgrwt>
<rscale>  2 0.18465765E+03</rscale>
<asrwt>0</asrwt>
<pdfrwt beam="1">  1       21 0.12664889E+00 0.18465765E+03</pdfrwt>
<pdfrwt beam="2">  1       21 0.11064838E-01 0.18465765E+03</pdfrwt>
<totfact> 0.31453155E+04</totfact>
</mgrwt>
</event>
<event>
 4    1  0.3974123E+000  0.1882706E+03  0.7546771E-02  0.1160030E+00
         21   -1    0    0  501  502  0.00000000000E+00  0.00000000000E+00  0.33625946618E+02  0.33625946618E+02  0.00000000000E+00 0. -1.
         21   -1    0    0  502  503 -0.00000000000E+00 -0.00000000000E+00 -0.10936609188E+04  0.10936609188E+04  0.00000000000E+00 0. -1.
          6    1    1    2  501    0  0.65289203507E+02 -0.35413846695E+02 -0.63718923354E+03  0.66442150776E+03  0.17300000000E+03 0. -1.
         -6    1    1    2    0  503 -0.65289203507E+02  0.35413846695E+02 -0.42284573863E+03  0.46286535765E+03  0.17300000000E+03 0. -1.
<mgrwt>
<rscale>  2 0.18827060E+03</rscale>
<asrwt>0</asrwt>
<pdfrwt beam="1">  1       21 0.51732225E-02 0.18827060E+03</pdfrwt>
<pdfrwt beam="2">  1       21 0.16825553E+00 0.18827060E+03</pdfrwt>
<totfact> 0.55871598E+04</totfact>
</mgrwt>
</event>
<event>
 4    1  0.3974123E+000  0.1799391E+03  0.7546771E-02  0.1167862E+00
         21   -1    0    0  503  502  0.00000000000E+00  0.00000000000E+00  0.40294764865E+03  0.40294764865E+03  0.00000000000E+00 0.  1.
         21   -1    0    0  501  503 -0.00000000000E+00 -0.00000000000E+00 -0.12361550628E+03  0.12361550628E+03  0.00000000000E+00 0. -1.
          6    1    1    2  501    0 -0.18534416783E+02  0.45886280108E+02 -0.16088050427E+02  0.18065685892E+03  0.17300000000E+03 0. -1.
         -6    1    1    2    0  502  0.18534416783E+02 -0.45886280108E+02  0.29542019280E+03  0.34590629601E+03  0.17300000000E+03 0.  1.
<mgrwt>
<rscale>  2 0.17993909E+03</rscale>
<asrwt>0</asrwt>
<pdfrwt beam="1">  1       21 0.61991945E-01 0.17993909E+03</pdfrwt>
<pdfrwt beam="2">  1       21 0.19017770E-01 0.17993909E+03</pdfrwt>
<totfact> 0.61586030E+04</totfact>
</mgrwt>
</event>
<event>
 4    1  0.3974123E+000  0.2307371E+03  0.7546771E-02  0.1126122E+00
         21   -1    0    0  501  502  0.00000000000E+00  0.00000000000E+00  0.77694372666E+03  0.77694372666E+03  0.00000000000E+00 0.  1.
         21   -1    0    0  502  503 -0.00000000000E+00 -0.00000000000E+00 -0.69798503930E+02  0.69798503930E+02  0.00000000000E+00 0.  1.
          6    1    1    2  501    0 -0.12674348869E+03  0.85127597865E+02  0.41077271764E+03  0.47114100373E+03  0.17300000000E+03 0.  1.
         -6    1    1    2    0  503  0.12674348869E+03 -0.85127597865E+02  0.29637250509E+03  0.37560122686E+03  0.17300000000E+03 0.  1.
<mgrwt>
<rscale>  2 0.23073712E+03</rscale>
<asrwt>0</asrwt>
<pdfrwt beam="1">  1       21 0.11952980E+00 0.23073712E+03</pdfrwt>
<pdfrwt beam="2">  1       21 0.10738232E-01 0.23073712E+03</pdfrwt>
<totfact> 0.37372811E+04</totfact>
</mgrwt>
</event>
<event>
 4    1  0.3974123E+000  0.2201878E+03  0.7546771E-02  0.1133743E+00
         21   -1    0    0  503  502  0.00000000000E+00  0.00000000000E+00  0.23240240694E+03  0.23240240694E+03  0.00000000000E+00 0.  1.
         21   -1    0    0  501  503 -0.00000000000E+00 -0.00000000000E+00 -0.24389942003E+03  0.24389942003E+03  0.00000000000E+00 0.  1.
          6    1    1    2  501    0 -0.10928853357E+03  0.81300064386E+02 -0.96329458152E+02  0.24033736403E+03  0.17300000000E+03 0.  1.
         -6    1    1    2    0  502  0.10928853357E+03 -0.81300064386E+02  0.84832445061E+02  0.23596446295E+03  0.17300000000E+03 0.  1.
<mgrwt>
<rscale>  2 0.22018784E+03</rscale>
<asrwt>0</asrwt>
<pdfrwt beam="1">  1       21 0.35754216E-01 0.22018784E+03</pdfrwt>
<pdfrwt beam="2">  1       21 0.37522988E-01 0.22018784E+03</pdfrwt>
<totfact> 0.51002543E+04</totfact>
</mgrwt>
</event>
<event>
 4    1  0.3974123E+000  0.1738299E+03  0.7546771E-02  0.1173912E+00
         21   -1    0    0  503  502  0.00000000000E+00  0.00000000000E+00  0.92840297228E+03  0.92840297228E+03  0.00000000000E+00 0.  1.
         21   -1    0    0  501  503 -0.00000000000E+00 -0.00000000000E+00 -0.57364219019E+02  0.57364219019E+02  0.00000000000E+00 0.  1.
          6    1    1    2  501    0 -0.12598029477E+02  0.11363891502E+02  0.11132962853E+03  0.20642464622E+03  0.17300000000E+03 0.  1.
         -6    1    1    2    0  502  0.12598029477E+02 -0.11363891502E+02  0.75970912473E+03  0.77934254509E+03  0.17300000000E+03 0.  1.
<mgrwt>
<rscale>  2 0.17382994E+03</rscale>
<asrwt>0</asrwt>
<pdfrwt beam="1">  1       21 0.14283122E+00 0.17382994E+03</pdfrwt>
<pdfrwt beam="2">  1       21 0.88252652E-02 0.17382994E+03</pdfrwt>
<totfact> 0.34739850E+04</totfact>
</mgrwt>
</event>
<event>
 4    1  0.3974123E+000  0.1906115E+03  0.7546771E-02  0.1157911E+00
         21   -1    0    0  503  502  0.00000000000E+00  0.00000000000E+00  0.11261372395E+03  0.11261372395E+03  0.00000000000E+00 0.  1.
         21   -1    0    0  501  503 -0.00000000000E+00 -0.00000000000E+00 -0.42459345173E+03  0.42459345173E+03  0.00000000000E+00 0.  1.
          6    1    1    2  501    0  0.51155074276E+02  0.61537878116E+02 -0.28761653701E+03  0.34504496001E+03  0.17300000000E+03 0.  1.
         -6    1    1    2    0  502 -0.51155074276E+02 -0.61537878116E+02 -0.24363190765E+02  0.19216221567E+03  0.17300000000E+03 0.  1.
<mgrwt>
<rscale>  2 0.19061152E+03</rscale>
<asrwt>0</asrwt>
<pdfrwt beam="1">  1       21 0.17325188E-01 0.19061152E+03</pdfrwt>
<pdfrwt beam="2">  1       21 0.65322070E-01 0.19061152E+03</pdfrwt>
<totfact> 0.65019897E+04</totfact>
</mgrwt>
</event>
<event>
 4    1  0.3974123E+000  0.1788346E+03  0.7546771E-02  0.1168936E+00
         21   -1    0    0  501  502  0.00000000000E+00  0.00000000000E+00  0.50954300571E+02  0.50954300571E+02  0.00000000000E+00 0. -1.
         21   -1    0    0  502  503 -0.00000000000E+00 -0.00000000000E+00 -0.65688164302E+03  0.65688164302E+03  0.00000000000E+00 0. -1.
          6    1    1    2  501    0 -0.59888251611E+01 -0.44910251558E+02 -0.22831234006E+03  0.29001434679E+03  0.17300000000E+03 0. -1.
         -6    1    1    2    0  503  0.59888251611E+01  0.44910251558E+02 -0.37761500239E+03  0.41782159680E+03  0.17300000000E+03 0. -1.
<mgrwt>
<rscale>  2 0.17883455E+03</rscale>
<asrwt>0</asrwt>
<pdfrwt beam="1">  1       21 0.78391237E-02 0.17883455E+03</pdfrwt>
<pdfrwt beam="2">  1       21 0.10105871E+00 0.17883455E+03</pdfrwt>
<totfact> 0.10010484E+05</totfact>
</mgrwt>
</event>
<event>
 4    1  0.3974123E+000  0.3577196E+03  0.7546771E-02  0.1059490E+00
         21   -1    0    0  503  502  0.00000000000E+00  0.00000000000E+00  0.41764450231E+03  0.41764450231E+03  0.00000000000E+00 0. -1.
         21   -1    0    0  501  503 -0.00000000000E+00 -0.00000000000E+00 -0.36639133089E+03  0.36639133089E+03  0.00000000000E+00 0.  1.
          6    1    1    2  501    0  0.26094564633E+03 -0.17303673324E+03 -0.13300986988E+03  0.38164769995E+03  0.17300000000E+03 0.  1.
         -6    1    1    2    0  502 -0.26094564633E+03  0.17303673324E+03  0.18426304130E+03  0.40238813325E+03  0.17300000000E+03 0.  1.
<mgrwt>
<rscale>  2 0.35771964E+03</rscale>
<asrwt>0</asrwt>
<pdfrwt beam="1">  1       21 0.64253001E-01 0.35771964E+03</pdfrwt>
<pdfrwt beam="2">  1       21 0.56367897E-01 0.35771964E+03</pdfrwt>
<totfact> 0.60401219E+03</totfact>
</mgrwt>
</event>
<event>
 4    1  0.3974123E+000  0.2550345E+03  0.7546771E-02  0.1110164E+00
         21   -1    0    0  503  502  0.00000000000E+00  0.00000000000E+00  0.21464428472E+03  0.21464428472E+03  0.00000000000E+00 0. -1.
         21   -1    0    0  501  503 -0.00000000000E+00 -0.00000000000E+00 -0.40876799686E+03  0.40876799686E+03  0.00000000000E+00 0. -1.
          6    1    1    2  501    0 -0.18510091240E+03 -0.29176449618E+02 -0.25559951777E+03  0.36107302096E+03  0.17300000000E+03 0. -1.
         -6    1    1    2    0  502  0.18510091240E+03  0.29176449618E+02  0.61475805635E+02  0.26233926062E+03  0.17300000000E+03 0. -1.
<mgrwt>
<rscale>  2 0.25503453E+03</rscale>
<asrwt>0</asrwt>
<pdfrwt beam="1">  1       21 0.33022198E-01 0.25503453E+03</pdfrwt>
<pdfrwt beam="2">  1       21 0.62887384E-01 0.25503453E+03</pdfrwt>
<totfact> 0.19986923E+04</totfact>
</mgrwt>
</event>
<event>
 4    1  0.3974123E+000  0.2111842E+03  0.7546771E-02  0.1140632E+00
         21   -1    0    0  501  502  0.00000000000E+00  0.00000000000E+00  0.85543812981E+03  0.85543812981E+03  0.00000000000E+00 0.  1.
         21   -1    0    0  502  503 -0.00000000000E+00 -0.00000000000E+00 -0.10943648898E+03  0.10943648898E+03  0.00000000000E+00 0.  1.
          6    1    1    2  501    0 -0.11906078034E+03 -0.22232689739E+02  0.72209336334E+03  0.75234140341E+03  0.17300000000E+03 0.  1.
         -6    1    1    2    0  503  0.11906078034E+03  0.22232689739E+02  0.23908277494E+02  0.21253321538E+03  0.17300000000E+03 0.  1.
<mgrwt>
<rscale>  2 0.21118419E+03</rscale>
<asrwt>0</asrwt>
<pdfrwt beam="1">  1       21 0.13160586E+00 0.21118419E+03</pdfrwt>
<pdfrwt beam="2">  1       21 0.16836383E-01 0.21118419E+03</pdfrwt>
<totfact> 0.13138581E+04</totfact>
</mgrwt>
</event>
<event>
 4    1  0.3974123E+000  0.1840032E+03  0.7546771E-02  0.1163984E+00
         21   -1    0    0  501  502  0.00000000000E+00  0.00000000000E+00  0.24536812689E+04  0.24536812689E+04  0.00000000000E+00 0. -1.
         21   -1    0    0  502  503 -0.00000000000E+00 -0.00000000000E+00 -0.21633187461E+02  0.21633187461E+02  0.00000000000E+00 0.  1.
          6    1    1    2  501    0  0.62524288150E+02 -0.43473505395E+01  0.19608421525E+04  0.19694565578E+04  0.17300000000E+03 0. -1.
         -6    1    1    2    0  503 -0.62524288150E+02  0.43473505395E+01  0.47120592899E+03  0.50585789860E+03  0.17300000000E+03 0.  1.
<mgrwt>
<rscale>  2 0.18400322E+03</rscale>
<asrwt>0</asrwt>
<pdfrwt beam="1">  1       21 0.37748921E+00 0.18400322E+03</pdfrwt>
<pdfrwt beam="2">  1       21 0.33281846E-02 0.18400322E+03</pdfrwt>
<totfact> 0.64538700E+03</totfact>
</mgrwt>
</event>
<event>
 4    1  0.3974123E+000  0.1824829E+03  0.7546771E-02  0.1165422E+00
         21   -1    0    0  501  502  0.00000000000E+00  0.00000000000E+00  0.71926396096E+03  0.71926396096E+03  0.00000000000E+00 0.  1.
         21   -1    0    0  502  503 -0.00000000000E+00 -0.00000000000E+00 -0.80376978626E+02  0.80376978626E+02  0.00000000000E+00 0.  1.
          6    1    1    2  501    0  0.56185467633E+02  0.14635504883E+02  0.57978697191E+03  0.60782640414E+03  0.17300000000E+03 0.  1.
         -6    1    1    2    0  503 -0.56185467633E+02 -0.14635504883E+02  0.59100010428E+02  0.19181453545E+03  0.17300000000E+03 0.  1.
<mgrwt>
<rscale>  2 0.18248289E+03</rscale>
<asrwt>0</asrwt>
<pdfrwt beam="1">  1       21 0.11065599E+00 0.18248289E+03</pdfrwt>
<pdfrwt beam="2">  1       21 0.12365689E-01 0.18248289E+03</pdfrwt>
<totfact> 0.36000971E+04</totfact>
</mgrwt>
</event>
<event>
 4    1  0.3974123E+000  0.1761560E+03  0.7546771E-02  0.1171576E+00
         21   -1    0    0  503  502  0.00000000000E+00  0.00000000000E+00  0.17530201092E+03  0.17530201092E+03  0.00000000000E+00 0.  1.
         21   -1    0    0  501  503 -0.00000000000E+00 -0.00000000000E+00 -0.20131162063E+03  0.20131162063E+03  0.00000000000E+00 0.  1.
          6    1    1    2  501    0  0.29551128191E+02  0.15122215125E+02 -0.78424939043E+02  0.19282484703E+03  0.17300000000E+03 0.  1.
         -6    1    1    2    0  502 -0.29551128191E+02 -0.15122215125E+02  0.52415329329E+02  0.18378878452E+03  0.17300000000E+03 0.  1.
<mgrwt>
<rscale>  2 0.17615604E+03</rscale>
<asrwt>0</asrwt>
<pdfrwt beam="1">  1       21 0.26969540E-01 0.17615604E+03</pdfrwt>
<pdfrwt beam="2">  1       21 0.30971019E-01 0.17615604E+03</pdfrwt>
<totfact> 0.13189337E+05</totfact>
</mgrwt>
</event>
<event>
 4    1  0.3974123E+000  0.2716294E+03  0.7546771E-02  0.1100351E+00
         21   -1    0    0  503  502  0.00000000000E+00  0.00000000000E+00  0.10025903849E+04  0.10025903849E+04  0.00000000000E+00 0.  1.
         21   -1    0    0  501  503 -0.00000000000E+00 -0.00000000000E+00 -0.82362407706E+02  0.82362407706E+02  0.00000000000E+00 0. -1.
          6    1    1    2  501    0  0.69586840578E+02  0.19751257925E+03  0.28309155714E+03  0.39233069860E+03  0.17300000000E+03 0. -1.
         -6    1    1    2    0  502 -0.69586840578E+02 -0.19751257925E+03  0.63713642005E+03  0.69262209400E+03  0.17300000000E+03 0.  1.
<mgrwt>
<rscale>  2 0.27162943E+03</rscale>
<asrwt>0</asrwt>
<pdfrwt beam="1">  1       21 0.15424467E+00 0.27162943E+03</pdfrwt>
<pdfrwt beam="2">  1       21 0.12671140E-01 0.27162943E+03</pdfrwt>
<totfact> 0.14067864E+04</totfact>
</mgrwt>
</event>
<event>
 4    1  0.3974123E+000  0.3114336E+03  0.7546771E-02  0.1079661E+00
         21   -1    0    0  503  502  0.00000000000E+00  0.00000000000E+00  0.34890166100E+03  0.34890166100E+03  0.00000000000E+00 0. -1.
         21   -1    0    0  501  503 -0.00000000000E+00 -0.00000000000E+00 -0.37611976508E+03  0.37611976508E+03  0.00000000000E+00 0. -1.
          6    1    1    2  501    0  0.25883657861E+03  0.80943107544E+01 -0.19877448957E+03  0.36946202782E+03  0.17300000000E+03 0. -1.
         -6    1    1    2    0  502 -0.25883657861E+03 -0.80943107544E+01  0.17155638549E+03  0.35555939827E+03  0.17300000000E+03 0. -1.
<mgrwt>
<rscale>  2 0.31143361E+03</rscale>
<asrwt>0</asrwt>
<pdfrwt beam="1">  1       21 0.53677179E-01 0.31143361E+03</pdfrwt>
<pdfrwt beam="2">  1       21 0.57864579E-01 0.31143361E+03</pdfrwt>
<totfact> 0.85986163E+03</totfact>
</mgrwt>
</event>
<event>
 4    1  0.3974123E+000  0.2177738E+03  0.7546771E-02  0.1135554E+00
         21   -1    0    0  503  502  0.00000000000E+00  0.00000000000E+00  0.47208667214E+03  0.47208667214E+03  0.00000000000E+00 0.  1.
         21   -1    0    0  501  503 -0.00000000000E+00 -0.00000000000E+00 -0.10053769125E+03  0.10053769125E+03  0.00000000000E+00 0. -1.
          6    1    1    2  501    0 -0.93718858104E+02 -0.93344440637E+02  0.19377878233E+03  0.29150578972E+03  0.17300000000E+03 0. -1.
         -6    1    1    2    0  502  0.93718858104E+02  0.93344440637E+02  0.17777019857E+03  0.28111857367E+03  0.17300000000E+03 0.  1.
<mgrwt>
<rscale>  2 0.21777376E+03</rscale>
<asrwt>0</asrwt>
<pdfrwt beam="1">  1       21 0.72628718E-01 0.21777376E+03</pdfrwt>
<pdfrwt beam="2">  1       21 0.15467337E-01 0.21777376E+03</pdfrwt>
<totfact> 0.62624633E+04</totfact>
</mgrwt>
</event>
<event>
 4    1  0.3974123E+000  0.1762730E+03  0.7546771E-02  0.1171460E+00
         21   -1    0    0  501  502  0.00000000000E+00  0.00000000000E+00  0.28877238710E+02  0.28877238710E+02  0.00000000000E+00 0.  1.
         21   -1    0    0  502  503 -0.00000000000E+00 -0.00000000000E+00 -0.12370880622E+04  0.12370880622E+04  0.00000000000E+00 0.  1.
          6    1    1    2  501    0  0.16282048342E+01 -0.33771335921E+02 -0.37569719415E+03  0.41499462150E+03  0.17300000000E+03 0.  1.
         -6    1    1    2    0  503 -0.16282048342E+01  0.33771335921E+02 -0.83251362933E+03  0.85097067941E+03  0.17300000000E+03 0.  1.
<mgrwt>
<rscale>  2 0.17627295E+03</rscale>
<asrwt>0</asrwt>
<pdfrwt beam="1">  1       21 0.44426534E-02 0.17627295E+03</pdfrwt>
<pdfrwt beam="2">  1       21 0.19032118E+00 0.17627295E+03</pdfrwt>
<totfact> 0.51520147E+04</totfact>
</mgrwt>
</event>
<event>
 4    1  0.3974123E+000  0.2390287E+03  0.7546771E-02  0.1120442E+00
         21   -1    0    0  503  502  0.00000000000E+00  0.00000000000E+00  0.19330710935E+04  0.19330710935E+04  0.00000000000E+00 0. -1.
         21   -1    0    0  501  503 -0.00000000000E+00 -0.00000000000E+00 -0.46136025808E+02  0.46136025808E+02  0.00000000000E+00 0.  1.
          6    1    1    2  501    0 -0.69059521764E+02 -0.14978812915E+03  0.35023086564E+03  0.42402400926E+03  0.17300000000E+03 0.  1.
         -6    1    1    2    0  502  0.69059521764E+02  0.14978812915E+03  0.15367042020E+04  0.15551831100E+04  0.17300000000E+03 0. -1.
<mgrwt>
<rscale>  2 0.23902866E+03</rscale>
<asrwt>0</asrwt>
<pdfrwt beam="1">  1       21 0.29739549E+00 0.23902866E+03</pdfrwt>
<pdfrwt beam="2">  1       21 0.70978516E-02 0.23902866E+03</pdfrwt>
<totfact> 0.49709443E+03</totfact>
</mgrwt>
</event>
<event>
 4    1  0.3974123E+000  0.1755527E+03  0.7546771E-02  0.1172178E+00
         21   -1    0    0  501  502  0.00000000000E+00  0.00000000000E+00  0.13668881413E+04  0.13668881413E+04  0.00000000000E+00 0. -1.
         21   -1    0    0  502  503 -0.00000000000E+00 -0.00000000000E+00 -0.22900313099E+02  0.22900313099E+02  0.00000000000E+00 0. -1.
          6    1    1    2  501    0 -0.29518986532E+02 -0.42862588816E+01  0.75835051347E+03  0.77840493566E+03  0.17300000000E+03 0. -1.
         -6    1    1    2    0  503  0.29518986532E+02  0.42862588816E+01  0.58563731475E+03  0.61138351876E+03  0.17300000000E+03 0. -1.
<mgrwt>
<rscale>  2 0.17555268E+03</rscale>
<asrwt>0</asrwt>
<pdfrwt beam="1">  1       21 0.21029042E+00 0.17555268E+03</pdfrwt>
<pdfrwt beam="2">  1       21 0.35231262E-02 0.17555268E+03</pdfrwt>
<totfact> 0.56634842E+04</totfact>
</mgrwt>
</event>
<event>
 4    1  0.3974123E+000  0.2799023E+03  0.7546771E-02  0.1095742E+00
         21   -1    0    0  503  502  0.00000000000E+00  0.00000000000E+00  0.17365241295E+03  0.17365241295E+03  0.00000000000E+00 0.  1.
         21   -1    0    0  501  503 -0.00000000000E+00 -0.00000000000E+00 -0.58728194366E+03  0.58728194366E+03  0.00000000000E+00 0.  1.
          6    1    1    2  501    0 -0.93838425416E+02 -0.19902417105E+03 -0.38998532182E+03  0.48003522994E+03  0.17300000000E+03 0.  1.
         -6    1    1    2    0  502  0.93838425416E+02  0.19902417105E+03 -0.23644208890E+02  0.28089912666E+03  0.17300000000E+03 0.  1.
<mgrwt>
<rscale>  2 0.27990225E+03</rscale>
<asrwt>0</asrwt>
<pdfrwt beam="1">  1       21 0.26715756E-01 0.27990225E+03</pdfrwt>
<pdfrwt beam="2">  1       21 0.90351068E-01 0.27990225E+03</pdfrwt>
<totfact> 0.13217467E+04</totfact>
</mgrwt>
</event>
<event>
 4    1  0.3974123E+000  0.2288453E+03  0.7546771E-02  0.1127455E+00
         21   -1    0    0  503  502  0.00000000000E+00  0.00000000000E+00  0.29026764282E+03  0.29026764282E+03  0.00000000000E+00 0.  1.
         21   -1    0    0  501  503 -0.00000000000E+00 -0.00000000000E+00 -0.52145080438E+03  0.52145080438E+03  0.00000000000E+00 0.  1.
          6    1    1    2  501    0 -0.26882055977E+02 -0.14737203024E+03 -0.44381184888E+03  0.49933868009E+03  0.17300000000E+03 0.  1.
         -6    1    1    2    0  502  0.26882055977E+02  0.14737203024E+03  0.21262868731E+03  0.31237976711E+03  0.17300000000E+03 0.  1.
<mgrwt>
<rscale>  2 0.22884528E+03</rscale>
<asrwt>0</asrwt>
<pdfrwt beam="1">  1       21 0.44656561E-01 0.22884528E+03</pdfrwt>
<pdfrwt beam="2">  1       21 0.80223199E-01 0.22884528E+03</pdfrwt>
<totfact> 0.64118899E+03</totfact>
</mgrwt>
</event>
<event>
 4    1  0.3974123E+000  0.3263144E+03  0.7546771E-02  0.1072779E+00
         21   -1    0    0  503  502  0.00000000000E+00  0.00000000000E+00  0.15633823335E+03  0.15633823335E+03  0.00000000000E+00 0.  1.
         21   -1    0    0  501  503 -0.00000000000E+00 -0.00000000000E+00 -0.89708630704E+03  0.89708630704E+03  0.00000000000E+00 0. -1.
          6    1    1    2  501    0  0.27047302029E+03  0.58278884749E+02 -0.62882320538E+03  0.70844880318E+03  0.17300000000E+03 0. -1.
         -6    1    1    2    0  502 -0.27047302029E+03 -0.58278884749E+02 -0.11192486831E+03  0.34497573720E+03  0.17300000000E+03 0.  1.
<mgrwt>
<rscale>  2 0.32631439E+03</rscale>
<asrwt>0</asrwt>
<pdfrwt beam="1">  1       21 0.24052036E-01 0.32631439E+03</pdfrwt>
<pdfrwt beam="2">  1       21 0.13801328E+00 0.32631439E+03</pdfrwt>
<totfact> 0.55651667E+03</totfact>
</mgrwt>
</event>
<event>
 4    1  0.3974123E+000  0.2286545E+03  0.7546771E-02  0.1127590E+00
         21   -1    0    0  501  502  0.00000000000E+00  0.00000000000E+00  0.12456440869E+03  0.12456440869E+03  0.00000000000E+00 0.  1.
         21   -1    0    0  502  503 -0.00000000000E+00 -0.00000000000E+00 -0.53076580074E+03  0.53076580074E+03  0.00000000000E+00 0.  1.
          6    1    1    2  501    0  0.51062256736E+02  0.14052229004E+03 -0.53229250913E+02  0.23476844169E+03  0.17300000000E+03 0.  1.
         -6    1    1    2    0  503 -0.51062256736E+02 -0.14052229004E+03 -0.35297214114E+03  0.42056176774E+03  0.17300000000E+03 0.  1.
<mgrwt>
<rscale>  2 0.22865447E+03</rscale>
<asrwt>0</asrwt>
<pdfrwt beam="1">  1       21 0.19163755E-01 0.22865447E+03</pdfrwt>
<pdfrwt beam="2">  1       21 0.81656276E-01 0.22865447E+03</pdfrwt>
<totfact> 0.32203082E+04</totfact>
</mgrwt>
</event>
<event>
 4    1  0.3974123E+000  0.2049978E+03  0.7546771E-02  0.1145590E+00
         21   -1    0    0  501  502  0.00000000000E+00  0.00000000000E+00  0.12446302290E+03  0.12446302290E+03  0.00000000000E+00 0.  1.
         21   -1    0    0  502  503 -0.00000000000E+00 -0.00000000000E+00 -0.45624034553E+03  0.45624034553E+03  0.00000000000E+00 0.  1.
          6    1    1    2  501    0  0.77215581184E+02  0.78312595054E+02 -0.17853663877E+02  0.20577381232E+03  0.17300000000E+03 0.  1.
         -6    1    1    2    0  503 -0.77215581184E+02 -0.78312595054E+02 -0.31392365875E+03  0.37492955611E+03  0.17300000000E+03 0.  1.
<mgrwt>
<rscale>  2 0.20499783E+03</rscale>
<asrwt>0</asrwt>
<pdfrwt beam="1">  1       21 0.19148158E-01 0.20499783E+03</pdfrwt>
<pdfrwt beam="2">  1       21 0.70190822E-01 0.20499783E+03</pdfrwt>
<totfact> 0.45821992E+04</totfact>
</mgrwt>
</event>
<event>
 4    1  0.3974123E+000  0.2147763E+03  0.7546771E-02  0.1137839E+00
         21   -1    0    0  501  502  0.00000000000E+00  0.00000000000E+00  0.15315620932E+03  0.15315620932E+03  0.00000000000E+00 0.  1.
         21   -1    0    0  502  503 -0.00000000000E+00 -0.00000000000E+00 -0.36277014779E+03  0.36277014779E+03  0.00000000000E+00 0.  1.
          6    1    1    2  501    0 -0.10540792155E+03 -0.71337326123E+02  0.14772130899E+01  0.21478134505E+03  0.17300000000E+03 0.  1.
         -6    1    1    2    0  503  0.10540792155E+03  0.71337326123E+02 -0.21109115156E+03  0.30114501206E+03  0.17300000000E+03 0.  1.
<mgrwt>
<rscale>  2 0.21477627E+03</rscale>
<asrwt>0</asrwt>
<pdfrwt beam="1">  1       21 0.23562494E-01 0.21477627E+03</pdfrwt>
<pdfrwt beam="2">  1       21 0.55810792E-01 0.21477627E+03</pdfrwt>
<totfact> 0.50727911E+04</totfact>
</mgrwt>
</event>
<event>
 4    1  0.3974123E+000  0.1799933E+03  0.7546771E-02  0.1167809E+00
         21   -1    0    0  503  502  0.00000000000E+00  0.00000000000E+00  0.41859701665E+02  0.41859701665E+02  0.00000000000E+00 0. -1.
         21   -1    0    0  501  503 -0.00000000000E+00 -0.00000000000E+00 -0.95978769879E+03  0.95978769879E+03  0.00000000000E+00 0. -1.
          6    1    1    2  501    0 -0.23859967931E+02  0.43581020967E+02 -0.67933587568E+03  0.70277651884E+03  0.17300000000E+03 0. -1.
         -6    1    1    2    0  502  0.23859967931E+02 -0.43581020967E+02 -0.23859212145E+03  0.29887088162E+03  0.17300000000E+03 0. -1.
<mgrwt>
<rscale>  2 0.17999334E+03</rscale>
<asrwt>0</asrwt>
<pdfrwt beam="1">  1       21 0.64399541E-02 0.17999334E+03</pdfrwt>
<pdfrwt beam="2">  1       21 0.14765965E+00 0.17999334E+03</pdfrwt>
<totfact> 0.54779275E+04</totfact>
</mgrwt>
</event>
<event>
 4    1  0.3974123E+000  0.2412943E+03  0.7546771E-02  0.1118934E+00
         21   -1    0    0  501  502  0.00000000000E+00  0.00000000000E+00  0.45708429968E+03  0.45708429968E+03  0.00000000000E+00 0. -1.
         21   -1    0    0  502  503 -0.00000000000E+00 -0.00000000000E+00 -0.19928655882E+03  0.19928655882E+03  0.00000000000E+00 0. -1.
          6    1    1    2  501    0  0.15016644253E+03 -0.75789038255E+02  0.32603561415E+03  0.40561331398E+03  0.17300000000E+03 0. -1.
         -6    1    1    2    0  503 -0.15016644253E+03  0.75789038255E+02 -0.68237873298E+02  0.25075754452E+03  0.17300000000E+03 0. -1.
<mgrwt>
<rscale>  2 0.24129430E+03</rscale>
<asrwt>0</asrwt>
<pdfrwt beam="1">  1       21 0.70320661E-01 0.24129430E+03</pdfrwt>
<pdfrwt beam="2">  1       21 0.30659471E-01 0.24129430E+03</pdfrwt>
<totfact> 0.18222468E+04</totfact>
</mgrwt>
</event>
<event>
 4    1  0.3974123E+000  0.3228780E+03  0.7546771E-02  0.1074332E+00
         21   -1    0    0  503  502  0.00000000000E+00  0.00000000000E+00  0.43179287128E+03  0.43179287128E+03  0.00000000000E+00 0.  1.
         21   -1    0    0  501  503 -0.00000000000E+00 -0.00000000000E+00 -0.35910745422E+03  0.35910745422E+03  0.00000000000E+00 0. -1.
          6    1    1    2  501    0  0.73157787845E+02 -0.26261970935E+03 -0.19002570931E+03  0.37464642513E+03  0.17300000000E+03 0. -1.
         -6    1    1    2    0  502 -0.73157787845E+02  0.26261970935E+03  0.26271112638E+03  0.41625390038E+03  0.17300000000E+03 0.  1.
<mgrwt>
<rscale>  2 0.32287795E+03</rscale>
<asrwt>0</asrwt>
<pdfrwt beam="1">  1       21 0.66429673E-01 0.32287795E+03</pdfrwt>
<pdfrwt beam="2">  1       21 0.55247300E-01 0.32287795E+03</pdfrwt>
<totfact> 0.59475458E+03</totfact>
</mgrwt>
</event>
<event>
 4    1  0.3974123E+000  0.1835668E+03  0.7546771E-02  0.1164395E+00
         21   -1    0    0  503  502  0.00000000000E+00  0.00000000000E+00  0.43323740354E+03  0.43323740354E+03  0.00000000000E+00 0. -1.
         21   -1    0    0  501  503 -0.00000000000E+00 -0.00000000000E+00 -0.86589761916E+02  0.86589761916E+02  0.00000000000E+00 0. -1.
          6    1    1    2  501    0  0.61082589030E+02 -0.60576890640E+01  0.90414744011E+02  0.20462552190E+03  0.17300000000E+03 0. -1.
         -6    1    1    2    0  502 -0.61082589030E+02  0.60576890640E+01  0.25623289761E+03  0.31520164355E+03  0.17300000000E+03 0. -1.
<mgrwt>
<rscale>  2 0.18356682E+03</rscale>
<asrwt>0</asrwt>
<pdfrwt beam="1">  1       21 0.66651907E-01 0.18356682E+03</pdfrwt>
<pdfrwt beam="2">  1       21 0.13321502E-01 0.18356682E+03</pdfrwt>
<totfact> 0.10071678E+05</totfact>
</mgrwt>
</event>
<event>
 4    1  0.3974123E+000  0.1792718E+03  0.7546771E-02  0.1168510E+00
         21   -1    0    0  501  502  0.00000000000E+00  0.00000000000E+00  0.97815533412E+03  0.97815533412E+03  0.00000000000E+00 0. -1.
         21   -1    0    0  502  503 -0.00000000000E+00 -0.00000000000E+00 -0.33966116010E+02  0.33966116010E+02  0.00000000000E+00 0. -1.
          6    1    1    2  501    0 -0.14798182690E+02  0.44613702461E+02  0.56357846753E+03  0.59140430986E+03  0.17300000000E+03 0.  1.
         -6    1    1    2    0  503  0.14798182690E+02 -0.44613702461E+02  0.38061075058E+03  0.42071714026E+03  0.17300000000E+03 0.  1.
<mgrwt>
<rscale>  2 0.17927177E+03</rscale>
<asrwt>0</asrwt>
<pdfrwt beam="1">  1       21 0.15048541E+00 0.17927177E+03</pdfrwt>
<pdfrwt beam="2">  1       21 0.52255571E-02 0.17927177E+03</pdfrwt>
<totfact> 0.74479051E+04</totfact>
</mgrwt>
</event>
<event>
 4    1  0.3974123E+000  0.1883073E+03  0.7546771E-02  0.1159997E+00
         21   -1    0    0  501  502  0.00000000000E+00  0.00000000000E+00  0.24317070868E+03  0.24317070868E+03  0.00000000000E+00 0. -1.
         21   -1    0    0  502  503 -0.00000000000E+00 -0.00000000000E+00 -0.37381806166E+03  0.37381806166E+03  0.00000000000E+00 0. -1.
          6    1    1    2  501    0 -0.48773612657E+02  0.56140636005E+02  0.17560073501E+03  0.25747864851E+03  0.17300000000E+03 0. -1.
         -6    1    1    2    0  503  0.48773612657E+02 -0.56140636005E+02 -0.30624808799E+03  0.35951012183E+03  0.17300000000E+03 0. -1.
<mgrwt>
<rscale>  2 0.18830729E+03</rscale>
<asrwt>0</asrwt>
<pdfrwt beam="1">  1       21 0.37410879E-01 0.18830729E+03</pdfrwt>
<pdfrwt beam="2">  1       21 0.57510471E-01 0.18830729E+03</pdfrwt>
<totfact> 0.19601484E+04</totfact>
</mgrwt>
</event>
<event>
 4    1  0.3974123E+000  0.2229349E+03  0.7546771E-02  0.1131714E+00
         21   -1    0    0  503  502  0.00000000000E+00  0.00000000000E+00  0.14564475010E+03  0.14564475010E+03  0.00000000000E+00 0. -1.
         21   -1    0    0  501  503 -0.00000000000E+00 -0.00000000000E+00 -0.34226653980E+03  0.34226653980E+03  0.00000000000E+00 0.  1.
          6    1    1    2  501    0 -0.12261236784E+03 -0.68827099958E+02 -0.11166459488E+03  0.24933700926E+03  0.17300000000E+03 0. -1.
         -6    1    1    2    0  502  0.12261236784E+03  0.68827099958E+02 -0.84957194824E+02  0.23857428065E+03  0.17300000000E+03 0.  1.
<mgrwt>
<rscale>  2 0.22293488E+03</rscale>
<asrwt>0</asrwt>
<pdfrwt beam="1">  1       21 0.22406885E-01 0.22293488E+03</pdfrwt>
<pdfrwt beam="2">  1       21 0.52656390E-01 0.22293488E+03</pdfrwt>
<totfact> 0.62902129E+04</totfact>
</mgrwt>
</event>
<event>
 4    1  0.3974123E+000  0.2230747E+03  0.7546771E-02  0.1131611E+00
         21   -1    0    0  501  502  0.00000000000E+00  0.00000000000E+00  0.48009744134E+03  0.48009744134E+03  0.00000000000E+00 0.  1.
         21   -1    0    0  502  503 -0.00000000000E+00 -0.00000000000E+00 -0.25061900115E+03  0.25061900115E+03  0.00000000000E+00 0. -1.
          6    1    1    2  501    0 -0.12784340423E+03 -0.59071058327E+02  0.39452398499E+03  0.45322345556E+03  0.17300000000E+03 0.  1.
         -6    1    1    2    0  503  0.12784340423E+03  0.59071058327E+02 -0.16504554479E+03  0.27749298693E+03  0.17300000000E+03 0. -1.
<mgrwt>
<rscale>  2 0.22307471E+03</rscale>
<asrwt>0</asrwt>
<pdfrwt beam="1">  1       21 0.73861145E-01 0.22307471E+03</pdfrwt>
<pdfrwt beam="2">  1       21 0.38556769E-01 0.22307471E+03</pdfrwt>
<totfact> 0.10458760E+04</totfact>
</mgrwt>
</event>
<event>
 4    1  0.3974123E+000  0.3012094E+03  0.7546771E-02  0.1084638E+00
         21   -1    0    0  501  502  0.00000000000E+00  0.00000000000E+00  0.79032839394E+02  0.79032839394E+02  0.00000000000E+00 0. -1.
         21   -1    0    0  502  503 -0.00000000000E+00 -0.00000000000E+00 -0.16821723970E+04  0.16821723970E+04  0.00000000000E+00 0.  1.
          6    1    1    2  501    0 -0.24246363757E+03  0.44827506093E+02 -0.30532185115E+03  0.42889224012E+03  0.17300000000E+03 0. -1.
         -6    1    1    2    0  503  0.24246363757E+03 -0.44827506093E+02 -0.12978177064E+04  0.13323129963E+04  0.17300000000E+03 0.  1.
<mgrwt>
<rscale>  2 0.30120943E+03</rscale>
<asrwt>0</asrwt>
<pdfrwt beam="1">  1       21 0.12158898E-01 0.30120943E+03</pdfrwt>
<pdfrwt beam="2">  1       21 0.25879576E+00 0.30120943E+03</pdfrwt>
<totfact> 0.30737264E+03</totfact>
</mgrwt>
</event>
<event>
 4    1  0.3974123E+000  0.1840371E+03  0.7546771E-02  0.1163952E+00
         21   -1    0    0  503  502  0.00000000000E+00  0.00000000000E+00  0.45648225321E+02  0.45648225321E+02  0.00000000000E+00 0.  1.
         21   -1    0    0  501  503 -0.00000000000E+00 -0.00000000000E+00 -0.91605049972E+03  0.91605049972E+03  0.00000000000E+00 0.  1.
          6    1    1    2  501    0  0.11252505777E+02  0.61757791753E+02 -0.64481672707E+03  0.67056562336E+03  0.17300000000E+03 0.  1.
         -6    1    1    2    0  502 -0.11252505777E+02 -0.61757791753E+02 -0.22558554733E+03  0.29113310168E+03  0.17300000000E+03 0.  1.
<mgrwt>
<rscale>  2 0.18403707E+03</rscale>
<asrwt>0</asrwt>
<pdfrwt beam="1">  1       21 0.70228038E-02 0.18403707E+03</pdfrwt>
<pdfrwt beam="2">  1       21 0.14093085E+00 0.18403707E+03</pdfrwt>
<totfact> 0.53154742E+04</totfact>
</mgrwt>
</event>
<event>
 4    1  0.3974123E+000  0.1733296E+03  0.7546771E-02  0.1174419E+00
         21   -1    0    0  501  502  0.00000000000E+00  0.00000000000E+00  0.16489031272E+04  0.16489031272E+04  0.00000000000E+00 0. -1.
         21   -1    0    0  502  503 -0.00000000000E+00 -0.00000000000E+00 -0.25557275977E+02  0.25557275977E+02  0.00000000000E+00 0. -1.
          6    1    1    2  501    0 -0.21991813821E+01  0.10456017877E+02  0.12602657732E+04  0.12721293110E+04  0.17300000000E+03 0. -1.
         -6    1    1    2    0  503  0.21991813821E+01 -0.10456017877E+02  0.36308007806E+03  0.40233109225E+03  0.17300000000E+03 0. -1.
<mgrwt>
<rscale>  2 0.17332964E+03</rscale>
<asrwt>0</asrwt>
<pdfrwt beam="1">  1       21 0.25367732E+00 0.17332964E+03</pdfrwt>
<pdfrwt beam="2">  1       21 0.39318899E-02 0.17332964E+03</pdfrwt>
<totfact> 0.25956093E+04</totfact>
</mgrwt>
</event>
<event>
 4    1  0.3974123E+000  0.2303317E+03  0.7546771E-02  0.1126407E+00
         21   -1    0    0  501  502  0.00000000000E+00  0.00000000000E+00  0.19463350319E+03  0.19463350319E+03  0.00000000000E+00 0.  1.
         21   -1    0    0  502  503 -0.00000000000E+00 -0.00000000000E+00 -0.32686119292E+03  0.32686119292E+03  0.00000000000E+00 0.  1.
          6    1    1    2  501    0  0.11685351113E+03 -0.97308498489E+02  0.40147048352E+02  0.23380434648E+03  0.17300000000E+03 0.  1.
         -6    1    1    2    0  503 -0.11685351113E+03  0.97308498489E+02 -0.17237473808E+03  0.28769034963E+03  0.17300000000E+03 0.  1.
<mgrwt>
<rscale>  2 0.23033169E+03</rscale>
<asrwt>0</asrwt>
<pdfrwt beam="1">  1       21 0.29943616E-01 0.23033169E+03</pdfrwt>
<pdfrwt beam="2">  1       21 0.50286337E-01 0.23033169E+03</pdfrwt>
<totfact> 0.39532780E+04</totfact>
</mgrwt>
</event>
<event>
 4    1  0.3974123E+000  0.2354681E+03  0.7546771E-02  0.1122849E+00
         21   -1    0    0  501  502  0.00000000000E+00  0.00000000000E+00  0.46468945965E+02  0.46468945965E+02  0.00000000000E+00 0.  1.
         21   -1    0    0  502  503 -0.00000000000E+00 -0.00000000000E+00 -0.12686973879E+04  0.12686973879E+04  0.00000000000E+00 0.  1.
          6    1    1    2  501    0 -0.12985249567E+03  0.93029825262E+02 -0.45066702175E+03  0.50847417192E+03  0.17300000000E+03 0.  1.
         -6    1    1    2    0  503  0.12985249567E+03 -0.93029825262E+02 -0.77156142016E+03  0.80669216191E+03  0.17300000000E+03 0.  1.
<mgrwt>
<rscale>  2 0.23546808E+03</rscale>
<asrwt>0</asrwt>
<pdfrwt beam="1">  1       21 0.71490683E-02 0.23546808E+03</pdfrwt>
<pdfrwt beam="2">  1       21 0.19518422E+00 0.23546808E+03</pdfrwt>
<totfact> 0.20417563E+04</totfact>
</mgrwt>
</event>
<event>
 4    1  0.3974123E+000  0.2077472E+03  0.7546771E-02  0.1143362E+00
         21   -1    0    0  501  502  0.00000000000E+00  0.00000000000E+00  0.27531687261E+03  0.27531687261E+03  0.00000000000E+00 0.  1.
         21   -1    0    0  502  503 -0.00000000000E+00 -0.00000000000E+00 -0.16152660966E+03  0.16152660966E+03  0.00000000000E+00 0.  1.
          6    1    1    2  501    0 -0.11225387641E+03 -0.25079185506E+02  0.94413273836E+02  0.22819457616E+03  0.17300000000E+03 0.  1.
         -6    1    1    2    0  503  0.11225387641E+03  0.25079185506E+02  0.19376989109E+02  0.20864890611E+03  0.17300000000E+03 0.  1.
<mgrwt>
<rscale>  2 0.20774720E+03</rscale>
<asrwt>0</asrwt>
<pdfrwt beam="1">  1       21 0.42356442E-01 0.20774720E+03</pdfrwt>
<pdfrwt beam="2">  1       21 0.24850248E-01 0.20774720E+03</pdfrwt>
<totfact> 0.81645346E+04</totfact>
</mgrwt>
</event>
<event>
 4    1  0.3974123E+000  0.1912613E+03  0.7546771E-02  0.1157329E+00
         21   -1    0    0  501  502  0.00000000000E+00  0.00000000000E+00  0.21803463009E+03  0.21803463009E+03  0.00000000000E+00 0.  1.
         21   -1    0    0  502  503 -0.00000000000E+00 -0.00000000000E+00 -0.28949446478E+03  0.28949446478E+03  0.00000000000E+00 0.  1.
          6    1    1    2  501    0 -0.80070100611E+02 -0.15513713813E+02  0.12881698772E+03  0.23059642810E+03  0.17300000000E+03 0.  1.
         -6    1    1    2    0  503  0.80070100611E+02  0.15513713813E+02 -0.20027682242E+03  0.27693266677E+03  0.17300000000E+03 0.  1.
<mgrwt>
<rscale>  2 0.19126133E+03</rscale>
<asrwt>0</asrwt>
<pdfrwt beam="1">  1       21 0.33543789E-01 0.19126133E+03</pdfrwt>
<pdfrwt beam="2">  1       21 0.44537610E-01 0.19126133E+03</pdfrwt>
<totfact> 0.41462426E+04</totfact>
</mgrwt>
</event>
<event>
 4    1  0.3974123E+000  0.2275389E+03  0.7546771E-02  0.1128384E+00
         21   -1    0    0  503  502  0.00000000000E+00  0.00000000000E+00  0.24705002680E+03  0.24705002680E+03  0.00000000000E+00 0. -1.
         21   -1    0    0  501  503 -0.00000000000E+00 -0.00000000000E+00 -0.24036539987E+03  0.24036539987E+03  0.00000000000E+00 0.  1.
          6    1    1    2  501    0  0.12287930620E+03  0.82131828021E+02 -0.83891560118E+02  0.24251135010E+03  0.17300000000E+03 0. -1.
         -6    1    1    2    0  502 -0.12287930620E+03 -0.82131828021E+02  0.90576187051E+02  0.24490407658E+03  0.17300000000E+03 0.  1.
<mgrwt>
<rscale>  2 0.22753892E+03</rscale>
<asrwt>0</asrwt>
<pdfrwt beam="1">  1       21 0.38007696E-01 0.22753892E+03</pdfrwt>
<pdfrwt beam="2">  1       21 0.36979292E-01 0.22753892E+03</pdfrwt>
<totfact> 0.46310591E+04</totfact>
</mgrwt>
</event>
<event>
 4    1  0.3974123E+000  0.1944532E+03  0.7546771E-02  0.1154505E+00
         21   -1    0    0  501  502  0.00000000000E+00  0.00000000000E+00  0.48483594084E+03  0.48483594084E+03  0.00000000000E+00 0. -1.
         21   -1    0    0  502  503 -0.00000000000E+00 -0.00000000000E+00 -0.78084656066E+02  0.78084656066E+02  0.00000000000E+00 0. -1.
          6    1    1    2  501    0 -0.63694043813E+02 -0.61855708009E+02  0.19354457205E+03  0.27435663141E+03  0.17300000000E+03 0. -1.
         -6    1    1    2    0  503  0.63694043813E+02  0.61855708009E+02  0.21320671273E+03  0.28856396550E+03  0.17300000000E+03 0. -1.
<mgrwt>
<rscale>  2 0.19445323E+03</rscale>
<asrwt>0</asrwt>
<pdfrwt beam="1">  1       21 0.74590143E-01 0.19445323E+03</pdfrwt>
<pdfrwt beam="2">  1       21 0.12013024E-01 0.19445323E+03</pdfrwt>
<totfact> 0.94197985E+04</totfact>
</mgrwt>
</event>
<event>
 4    1  0.3974123E+000  0.2396037E+03  0.7546771E-02  0.1120057E+00
         21   -1    0    0  501  502  0.00000000000E+00  0.00000000000E+00  0.42206395695E+03  0.42206395695E+03  0.00000000000E+00 0. -1.
         21   -1    0    0  502  503 -0.00000000000E+00 -0.00000000000E+00 -0.19861657367E+03  0.19861657367E+03  0.00000000000E+00 0.  1.
          6    1    1    2  501    0  0.14215355054E+03 -0.85283728793E+02  0.28594410232E+03  0.37306028464E+03  0.17300000000E+03 0. -1.
         -6    1    1    2    0  503 -0.14215355054E+03  0.85283728793E+02 -0.62496719042E+02  0.24762024598E+03  0.17300000000E+03 0. -1.
<mgrwt>
<rscale>  2 0.23960373E+03</rscale>
<asrwt>0</asrwt>
<pdfrwt beam="1">  1       21 0.64932916E-01 0.23960373E+03</pdfrwt>
<pdfrwt beam="2">  1       21 0.30556396E-01 0.23960373E+03</pdfrwt>
<totfact> 0.21884758E+04</totfact>
</mgrwt>
</event>
<event>
 4    1  0.3974123E+000  0.2035180E+03  0.7546771E-02  0.1146804E+00
         21   -1    0    0  503  502  0.00000000000E+00  0.00000000000E+00  0.94012407908E+03  0.94012407908E+03  0.00000000000E+00 0.  1.
         21   -1    0    0  501  503 -0.00000000000E+00 -0.00000000000E+00 -0.44087423462E+02  0.44087423462E+02  0.00000000000E+00 0.  1.
          6    1    1    2  501    0 -0.99967159296E+02  0.38692859041E+02  0.46082665389E+03  0.50376658803E+03  0.17300000000E+03 0. -1.
         -6    1    1    2    0  502  0.99967159296E+02 -0.38692859041E+02  0.43521000173E+03  0.48044491452E+03  0.17300000000E+03 0. -1.
<mgrwt>
<rscale>  2 0.20351799E+03</rscale>
<asrwt>0</asrwt>
<pdfrwt beam="1">  1       21 0.14463446E+00 0.20351799E+03</pdfrwt>
<pdfrwt beam="2">  1       21 0.67826812E-02 0.20351799E+03</pdfrwt>
<totfact> 0.52205696E+04</totfact>
</mgrwt>
</event>
<event>
 4    1  0.3974123E+000  0.1819712E+03  0.7546771E-02  0.1165909E+00
         21   -1    0    0  503  502  0.00000000000E+00  0.00000000000E+00  0.19361170421E+04  0.19361170421E+04  0.00000000000E+00 0.  1.
         21   -1    0    0  501  503 -0.00000000000E+00 -0.00000000000E+00 -0.40980238940E+02  0.40980238940E+02  0.00000000000E+00 0. -1.
          6    1    1    2  501    0 -0.36261295064E+02 -0.43239131412E+02  0.19299340551E+03  0.26525451660E+03  0.17300000000E+03 0. -1.
         -6    1    1    2    0  502  0.36261295064E+02  0.43239131412E+02  0.17021433976E+04  0.17118427644E+04  0.17300000000E+03 0.  1.
<mgrwt>
<rscale>  2 0.18197116E+03</rscale>
<asrwt>0</asrwt>
<pdfrwt beam="1">  1       21 0.29786409E+00 0.18197116E+03</pdfrwt>
<pdfrwt beam="2">  1       21 0.63046537E-02 0.18197116E+03</pdfrwt>
<totfact> 0.64394756E+03</totfact>
</mgrwt>
</event>
<event>
 4    1  0.3974123E+000  0.1869582E+03  0.7546771E-02  0.1161234E+00
         21   -1    0    0  503  502  0.00000000000E+00  0.00000000000E+00  0.11911651131E+03  0.11911651131E+03  0.00000000000E+00 0.  1.
         21   -1    0    0  501  503 -0.00000000000E+00 -0.00000000000E+00 -0.45412907401E+03  0.45412907401E+03  0.00000000000E+00 0.  1.
          6    1    1    2  501    0  0.30437809795E+02  0.64015051530E+02 -0.33800302215E+03  0.38626342057E+03  0.17300000000E+03 0.  1.
         -6    1    1    2    0  502 -0.30437809795E+02 -0.64015051530E+02  0.29904594532E+01  0.18698216475E+03  0.17300000000E+03 0.  1.
<mgrwt>
<rscale>  2 0.18695825E+03</rscale>
<asrwt>0</asrwt>
<pdfrwt beam="1">  1       21 0.18325617E-01 0.18695825E+03</pdfrwt>
<pdfrwt beam="2">  1       21 0.69866012E-01 0.18695825E+03</pdfrwt>
<totfact> 0.50673967E+04</totfact>
</mgrwt>
</event>
<event>
 4    1  0.3974123E+000  0.2175340E+03  0.7546771E-02  0.1135735E+00
         21   -1    0    0  503  502  0.00000000000E+00  0.00000000000E+00  0.81162323571E+03  0.81162323571E+03  0.00000000000E+00 0. -1.
         21   -1    0    0  501  503 -0.00000000000E+00 -0.00000000000E+00 -0.14524774113E+03  0.14524774113E+03  0.00000000000E+00 0. -1.
          6    1    1    2  501    0 -0.11571746046E+03  0.63257605532E+02 -0.36970405064E+02  0.22065327136E+03  0.17300000000E+03 0. -1.
         -6    1    1    2    0  502  0.11571746046E+03 -0.63257605532E+02  0.70334589964E+03  0.73621770548E+03  0.17300000000E+03 0. -1.
<mgrwt>
<rscale>  2 0.21753403E+03</rscale>
<asrwt>0</asrwt>
<pdfrwt beam="1">  1       21 0.12486511E+00 0.21753403E+03</pdfrwt>
<pdfrwt beam="2">  1       21 0.22345807E-01 0.21753403E+03</pdfrwt>
<totfact> 0.88059500E+03</totfact>
</mgrwt>
</event>
<event>
 4    1  0.3974123E+000  0.2689898E+03  0.7546771E-02  0.1101859E+00
         21   -1    0    0  503  502  0.00000000000E+00  0.00000000000E+00  0.16291675910E+04  0.16291675910E+04  0.00000000000E+00 0. -1.
         21   -1    0    0  501  503 -0.00000000000E+00 -0.00000000000E+00 -0.45024887754E+02  0.45024887754E+02  0.00000000000E+00 0.  1.
          6    1    1    2  501    0 -0.19119936646E+03 -0.76611416713E+02  0.69445102032E+03  0.74472661194E+03  0.17300000000E+03 0. -1.
         -6    1    1    2    0  502  0.19119936646E+03  0.76611416713E+02  0.88969168292E+03  0.92946586681E+03  0.17300000000E+03 0. -1.
<mgrwt>
<rscale>  2 0.26898979E+03</rscale>
<asrwt>0</asrwt>
<pdfrwt beam="1">  1       21 0.25064112E+00 0.26898979E+03</pdfrwt>
<pdfrwt beam="2">  1       21 0.69269071E-02 0.26898979E+03</pdfrwt>
<totfact> 0.95351749E+03</totfact>
</mgrwt>
</event>
<event>
 4    1  0.3974123E+000  0.2182625E+03  0.7546771E-02  0.1135185E+00
         21   -1    0    0  501  502  0.00000000000E+00  0.00000000000E+00  0.20559093692E+03  0.20559093692E+03  0.00000000000E+00 0.  1.
         21   -1    0    0  502  503 -0.00000000000E+00 -0.00000000000E+00 -0.26403486685E+03  0.26403486685E+03  0.00000000000E+00 0.  1.
          6    1    1    2  501    0 -0.13213249341E+03 -0.15827262310E+02  0.52931576471E+02  0.22458906883E+03  0.17300000000E+03 0.  1.
         -6    1    1    2    0  503  0.13213249341E+03  0.15827262310E+02 -0.11137550640E+03  0.24503673495E+03  0.17300000000E+03 0.  1.
<mgrwt>
<rscale>  2 0.21826245E+03</rscale>
<asrwt>0</asrwt>
<pdfrwt beam="1">  1       21 0.31629375E-01 0.21826245E+03</pdfrwt>
<pdfrwt beam="2">  1       21 0.40620749E-01 0.21826245E+03</pdfrwt>
<totfact> 0.55446764E+04</totfact>
</mgrwt>
</event>
<event>
 4    1  0.3974123E+000  0.2184489E+03  0.7546771E-02  0.1135045E+00
         21   -1    0    0  501  502  0.00000000000E+00  0.00000000000E+00  0.42120943381E+03  0.42120943381E+03  0.00000000000E+00 0.  1.
         21   -1    0    0  502  503 -0.00000000000E+00 -0.00000000000E+00 -0.11435377145E+03  0.11435377145E+03  0.00000000000E+00 0. -1.
          6    1    1    2  501    0  0.11414738472E+03 -0.69002175023E+02  0.17922319253E+03  0.28256128244E+03  0.17300000000E+03 0. -1.
         -6    1    1    2    0  503 -0.11414738472E+03  0.69002175023E+02  0.12763246983E+03  0.25300192282E+03  0.17300000000E+03 0.  1.
<mgrwt>
<rscale>  2 0.21844891E+03</rscale>
<asrwt>0</asrwt>
<pdfrwt beam="1">  1       21 0.64801451E-01 0.21844891E+03</pdfrwt>
<pdfrwt beam="2">  1       21 0.17592888E-01 0.21844891E+03</pdfrwt>
<totfact> 0.63512171E+04</totfact>
</mgrwt>
</event>
<event>
 4    1  0.3974123E+000  0.3056721E+03  0.7546771E-02  0.1082439E+00
         21   -1    0    0  503  502  0.00000000000E+00  0.00000000000E+00  0.19451096569E+04  0.19451096569E+04  0.00000000000E+00 0. -1.
         21   -1    0    0  501  503 -0.00000000000E+00 -0.00000000000E+00 -0.58508911917E+02  0.58508911917E+02  0.00000000000E+00 0.  1.
          6    1    1    2  501    0 -0.19821452672E+03 -0.15561959286E+03  0.51945644293E+03  0.60271921521E+03  0.17300000000E+03 0.  1.
         -6    1    1    2    0  502  0.19821452672E+03  0.15561959286E+03  0.13671443020E+04  0.14008993536E+04  0.17300000000E+03 0. -1.
<mgrwt>
<rscale>  2 0.30567214E+03</rscale>
<asrwt>0</asrwt>
<pdfrwt beam="1">  1       21 0.29924759E+00 0.30567214E+03</pdfrwt>
<pdfrwt beam="2">  1       21 0.90013726E-02 0.30567214E+03</pdfrwt>
<totfact> 0.30232390E+03</totfact>
</mgrwt>
</event>
<event>
 4    1  0.3974123E+000  0.3704668E+03  0.7546771E-02  0.1054515E+00
         21   -1    0    0  501  502  0.00000000000E+00  0.00000000000E+00  0.56534056317E+03  0.56534056317E+03  0.00000000000E+00 0.  1.
         21   -1    0    0  502  503 -0.00000000000E+00 -0.00000000000E+00 -0.24895516755E+03  0.24895516755E+03  0.00000000000E+00 0. -1.
          6    1    1    2  501    0 -0.32321972082E+03  0.53344792293E+02  0.22238693823E+03  0.43208981137E+03  0.17300000000E+03 0.  1.
         -6    1    1    2    0  503  0.32321972082E+03 -0.53344792293E+02  0.93998457380E+02  0.38220591935E+03  0.17300000000E+03 0. -1.
<mgrwt>
<rscale>  2 0.37046681E+03</rscale>
<asrwt>0</asrwt>
<pdfrwt beam="1">  1       21 0.86975471E-01 0.37046681E+03</pdfrwt>
<pdfrwt beam="2">  1       21 0.38300795E-01 0.37046681E+03</pdfrwt>
<totfact> 0.67931120E+03</totfact>
</mgrwt>
</event>
<event>
 4    1  0.3974123E+000  0.2139312E+03  0.7546771E-02  0.1138490E+00
         21   -1    0    0  501  502  0.00000000000E+00  0.00000000000E+00  0.24834934664E+03  0.24834934664E+03  0.00000000000E+00 0. -1.
         21   -1    0    0  502  503 -0.00000000000E+00 -0.00000000000E+00 -0.40093345465E+03  0.40093345465E+03  0.00000000000E+00 0. -1.
          6    1    1    2  501    0 -0.12490474060E+03 -0.15373590995E+02  0.16235036521E+03  0.26855945824E+03  0.17300000000E+03 0. -1.
         -6    1    1    2    0  503  0.12490474060E+03  0.15373590995E+02 -0.31493447322E+03  0.38072334306E+03  0.17300000000E+03 0. -1.
<mgrwt>
<rscale>  2 0.21393116E+03</rscale>
<asrwt>0</asrwt>
<pdfrwt beam="1">  1       21 0.38207592E-01 0.21393116E+03</pdfrwt>
<pdfrwt beam="2">  1       21 0.61682069E-01 0.21393116E+03</pdfrwt>
<totfact> 0.15917626E+04</totfact>
</mgrwt>
</event>
<event>
 4    1  0.3974123E+000  0.2639481E+03  0.7546771E-02  0.1104794E+00
         21   -1    0    0  503  502  0.00000000000E+00  0.00000000000E+00  0.72651223406E+03  0.72651223406E+03  0.00000000000E+00 0. -1.
         21   -1    0    0  501  503 -0.00000000000E+00 -0.00000000000E+00 -0.10906138261E+03  0.10906138261E+03  0.00000000000E+00 0.  1.
          6    1    1    2  501    0  0.11040882416E+03 -0.16598040331E+03  0.16356140268E+03  0.31051720594E+03  0.17300000000E+03 0.  1.
         -6    1    1    2    0  502 -0.11040882416E+03  0.16598040331E+03  0.45388944878E+03  0.52505641073E+03  0.17300000000E+03 0. -1.
<mgrwt>
<rscale>  2 0.26394811E+03</rscale>
<asrwt>0</asrwt>
<pdfrwt beam="1">  1       21 0.11177111E+00 0.26394811E+03</pdfrwt>
<pdfrwt beam="2">  1       21 0.16778675E-01 0.26394811E+03</pdfrwt>
<totfact> 0.19294051E+04</totfact>
</mgrwt>
</event>
<event>
 4    1  0.3974123E+000  0.1903151E+03  0.7546771E-02  0.1158177E+00
         21   -1    0    0  503  502  0.00000000000E+00  0.00000000000E+00  0.13756387507E+03  0.13756387507E+03  0.00000000000E+00 0. -1.
         21   -1    0    0  501  503 -0.00000000000E+00 -0.00000000000E+00 -0.28120407973E+03  0.28120407973E+03  0.00000000000E+00 0. -1.
          6    1    1    2  501    0 -0.11298060524E+02  0.78505895370E+02 -0.12466151822E+03  0.22750893588E+03  0.17300000000E+03 0. -1.
         -6    1    1    2    0  502  0.11298060524E+02 -0.78505895370E+02 -0.18978686445E+02  0.19125901892E+03  0.17300000000E+03 0. -1.
<mgrwt>
<rscale>  2 0.19031506E+03</rscale>
<asrwt>0</asrwt>
<pdfrwt beam="1">  1       21 0.21163673E-01 0.19031506E+03</pdfrwt>
<pdfrwt beam="2">  1       21 0.43262166E-01 0.19031506E+03</pdfrwt>
<totfact> 0.10674913E+05</totfact>
</mgrwt>
</event>
<event>
 4    1  0.3974123E+000  0.1976495E+03  0.7546771E-02  0.1151737E+00
         21   -1    0    0  501  502  0.00000000000E+00  0.00000000000E+00  0.58837379353E+02  0.58837379353E+02  0.00000000000E+00 0.  1.
         21   -1    0    0  502  503 -0.00000000000E+00 -0.00000000000E+00 -0.13490421490E+04  0.13490421490E+04  0.00000000000E+00 0.  1.
          6    1    1    2  501    0  0.84753999813E+02  0.44193594942E+02 -0.14345799310E+03  0.24422430285E+03  0.17300000000E+03 0.  1.
         -6    1    1    2    0  503 -0.84753999813E+02 -0.44193594942E+02 -0.11467467766E+04  0.11636552255E+04  0.17300000000E+03 0.  1.
<mgrwt>
<rscale>  2 0.19764947E+03</rscale>
<asrwt>0</asrwt>
<pdfrwt beam="1">  1       21 0.90519054E-02 0.19764947E+03</pdfrwt>
<pdfrwt beam="2">  1       21 0.20754493E+00 0.19764947E+03</pdfrwt>
<totfact> 0.11578003E+04</totfact>
</mgrwt>
</event>
<event>
 4    1  0.3974123E+000  0.2073311E+03  0.7546771E-02  0.1143697E+00
         21   -1    0    0  503  502  0.00000000000E+00  0.00000000000E+00  0.14840140416E+04  0.14840140416E+04  0.00000000000E+00 0. -1.
         21   -1    0    0  501  503 -0.00000000000E+00 -0.00000000000E+00 -0.29313098033E+02  0.29313098033E+02  0.00000000000E+00 0.  1.
          6    1    1    2  501    0  0.74313292662E+02 -0.86802788359E+02  0.64503199101E+03  0.67753410170E+03  0.17300000000E+03 0.  1.
         -6    1    1    2    0  502 -0.74313292662E+02  0.86802788359E+02  0.80966895259E+03  0.83579303797E+03  0.17300000000E+03 0.  1.
<mgrwt>
<rscale>  2 0.20733111E+03</rscale>
<asrwt>0</asrwt>
<pdfrwt beam="1">  1       21 0.22830979E+00 0.20733111E+03</pdfrwt>
<pdfrwt beam="2">  1       21 0.45097085E-02 0.20733111E+03</pdfrwt>
<totfact> 0.28354387E+04</totfact>
</mgrwt>
</event>
<event>
 4    1  0.3974123E+000  0.2935773E+03  0.7546771E-02  0.1088496E+00
         21   -1    0    0  501  502  0.00000000000E+00  0.00000000000E+00  0.16408295769E+03  0.16408295769E+03  0.00000000000E+00 0. -1.
         21   -1    0    0  502  503 -0.00000000000E+00 -0.00000000000E+00 -0.56027755768E+03  0.56027755768E+03  0.00000000000E+00 0. -1.
          6    1    1    2  501    0 -0.16014215133E+02 -0.23664776918E+03 -0.10756305355E+03  0.31266184966E+03  0.17300000000E+03 0. -1.
         -6    1    1    2    0  503  0.16014215133E+02  0.23664776918E+03 -0.28863154644E+03  0.41169866571E+03  0.17300000000E+03 0. -1.
<mgrwt>
<rscale>  2 0.29357728E+03</rscale>
<asrwt>0</asrwt>
<pdfrwt beam="1">  1       21 0.25243532E-01 0.29357728E+03</pdfrwt>
<pdfrwt beam="2">  1       21 0.86196546E-01 0.29357728E+03</pdfrwt>
<totfact> 0.16359519E+04</totfact>
</mgrwt>
</event>
<event>
 4    1  0.3974123E+000  0.2484996E+03  0.7546771E-02  0.1114257E+00
         21   -1    0    0  503  502  0.00000000000E+00  0.00000000000E+00  0.28689993938E+03  0.28689993938E+03  0.00000000000E+00 0.  1.
         21   -1    0    0  501  503 -0.00000000000E+00 -0.00000000000E+00 -0.30070171117E+03  0.30070171117E+03  0.00000000000E+00 0.  1.
          6    1    1    2  501    0  0.10855746008E+01  0.17838690170E+03 -0.16353029656E+03  0.29747978598E+03  0.17300000000E+03 0.  1.
         -6    1    1    2    0  502 -0.10855746008E+01 -0.17838690170E+03  0.14972852477E+03  0.29012186457E+03  0.17300000000E+03 0.  1.
<mgrwt>
<rscale>  2 0.24849963E+03</rscale>
<asrwt>0</asrwt>
<pdfrwt beam="1">  1       21 0.44138452E-01 0.24849963E+03</pdfrwt>
<pdfrwt beam="2">  1       21 0.46261802E-01 0.24849963E+03</pdfrwt>
<totfact> 0.21416296E+04</totfact>
</mgrwt>
</event>
<event>
 4    1  0.3974123E+000  0.2095807E+03  0.7546771E-02  0.1141898E+00
         21   -1    0    0  501  502  0.00000000000E+00  0.00000000000E+00  0.31987336701E+02  0.31987336701E+02  0.00000000000E+00 0. -1.
         21   -1    0    0  502  503 -0.00000000000E+00 -0.00000000000E+00 -0.13882613994E+04  0.13882613994E+04  0.00000000000E+00 0. -1.
          6    1    1    2  501    0 -0.70458512236E+02  0.95029816426E+02 -0.60409880896E+03  0.63942117492E+03  0.17300000000E+03 0. -1.
         -6    1    1    2    0  503  0.70458512236E+02 -0.95029816426E+02 -0.75217525379E+03  0.78082756122E+03  0.17300000000E+03 0. -1.
<mgrwt>
<rscale>  2 0.20958070E+03</rscale>
<asrwt>0</asrwt>
<pdfrwt beam="1">  1       21 0.49211279E-02 0.20958070E+03</pdfrwt>
<pdfrwt beam="2">  1       21 0.21357871E+00 0.20958070E+03</pdfrwt>
<totfact> 0.30084183E+04</totfact>
</mgrwt>
</event>
<event>
 4    1  0.3974123E+000  0.2662298E+03  0.7546771E-02  0.1103457E+00
         21   -1    0    0  501  502  0.00000000000E+00  0.00000000000E+00  0.10033245576E+03  0.10033245576E+03  0.00000000000E+00 0.  1.
         21   -1    0    0  502  503 -0.00000000000E+00 -0.00000000000E+00 -0.99058531253E+03  0.99058531253E+03  0.00000000000E+00 0. -1.
          6    1    1    2  501    0  0.19076375427E+03  0.67516561489E+02 -0.15298669973E+03  0.30705573812E+03  0.17300000000E+03 0.  1.
         -6    1    1    2    0  503 -0.19076375427E+03 -0.67516561489E+02 -0.73726615704E+03  0.78386203017E+03  0.17300000000E+03 0. -1.
<mgrwt>
<rscale>  2 0.26622978E+03</rscale>
<asrwt>0</asrwt>
<pdfrwt beam="1">  1       21 0.15435762E-01 0.26622978E+03</pdfrwt>
<pdfrwt beam="2">  1       21 0.15239775E+00 0.26622978E+03</pdfrwt>
<totfact> 0.10166007E+04</totfact>
</mgrwt>
</event>
<event>
 4    1  0.3974123E+000  0.1842323E+03  0.7546771E-02  0.1163769E+00
         21   -1    0    0  503  502  0.00000000000E+00  0.00000000000E+00  0.38243782203E+03  0.38243782203E+03  0.00000000000E+00 0.  1.
         21   -1    0    0  501  503 -0.00000000000E+00 -0.00000000000E+00 -0.95720661344E+02  0.95720661344E+02  0.00000000000E+00 0. -1.
          6    1    1    2  501    0  0.26700790743E+02 -0.57442201542E+02  0.78843508121E+02  0.20039420530E+03  0.17300000000E+03 0. -1.
         -6    1    1    2    0  502 -0.26700790743E+02  0.57442201542E+02  0.20787365257E+03  0.27776427808E+03  0.17300000000E+03 0. -1.
<mgrwt>
<rscale>  2 0.18423230E+03</rscale>
<asrwt>0</asrwt>
<pdfrwt beam="1">  1       21 0.58836587E-01 0.18423230E+03</pdfrwt>
<pdfrwt beam="2">  1       21 0.14726256E-01 0.18423230E+03</pdfrwt>
<totfact> 0.10995925E+05</totfact>
</mgrwt>
</event>
<event>
 4    1  0.3974123E+000  0.1800874E+03  0.7546771E-02  0.1167718E+00
         21   -1    0    0  501  502  0.00000000000E+00  0.00000000000E+00  0.91784254921E+03  0.91784254921E+03  0.00000000000E+00 0.  1.
         21   -1    0    0  502  503 -0.00000000000E+00 -0.00000000000E+00 -0.40477917653E+02  0.40477917653E+02  0.00000000000E+00 0.  1.
          6    1    1    2  501    0 -0.25573977283E+02  0.42993650554E+02  0.60948659367E+03  0.63553551448E+03  0.17300000000E+03 0.  1.
         -6    1    1    2    0  503  0.25573977283E+02 -0.42993650554E+02  0.26787803788E+03  0.32278495238E+03  0.17300000000E+03 0.  1.
<mgrwt>
<rscale>  2 0.18008743E+03</rscale>
<asrwt>0</asrwt>
<pdfrwt beam="1">  1       21 0.14120653E+00 0.18008743E+03</pdfrwt>
<pdfrwt beam="2">  1       21 0.62273727E-02 0.18008743E+03</pdfrwt>
<totfact> 0.65166510E+04</totfact>
</mgrwt>
</event>
<event>
 4    1  0.3974123E+000  0.2707906E+03  0.7546771E-02  0.1100828E+00
         21   -1    0    0  501  502  0.00000000000E+00  0.00000000000E+00  0.23187663688E+03  0.23187663688E+03  0.00000000000E+00 0. -1.
         21   -1    0    0  502  503 -0.00000000000E+00 -0.00000000000E+00 -0.34224128717E+03  0.34224128717E+03  0.00000000000E+00 0.  1.
          6    1    1    2  501    0 -0.11362904264E+03 -0.17460525015E+03  0.23947915457E+02  0.27184748549E+03  0.17300000000E+03 0.  1.
         -6    1    1    2    0  503  0.11362904264E+03  0.17460525015E+03 -0.13431256574E+03  0.30227043856E+03  0.17300000000E+03 0. -1.
<mgrwt>
<rscale>  2 0.27079061E+03</rscale>
<asrwt>0</asrwt>
<pdfrwt beam="1">  1       21 0.35673329E-01 0.27079061E+03</pdfrwt>
<pdfrwt beam="2">  1       21 0.52652506E-01 0.27079061E+03</pdfrwt>
<totfact> 0.24919771E+04</totfact>
</mgrwt>
</event>
<event>
 4    1  0.3974123E+000  0.2025477E+03  0.7546771E-02  0.1147607E+00
         21   -1    0    0  503  502  0.00000000000E+00  0.00000000000E+00  0.10811680530E+03  0.10811680530E+03  0.00000000000E+00 0.  1.
         21   -1    0    0  501  503 -0.00000000000E+00 -0.00000000000E+00 -0.47255804331E+03  0.47255804331E+03  0.00000000000E+00 0.  1.
          6    1    1    2  501    0 -0.85776017821E+02  0.61147755690E+02 -0.31109155596E+03  0.37121897776E+03  0.17300000000E+03 0.  1.
         -6    1    1    2    0  502  0.85776017821E+02 -0.61147755690E+02 -0.53349682056E+02  0.20945587085E+03  0.17300000000E+03 0.  1.
<mgrwt>
<rscale>  2 0.20254771E+03</rscale>
<asrwt>0</asrwt>
<pdfrwt beam="1">  1       21 0.16633355E-01 0.20254771E+03</pdfrwt>
<pdfrwt beam="2">  1       21 0.72701236E-01 0.20254771E+03</pdfrwt>
<totfact> 0.55069140E+04</totfact>
</mgrwt>
</event>
<event>
 4    1  0.3974123E+000  0.2105573E+03  0.7546771E-02  0.1141125E+00
         21   -1    0    0  503  502  0.00000000000E+00  0.00000000000E+00  0.26477709021E+03  0.26477709021E+03  0.00000000000E+00 0.  1.
         21   -1    0    0  501  503 -0.00000000000E+00 -0.00000000000E+00 -0.27590437578E+03  0.27590437578E+03  0.00000000000E+00 0. -1.
          6    1    1    2  501    0 -0.74907070190E+01  0.11978837046E+03 -0.17506574351E+03  0.27382910536E+03  0.17300000000E+03 0. -1.
         -6    1    1    2    0  502  0.74907070190E+01 -0.11978837046E+03  0.16393845794E+03  0.26685236064E+03  0.17300000000E+03 0.  1.
<mgrwt>
<rscale>  2 0.21055727E+03</rscale>
<asrwt>0</asrwt>
<pdfrwt beam="1">  1       21 0.40734937E-01 0.21055727E+03</pdfrwt>
<pdfrwt beam="2">  1       21 0.42446827E-01 0.21055727E+03</pdfrwt>
<totfact> 0.30703222E+04</totfact>
</mgrwt>
</event>
<event>
 4    1  0.3974123E+000  0.1745171E+03  0.7546771E-02  0.1173217E+00
         21   -1    0    0  501  502  0.00000000000E+00  0.00000000000E+00  0.46023949518E+03  0.46023949518E+03  0.00000000000E+00 0.  1.
         21   -1    0    0  502  503 -0.00000000000E+00 -0.00000000000E+00 -0.66304735965E+02  0.66304735965E+02  0.00000000000E+00 0.  1.
          6    1    1    2  501    0 -0.22222945690E+02 -0.57762532140E+01  0.20862510742E+03  0.27199385997E+03  0.17300000000E+03 0.  1.
         -6    1    1    2    0  503  0.22222945690E+02  0.57762532140E+01  0.18530965180E+03  0.25455037117E+03  0.17300000000E+03 0.  1.
<mgrwt>
<rscale>  2 0.17451712E+03</rscale>
<asrwt>0</asrwt>
<pdfrwt beam="1">  1       21 0.70806074E-01 0.17451712E+03</pdfrwt>
<pdfrwt beam="2">  1       21 0.10200729E-01 0.17451712E+03</pdfrwt>
<totfact> 0.14243354E+05</totfact>
</mgrwt>
</event>
<event>
 4    1  0.3974123E+000  0.2501809E+03  0.7546771E-02  0.1113191E+00
         21   -1    0    0  503  502  0.00000000000E+00  0.00000000000E+00  0.35696108656E+03  0.35696108656E+03  0.00000000000E+00 0. -1.
         21   -1    0    0  501  503 -0.00000000000E+00 -0.00000000000E+00 -0.17974353356E+03  0.17974353356E+03  0.00000000000E+00 0. -1.
          6    1    1    2  501    0  0.10392595743E+03 -0.14785430107E+03  0.46618457140E+02  0.25448728754E+03  0.17300000000E+03 0. -1.
         -6    1    1    2    0  502 -0.10392595743E+03  0.14785430107E+03  0.13059909586E+03  0.28221733259E+03  0.17300000000E+03 0. -1.
<mgrwt>
<rscale>  2 0.25018093E+03</rscale>
<asrwt>0</asrwt>
<pdfrwt beam="1">  1       21 0.54917090E-01 0.25018093E+03</pdfrwt>
<pdfrwt beam="2">  1       21 0.27652851E-01 0.25018093E+03</pdfrwt>
<totfact> 0.38001001E+04</totfact>
</mgrwt>
</event>
<event>
 4    1  0.3974123E+000  0.1812429E+03  0.7546771E-02  0.1166606E+00
         21   -1    0    0  503  502  0.00000000000E+00  0.00000000000E+00  0.19016123292E+04  0.19016123292E+04  0.00000000000E+00 0. -1.
         21   -1    0    0  501  503 -0.00000000000E+00 -0.00000000000E+00 -0.20391489798E+02  0.20391489798E+02  0.00000000000E+00 0. -1.
          6    1    1    2  501    0 -0.11268898880E+02  0.52848931796E+02  0.56487487498E+03  0.59323909350E+03  0.17300000000E+03 0. -1.
         -6    1    1    2    0  502  0.11268898880E+02 -0.52848931796E+02  0.13163459644E+04  0.13287647255E+04  0.17300000000E+03 0. -1.
<mgrwt>
<rscale>  2 0.18124292E+03</rscale>
<asrwt>0</asrwt>
<pdfrwt beam="1">  1       21 0.29255560E+00 0.18124292E+03</pdfrwt>
<pdfrwt beam="2">  1       21 0.31371538E-02 0.18124292E+03</pdfrwt>
<totfact> 0.22388974E+04</totfact>
</mgrwt>
</event>
<event>
 4    1  0.3974123E+000  0.2060318E+03  0.7546771E-02  0.1144747E+00
         21   -1    0    0  501  502  0.00000000000E+00  0.00000000000E+00  0.36248291692E+03  0.36248291692E+03  0.00000000000E+00 0.  1.
         21   -1    0    0  502  503 -0.00000000000E+00 -0.00000000000E+00 -0.24699292517E+03  0.24699292517E+03  0.00000000000E+00 0.  1.
          6    1    1    2  501    0 -0.76541712726E+02 -0.81617862391E+02  0.27873168197E+03  0.34661283846E+03  0.17300000000E+03 0.  1.
         -6    1    1    2    0  503  0.76541712726E+02  0.81617862391E+02 -0.16324169023E+03  0.26286300363E+03  0.17300000000E+03 0.  1.
<mgrwt>
<rscale>  2 0.20603182E+03</rscale>
<asrwt>0</asrwt>
<pdfrwt beam="1">  1       21 0.55766603E-01 0.20603182E+03</pdfrwt>
<pdfrwt beam="2">  1       21 0.37998912E-01 0.20603182E+03</pdfrwt>
<totfact> 0.20069661E+04</totfact>
</mgrwt>
</event>
<event>
 4    1  0.3974123E+000  0.2326258E+03  0.7546771E-02  0.1124805E+00
         21   -1    0    0  501  502  0.00000000000E+00  0.00000000000E+00  0.12612516808E+03  0.12612516808E+03  0.00000000000E+00 0.  1.
         21   -1    0    0  502  503 -0.00000000000E+00 -0.00000000000E+00 -0.59111638431E+03  0.59111638431E+03  0.00000000000E+00 0. -1.
          6    1    1    2  501    0  0.15353656107E+03  0.24744073231E+02 -0.44720706474E+02  0.23688538649E+03  0.17300000000E+03 0.  1.
         -6    1    1    2    0  503 -0.15353656107E+03 -0.24744073231E+02 -0.42027050976E+03  0.48035616590E+03  0.17300000000E+03 0. -1.
<mgrwt>
<rscale>  2 0.23262576E+03</rscale>
<asrwt>0</asrwt>
<pdfrwt beam="1">  1       21 0.19403872E-01 0.23262576E+03</pdfrwt>
<pdfrwt beam="2">  1       21 0.90940982E-01 0.23262576E+03</pdfrwt>
<totfact> 0.24495062E+04</totfact>
</mgrwt>
</event>
<event>
 4    1  0.3974123E+000  0.2019276E+03  0.7546771E-02  0.1148123E+00
         21   -1    0    0  501  502  0.00000000000E+00  0.00000000000E+00  0.56806810812E+03  0.56806810812E+03  0.00000000000E+00 0. -1.
         21   -1    0    0  502  503 -0.00000000000E+00 -0.00000000000E+00 -0.87218871883E+02  0.87218871883E+02  0.00000000000E+00 0.  1.
          6    1    1    2  501    0  0.66032291097E+02 -0.80532569449E+02  0.37828296727E+03  0.42880387304E+03  0.17300000000E+03 0. -1.
         -6    1    1    2    0  503 -0.66032291097E+02  0.80532569449E+02  0.10256626897E+03  0.22648310696E+03  0.17300000000E+03 0. -1.
<mgrwt>
<rscale>  2 0.20192761E+03</rscale>
<asrwt>0</asrwt>
<pdfrwt beam="1">  1       21 0.87395091E-01 0.20192761E+03</pdfrwt>
<pdfrwt beam="2">  1       21 0.13418288E-01 0.20192761E+03</pdfrwt>
<totfact> 0.53727660E+04</totfact>
</mgrwt>
</event>
<event>
 4    1  0.3974123E+000  0.1821762E+03  0.7546771E-02  0.1165713E+00
         21   -1    0    0  503  502  0.00000000000E+00  0.00000000000E+00  0.94460732774E+02  0.94460732774E+02  0.00000000000E+00 0.  1.
         21   -1    0    0  501  503 -0.00000000000E+00 -0.00000000000E+00 -0.35741192126E+03  0.35741192126E+03  0.00000000000E+00 0.  1.
          6    1    1    2  501    0  0.42949102547E+02  0.37610340484E+02 -0.16091573739E+03  0.24306796922E+03  0.17300000000E+03 0.  1.
         -6    1    1    2    0  502 -0.42949102547E+02 -0.37610340484E+02 -0.10203545110E+03  0.20880468482E+03  0.17300000000E+03 0.  1.
<mgrwt>
<rscale>  2 0.18217619E+03</rscale>
<asrwt>0</asrwt>
<pdfrwt beam="1">  1       21 0.14532421E-01 0.18217619E+03</pdfrwt>
<pdfrwt beam="2">  1       21 0.54986449E-01 0.18217619E+03</pdfrwt>
<totfact> 0.13015130E+05</totfact>
</mgrwt>
</event>
<event>
 4    1  0.3974123E+000  0.1882582E+03  0.7546771E-02  0.1160042E+00
         21   -1    0    0  503  502  0.00000000000E+00  0.00000000000E+00  0.19897795908E+02  0.19897795908E+02  0.00000000000E+00 0. -1.
         21   -1    0    0  501  503 -0.00000000000E+00 -0.00000000000E+00 -0.22146596313E+04  0.22146596313E+04  0.00000000000E+00 0.  1.
          6    1    1    2  501    0  0.42032986794E+02  0.61199562970E+02 -0.15916943227E+04  0.16027888118E+04  0.17300000000E+03 0.  1.
         -6    1    1    2    0  502 -0.42032986794E+02 -0.61199562970E+02 -0.60306751275E+03  0.63176861541E+03  0.17300000000E+03 0. -1.
<mgrwt>
<rscale>  2 0.18825822E+03</rscale>
<asrwt>0</asrwt>
<pdfrwt beam="1">  1       21 0.30612019E-02 0.18825822E+03</pdfrwt>
<pdfrwt beam="2">  1       21 0.34071659E+00 0.18825822E+03</pdfrwt>
<totfact> 0.12196385E+04</totfact>
</mgrwt>
</event>
<event>
 4    1  0.3974123E+000  0.1811369E+03  0.7546771E-02  0.1166707E+00
         21   -1    0    0  501  502  0.00000000000E+00  0.00000000000E+00  0.11070776315E+03  0.11070776315E+03  0.00000000000E+00 0.  1.
         21   -1    0    0  502  503 -0.00000000000E+00 -0.00000000000E+00 -0.33497082372E+03  0.33497082372E+03  0.00000000000E+00 0.  1.
          6    1    1    2  501    0 -0.44791509000E+02  0.29585439933E+02 -0.36486468136E+02  0.18477510626E+03  0.17300000000E+03 0.  1.
         -6    1    1    2    0  503  0.44791509000E+02 -0.29585439933E+02 -0.18777659243E+03  0.26090348062E+03  0.17300000000E+03 0.  1.
<mgrwt>
<rscale>  2 0.18113690E+03</rscale>
<asrwt>0</asrwt>
<pdfrwt beam="1">  1       21 0.17031963E-01 0.18113690E+03</pdfrwt>
<pdfrwt beam="2">  1       21 0.51533974E-01 0.18113690E+03</pdfrwt>
<totfact> 0.11168134E+05</totfact>
</mgrwt>
</event>
<event>
 4    1  0.3974123E+000  0.1874535E+03  0.7546771E-02  0.1160778E+00
         21   -1    0    0  501  502  0.00000000000E+00  0.00000000000E+00  0.35963798184E+02  0.35963798184E+02  0.00000000000E+00 0.  1.
         21   -1    0    0  502  503 -0.00000000000E+00 -0.00000000000E+00 -0.10005418285E+04  0.10005418285E+04  0.00000000000E+00 0.  1.
          6    1    1    2  501    0 -0.71941644556E+02  0.58508716353E+01 -0.40289667252E+03  0.44436984782E+03  0.17300000000E+03 0.  1.
         -6    1    1    2    0  503  0.71941644556E+02 -0.58508716353E+01 -0.56168135781E+03  0.59213577888E+03  0.17300000000E+03 0.  1.
<mgrwt>
<rscale>  2 0.18745355E+03</rscale>
<asrwt>0</asrwt>
<pdfrwt beam="1">  1       21 0.55328927E-02 0.18745355E+03</pdfrwt>
<pdfrwt beam="2">  1       21 0.15392949E+00 0.18745355E+03</pdfrwt>
<totfact> 0.63393449E+04</totfact>
</mgrwt>
</event>
<event>
 4    1  0.3974123E+000  0.2310324E+03  0.7546771E-02  0.1125915E+00
         21   -1    0    0  503  502  0.00000000000E+00  0.00000000000E+00  0.21665670220E+03  0.21665670220E+03  0.00000000000E+00 0. -1.
         21   -1    0    0  501  503 -0.00000000000E+00 -0.00000000000E+00 -0.36670820979E+03  0.36670820979E+03  0.00000000000E+00 0. -1.
          6    1    1    2  501    0 -0.75285152765E+02  0.13333841640E+03 -0.24212178114E+03  0.33466243353E+03  0.17300000000E+03 0. -1.
         -6    1    1    2    0  502  0.75285152765E+02 -0.13333841640E+03  0.92070273555E+02  0.24870247845E+03  0.17300000000E+03 0. -1.
<mgrwt>
<rscale>  2 0.23103244E+03</rscale>
<asrwt>0</asrwt>
<pdfrwt beam="1">  1       21 0.33331801E-01 0.23103244E+03</pdfrwt>
<pdfrwt beam="2">  1       21 0.56416647E-01 0.23103244E+03</pdfrwt>
<totfact> 0.25088894E+04</totfact>
</mgrwt>
</event>
<event>
 4    1  0.3974123E+000  0.2316557E+03  0.7546771E-02  0.1125480E+00
         21   -1    0    0  503  502  0.00000000000E+00  0.00000000000E+00  0.68590946593E+03  0.68590946593E+03  0.00000000000E+00 0. -1.
         21   -1    0    0  501  503 -0.00000000000E+00 -0.00000000000E+00 -0.23314079270E+03  0.23314079270E+03  0.00000000000E+00 0.  1.
          6    1    1    2  501    0 -0.21008113548E+02  0.15262385394E+03 -0.14818252577E+03  0.27499535009E+03  0.17300000000E+03 0.  1.
         -6    1    1    2    0  502  0.21008113548E+02 -0.15262385394E+03  0.60095119900E+03  0.64405490854E+03  0.17300000000E+03 0. -1.
<mgrwt>
<rscale>  2 0.23165574E+03</rscale>
<asrwt>0</asrwt>
<pdfrwt beam="1">  1       21 0.10552453E+00 0.23165574E+03</pdfrwt>
<pdfrwt beam="2">  1       21 0.35867814E-01 0.23165574E+03</pdfrwt>
<totfact> 0.52564523E+03</totfact>
</mgrwt>
</event>
<event>
 4    1  0.3974123E+000  0.2289351E+03  0.7546771E-02  0.1127392E+00
         21   -1    0    0  503  502  0.00000000000E+00  0.00000000000E+00  0.72160634640E+03  0.72160634640E+03  0.00000000000E+00 0.  1.
         21   -1    0    0  501  503 -0.00000000000E+00 -0.00000000000E+00 -0.10894020377E+03  0.10894020377E+03  0.00000000000E+00 0. -1.
          6    1    1    2  501    0 -0.14690635857E+03  0.30013651535E+02  0.66590195667E+02  0.23842305179E+03  0.17300000000E+03 0. -1.
         -6    1    1    2    0  502  0.14690635857E+03 -0.30013651535E+02  0.54607594696E+03  0.59212349837E+03  0.17300000000E+03 0.  1.
<mgrwt>
<rscale>  2 0.22893514E+03</rscale>
<asrwt>0</asrwt>
<pdfrwt beam="1">  1       21 0.11101636E+00 0.22893514E+03</pdfrwt>
<pdfrwt beam="2">  1       21 0.16760032E-01 0.22893514E+03</pdfrwt>
<totfact> 0.20013437E+04</totfact>
</mgrwt>
</event>
<event>
 4    1  0.3974123E+000  0.1835028E+03  0.7546771E-02  0.1164455E+00
         21   -1    0    0  503  502  0.00000000000E+00  0.00000000000E+00  0.54626564413E+02  0.54626564413E+02  0.00000000000E+00 0. -1.
         21   -1    0    0  501  503 -0.00000000000E+00 -0.00000000000E+00 -0.74040269243E+03  0.74040269243E+03  0.00000000000E+00 0. -1.
          6    1    1    2  501    0  0.15928742742E+02 -0.59080896644E+02 -0.50555068936E+03  0.53782411317E+03  0.17300000000E+03 0. -1.
         -6    1    1    2    0  502 -0.15928742742E+02  0.59080896644E+02 -0.18022543866E+03  0.25720514367E+03  0.17300000000E+03 0. -1.
<mgrwt>
<rscale>  2 0.18350280E+03</rscale>
<asrwt>0</asrwt>
<pdfrwt beam="1">  1       21 0.84040870E-02 0.18350280E+03</pdfrwt>
<pdfrwt beam="2">  1       21 0.11390810E+00 0.18350280E+03</pdfrwt>
<totfact> 0.66366813E+04</totfact>
</mgrwt>
</event>
<event>
 4    1  0.3974123E+000  0.3127531E+03  0.7546771E-02  0.1079034E+00
         21   -1    0    0  501  502  0.00000000000E+00  0.00000000000E+00  0.89683405902E+03  0.89683405902E+03  0.00000000000E+00 0. -1.
         21   -1    0    0  502  503 -0.00000000000E+00 -0.00000000000E+00 -0.12438681868E+03  0.12438681868E+03  0.00000000000E+00 0.  1.
          6    1    1    2  501    0  0.10798890581E+03 -0.23711578410E+03  0.56542330730E+03  0.64615633966E+03  0.17300000000E+03 0. -1.
         -6    1    1    2    0  503 -0.10798890581E+03  0.23711578410E+03  0.20702393304E+03  0.37506453804E+03  0.17300000000E+03 0. -1.
<mgrwt>
<rscale>  2 0.31275310E+03</rscale>
<asrwt>0</asrwt>
<pdfrwt beam="1">  1       21 0.13797447E+00 0.31275310E+03</pdfrwt>
<pdfrwt beam="2">  1       21 0.19136434E-01 0.31275310E+03</pdfrwt>
<totfact> 0.86605999E+03</totfact>
</mgrwt>
</event>
<event>
 4    1  0.3974123E+000  0.2041733E+03  0.7546771E-02  0.1146265E+00
         21   -1    0    0  503  502  0.00000000000E+00  0.00000000000E+00  0.45091457716E+03  0.45091457716E+03  0.00000000000E+00 0. -1.
         21   -1    0    0  501  503 -0.00000000000E+00 -0.00000000000E+00 -0.10266883511E+03  0.10266883511E+03  0.00000000000E+00 0.  1.
          6    1    1    2  501    0  0.29497250161E+02  0.10434392360E+03  0.86795761990E+02  0.22185636448E+03  0.17300000000E+03 0. -1.
         -6    1    1    2    0  502 -0.29497250161E+02 -0.10434392360E+03  0.26144998006E+03  0.33172704779E+03  0.17300000000E+03 0. -1.
<mgrwt>
<rscale>  2 0.20417331E+03</rscale>
<asrwt>0</asrwt>
<pdfrwt beam="1">  1       21 0.69371472E-01 0.20417331E+03</pdfrwt>
<pdfrwt beam="2">  1       21 0.15795206E-01 0.20417331E+03</pdfrwt>
<totfact> 0.67119689E+04</totfact>
</mgrwt>
</event>
<event>
 4    1  0.3974123E+000  0.1892811E+03  0.7546771E-02  0.1159111E+00
         21   -1    0    0  501  502  0.00000000000E+00  0.00000000000E+00  0.10066419780E+03  0.10066419780E+03  0.00000000000E+00 0. -1.
         21   -1    0    0  502  503 -0.00000000000E+00 -0.00000000000E+00 -0.36109026231E+03  0.36109026231E+03  0.00000000000E+00 0. -1.
          6    1    1    2  501    0 -0.65648539756E+02 -0.39857375625E+02 -0.10255817907E+03  0.21528009954E+03  0.17300000000E+03 0. -1.
         -6    1    1    2    0  503  0.65648539756E+02  0.39857375625E+02 -0.15786788545E+03  0.24647436057E+03  0.17300000000E+03 0. -1.
<mgrwt>
<rscale>  2 0.18928112E+03</rscale>
<asrwt>0</asrwt>
<pdfrwt beam="1">  1       21 0.15486800E-01 0.18928112E+03</pdfrwt>
<pdfrwt beam="2">  1       21 0.55552348E-01 0.18928112E+03</pdfrwt>
<totfact> 0.11316279E+05</totfact>
</mgrwt>
</event>
<event>
 4    1  0.3974123E+000  0.3742502E+03  0.7546771E-02  0.1053080E+00
         21   -1    0    0  501  502  0.00000000000E+00  0.00000000000E+00  0.29480796379E+03  0.29480796379E+03  0.00000000000E+00 0. -1.
         21   -1    0    0  502  503 -0.00000000000E+00 -0.00000000000E+00 -0.47770583186E+03  0.47770583186E+03  0.00000000000E+00 0.  1.
          6    1    1    2  501    0  0.26854055147E+03 -0.19498757350E+03 -0.62919553207E+02  0.37950237388E+03  0.17300000000E+03 0. -1.
         -6    1    1    2    0  503 -0.26854055147E+03  0.19498757350E+03 -0.11997831486E+03  0.39301142177E+03  0.17300000000E+03 0.  1.
<mgrwt>
<rscale>  2 0.37425016E+03</rscale>
<asrwt>0</asrwt>
<pdfrwt beam="1">  1       21 0.45355072E-01 0.37425016E+03</pdfrwt>
<pdfrwt beam="2">  1       21 0.73493204E-01 0.37425016E+03</pdfrwt>
<totfact> 0.70495724E+03</totfact>
</mgrwt>
</event>
<event>
 4    1  0.3974123E+000  0.1874659E+03  0.7546771E-02  0.1160767E+00
         21   -1    0    0  503  502  0.00000000000E+00  0.00000000000E+00  0.15312482348E+03  0.15312482348E+03  0.00000000000E+00 0. -1.
         21   -1    0    0  501  503 -0.00000000000E+00 -0.00000000000E+00 -0.25248922468E+03  0.25248922468E+03  0.00000000000E+00 0. -1.
          6    1    1    2  501    0 -0.71023644329E+02  0.13043167637E+02 -0.11086669092E+03  0.21779555880E+03  0.17300000000E+03 0. -1.
         -6    1    1    2    0  502  0.71023644329E+02 -0.13043167637E+02  0.11502289725E+02  0.18781848936E+03  0.17300000000E+03 0. -1.
<mgrwt>
<rscale>  2 0.18746595E+03</rscale>
<asrwt>0</asrwt>
<pdfrwt beam="1">  1       21 0.23557666E-01 0.18746595E+03</pdfrwt>
<pdfrwt beam="2">  1       21 0.38844496E-01 0.18746595E+03</pdfrwt>
<totfact> 0.10858668E+05</totfact>
</mgrwt>
</event>
<event>
 4    1  0.3974123E+000  0.2131354E+03  0.7546771E-02  0.1139107E+00
         21   -1    0    0  501  502  0.00000000000E+00  0.00000000000E+00  0.15589074900E+04  0.15589074900E+04  0.00000000000E+00 0. -1.
         21   -1    0    0  502  503 -0.00000000000E+00 -0.00000000000E+00 -0.29885866132E+02  0.29885866132E+02  0.00000000000E+00 0. -1.
          6    1    1    2  501    0  0.85439246878E+02  0.90541923485E+02  0.89000068749E+03  0.91516551976E+03  0.17300000000E+03 0. -1.
         -6    1    1    2    0  503 -0.85439246878E+02 -0.90541923485E+02  0.63902093642E+03  0.67362783642E+03  0.17300000000E+03 0. -1.
<mgrwt>
<rscale>  2 0.21313541E+03</rscale>
<asrwt>0</asrwt>
<pdfrwt beam="1">  1       21 0.23983186E+00 0.21313541E+03</pdfrwt>
<pdfrwt beam="2">  1       21 0.45978268E-02 0.21313541E+03</pdfrwt>
<totfact> 0.23283348E+04</totfact>
</mgrwt>
</event>
<event>
 4    1  0.3974123E+000  0.1929280E+03  0.7546771E-02  0.1155847E+00
         21   -1    0    0  503  502  0.00000000000E+00  0.00000000000E+00  0.39768765107E+02  0.39768765107E+02  0.00000000000E+00 0. -1.
         21   -1    0    0  501  503 -0.00000000000E+00 -0.00000000000E+00 -0.93595806619E+03  0.93595806619E+03  0.00000000000E+00 0. -1.
          6    1    1    2  501    0 -0.82977724814E+02 -0.20172431523E+02 -0.44602995338E+03  0.48596702473E+03  0.17300000000E+03 0.  1.
         -6    1    1    2    0  502  0.82977724814E+02  0.20172431523E+02 -0.45015934770E+03  0.48975980657E+03  0.17300000000E+03 0.  1.
<mgrwt>
<rscale>  2 0.19292804E+03</rscale>
<asrwt>0</asrwt>
<pdfrwt beam="1">  1       21 0.61182718E-02 0.19292804E+03</pdfrwt>
<pdfrwt beam="2">  1       21 0.14399354E+00 0.19292804E+03</pdfrwt>
<totfact> 0.63429367E+04</totfact>
</mgrwt>
</event>
<event>
 4    1  0.3974123E+000  0.1859100E+03  0.7546771E-02  0.1162203E+00
         21   -1    0    0  503  502  0.00000000000E+00  0.00000000000E+00  0.29465653312E+03  0.29465653312E+03  0.00000000000E+00 0.  1.
         21   -1    0    0  501  503 -0.00000000000E+00 -0.00000000000E+00 -0.12300547211E+03  0.12300547211E+03  0.00000000000E+00 0. -1.
          6    1    1    2  501    0 -0.62970422856E+02  0.25850467895E+02  0.40840530994E+02  0.19034303196E+03  0.17300000000E+03 0.  1.
         -6    1    1    2    0  502  0.62970422856E+02 -0.25850467895E+02  0.13081053002E+03  0.22731897327E+03  0.17300000000E+03 0.  1.
<mgrwt>
<rscale>  2 0.18590998E+03</rscale>
<asrwt>0</asrwt>
<pdfrwt beam="1">  1       21 0.45331774E-01 0.18590998E+03</pdfrwt>
<pdfrwt beam="2">  1       21 0.18923919E-01 0.18590998E+03</pdfrwt>
<totfact> 0.11972249E+05</totfact>
</mgrwt>
</event>
<event>
 4    1  0.3974123E+000  0.1747873E+03  0.7546771E-02  0.1172945E+00
         21   -1    0    0  501  502  0.00000000000E+00  0.00000000000E+00  0.52998038026E+03  0.52998038026E+03  0.00000000000E+00 0. -1.
         21   -1    0    0  502  503 -0.00000000000E+00 -0.00000000000E+00 -0.90511522016E+02  0.90511522016E+02  0.00000000000E+00 0. -1.
          6    1    1    2  501    0  0.11578564179E+02  0.22080186988E+02  0.40668748742E+03  0.44265710231E+03  0.17300000000E+03 0. -1.
         -6    1    1    2    0  503 -0.11578564179E+02 -0.22080186988E+02  0.32781370830E+02  0.17783479997E+03  0.17300000000E+03 0. -1.
<mgrwt>
<rscale>  2 0.17478729E+03</rscale>
<asrwt>0</asrwt>
<pdfrwt beam="1">  1       21 0.81535441E-01 0.17478729E+03</pdfrwt>
<pdfrwt beam="2">  1       21 0.13924850E-01 0.17478729E+03</pdfrwt>
<totfact> 0.59646466E+04</totfact>
</mgrwt>
</event>
<event>
 4    1  0.3974123E+000  0.1968433E+03  0.7546771E-02  0.1152430E+00
         21   -1    0    0  503  502  0.00000000000E+00  0.00000000000E+00  0.12043604487E+04  0.12043604487E+04  0.00000000000E+00 0. -1.
         21   -1    0    0  501  503 -0.00000000000E+00 -0.00000000000E+00 -0.33514163324E+02  0.33514163324E+02  0.00000000000E+00 0.  1.
          6    1    1    2  501    0  0.45206413485E+02 -0.82308308713E+02  0.46158470703E+03  0.50180446318E+03  0.17300000000E+03 0.  1.
         -6    1    1    2    0  502 -0.45206413485E+02  0.82308308713E+02  0.70926157836E+03  0.73607014886E+03  0.17300000000E+03 0. -1.
<mgrwt>
<rscale>  2 0.19684328E+03</rscale>
<asrwt>0</asrwt>
<pdfrwt beam="1">  1       21 0.18528619E+00 0.19684328E+03</pdfrwt>
<pdfrwt beam="2">  1       21 0.51560260E-02 0.19684328E+03</pdfrwt>
<totfact> 0.42681439E+04</totfact>
</mgrwt>
</event>
<event>
 4    1  0.3974123E+000  0.3384213E+03  0.7546771E-02  0.1067470E+00
         21   -1    0    0  501  502  0.00000000000E+00  0.00000000000E+00  0.12242810398E+03  0.12242810398E+03  0.00000000000E+00 0. -1.
         21   -1    0    0  502  503 -0.00000000000E+00 -0.00000000000E+00 -0.10688692195E+04  0.10688692195E+04  0.00000000000E+00 0.  1.
          6    1    1    2  501    0  0.25933466818E+03 -0.13170236585E+03 -0.26279957683E+03  0.42847707159E+03  0.17300000000E+03 0. -1.
         -6    1    1    2    0  503 -0.25933466818E+03  0.13170236585E+03 -0.68364153866E+03  0.76282025188E+03  0.17300000000E+03 0.  1.
<mgrwt>
<rscale>  2 0.33842131E+03</rscale>
<asrwt>0</asrwt>
<pdfrwt beam="1">  1       21 0.18835093E-01 0.33842131E+03</pdfrwt>
<pdfrwt beam="2">  1       21 0.16444142E+00 0.33842131E+03</pdfrwt>
<totfact> 0.54919895E+03</totfact>
</mgrwt>
</event>
<event>
 4    1  0.3974123E+000  0.2003485E+03  0.7546771E-02  0.1149445E+00
         21   -1    0    0  501  502  0.00000000000E+00  0.00000000000E+00  0.20100974833E+04  0.20100974833E+04  0.00000000000E+00 0.  1.
         21   -1    0    0  502  503 -0.00000000000E+00 -0.00000000000E+00 -0.21333449402E+02  0.21333449402E+02  0.00000000000E+00 0.  1.
          6    1    1    2  501    0  0.51970412827E+02  0.86657912924E+02  0.12512616431E+04  0.12671997543E+04  0.17300000000E+03 0.  1.
         -6    1    1    2    0  503 -0.51970412827E+02 -0.86657912924E+02  0.73750239075E+03  0.76423117840E+03  0.17300000000E+03 0.  1.
<mgrwt>
<rscale>  2 0.20034849E+03</rscale>
<asrwt>0</asrwt>
<pdfrwt beam="1">  1       21 0.30924562E+00 0.20034849E+03</pdfrwt>
<pdfrwt beam="2">  1       21 0.32820707E-02 0.20034849E+03</pdfrwt>
<totfact> 0.16331242E+04</totfact>
</mgrwt>
</event>
<event>
 4    1  0.3974123E+000  0.2459966E+03  0.7546771E-02  0.1115861E+00
         21   -1    0    0  501  502  0.00000000000E+00  0.00000000000E+00  0.17705169667E+03  0.17705169667E+03  0.00000000000E+00 0.  1.
         21   -1    0    0  502  503 -0.00000000000E+00 -0.00000000000E+00 -0.46512563416E+03  0.46512563416E+03  0.00000000000E+00 0. -1.
          6    1    1    2  501    0  0.11277567522E+03  0.13366743733E+03  0.21306003663E+02  0.24691756219E+03  0.17300000000E+03 0.  1.
         -6    1    1    2    0  503 -0.11277567522E+03 -0.13366743733E+03 -0.30937994115E+03  0.39525976865E+03  0.17300000000E+03 0. -1.
<mgrwt>
<rscale>  2 0.24599662E+03</rscale>
<asrwt>0</asrwt>
<pdfrwt beam="1">  1       21 0.27238723E-01 0.24599662E+03</pdfrwt>
<pdfrwt beam="2">  1       21 0.71557788E-01 0.24599662E+03</pdfrwt>
<totfact> 0.22030808E+04</totfact>
</mgrwt>
</event>
<event>
 4    1  0.3974123E+000  0.2213927E+03  0.7546771E-02  0.1132849E+00
         21   -1    0    0  501  502  0.00000000000E+00  0.00000000000E+00  0.13307721496E+03  0.13307721496E+03  0.00000000000E+00 0. -1.
         21   -1    0    0  502  503 -0.00000000000E+00 -0.00000000000E+00 -0.46592902221E+03  0.46592902221E+03  0.00000000000E+00 0.  1.
          6    1    1    2  501    0  0.10676342963E+03  0.87677254270E+02 -0.29340585210E+02  0.22332845937E+03  0.17300000000E+03 0. -1.
         -6    1    1    2    0  503 -0.10676342963E+03 -0.87677254270E+02 -0.30351122204E+03  0.37567777779E+03  0.17300000000E+03 0.  1.
<mgrwt>
<rscale>  2 0.22139271E+03</rscale>
<asrwt>0</asrwt>
<pdfrwt beam="1">  1       21 0.20473418E-01 0.22139271E+03</pdfrwt>
<pdfrwt beam="2">  1       21 0.71681389E-01 0.22139271E+03</pdfrwt>
<totfact> 0.38282523E+04</totfact>
</mgrwt>
</event>
<event>
 4    1  0.3974123E+000  0.2019502E+03  0.7546771E-02  0.1148104E+00
         21   -1    0    0  501  502  0.00000000000E+00  0.00000000000E+00  0.62618412730E+02  0.62618412730E+02  0.00000000000E+00 0.  1.
         21   -1    0    0  502  503 -0.00000000000E+00 -0.00000000000E+00 -0.65337625599E+03  0.65337625599E+03  0.00000000000E+00 0.  1.
          6    1    1    2  501    0  0.10390965513E+03  0.75927298190E+01 -0.27523647104E+03  0.34137806164E+03  0.17300000000E+03 0.  1.
         -6    1    1    2    0  503 -0.10390965513E+03 -0.75927298190E+01 -0.31552137223E+03  0.37461660709E+03  0.17300000000E+03 0.  1.
<mgrwt>
<rscale>  2 0.20195016E+03</rscale>
<asrwt>0</asrwt>
<pdfrwt beam="1">  1       21 0.96336013E-02 0.20195016E+03</pdfrwt>
<pdfrwt beam="2">  1       21 0.10051943E+00 0.20195016E+03</pdfrwt>
<totfact> 0.69971522E+04</totfact>
</mgrwt>
</event>
<event>
 4    1  0.3974123E+000  0.2672328E+03  0.7546771E-02  0.1102874E+00
         21   -1    0    0  501  502  0.00000000000E+00  0.00000000000E+00  0.13288724170E+04  0.13288724170E+04  0.00000000000E+00 0.  1.
         21   -1    0    0  502  503 -0.00000000000E+00 -0.00000000000E+00 -0.11997135152E+03  0.11997135152E+03  0.00000000000E+00 0.  1.
          6    1    1    2  501    0  0.17796337215E+03  0.99062535768E+02  0.11427020044E+04  0.11735336461E+04  0.17300000000E+03 0.  1.
         -6    1    1    2    0  503 -0.17796337215E+03 -0.99062535768E+02  0.66199061162E+02  0.27531012244E+03  0.17300000000E+03 0.  1.
<mgrwt>
<rscale>  2 0.26723276E+03</rscale>
<asrwt>0</asrwt>
<pdfrwt beam="1">  1       21 0.20444190E+00 0.26723276E+03</pdfrwt>
<pdfrwt beam="2">  1       21 0.18457132E-01 0.26723276E+03</pdfrwt>
<totfact> 0.31638066E+03</totfact>
</mgrwt>
</event>
<event>
 4    1  0.3974123E+000  0.2257842E+03  0.7546771E-02  0.1129643E+00
         21   -1    0    0  503  502  0.00000000000E+00  0.00000000000E+00  0.16493175927E+04  0.16493175927E+04  0.00000000000E+00 0. -1.
         21   -1    0    0  501  503 -0.00000000000E+00 -0.00000000000E+00 -0.30923232296E+02  0.30923232296E+02  0.00000000000E+00 0. -1.
          6    1    1    2  501    0 -0.11934581130E+03 -0.82498864981E+02  0.82732472582E+03  0.85758071769E+03  0.17300000000E+03 0. -1.
         -6    1    1    2    0  502  0.11934581130E+03  0.82498864981E+02  0.79106963459E+03  0.82266010731E+03  0.17300000000E+03 0. -1.
<mgrwt>
<rscale>  2 0.22578416E+03</rscale>
<asrwt>0</asrwt>
<pdfrwt beam="1">  1       21 0.25374110E+00 0.22578416E+03</pdfrwt>
<pdfrwt beam="2">  1       21 0.47574216E-02 0.22578416E+03</pdfrwt>
<totfact> 0.17985793E+04</totfact>
</mgrwt>
</event>
<event>
 4    1  0.3974123E+000  0.2787832E+03  0.7546771E-02  0.1096355E+00
         21   -1    0    0  501  502  0.00000000000E+00  0.00000000000E+00  0.27312700283E+03  0.27312700283E+03  0.00000000000E+00 0.  1.
         21   -1    0    0  502  503 -0.00000000000E+00 -0.00000000000E+00 -0.52471231431E+03  0.52471231431E+03  0.00000000000E+00 0.  1.
          6    1    1    2  501    0  0.29365162865E+02  0.21663047537E+03  0.14408773143E+03  0.31381738320E+03  0.17300000000E+03 0.  1.
         -6    1    1    2    0  503 -0.29365162865E+02 -0.21663047537E+03 -0.39567304290E+03  0.48402193394E+03  0.17300000000E+03 0.  1.
<mgrwt>
<rscale>  2 0.27878321E+03</rscale>
<asrwt>0</asrwt>
<pdfrwt beam="1">  1       21 0.42019540E-01 0.27878321E+03</pdfrwt>
<pdfrwt beam="2">  1       21 0.80724970E-01 0.27878321E+03</pdfrwt>
<totfact> 0.69584090E+03</totfact>
</mgrwt>
</event>
<event>
 4    1  0.3974123E+000  0.2081632E+03  0.7546771E-02  0.1143029E+00
         21   -1    0    0  501  502  0.00000000000E+00  0.00000000000E+00  0.23162907952E+04  0.23162907952E+04  0.00000000000E+00 0. -1.
         21   -1    0    0  502  503 -0.00000000000E+00 -0.00000000000E+00 -0.22197922124E+02  0.22197922124E+02  0.00000000000E+00 0. -1.
          6    1    1    2  501    0 -0.10064419688E+03 -0.57216051840E+02  0.16106963919E+04  0.16240919918E+04  0.17300000000E+03 0. -1.
         -6    1    1    2    0  503  0.10064419688E+03  0.57216051840E+02  0.68339648116E+03  0.71439672551E+03  0.17300000000E+03 0. -1.
<mgrwt>
<rscale>  2 0.20816323E+03</rscale>
<asrwt>0</asrwt>
<pdfrwt beam="1">  1       21 0.35635224E+00 0.20816323E+03</pdfrwt>
<pdfrwt beam="2">  1       21 0.34150668E-02 0.20816323E+03</pdfrwt>
<totfact> 0.80344089E+03</totfact>
</mgrwt>
</event>
<event>
 4    1  0.3974123E+000  0.2358979E+03  0.7546771E-02  0.1122556E+00
         21   -1    0    0  501  502  0.00000000000E+00  0.00000000000E+00  0.28301497119E+03  0.28301497119E+03  0.00000000000E+00 0.  1.
         21   -1    0    0  502  503 -0.00000000000E+00 -0.00000000000E+00 -0.21531111338E+03  0.21531111338E+03  0.00000000000E+00 0.  1.
          6    1    1    2  501    0  0.60215412799E+02  0.14863690182E+03  0.10725422628E+03  0.25913566635E+03  0.17300000000E+03 0.  1.
         -6    1    1    2    0  503 -0.60215412799E+02 -0.14863690182E+03 -0.39550368476E+02  0.23919041822E+03  0.17300000000E+03 0.  1.
<mgrwt>
<rscale>  2 0.23589791E+03</rscale>
<asrwt>0</asrwt>
<pdfrwt beam="1">  1       21 0.43540765E-01 0.23589791E+03</pdfrwt>
<pdfrwt beam="2">  1       21 0.33124787E-01 0.23589791E+03</pdfrwt>
<totfact> 0.43586337E+04</totfact>
</mgrwt>
</event>
<event>
 4    1  0.3974123E+000  0.1843699E+03  0.7546771E-02  0.1163640E+00
         21   -1    0    0  503  502  0.00000000000E+00  0.00000000000E+00  0.93449047785E+02  0.93449047785E+02  0.00000000000E+00 0.  1.
         21   -1    0    0  501  503 -0.00000000000E+00 -0.00000000000E+00 -0.36497157962E+03  0.36497157962E+03  0.00000000000E+00 0. -1.
          6    1    1    2  501    0  0.30911434333E+02  0.55747133304E+02 -0.14901214646E+03  0.23705881008E+03  0.17300000000E+03 0. -1.
         -6    1    1    2    0  502 -0.30911434333E+02 -0.55747133304E+02 -0.12251038537E+03  0.22136181732E+03  0.17300000000E+03 0.  1.
<mgrwt>
<rscale>  2 0.18436990E+03</rscale>
<asrwt>0</asrwt>
<pdfrwt beam="1">  1       21 0.14376777E-01 0.18436990E+03</pdfrwt>
<pdfrwt beam="2">  1       21 0.56149474E-01 0.18436990E+03</pdfrwt>
<totfact> 0.12687032E+05</totfact>
</mgrwt>
</event>
<event>
 4    1  0.3974123E+000  0.2040676E+03  0.7546771E-02  0.1146352E+00
         21   -1    0    0  503  502  0.00000000000E+00  0.00000000000E+00  0.24357876167E+03  0.24357876167E+03  0.00000000000E+00 0. -1.
         21   -1    0    0  501  503 -0.00000000000E+00 -0.00000000000E+00 -0.28868931164E+03  0.28868931164E+03  0.00000000000E+00 0.  1.
          6    1    1    2  501    0  0.10028579085E+03  0.40710558661E+02 -0.19250365912E+03  0.28053742746E+03  0.17300000000E+03 0.  1.
         -6    1    1    2    0  502 -0.10028579085E+03 -0.40710558661E+02  0.14739310916E+03  0.25173064585E+03  0.17300000000E+03 0. -1.
<mgrwt>
<rscale>  2 0.20406761E+03</rscale>
<asrwt>0</asrwt>
<pdfrwt beam="1">  1       21 0.37473656E-01 0.20406761E+03</pdfrwt>
<pdfrwt beam="2">  1       21 0.44413740E-01 0.20406761E+03</pdfrwt>
<totfact> 0.33227597E+04</totfact>
</mgrwt>
</event>
<event>
 4    1  0.3974123E+000  0.1873868E+03  0.7546771E-02  0.1160840E+00
         21   -1    0    0  503  502  0.00000000000E+00  0.00000000000E+00  0.37641928208E+03  0.37641928208E+03  0.00000000000E+00 0. -1.
         21   -1    0    0  501  503 -0.00000000000E+00 -0.00000000000E+00 -0.10796180966E+03  0.10796180966E+03  0.00000000000E+00 0. -1.
          6    1    1    2  501    0 -0.12961785497E+02 -0.70829341232E+02  0.44927723693E+02  0.19269744113E+03  0.17300000000E+03 0. -1.
         -6    1    1    2    0  502  0.12961785497E+02  0.70829341232E+02  0.22352974873E+03  0.29168365061E+03  0.17300000000E+03 0. -1.
<mgrwt>
<rscale>  2 0.18738678E+03</rscale>
<asrwt>0</asrwt>
<pdfrwt beam="1">  1       21 0.57910658E-01 0.18738678E+03</pdfrwt>
<pdfrwt beam="2">  1       21 0.16609509E-01 0.18738678E+03</pdfrwt>
<totfact> 0.91204908E+04</totfact>
</mgrwt>
</event>
<event>
 4    1  0.3974123E+000  0.2097376E+03  0.7546771E-02  0.1141774E+00
         21   -1    0    0  501  502  0.00000000000E+00  0.00000000000E+00  0.31406545033E+03  0.31406545033E+03  0.00000000000E+00 0. -1.
         21   -1    0    0  502  503 -0.00000000000E+00 -0.00000000000E+00 -0.34564215583E+03  0.34564215583E+03  0.00000000000E+00 0. -1.
          6    1    1    2  501    0  0.25441237493E+02 -0.11581707677E+03  0.23859849067E+03  0.31767765358E+03  0.17300000000E+03 0. -1.
         -6    1    1    2    0  503 -0.25441237493E+02  0.11581707677E+03 -0.27017519617E+03  0.34202995258E+03  0.17300000000E+03 0. -1.
<mgrwt>
<rscale>  2 0.20973758E+03</rscale>
<asrwt>0</asrwt>
<pdfrwt beam="1">  1       21 0.48317762E-01 0.20973758E+03</pdfrwt>
<pdfrwt beam="2">  1       21 0.53175716E-01 0.20973758E+03</pdfrwt>
<totfact> 0.13554078E+04</totfact>
</mgrwt>
</event>
<event>
 4    1  0.3974123E+000  0.2483245E+03  0.7546771E-02  0.1114368E+00
         21   -1    0    0  503  502  0.00000000000E+00  0.00000000000E+00  0.10855360221E+03  0.10855360221E+03  0.00000000000E+00 0. -1.
         21   -1    0    0  501  503 -0.00000000000E+00 -0.00000000000E+00 -0.13167551584E+04  0.13167551584E+04  0.00000000000E+00 0. -1.
          6    1    1    2  501    0  0.11173522079E+02  0.17779543412E+03 -0.11414772865E+04  0.11681761253E+04  0.17300000000E+03 0. -1.
         -6    1    1    2    0  502 -0.11173522079E+02 -0.17779543412E+03 -0.66724269657E+02  0.25713263533E+03  0.17300000000E+03 0. -1.
<mgrwt>
<rscale>  2 0.24832451E+03</rscale>
<asrwt>0</asrwt>
<pdfrwt beam="1">  1       21 0.16700554E-01 0.24832451E+03</pdfrwt>
<pdfrwt beam="2">  1       21 0.20257772E+00 0.24832451E+03</pdfrwt>
<totfact> 0.39717827E+03</totfact>
</mgrwt>
</event>
<event>
 4    1  0.3974123E+000  0.2755994E+03  0.7546771E-02  0.1098117E+00
         21   -1    0    0  503  502  0.00000000000E+00  0.00000000000E+00  0.75644033968E+03  0.75644033968E+03  0.00000000000E+00 0.  1.
         21   -1    0    0  501  503 -0.00000000000E+00 -0.00000000000E+00 -0.14857657863E+03  0.14857657863E+03  0.00000000000E+00 0.  1.
          6    1    1    2  501    0 -0.18799787740E+03  0.10335765215E+03  0.46288215577E+02  0.27945948734E+03  0.17300000000E+03 0.  1.
         -6    1    1    2    0  502  0.18799787740E+03 -0.10335765215E+03  0.56157554547E+03  0.62555743096E+03  0.17300000000E+03 0.  1.
<mgrwt>
<rscale>  2 0.27559936E+03</rscale>
<asrwt>0</asrwt>
<pdfrwt beam="1">  1       21 0.11637544E+00 0.27559936E+03</pdfrwt>
<pdfrwt beam="2">  1       21 0.22857936E-01 0.27559936E+03</pdfrwt>
<totfact> 0.97151215E+03</totfact>
</mgrwt>
</event>
<event>
 4    1  0.3974123E+000  0.3035720E+03  0.7546771E-02  0.1083469E+00
         21   -1    0    0  501  502  0.00000000000E+00  0.00000000000E+00  0.12532012972E+04  0.12532012972E+04  0.00000000000E+00 0.  1.
         21   -1    0    0  502  503 -0.00000000000E+00 -0.00000000000E+00 -0.14226813443E+03  0.14226813443E+03  0.00000000000E+00 0. -1.
          6    1    1    2  501    0  0.23440304440E+03  0.85335491958E+02  0.10404368457E+04  0.10838195253E+04  0.17300000000E+03 0.  1.
         -6    1    1    2    0  503 -0.23440304440E+03 -0.85335491958E+02  0.70496317020E+02  0.31164990634E+03  0.17300000000E+03 0. -1.
<mgrwt>
<rscale>  2 0.30357196E+03</rscale>
<asrwt>0</asrwt>
<pdfrwt beam="1">  1       21 0.19280019E+00 0.30357196E+03</pdfrwt>
<pdfrwt beam="2">  1       21 0.21887406E-01 0.30357196E+03</pdfrwt>
<totfact> 0.26694643E+03</totfact>
</mgrwt>
</event>
<event>
 4    1  0.3974123E+000  0.1839057E+03  0.7546771E-02  0.1164076E+00
         21   -1    0    0  501  502  0.00000000000E+00  0.00000000000E+00  0.21159519390E+03  0.21159519390E+03  0.00000000000E+00 0.  1.
         21   -1    0    0  502  503 -0.00000000000E+00 -0.00000000000E+00 -0.19025550631E+03  0.19025550631E+03  0.00000000000E+00 0.  1.
          6    1    1    2  501    0 -0.39577902790E+02 -0.48227446254E+02  0.91006971678E+02  0.20519153456E+03  0.17300000000E+03 0.  1.
         -6    1    1    2    0  503  0.39577902790E+02  0.48227446254E+02 -0.69667284091E+02  0.19665916565E+03  0.17300000000E+03 0.  1.
<mgrwt>
<rscale>  2 0.18390567E+03</rscale>
<asrwt>0</asrwt>
<pdfrwt beam="1">  1       21 0.32553107E-01 0.18390567E+03</pdfrwt>
<pdfrwt beam="2">  1       21 0.29270078E-01 0.18390567E+03</pdfrwt>
<totfact> 0.10185308E+05</totfact>
</mgrwt>
</event>
<event>
 4    1  0.3974123E+000  0.2352390E+03  0.7546771E-02  0.1123006E+00
         21   -1    0    0  503  502  0.00000000000E+00  0.00000000000E+00  0.68666208469E+03  0.68666208469E+03  0.00000000000E+00 0. -1.
         21   -1    0    0  501  503 -0.00000000000E+00 -0.00000000000E+00 -0.87726853183E+02  0.87726853183E+02  0.00000000000E+00 0.  1.
          6    1    1    2  501    0 -0.93387565453E+02 -0.12917881895E+03  0.18902239066E+03  0.30177287621E+03  0.17300000000E+03 0. -1.
         -6    1    1    2    0  502  0.93387565453E+02  0.12917881895E+03  0.40991284085E+03  0.47261606166E+03  0.17300000000E+03 0. -1.
<mgrwt>
<rscale>  2 0.23523904E+03</rscale>
<asrwt>0</asrwt>
<pdfrwt beam="1">  1       21 0.10564032E+00 0.23523904E+03</pdfrwt>
<pdfrwt beam="2">  1       21 0.13496439E-01 0.23523904E+03</pdfrwt>
<totfact> 0.33442398E+04</totfact>
</mgrwt>
</event>
<event>
 4    1  0.3974123E+000  0.1913376E+03  0.7546771E-02  0.1157260E+00
         21   -1    0    0  503  502  0.00000000000E+00  0.00000000000E+00  0.37867477380E+03  0.37867477380E+03  0.00000000000E+00 0. -1.
         21   -1    0    0  501  503 -0.00000000000E+00 -0.00000000000E+00 -0.10082898258E+03  0.10082898258E+03  0.00000000000E+00 0. -1.
          6    1    1    2  501    0 -0.15713465489E+02 -0.80213298957E+02  0.90285926770E+02  0.21156945644E+03  0.17300000000E+03 0. -1.
         -6    1    1    2    0  502  0.15713465489E+02  0.80213298957E+02  0.18755986445E+03  0.26793429993E+03  0.17300000000E+03 0. -1.
<mgrwt>
<rscale>  2 0.19133762E+03</rscale>
<asrwt>0</asrwt>
<pdfrwt beam="1">  1       21 0.58257657E-01 0.19133762E+03</pdfrwt>
<pdfrwt beam="2">  1       21 0.15512151E-01 0.19133762E+03</pdfrwt>
<totfact> 0.10189757E+05</totfact>
</mgrwt>
</event>
<event>
 4    1  0.3974123E+000  0.1773274E+03  0.7546771E-02  0.1170415E+00
         21   -1    0    0  501  502  0.00000000000E+00  0.00000000000E+00  0.44700690964E+03  0.44700690964E+03  0.00000000000E+00 0. -1.
         21   -1    0    0  502  503 -0.00000000000E+00 -0.00000000000E+00 -0.84317452002E+02  0.84317452002E+02  0.00000000000E+00 0. -1.
          6    1    1    2  501    0 -0.26087710012E+02  0.28903931396E+02  0.28948730526E+03  0.33948181950E+03  0.17300000000E+03 0. -1.
         -6    1    1    2    0  503  0.26087710012E+02 -0.28903931396E+02  0.73202152384E+02  0.19184254215E+03  0.17300000000E+03 0. -1.
<mgrwt>
<rscale>  2 0.17732740E+03</rscale>
<asrwt>0</asrwt>
<pdfrwt beam="1">  1       21 0.68770292E-01 0.17732740E+03</pdfrwt>
<pdfrwt beam="2">  1       21 0.12971916E-01 0.17732740E+03</pdfrwt>
<totfact> 0.98904867E+04</totfact>
</mgrwt>
</event>
<event>
 4    1  0.3974123E+000  0.1869724E+03  0.7546771E-02  0.1161221E+00
         21   -1    0    0  503  502  0.00000000000E+00  0.00000000000E+00  0.10989497494E+03  0.10989497494E+03  0.00000000000E+00 0.  1.
         21   -1    0    0  501  503 -0.00000000000E+00 -0.00000000000E+00 -0.32963665687E+03  0.32963665687E+03  0.00000000000E+00 0.  1.
          6    1    1    2  501    0 -0.15688388794E+02 -0.69163251975E+02 -0.68775205309E+02  0.19922025457E+03  0.17300000000E+03 0.  1.
         -6    1    1    2    0  502  0.15688388794E+02  0.69163251975E+02 -0.15096647662E+03  0.24031137723E+03  0.17300000000E+03 0.  1.
<mgrwt>
<rscale>  2 0.18697241E+03</rscale>
<asrwt>0</asrwt>
<pdfrwt beam="1">  1       21 0.16906919E-01 0.18697241E+03</pdfrwt>
<pdfrwt beam="2">  1       21 0.50713332E-01 0.18697241E+03</pdfrwt>
<totfact> 0.11681915E+05</totfact>
</mgrwt>
</event>
<event>
 4    1  0.3974123E+000  0.2532175E+03  0.7546771E-02  0.1111288E+00
         21   -1    0    0  501  502  0.00000000000E+00  0.00000000000E+00  0.20591098916E+03  0.20591098916E+03  0.00000000000E+00 0.  1.
         21   -1    0    0  502  503 -0.00000000000E+00 -0.00000000000E+00 -0.43529912508E+03  0.43529912508E+03  0.00000000000E+00 0. -1.
          6    1    1    2  501    0  0.17715595987E+03  0.52970367842E+02  0.56356337247E+02  0.25941305043E+03  0.17300000000E+03 0.  1.
         -6    1    1    2    0  503 -0.17715595987E+03 -0.52970367842E+02 -0.28574447317E+03  0.38179706381E+03  0.17300000000E+03 0. -1.
<mgrwt>
<rscale>  2 0.25321748E+03</rscale>
<asrwt>0</asrwt>
<pdfrwt beam="1">  1       21 0.31678614E-01 0.25321748E+03</pdfrwt>
<pdfrwt beam="2">  1       21 0.66969096E-01 0.25321748E+03</pdfrwt>
<totfact> 0.18922453E+04</totfact>
</mgrwt>
</event>
<event>
 4    1  0.3974123E+000  0.1992948E+03  0.7546771E-02  0.1150335E+00
         21   -1    0    0  501  502  0.00000000000E+00  0.00000000000E+00  0.52086159720E+03  0.52086159720E+03  0.00000000000E+00 0.  1.
         21   -1    0    0  502  503 -0.00000000000E+00 -0.00000000000E+00 -0.10963701467E+03  0.10963701467E+03  0.00000000000E+00 0.  1.
          6    1    1    2  501    0 -0.56973347747E+02 -0.80891611212E+02  0.37956467567E+03  0.42870474471E+03  0.17300000000E+03 0.  1.
         -6    1    1    2    0  503  0.56973347747E+02  0.80891611212E+02  0.31659906855E+02  0.20179386715E+03  0.17300000000E+03 0.  1.
<mgrwt>
<rscale>  2 0.19929479E+03</rscale>
<asrwt>0</asrwt>
<pdfrwt beam="1">  1       21 0.80132552E-01 0.19929479E+03</pdfrwt>
<pdfrwt beam="2">  1       21 0.16867233E-01 0.19929479E+03</pdfrwt>
<totfact> 0.43218772E+04</totfact>
</mgrwt>
</event>
<event>
 4    1  0.3974123E+000  0.1754474E+03  0.7546771E-02  0.1172283E+00
         21   -1    0    0  503  502  0.00000000000E+00  0.00000000000E+00  0.27541444123E+03  0.27541444123E+03  0.00000000000E+00 0.  1.
         21   -1    0    0  501  503 -0.00000000000E+00 -0.00000000000E+00 -0.20467459183E+03  0.20467459183E+03  0.00000000000E+00 0.  1.
          6    1    1    2  501    0 -0.92079360459E+01 -0.27713170743E+02 -0.12635954336E+03  0.21621410712E+03  0.17300000000E+03 0.  1.
         -6    1    1    2    0  502  0.92079360459E+01  0.27713170743E+02  0.19709939275E+03  0.26387492594E+03  0.17300000000E+03 0.  1.
<mgrwt>
<rscale>  2 0.17544744E+03</rscale>
<asrwt>0</asrwt>
<pdfrwt beam="1">  1       21 0.42371452E-01 0.17544744E+03</pdfrwt>
<pdfrwt beam="2">  1       21 0.31488399E-01 0.17544744E+03</pdfrwt>
<totfact> 0.52373314E+04</totfact>
</mgrwt>
</event>
<event>
 4    1  0.3974123E+000  0.2185934E+03  0.7546771E-02  0.1134936E+00
         21   -1    0    0  503  502  0.00000000000E+00  0.00000000000E+00  0.46149767010E+03  0.46149767010E+03  0.00000000000E+00 0. -1.
         21   -1    0    0  501  503 -0.00000000000E+00 -0.00000000000E+00 -0.24032481599E+03  0.24032481599E+03  0.00000000000E+00 0. -1.
          6    1    1    2  501    0  0.13361691200E+03  0.77985530099E+00 -0.15415276012E+03  0.26748114102E+03  0.17300000000E+03 0. -1.
         -6    1    1    2    0  502 -0.13361691200E+03 -0.77985530099E+00  0.37532561423E+03  0.43434134508E+03  0.17300000000E+03 0. -1.
<mgrwt>
<rscale>  2 0.21859343E+03</rscale>
<asrwt>0</asrwt>
<pdfrwt beam="1">  1       21 0.70999641E-01 0.21859343E+03</pdfrwt>
<pdfrwt beam="2">  1       21 0.36973049E-01 0.21859343E+03</pdfrwt>
<totfact> 0.12459646E+04</totfact>
</mgrwt>
</event>
<event>
 4    1  0.3974123E+000  0.1964310E+03  0.7546771E-02  0.1152786E+00
         21   -1    0    0  501  502  0.00000000000E+00  0.00000000000E+00  0.31112298211E+03  0.31112298211E+03  0.00000000000E+00 0.  1.
         21   -1    0    0  502  503 -0.00000000000E+00 -0.00000000000E+00 -0.64359335565E+03  0.64359335565E+03  0.00000000000E+00 0.  1.
          6    1    1    2  501    0  0.31164004296E+02 -0.87663811659E+02  0.26267115377E+03  0.32799584458E+03  0.17300000000E+03 0.  1.
         -6    1    1    2    0  503 -0.31164004296E+02  0.87663811659E+02 -0.59514152731E+03  0.62672049318E+03  0.17300000000E+03 0.  1.
<mgrwt>
<rscale>  2 0.19643100E+03</rscale>
<asrwt>0</asrwt>
<pdfrwt beam="1">  1       21 0.47865075E-01 0.19643100E+03</pdfrwt>
<pdfrwt beam="2">  1       21 0.99014362E-01 0.19643100E+03</pdfrwt>
<totfact> 0.34953946E+03</totfact>
</mgrwt>
</event>
<event>
 4    1  0.3974123E+000  0.1763704E+03  0.7546771E-02  0.1171363E+00
         21   -1    0    0  503  502  0.00000000000E+00  0.00000000000E+00  0.27755219432E+03  0.27755219432E+03  0.00000000000E+00 0.  1.
         21   -1    0    0  501  503 -0.00000000000E+00 -0.00000000000E+00 -0.10507273739E+04  0.10507273739E+04  0.00000000000E+00 0.  1.
          6    1    1    2  501    0 -0.34280373707E+02 -0.15415322284E+01 -0.10143090595E+04  0.10295287216E+04  0.17300000000E+03 0.  1.
         -6    1    1    2    0  502  0.34280373707E+02  0.15415322284E+01  0.24113387991E+03  0.29875084667E+03  0.17300000000E+03 0.  1.
<mgrwt>
<rscale>  2 0.17637041E+03</rscale>
<asrwt>0</asrwt>
<pdfrwt beam="1">  1       21 0.42700338E-01 0.17637041E+03</pdfrwt>
<pdfrwt beam="2">  1       21 0.16165036E+00 0.17637041E+03</pdfrwt>
<totfact> 0.13141776E+03</totfact>
</mgrwt>
</event>
<event>
 4    1  0.3974123E+000  0.1845866E+03  0.7546771E-02  0.1163436E+00
         21   -1    0    0  501  502  0.00000000000E+00  0.00000000000E+00  0.19499269977E+03  0.19499269977E+03  0.00000000000E+00 0. -1.
         21   -1    0    0  502  503 -0.00000000000E+00 -0.00000000000E+00 -0.28412772494E+03  0.28412772494E+03  0.00000000000E+00 0.  1.
          6    1    1    2  501    0  0.63853197981E+02 -0.81233437971E+01  0.10407750954E+03  0.21190645955E+03  0.17300000000E+03 0. -1.
         -6    1    1    2    0  503 -0.63853197981E+02  0.81233437971E+01 -0.19321253471E+03  0.26721396516E+03  0.17300000000E+03 0.  1.
<mgrwt>
<rscale>  2 0.18458662E+03</rscale>
<asrwt>0</asrwt>
<pdfrwt beam="1">  1       21 0.29998877E-01 0.18458662E+03</pdfrwt>
<pdfrwt beam="2">  1       21 0.43711957E-01 0.18458662E+03</pdfrwt>
<totfact> 0.53794707E+04</totfact>
</mgrwt>
</event>
<event>
 4    1  0.3974123E+000  0.1781988E+03  0.7546771E-02  0.1169558E+00
         21   -1    0    0  501  502  0.00000000000E+00  0.00000000000E+00  0.11040828002E+03  0.11040828002E+03  0.00000000000E+00 0. -1.
         21   -1    0    0  502  503 -0.00000000000E+00 -0.00000000000E+00 -0.33664649375E+03  0.33664649375E+03  0.00000000000E+00 0. -1.
          6    1    1    2  501    0  0.21839475703E+02 -0.36726465709E+02 -0.27810559699E+02  0.18035582390E+03  0.17300000000E+03 0. -1.
         -6    1    1    2    0  503 -0.21839475703E+02  0.36726465709E+02 -0.19842765403E+03  0.26669894988E+03  0.17300000000E+03 0. -1.
<mgrwt>
<rscale>  2 0.17819875E+03</rscale>
<asrwt>0</asrwt>
<pdfrwt beam="1">  1       21 0.16985889E-01 0.17819875E+03</pdfrwt>
<pdfrwt beam="2">  1       21 0.51791768E-01 0.17819875E+03</pdfrwt>
<totfact> 0.11119478E+05</totfact>
</mgrwt>
</event>
<event>
 4    1  0.3974123E+000  0.3541694E+03  0.7546771E-02  0.1060917E+00
         21   -1    0    0  503  502  0.00000000000E+00  0.00000000000E+00  0.27069556660E+03  0.27069556660E+03  0.00000000000E+00 0. -1.
         21   -1    0    0  501  503 -0.00000000000E+00 -0.00000000000E+00 -0.13924509511E+04  0.13924509511E+04  0.00000000000E+00 0.  1.
          6    1    1    2  501    0 -0.25807013730E+03 -0.17001992372E+03 -0.12401346392E+04  0.12897169820E+04  0.17300000000E+03 0.  1.
         -6    1    1    2    0  502  0.25807013730E+03  0.17001992372E+03  0.11837925469E+03  0.37342953574E+03  0.17300000000E+03 0. -1.
<mgrwt>
<rscale>  2 0.35416941E+03</rscale>
<asrwt>0</asrwt>
<pdfrwt beam="1">  1       21 0.41645471E-01 0.35416941E+03</pdfrwt>
<pdfrwt beam="2">  1       21 0.21422323E+00 0.35416941E+03</pdfrwt>
<totfact> 0.52496723E+02</totfact>
</mgrwt>
</event>
<event>
 4    1  0.3974123E+000  0.1996698E+03  0.7546771E-02  0.1150018E+00
         21   -1    0    0  503  502  0.00000000000E+00  0.00000000000E+00  0.24395821791E+03  0.24395821791E+03  0.00000000000E+00 0.  1.
         21   -1    0    0  501  503 -0.00000000000E+00 -0.00000000000E+00 -0.21277447769E+03  0.21277447769E+03  0.00000000000E+00 0.  1.
          6    1    1    2  501    0  0.14718283773E+02  0.98602162277E+02 -0.94392022307E+02  0.22085712159E+03  0.17300000000E+03 0.  1.
         -6    1    1    2    0  502 -0.14718283773E+02 -0.98602162277E+02  0.12557576253E+03  0.23587557402E+03  0.17300000000E+03 0.  1.
<mgrwt>
<rscale>  2 0.19966976E+03</rscale>
<asrwt>0</asrwt>
<pdfrwt beam="1">  1       21 0.37532034E-01 0.19966976E+03</pdfrwt>
<pdfrwt beam="2">  1       21 0.32734535E-01 0.19966976E+03</pdfrwt>
<totfact> 0.61298837E+04</totfact>
</mgrwt>
</event>
<event>
 4    1  0.3974123E+000  0.1916434E+03  0.7546771E-02  0.1156987E+00
         21   -1    0    0  501  502  0.00000000000E+00  0.00000000000E+00  0.23107467347E+03  0.23107467347E+03  0.00000000000E+00 0.  1.
         21   -1    0    0  502  503 -0.00000000000E+00 -0.00000000000E+00 -0.15898335792E+03  0.15898335792E+03  0.00000000000E+00 0.  1.
          6    1    1    2  501    0 -0.23105370038E+02  0.79147581934E+02  0.39235848509E+02  0.19561863321E+03  0.17300000000E+03 0.  1.
         -6    1    1    2    0  503  0.23105370038E+02 -0.79147581934E+02  0.32855467035E+02  0.19443939818E+03  0.17300000000E+03 0.  1.
<mgrwt>
<rscale>  2 0.19164341E+03</rscale>
<asrwt>0</asrwt>
<pdfrwt beam="1">  1       21 0.35549950E-01 0.19164341E+03</pdfrwt>
<pdfrwt beam="2">  1       21 0.24458978E-01 0.19164341E+03</pdfrwt>
<totfact> 0.12053205E+05</totfact>
</mgrwt>
</event>
<event>
 4    1  0.3974123E+000  0.1769173E+03  0.7546771E-02  0.1170820E+00
         21   -1    0    0  503  502  0.00000000000E+00  0.00000000000E+00  0.18572593882E+03  0.18572593882E+03  0.00000000000E+00 0.  1.
         21   -1    0    0  501  503 -0.00000000000E+00 -0.00000000000E+00 -0.22790721285E+03  0.22790721285E+03  0.00000000000E+00 0.  1.
          6    1    1    2  501    0 -0.26946239837E+02  0.25389477081E+02 -0.12665792079E+03  0.21758206334E+03  0.17300000000E+03 0.  1.
         -6    1    1    2    0  502  0.26946239837E+02 -0.25389477081E+02  0.84476646756E+02  0.19605108833E+03  0.17300000000E+03 0.  1.
<mgrwt>
<rscale>  2 0.17691728E+03</rscale>
<asrwt>0</asrwt>
<pdfrwt beam="1">  1       21 0.28573221E-01 0.17691728E+03</pdfrwt>
<pdfrwt beam="2">  1       21 0.35062648E-01 0.17691728E+03</pdfrwt>
<totfact> 0.92424302E+04</totfact>
</mgrwt>
</event>
<event>
 4    1  0.3974123E+000  0.1779764E+03  0.7546771E-02  0.1169776E+00
         21   -1    0    0  501  502  0.00000000000E+00  0.00000000000E+00  0.62171343654E+03  0.62171343654E+03  0.00000000000E+00 0. -1.
         21   -1    0    0  502  503 -0.00000000000E+00 -0.00000000000E+00 -0.55771327975E+02  0.55771327975E+02  0.00000000000E+00 0. -1.
          6    1    1    2  501    0 -0.12676995157E+01 -0.41773054462E+02  0.38258001506E+03  0.42195149373E+03  0.17300000000E+03 0. -1.
         -6    1    1    2    0  503  0.12676995157E+01  0.41773054462E+02  0.18336209350E+03  0.25553327078E+03  0.17300000000E+03 0. -1.
<mgrwt>
<rscale>  2 0.17797639E+03</rscale>
<asrwt>0</asrwt>
<pdfrwt beam="1">  1       21 0.95648216E-01 0.17797639E+03</pdfrwt>
<pdfrwt beam="2">  1       21 0.85802047E-02 0.17797639E+03</pdfrwt>
<totfact> 0.97414396E+04</totfact>
</mgrwt>
</event>
<event>
 4    1  0.3974123E+000  0.2414410E+03  0.7546771E-02  0.1118837E+00
         21   -1    0    0  501  502  0.00000000000E+00  0.00000000000E+00  0.34702002189E+03  0.34702002189E+03  0.00000000000E+00 0. -1.
         21   -1    0    0  502  503 -0.00000000000E+00 -0.00000000000E+00 -0.21878589071E+03  0.21878589071E+03  0.00000000000E+00 0.  1.
          6    1    1    2  501    0  0.13613894899E+03  0.99151000691E+02  0.20043993423E+03  0.31379914213E+03  0.17300000000E+03 0. -1.
         -6    1    1    2    0  503 -0.13613894899E+03 -0.99151000691E+02 -0.72205803044E+02  0.25200677047E+03  0.17300000000E+03 0.  1.
<mgrwt>
<rscale>  2 0.24144095E+03</rscale>
<asrwt>0</asrwt>
<pdfrwt beam="1">  1       21 0.53387696E-01 0.24144095E+03</pdfrwt>
<pdfrwt beam="2">  1       21 0.33659368E-01 0.24144095E+03</pdfrwt>
<totfact> 0.27531266E+04</totfact>
</mgrwt>
</event>
<event>
 4    1  0.3974123E+000  0.1949105E+03  0.7546771E-02  0.1154105E+00
         21   -1    0    0  501  502  0.00000000000E+00  0.00000000000E+00  0.32041670390E+03  0.32041670390E+03  0.00000000000E+00 0.  1.
         21   -1    0    0  502  503 -0.00000000000E+00 -0.00000000000E+00 -0.18155716514E+03  0.18155716514E+03  0.00000000000E+00 0.  1.
          6    1    1    2  501    0 -0.56320107446E+02  0.69922524933E+02  0.21726865523E+03  0.29188316591E+03  0.17300000000E+03 0.  1.
         -6    1    1    2    0  503  0.56320107446E+02 -0.69922524933E+02 -0.78409116466E+02  0.21009070313E+03  0.17300000000E+03 0.  1.
<mgrwt>
<rscale>  2 0.19491053E+03</rscale>
<asrwt>0</asrwt>
<pdfrwt beam="1">  1       21 0.49294877E-01 0.19491053E+03</pdfrwt>
<pdfrwt beam="2">  1       21 0.27931872E-01 0.19491053E+03</pdfrwt>
<totfact> 0.47992801E+04</totfact>
</mgrwt>
</event>
<event>
 4    1  0.3974123E+000  0.1811853E+03  0.7546771E-02  0.1166661E+00
         21   -1    0    0  501  502  0.00000000000E+00  0.00000000000E+00  0.13680044271E+03  0.13680044271E+03  0.00000000000E+00 0.  1.
         21   -1    0    0  502  503 -0.00000000000E+00 -0.00000000000E+00 -0.28639617193E+03  0.28639617193E+03  0.00000000000E+00 0.  1.
          6    1    1    2  501    0  0.47162193488E+02  0.25977478845E+02  0.10395665644E+02  0.18148325478E+03  0.17300000000E+03 0.  1.
         -6    1    1    2    0  503 -0.47162193488E+02 -0.25977478845E+02 -0.15999139486E+03  0.24171335985E+03  0.17300000000E+03 0.  1.
<mgrwt>
<rscale>  2 0.18118527E+03</rscale>
<asrwt>0</asrwt>
<pdfrwt beam="1">  1       21 0.21046222E-01 0.18118527E+03</pdfrwt>
<pdfrwt beam="2">  1       21 0.44060949E-01 0.18118527E+03</pdfrwt>
<totfact> 0.10425915E+05</totfact>
</mgrwt>
</event>
<event>
 4    1  0.3974123E+000  0.2246205E+03  0.7546771E-02  0.1130484E+00
         21   -1    0    0  503  502  0.00000000000E+00  0.00000000000E+00  0.19987086493E+03  0.19987086493E+03  0.00000000000E+00 0. -1.
         21   -1    0    0  501  503 -0.00000000000E+00 -0.00000000000E+00 -0.30819658923E+03  0.30819658923E+03  0.00000000000E+00 0.  1.
          6    1    1    2  501    0 -0.12166653985E+03  0.75648023039E+02 -0.16221805699E+03  0.27707231605E+03  0.17300000000E+03 0.  1.
         -6    1    1    2    0  502  0.12166653985E+03 -0.75648023039E+02  0.53892332690E+02  0.23099513811E+03  0.17300000000E+03 0. -1.
<mgrwt>
<rscale>  2 0.22462050E+03</rscale>
<asrwt>0</asrwt>
<pdfrwt beam="1">  1       21 0.30749364E-01 0.22462050E+03</pdfrwt>
<pdfrwt beam="2">  1       21 0.47414860E-01 0.22462050E+03</pdfrwt>
<totfact> 0.42537538E+04</totfact>
</mgrwt>
</event>
<event>
 4    1  0.3974123E+000  0.1731788E+03  0.7546771E-02  0.1174573E+00
         21   -1    0    0  501  502  0.00000000000E+00  0.00000000000E+00  0.11246672776E+04  0.11246672776E+04  0.00000000000E+00 0. -1.
         21   -1    0    0  502  503 -0.00000000000E+00 -0.00000000000E+00 -0.20641966355E+03  0.20641966355E+03  0.00000000000E+00 0. -1.
          6    1    1    2  501    0  0.63556215432E+01  0.46382908422E+01  0.10801918740E+04  0.10939860111E+04  0.17300000000E+03 0. -1.
         -6    1    1    2    0  503 -0.63556215432E+01 -0.46382908422E+01 -0.16194426003E+03  0.23710093004E+03  0.17300000000E+03 0. -1.
<mgrwt>
<rscale>  2 0.17317883E+03</rscale>
<asrwt>0</asrwt>
<pdfrwt beam="1">  1       21 0.17302573E+00 0.17317883E+03</pdfrwt>
<pdfrwt beam="2">  1       21 0.31756872E-01 0.17317883E+03</pdfrwt>
<totfact> 0.19772499E+03</totfact>
</mgrwt>
</event>
<event>
 4    1  0.3974123E+000  0.1790671E+03  0.7546771E-02  0.1168709E+00
         21   -1    0    0  501  502  0.00000000000E+00  0.00000000000E+00  0.22964882633E+03  0.22964882633E+03  0.00000000000E+00 0.  1.
         21   -1    0    0  502  503 -0.00000000000E+00 -0.00000000000E+00 -0.14059369322E+03  0.14059369322E+03  0.00000000000E+00 0.  1.
          6    1    1    2  501    0 -0.29990484984E+02  0.35165406559E+02  0.59882793500E+02  0.18881468154E+03  0.17300000000E+03 0.  1.
         -6    1    1    2    0  503  0.29990484984E+02 -0.35165406559E+02  0.29172339608E+02  0.18142783801E+03  0.17300000000E+03 0.  1.
<mgrwt>
<rscale>  2 0.17906712E+03</rscale>
<asrwt>0</asrwt>
<pdfrwt beam="1">  1       21 0.35330589E-01 0.17906712E+03</pdfrwt>
<pdfrwt beam="2">  1       21 0.21629799E-01 0.17906712E+03</pdfrwt>
<totfact> 0.15460193E+05</totfact>
</mgrwt>
</event>
<event>
 4    1  0.3974123E+000  0.1761839E+03  0.7546771E-02  0.1171548E+00
         21   -1    0    0  501  502  0.00000000000E+00  0.00000000000E+00  0.26789851927E+03  0.26789851927E+03  0.00000000000E+00 0.  1.
         21   -1    0    0  502  503 -0.00000000000E+00 -0.00000000000E+00 -0.12081113865E+03  0.12081113865E+03  0.00000000000E+00 0. -1.
          6    1    1    2  501    0 -0.17244974195E+02 -0.28537173683E+02  0.11285890565E+03  0.20923167065E+03  0.17300000000E+03 0. -1.
         -6    1    1    2    0  503  0.17244974195E+02  0.28537173683E+02  0.34228474968E+02  0.17947798727E+03  0.17300000000E+03 0. -1.
<mgrwt>
<rscale>  2 0.17618388E+03</rscale>
<asrwt>0</asrwt>
<pdfrwt beam="1">  1       21 0.41215157E-01 0.17618388E+03</pdfrwt>
<pdfrwt beam="2">  1       21 0.18586329E-01 0.17618388E+03</pdfrwt>
<totfact> 0.15080234E+05</totfact>
</mgrwt>
</event>
<event>
 4    1  0.3974123E+000  0.1853421E+03  0.7546771E-02  0.1162731E+00
         21   -1    0    0  501  502  0.00000000000E+00  0.00000000000E+00  0.12761352028E+03  0.12761352028E+03  0.00000000000E+00 0.  1.
         21   -1    0    0  502  503 -0.00000000000E+00 -0.00000000000E+00 -0.29255425266E+03  0.29255425266E+03  0.00000000000E+00 0.  1.
          6    1    1    2  501    0  0.42388708581E+02  0.51243407534E+02 -0.23094665816E+02  0.18677540796E+03  0.17300000000E+03 0.  1.
         -6    1    1    2    0  503 -0.42388708581E+02 -0.51243407534E+02 -0.14184606656E+03  0.23339236498E+03  0.17300000000E+03 0.  1.
<mgrwt>
<rscale>  2 0.18534209E+03</rscale>
<asrwt>0</asrwt>
<pdfrwt beam="1">  1       21 0.19632850E-01 0.18534209E+03</pdfrwt>
<pdfrwt beam="2">  1       21 0.45008346E-01 0.18534209E+03</pdfrwt>
<totfact> 0.11348555E+05</totfact>
</mgrwt>
</event>
<event>
 4    1  0.3974123E+000  0.2368329E+03  0.7546771E-02  0.1121921E+00
         21   -1    0    0  501  502  0.00000000000E+00  0.00000000000E+00  0.91333226414E+03  0.91333226414E+03  0.00000000000E+00 0.  1.
         21   -1    0    0  502  503 -0.00000000000E+00 -0.00000000000E+00 -0.81244615496E+02  0.81244615496E+02  0.00000000000E+00 0.  1.
          6    1    1    2  501    0 -0.80219848604E+02  0.14044777241E+03  0.66173988314E+03  0.70284384740E+03  0.17300000000E+03 0.  1.
         -6    1    1    2    0  503  0.80219848604E+02 -0.14044777241E+03  0.17034776550E+03  0.29173303223E+03  0.17300000000E+03 0.  1.
<mgrwt>
<rscale>  2 0.23683285E+03</rscale>
<asrwt>0</asrwt>
<pdfrwt beam="1">  1       21 0.14051265E+00 0.23683285E+03</pdfrwt>
<pdfrwt beam="2">  1       21 0.12499172E-01 0.23683285E+03</pdfrwt>
<totfact> 0.18809220E+04</totfact>
</mgrwt>
</event>
<event>
 4    1  0.3974123E+000  0.2015918E+03  0.7546771E-02  0.1148403E+00
         21   -1    0    0  501  502  0.00000000000E+00  0.00000000000E+00  0.50890935303E+02  0.50890935303E+02  0.00000000000E+00 0.  1.
         21   -1    0    0  502  503 -0.00000000000E+00 -0.00000000000E+00 -0.82358181721E+03  0.82358181721E+03  0.00000000000E+00 0.  1.
          6    1    1    2  501    0 -0.51221162301E+02 -0.89925676019E+02 -0.31012671963E+03  0.36988892509E+03  0.17300000000E+03 0.  1.
         -6    1    1    2    0  503  0.51221162301E+02  0.89925676019E+02 -0.46256416228E+03  0.50458382742E+03  0.17300000000E+03 0.  1.
<mgrwt>
<rscale>  2 0.20159175E+03</rscale>
<asrwt>0</asrwt>
<pdfrwt beam="1">  1       21 0.78293741E-02 0.20159175E+03</pdfrwt>
<pdfrwt beam="2">  1       21 0.12670490E+00 0.20159175E+03</pdfrwt>
<totfact> 0.57179312E+04</totfact>
</mgrwt>
</event>
<event>
 4    1  0.3974123E+000  0.2245859E+03  0.7546771E-02  0.1130510E+00
         21   -1    0    0  503  502  0.00000000000E+00  0.00000000000E+00  0.78015140262E+02  0.78015140262E+02  0.00000000000E+00 0.  1.
         21   -1    0    0  501  503 -0.00000000000E+00 -0.00000000000E+00 -0.80265113715E+03  0.80265113715E+03  0.00000000000E+00 0. -1.
          6    1    1    2  501    0 -0.90798740796E+01  0.14292441835E+03 -0.55652016622E+03  0.60012792710E+03  0.17300000000E+03 0. -1.
         -6    1    1    2    0  502  0.90798740796E+01 -0.14292441835E+03 -0.16811583067E+03  0.28053835031E+03  0.17300000000E+03 0.  1.
<mgrwt>
<rscale>  2 0.22458592E+03</rscale>
<asrwt>0</asrwt>
<pdfrwt beam="1">  1       21 0.12002329E-01 0.22458592E+03</pdfrwt>
<pdfrwt beam="2">  1       21 0.12348479E+00 0.22458592E+03</pdfrwt>
<totfact> 0.28321936E+04</totfact>
</mgrwt>
</event>
<event>
 4    1  0.3974123E+000  0.1784499E+03  0.7546771E-02  0.1169312E+00
         21   -1    0    0  501  502  0.00000000000E+00  0.00000000000E+00  0.91194884137E+03  0.91194884137E+03  0.00000000000E+00 0.  1.
         21   -1    0    0  502  503 -0.00000000000E+00 -0.00000000000E+00 -0.36956128322E+02  0.36956128322E+02  0.00000000000E+00 0.  1.
          6    1    1    2  501    0 -0.17842751270E+02  0.39962406018E+02  0.54888907598E+03  0.57716858490E+03  0.17300000000E+03 0. -1.
         -6    1    1    2    0  503  0.17842751270E+02 -0.39962406018E+02  0.32610363707E+03  0.37173638479E+03  0.17300000000E+03 0. -1.
<mgrwt>
<rscale>  2 0.17844987E+03</rscale>
<asrwt>0</asrwt>
<pdfrwt beam="1">  1       21 0.14029980E+00 0.17844987E+03</pdfrwt>
<pdfrwt beam="2">  1       21 0.56855589E-02 0.17844987E+03</pdfrwt>
<totfact> 0.77470619E+04</totfact>
</mgrwt>
</event>
<event>
 4    1  0.3974123E+000  0.2194012E+03  0.7546771E-02  0.1134330E+00
         21   -1    0    0  501  502  0.00000000000E+00  0.00000000000E+00  0.16791296729E+03  0.16791296729E+03  0.00000000000E+00 0. -1.
         21   -1    0    0  502  503 -0.00000000000E+00 -0.00000000000E+00 -0.50776188703E+03  0.50776188703E+03  0.00000000000E+00 0.  1.
          6    1    1    2  501    0  0.98957677657E+02  0.91734726257E+02  0.52999462743E+02  0.22571181852E+03  0.17300000000E+03 0. -1.
         -6    1    1    2    0  503 -0.98957677657E+02 -0.91734726257E+02 -0.39284838249E+03  0.44996303580E+03  0.17300000000E+03 0.  1.
<mgrwt>
<rscale>  2 0.21940119E+03</rscale>
<asrwt>0</asrwt>
<pdfrwt beam="1">  1       21 0.25832764E-01 0.21940119E+03</pdfrwt>
<pdfrwt beam="2">  1       21 0.78117213E-01 0.21940119E+03</pdfrwt>
<totfact> 0.20323920E+04</totfact>
</mgrwt>
</event>
<event>
 4    1  0.3974123E+000  0.2920707E+03  0.7546771E-02  0.1089273E+00
         21   -1    0    0  501  502  0.00000000000E+00  0.00000000000E+00  0.81875926465E+02  0.81875926465E+02  0.00000000000E+00 0.  1.
         21   -1    0    0  502  503 -0.00000000000E+00 -0.00000000000E+00 -0.11792829933E+04  0.11792829933E+04  0.00000000000E+00 0.  1.
          6    1    1    2  501    0  0.21899331048E+03  0.86129184325E+02 -0.33346458258E+03  0.44328764281E+03  0.17300000000E+03 0.  1.
         -6    1    1    2    0  503 -0.21899331048E+03 -0.86129184325E+02 -0.76394248422E+03  0.81787127692E+03  0.17300000000E+03 0.  1.
<mgrwt>
<rscale>  2 0.29207072E+03</rscale>
<asrwt>0</asrwt>
<pdfrwt beam="1">  1       21 0.12596297E-01 0.29207072E+03</pdfrwt>
<pdfrwt beam="2">  1       21 0.18142815E+00 0.29207072E+03</pdfrwt>
<totfact> 0.89497768E+03</totfact>
</mgrwt>
</event>
<event>
 4    1  0.3974123E+000  0.2828148E+03  0.7546771E-02  0.1094161E+00
         21   -1    0    0  501  502  0.00000000000E+00  0.00000000000E+00  0.22105517307E+03  0.22105517307E+03  0.00000000000E+00 0.  1.
         21   -1    0    0  502  503 -0.00000000000E+00 -0.00000000000E+00 -0.45951666277E+03  0.45951666277E+03  0.00000000000E+00 0. -1.
          6    1    1    2  501    0 -0.99092618087E+02 -0.20058874091E+03  0.37665672290E+02  0.28531192195E+03  0.17300000000E+03 0. -1.
         -6    1    1    2    0  503  0.99092618087E+02  0.20058874091E+03 -0.27612716198E+03  0.39525991389E+03  0.17300000000E+03 0. -1.
<mgrwt>
<rscale>  2 0.28281476E+03</rscale>
<asrwt>0</asrwt>
<pdfrwt beam="1">  1       21 0.34008488E-01 0.28281476E+03</pdfrwt>
<pdfrwt beam="2">  1       21 0.70694871E-01 0.28281476E+03</pdfrwt>
<totfact> 0.14376145E+04</totfact>
</mgrwt>
</event>
<event>
 4    1  0.3974123E+000  0.2074937E+03  0.7546771E-02  0.1143566E+00
         21   -1    0    0  503  502  0.00000000000E+00  0.00000000000E+00  0.15533090286E+03  0.15533090286E+03  0.00000000000E+00 0. -1.
         21   -1    0    0  501  503 -0.00000000000E+00 -0.00000000000E+00 -0.48486002800E+03  0.48486002800E+03  0.00000000000E+00 0. -1.
          6    1    1    2  501    0  0.10420421489E+03  0.47603903859E+02 -0.37426031603E+03  0.42793040815E+03  0.17300000000E+03 0. -1.
         -6    1    1    2    0  502 -0.10420421489E+03 -0.47603903859E+02  0.44731190894E+02  0.21226052271E+03  0.17300000000E+03 0. -1.
<mgrwt>
<rscale>  2 0.20749373E+03</rscale>
<asrwt>0</asrwt>
<pdfrwt beam="1">  1       21 0.23897062E-01 0.20749373E+03</pdfrwt>
<pdfrwt beam="2">  1       21 0.74593849E-01 0.20749373E+03</pdfrwt>
<totfact> 0.26339514E+04</totfact>
</mgrwt>
</event>
<event>
 4    1  0.3974123E+000  0.3083802E+03  0.7546771E-02  0.1081125E+00
         21   -1    0    0  501  502  0.00000000000E+00  0.00000000000E+00  0.24531590101E+03  0.24531590101E+03  0.00000000000E+00 0.  1.
         21   -1    0    0  502  503 -0.00000000000E+00 -0.00000000000E+00 -0.55560880351E+03  0.55560880351E+03  0.00000000000E+00 0. -1.
          6    1    1    2  501    0 -0.23053641042E+03 -0.10964630547E+03  0.65029498637E+02  0.31516215592E+03  0.17300000000E+03 0.  1.
         -6    1    1    2    0  503  0.23053641042E+03  0.10964630547E+03 -0.37532240113E+03  0.48576254860E+03  0.17300000000E+03 0. -1.
<mgrwt>
<rscale>  2 0.30838020E+03</rscale>
<asrwt>0</asrwt>
<pdfrwt beam="1">  1       21 0.37740908E-01 0.30838020E+03</pdfrwt>
<pdfrwt beam="2">  1       21 0.85478277E-01 0.30838020E+03</pdfrwt>
<totfact> 0.74831756E+03</totfact>
</mgrwt>
</event>
<event>
 4    1  0.3974123E+000  0.2019948E+03  0.7546771E-02  0.1148067E+00
         21   -1    0    0  501  502  0.00000000000E+00  0.00000000000E+00  0.15885767444E+03  0.15885767444E+03  0.00000000000E+00 0. -1.
         21   -1    0    0  502  503 -0.00000000000E+00 -0.00000000000E+00 -0.29738851216E+03  0.29738851216E+03  0.00000000000E+00 0. -1.
          6    1    1    2  501    0  0.87805824180E+02  0.56240981673E+02  0.14964054668E+02  0.20254834907E+03  0.17300000000E+03 0. -1.
         -6    1    1    2    0  503 -0.87805824180E+02 -0.56240981673E+02 -0.15349489239E+03  0.25369783753E+03  0.17300000000E+03 0. -1.
<mgrwt>
<rscale>  2 0.20199483E+03</rscale>
<asrwt>0</asrwt>
<pdfrwt beam="1">  1       21 0.24439643E-01 0.20199483E+03</pdfrwt>
<pdfrwt beam="2">  1       21 0.45752078E-01 0.20199483E+03</pdfrwt>
<totfact> 0.72135175E+04</totfact>
</mgrwt>
</event>
<event>
 4    1  0.3974123E+000  0.2072972E+03  0.7546771E-02  0.1143724E+00
         21   -1    0    0  501  502  0.00000000000E+00  0.00000000000E+00  0.15582568315E+03  0.15582568315E+03  0.00000000000E+00 0.  1.
         21   -1    0    0  502  503 -0.00000000000E+00 -0.00000000000E+00 -0.28874961552E+03  0.28874961552E+03  0.00000000000E+00 0. -1.
          6    1    1    2  501    0 -0.62381229306E+02  0.95664604991E+02 -0.19334256901E+02  0.20819689697E+03  0.17300000000E+03 0.  1.
         -6    1    1    2    0  503  0.62381229306E+02 -0.95664604991E+02 -0.11358967546E+03  0.23637840170E+03  0.17300000000E+03 0. -1.
<mgrwt>
<rscale>  2 0.20729721E+03</rscale>
<asrwt>0</asrwt>
<pdfrwt beam="1">  1       21 0.23973182E-01 0.20729721E+03</pdfrwt>
<pdfrwt beam="2">  1       21 0.44423018E-01 0.20729721E+03</pdfrwt>
<totfact> 0.79330051E+04</totfact>
</mgrwt>
</event>
<event>
 4    1  0.3974123E+000  0.2312882E+03  0.7546771E-02  0.1125736E+00
         21   -1    0    0  503  502  0.00000000000E+00  0.00000000000E+00  0.83501275595E+02  0.83501275595E+02  0.00000000000E+00 0. -1.
         21   -1    0    0  501  503 -0.00000000000E+00 -0.00000000000E+00 -0.70094288530E+03  0.70094288530E+03  0.00000000000E+00 0.  1.
          6    1    1    2  501    0  0.15074262711E+03  0.29015174270E+02 -0.42376411645E+03  0.48277349384E+03  0.17300000000E+03 0.  1.
         -6    1    1    2    0  502 -0.15074262711E+03 -0.29015174270E+02 -0.19367749326E+03  0.30167066706E+03  0.17300000000E+03 0.  1.
<mgrwt>
<rscale>  2 0.23128818E+03</rscale>
<asrwt>0</asrwt>
<pdfrwt beam="1">  1       21 0.12846350E-01 0.23128818E+03</pdfrwt>
<pdfrwt beam="2">  1       21 0.10783736E+00 0.23128818E+03</pdfrwt>
<totfact> 0.34857053E+04</totfact>
</mgrwt>
</event>
<event>
 4    1  0.3974123E+000  0.2441302E+03  0.7546771E-02  0.1117072E+00
         21   -1    0    0  503  502  0.00000000000E+00  0.00000000000E+00  0.71192810471E+03  0.71192810471E+03  0.00000000000E+00 0.  1.
         21   -1    0    0  501  503 -0.00000000000E+00 -0.00000000000E+00 -0.10593012674E+03  0.10593012674E+03  0.00000000000E+00 0.  1.
          6    1    1    2  501    0 -0.19883636013E+02 -0.17109996361E+03  0.11573430357E+03  0.27017399125E+03  0.17300000000E+03 0.  1.
         -6    1    1    2    0  502  0.19883636013E+02  0.17109996361E+03  0.49026367440E+03  0.54768424020E+03  0.17300000000E+03 0.  1.
<mgrwt>
<rscale>  2 0.24413020E+03</rscale>
<asrwt>0</asrwt>
<pdfrwt beam="1">  1       21 0.10952740E+00 0.24413020E+03</pdfrwt>
<pdfrwt beam="2">  1       21 0.16296943E-01 0.24413020E+03</pdfrwt>
<totfact> 0.21605395E+04</totfact>
</mgrwt>
</event>
<event>
 4    1  0.3974123E+000  0.1942769E+03  0.7546771E-02  0.1154659E+00
         21   -1    0    0  501  502  0.00000000000E+00  0.00000000000E+00  0.17352010400E+04  0.17352010400E+04  0.00000000000E+00 0.  1.
         21   -1    0    0  502  503 -0.00000000000E+00 -0.00000000000E+00 -0.35947041115E+02  0.35947041115E+02  0.00000000000E+00 0. -1.
          6    1    1    2  501    0 -0.88397350185E+02 -0.64111891671E+00  0.14061291359E+04  0.14194867556E+04  0.17300000000E+03 0.  1.
         -6    1    1    2    0  503  0.88397350185E+02  0.64111891671E+00  0.29312486302E+03  0.35166132553E+03  0.17300000000E+03 0.  1.
<mgrwt>
<rscale>  2 0.19427687E+03</rscale>
<asrwt>0</asrwt>
<pdfrwt beam="1">  1       21 0.26695394E+00 0.19427687E+03</pdfrwt>
<pdfrwt beam="2">  1       21 0.55303154E-02 0.19427687E+03</pdfrwt>
<totfact> 0.11979758E+04</totfact>
</mgrwt>
</event>
<event>
 4    1  0.3974123E+000  0.1888492E+03  0.7546771E-02  0.1159503E+00
         21   -1    0    0  501  502  0.00000000000E+00  0.00000000000E+00  0.24392207565E+03  0.24392207565E+03  0.00000000000E+00 0. -1.
         21   -1    0    0  502  503 -0.00000000000E+00 -0.00000000000E+00 -0.14742641233E+03  0.14742641233E+03  0.00000000000E+00 0. -1.
          6    1    1    2  501    0  0.32134844697E+02 -0.68573945512E+02  0.66016263842E+02  0.20005544566E+03  0.17300000000E+03 0. -1.
         -6    1    1    2    0  503 -0.32134844697E+02  0.68573945512E+02  0.30479399484E+02  0.19129304232E+03  0.17300000000E+03 0. -1.
<mgrwt>
<rscale>  2 0.18884924E+03</rscale>
<asrwt>0</asrwt>
<pdfrwt beam="1">  1       21 0.37526473E-01 0.18884924E+03</pdfrwt>
<pdfrwt beam="2">  1       21 0.22680987E-01 0.18884924E+03</pdfrwt>
<totfact> 0.12497175E+05</totfact>
</mgrwt>
</event>
<event>
 4    1  0.3974123E+000  0.1928576E+03  0.7546771E-02  0.1155909E+00
         21   -1    0    0  503  502  0.00000000000E+00  0.00000000000E+00  0.82506685803E+03  0.82506685803E+03  0.00000000000E+00 0. -1.
         21   -1    0    0  501  503 -0.00000000000E+00 -0.00000000000E+00 -0.70831926226E+02  0.70831926226E+02  0.00000000000E+00 0. -1.
          6    1    1    2  501    0  0.47454354286E+01  0.85103118608E+02  0.10702105382E+03  0.22056193215E+03  0.17300000000E+03 0. -1.
         -6    1    1    2    0  502 -0.47454354286E+01 -0.85103118608E+02  0.64721387798E+03  0.67533685210E+03  0.17300000000E+03 0. -1.
<mgrwt>
<rscale>  2 0.19285762E+03</rscale>
<asrwt>0</asrwt>
<pdfrwt beam="1">  1       21 0.12693336E+00 0.19285762E+03</pdfrwt>
<pdfrwt beam="2">  1       21 0.10897220E-01 0.19285762E+03</pdfrwt>
<totfact> 0.31985448E+04</totfact>
</mgrwt>
</event>
<event>
 4    1  0.3974123E+000  0.2722093E+03  0.7546771E-02  0.1100022E+00
         21   -1    0    0  501  502  0.00000000000E+00  0.00000000000E+00  0.27797839020E+03  0.27797839020E+03  0.00000000000E+00 0.  1.
         21   -1    0    0  502  503 -0.00000000000E+00 -0.00000000000E+00 -0.32475538761E+03  0.32475538761E+03  0.00000000000E+00 0.  1.
          6    1    1    2  501    0 -0.20995908565E+03 -0.92782124975E+01  0.10418540965E+03  0.29146612575E+03  0.17300000000E+03 0.  1.
         -6    1    1    2    0  503  0.20995908565E+03  0.92782124975E+01 -0.15096240706E+03  0.31126765206E+03  0.17300000000E+03 0.  1.
<mgrwt>
<rscale>  2 0.27220930E+03</rscale>
<asrwt>0</asrwt>
<pdfrwt beam="1">  1       21 0.42765906E-01 0.27220930E+03</pdfrwt>
<pdfrwt beam="2">  1       21 0.49962367E-01 0.27220930E+03</pdfrwt>
<totfact> 0.19250793E+04</totfact>
</mgrwt>
</event>
<event>
 4    1  0.3974123E+000  0.1790395E+03  0.7546771E-02  0.1168736E+00
         21   -1    0    0  503  502  0.00000000000E+00  0.00000000000E+00  0.87123890894E+03  0.87123890894E+03  0.00000000000E+00 0.  1.
         21   -1    0    0  501  503 -0.00000000000E+00 -0.00000000000E+00 -0.45866238810E+02  0.45866238810E+02  0.00000000000E+00 0. -1.
          6    1    1    2  501    0 -0.45690450458E+02  0.62072691748E+01  0.20873185986E+03  0.27499843049E+03  0.17300000000E+03 0. -1.
         -6    1    1    2    0  502  0.45690450458E+02 -0.62072691748E+01  0.61664081027E+03  0.64210671726E+03  0.17300000000E+03 0.  1.
<mgrwt>
<rscale>  2 0.17903951E+03</rscale>
<asrwt>0</asrwt>
<pdfrwt beam="1">  1       21 0.13403674E+00 0.17903951E+03</pdfrwt>
<pdfrwt beam="2">  1       21 0.70563450E-02 0.17903951E+03</pdfrwt>
<totfact> 0.60102673E+04</totfact>
</mgrwt>
</event>
<event>
 4    1  0.3974123E+000  0.2181542E+03  0.7546771E-02  0.1135267E+00
         21   -1    0    0  503  502  0.00000000000E+00  0.00000000000E+00  0.72579256114E+03  0.72579256114E+03  0.00000000000E+00 0.  1.
         21   -1    0    0  501  503 -0.00000000000E+00 -0.00000000000E+00 -0.11161189056E+03  0.11161189056E+03  0.00000000000E+00 0.  1.
          6    1    1    2  501    0  0.58945888118E+02  0.11911186369E+03  0.38172329422E+02  0.22146868973E+03  0.17300000000E+03 0.  1.
         -6    1    1    2    0  502 -0.58945888118E+02 -0.11911186369E+03  0.57600834115E+03  0.61593576197E+03  0.17300000000E+03 0.  1.
<mgrwt>
<rscale>  2 0.21815420E+03</rscale>
<asrwt>0</asrwt>
<pdfrwt beam="1">  1       21 0.11166039E+00 0.21815420E+03</pdfrwt>
<pdfrwt beam="2">  1       21 0.17171061E-01 0.21815420E+03</pdfrwt>
<totfact> 0.18987305E+04</totfact>
</mgrwt>
</event>
<event>
 4    1  0.3974123E+000  0.3405764E+03  0.7546771E-02  0.1066551E+00
         21   -1    0    0  503  502  0.00000000000E+00  0.00000000000E+00  0.53411724018E+03  0.53411724018E+03  0.00000000000E+00 0.  1.
         21   -1    0    0  501  503 -0.00000000000E+00 -0.00000000000E+00 -0.22008018235E+03  0.22008018235E+03  0.00000000000E+00 0. -1.
          6    1    1    2  501    0 -0.14277063894E+03  0.25628070803E+03  0.11362732250E+03  0.35903123133E+03  0.17300000000E+03 0. -1.
         -6    1    1    2    0  502  0.14277063894E+03 -0.25628070803E+03  0.20040973533E+03  0.39516619119E+03  0.17300000000E+03 0.  1.
<mgrwt>
<rscale>  2 0.34057636E+03</rscale>
<asrwt>0</asrwt>
<pdfrwt beam="1">  1       21 0.82171883E-01 0.34057636E+03</pdfrwt>
<pdfrwt beam="2">  1       21 0.33858490E-01 0.34057636E+03</pdfrwt>
<totfact> 0.10061426E+04</totfact>
</mgrwt>
</event>
<event>
 4    1  0.3974123E+000  0.1765899E+03  0.7546771E-02  0.1171145E+00
         21   -1    0    0  501  502  0.00000000000E+00  0.00000000000E+00  0.88320393281E+02  0.88320393281E+02  0.00000000000E+00 0.  1.
         21   -1    0    0  502  503 -0.00000000000E+00 -0.00000000000E+00 -0.43820825907E+03  0.43820825907E+03  0.00000000000E+00 0.  1.
          6    1    1    2  501    0  0.20593475960E+02  0.28825238908E+02 -0.58907658981E+02  0.18615611174E+03  0.17300000000E+03 0. -1.
         -6    1    1    2    0  503 -0.20593475960E+02 -0.28825238908E+02 -0.29098020681E+03  0.34037254061E+03  0.17300000000E+03 0. -1.
<mgrwt>
<rscale>  2 0.17658988E+03</rscale>
<asrwt>0</asrwt>
<pdfrwt beam="1">  1       21 0.13587753E-01 0.17658988E+03</pdfrwt>
<pdfrwt beam="2">  1       21 0.67416655E-01 0.17658988E+03</pdfrwt>
<totfact> 0.95058547E+04</totfact>
</mgrwt>
</event>
<event>
 4    1  0.3974123E+000  0.2053149E+03  0.7546771E-02  0.1145331E+00
         21   -1    0    0  501  502  0.00000000000E+00  0.00000000000E+00  0.25354639184E+02  0.25354639184E+02  0.00000000000E+00 0.  1.
         21   -1    0    0  502  503 -0.00000000000E+00 -0.00000000000E+00 -0.17423694480E+04  0.17423694480E+04  0.00000000000E+00 0.  1.
          6    1    1    2  501    0 -0.69275776894E+02  0.86174786528E+02 -0.66937098329E+03  0.70015122678E+03  0.17300000000E+03 0.  1.
         -6    1    1    2    0  503  0.69275776894E+02 -0.86174786528E+02 -0.10476438256E+04  0.10675728604E+04  0.17300000000E+03 0.  1.
<mgrwt>
<rscale>  2 0.20531495E+03</rscale>
<asrwt>0</asrwt>
<pdfrwt beam="1">  1       21 0.39007115E-02 0.20531495E+03</pdfrwt>
<pdfrwt beam="2">  1       21 0.26805699E+00 0.20531495E+03</pdfrwt>
<totfact> 0.21081890E+04</totfact>
</mgrwt>
</event>
<event>
 4    1  0.3974123E+000  0.1929631E+03  0.7546771E-02  0.1155816E+00
         21   -1    0    0  501  502  0.00000000000E+00  0.00000000000E+00  0.14543604007E+03  0.14543604007E+03  0.00000000000E+00 0.  1.
         21   -1    0    0  502  503 -0.00000000000E+00 -0.00000000000E+00 -0.26106423552E+03  0.26106423552E+03  0.00000000000E+00 0.  1.
          6    1    1    2  501    0  0.21456041336E+02  0.82737022416E+02 -0.29566383566E+02  0.19521513165E+03  0.17300000000E+03 0.  1.
         -6    1    1    2    0  503 -0.21456041336E+02 -0.82737022416E+02 -0.86061811885E+02  0.21128514395E+03  0.17300000000E+03 0.  1.
<mgrwt>
<rscale>  2 0.19296315E+03</rscale>
<asrwt>0</asrwt>
<pdfrwt beam="1">  1       21 0.22374775E-01 0.19296315E+03</pdfrwt>
<pdfrwt beam="2">  1       21 0.40163729E-01 0.19296315E+03</pdfrwt>
<totfact> 0.11169540E+05</totfact>
</mgrwt>
</event>
<event>
 4    1  0.3974123E+000  0.1953843E+03  0.7546771E-02  0.1153693E+00
         21   -1    0    0  503  502  0.00000000000E+00  0.00000000000E+00  0.15295179318E+03  0.15295179318E+03  0.00000000000E+00 0.  1.
         21   -1    0    0  501  503 -0.00000000000E+00 -0.00000000000E+00 -0.25175917218E+03  0.25175917218E+03  0.00000000000E+00 0. -1.
          6    1    1    2  501    0 -0.58190232109E+02  0.69713147989E+02 -0.68192877399E+02  0.20694273276E+03  0.17300000000E+03 0. -1.
         -6    1    1    2    0  502  0.58190232109E+02 -0.69713147989E+02 -0.30614501596E+02  0.19776823259E+03  0.17300000000E+03 0.  1.
<mgrwt>
<rscale>  2 0.19538430E+03</rscale>
<asrwt>0</asrwt>
<pdfrwt beam="1">  1       21 0.23531045E-01 0.19538430E+03</pdfrwt>
<pdfrwt beam="2">  1       21 0.38732180E-01 0.19538430E+03</pdfrwt>
<totfact> 0.10913631E+05</totfact>
</mgrwt>
</event>
<event>
 4    1  0.3974123E+000  0.1784034E+03  0.7546771E-02  0.1169357E+00
         21   -1    0    0  503  502  0.00000000000E+00  0.00000000000E+00  0.37417801426E+02  0.37417801426E+02  0.00000000000E+00 0. -1.
         21   -1    0    0  501  503 -0.00000000000E+00 -0.00000000000E+00 -0.87404655683E+03  0.87404655683E+03  0.00000000000E+00 0. -1.
          6    1    1    2  501    0  0.63498169642E+01  0.43109741421E+02 -0.49294814950E+03  0.52423815969E+03  0.17300000000E+03 0. -1.
         -6    1    1    2    0  502 -0.63498169642E+01 -0.43109741421E+02 -0.34368060591E+03  0.38722619857E+03  0.17300000000E+03 0. -1.
<mgrwt>
<rscale>  2 0.17840339E+03</rscale>
<asrwt>0</asrwt>
<pdfrwt beam="1">  1       21 0.57565852E-02 0.17840339E+03</pdfrwt>
<pdfrwt beam="2">  1       21 0.13446869E+00 0.17840339E+03</pdfrwt>
<totfact> 0.84550111E+04</totfact>
</mgrwt>
</event>
<event>
 4    1  0.3974123E+000  0.1924898E+03  0.7546771E-02  0.1156235E+00
         21   -1    0    0  501  502  0.00000000000E+00  0.00000000000E+00  0.85265686323E+02  0.85265686323E+02  0.00000000000E+00 0.  1.
         21   -1    0    0  502  503 -0.00000000000E+00 -0.00000000000E+00 -0.21911685535E+04  0.21911685535E+04  0.00000000000E+00 0.  1.
          6    1    1    2  501    0 -0.15806902191E+02  0.82906325920E+02 -0.33830343525E+02  0.19544003985E+03  0.17300000000E+03 0.  1.
         -6    1    1    2    0  503  0.15806902191E+02 -0.82906325920E+02 -0.20720725236E+04  0.20809942000E+04  0.17300000000E+03 0.  1.
<mgrwt>
<rscale>  2 0.19248978E+03</rscale>
<asrwt>0</asrwt>
<pdfrwt beam="1">  1       21 0.13117801E-01 0.19248978E+03</pdfrwt>
<pdfrwt beam="2">  1       21 0.33710279E+00 0.19248978E+03</pdfrwt>
<totfact> 0.10413435E+03</totfact>
</mgrwt>
</event>
<event>
 4    1  0.3974123E+000  0.2020903E+03  0.7546771E-02  0.1147987E+00
         21   -1    0    0  501  502  0.00000000000E+00  0.00000000000E+00  0.10756236849E+03  0.10756236849E+03  0.00000000000E+00 0. -1.
         21   -1    0    0  502  503 -0.00000000000E+00 -0.00000000000E+00 -0.45383951557E+03  0.45383951557E+03  0.00000000000E+00 0. -1.
          6    1    1    2  501    0 -0.63746143294E+02  0.82752241713E+02 -0.59678560346E+02  0.21071790351E+03  0.17300000000E+03 0. -1.
         -6    1    1    2    0  503  0.63746143294E+02 -0.82752241713E+02 -0.28659858674E+03  0.35068398055E+03  0.17300000000E+03 0. -1.
<mgrwt>
<rscale>  2 0.20209034E+03</rscale>
<asrwt>0</asrwt>
<pdfrwt beam="1">  1       21 0.16548057E-01 0.20209034E+03</pdfrwt>
<pdfrwt beam="2">  1       21 0.69821464E-01 0.20209034E+03</pdfrwt>
<totfact> 0.60810951E+04</totfact>
</mgrwt>
</event>
<event>
 4    1  0.3974123E+000  0.2412175E+03  0.7546771E-02  0.1118984E+00
         21   -1    0    0  503  502  0.00000000000E+00  0.00000000000E+00  0.39455562780E+03  0.39455562780E+03  0.00000000000E+00 0.  1.
         21   -1    0    0  501  503 -0.00000000000E+00 -0.00000000000E+00 -0.31490171563E+03  0.31490171563E+03  0.00000000000E+00 0. -1.
          6    1    1    2  501    0  0.81873116868E+02  0.14681164233E+03 -0.21883061024E+03  0.32568804333E+03  0.17300000000E+03 0. -1.
         -6    1    1    2    0  502 -0.81873116868E+02 -0.14681164233E+03  0.29848452240E+03  0.38376930011E+03  0.17300000000E+03 0.  1.
<mgrwt>
<rscale>  2 0.24121747E+03</rscale>
<asrwt>0</asrwt>
<pdfrwt beam="1">  1       21 0.60700865E-01 0.24121747E+03</pdfrwt>
<pdfrwt beam="2">  1       21 0.48446418E-01 0.24121747E+03</pdfrwt>
<totfact> 0.99710101E+03</totfact>
</mgrwt>
</event>
<event>
 4    1  0.3974123E+000  0.1969007E+03  0.7546771E-02  0.1152381E+00
         21   -1    0    0  501  502  0.00000000000E+00  0.00000000000E+00  0.82730373613E+03  0.82730373613E+03  0.00000000000E+00 0. -1.
         21   -1    0    0  502  503 -0.00000000000E+00 -0.00000000000E+00 -0.11599190487E+03  0.11599190487E+03  0.00000000000E+00 0.  1.
          6    1    1    2  501    0 -0.58911411626E+02  0.73282442546E+02  0.71976714559E+03  0.74621351816E+03  0.17300000000E+03 0. -1.
         -6    1    1    2    0  503  0.58911411626E+02 -0.73282442546E+02 -0.84553143286E+01  0.19708212285E+03  0.17300000000E+03 0.  1.
<mgrwt>
<rscale>  2 0.19690066E+03</rscale>
<asrwt>0</asrwt>
<pdfrwt beam="1">  1       21 0.12727749E+00 0.19690066E+03</pdfrwt>
<pdfrwt beam="2">  1       21 0.17844909E-01 0.19690066E+03</pdfrwt>
<totfact> 0.12967882E+04</totfact>
</mgrwt>
</event>
<event>
 4    1  0.3974123E+000  0.1866371E+03  0.7546771E-02  0.1161530E+00
         21   -1    0    0  501  502  0.00000000000E+00  0.00000000000E+00  0.28534627565E+03  0.28534627565E+03  0.00000000000E+00 0. -1.
         21   -1    0    0  502  503 -0.00000000000E+00 -0.00000000000E+00 -0.16801445804E+03  0.16801445804E+03  0.00000000000E+00 0. -1.
          6    1    1    2  501    0  0.52370162623E+02  0.46495068679E+02  0.17719833610E+03  0.25735709755E+03  0.17300000000E+03 0. -1.
         -6    1    1    2    0  503 -0.52370162623E+02 -0.46495068679E+02 -0.59866518486E+02  0.19600363614E+03  0.17300000000E+03 0. -1.
<mgrwt>
<rscale>  2 0.18663715E+03</rscale>
<asrwt>0</asrwt>
<pdfrwt beam="1">  1       21 0.43899427E-01 0.18663715E+03</pdfrwt>
<pdfrwt beam="2">  1       21 0.25848378E-01 0.18663715E+03</pdfrwt>
<totfact> 0.71023538E+04</totfact>
</mgrwt>
</event>
<event>
 4    1  0.3974123E+000  0.2075724E+03  0.7546771E-02  0.1143503E+00
         21   -1    0    0  503  502  0.00000000000E+00  0.00000000000E+00  0.72566480033E+03  0.72566480033E+03  0.00000000000E+00 0.  1.
         21   -1    0    0  501  503 -0.00000000000E+00 -0.00000000000E+00 -0.65741008958E+02  0.65741008958E+02  0.00000000000E+00 0.  1.
          6    1    1    2  501    0 -0.29354622159E+02 -0.11088556677E+03  0.20682540217E+03  0.29302397469E+03  0.17300000000E+03 0.  1.
         -6    1    1    2    0  502  0.29354622159E+02  0.11088556677E+03  0.45309838920E+03  0.49838183460E+03  0.17300000000E+03 0.  1.
<mgrwt>
<rscale>  2 0.20757240E+03</rscale>
<asrwt>0</asrwt>
<pdfrwt beam="1">  1       21 0.11164073E+00 0.20757240E+03</pdfrwt>
<pdfrwt beam="2">  1       21 0.10114002E-01 0.20757240E+03</pdfrwt>
<totfact> 0.49726595E+04</totfact>
</mgrwt>
</event>
<event>
 4    1  0.3974123E+000  0.4116499E+03  0.7546771E-02  0.1039819E+00
         21   -1    0    0  501  502  0.00000000000E+00  0.00000000000E+00  0.38906426246E+03  0.38906426246E+03  0.00000000000E+00 0.  1.
         21   -1    0    0  502  503 -0.00000000000E+00 -0.00000000000E+00 -0.46271626000E+03  0.46271626000E+03  0.00000000000E+00 0. -1.
          6    1    1    2  501    0  0.13275768693E+03 -0.34914466605E+03  0.66374726034E+02  0.41696667196E+03  0.17300000000E+03 0.  1.
         -6    1    1    2    0  503 -0.13275768693E+03  0.34914466605E+03 -0.14002672358E+03  0.43481385050E+03  0.17300000000E+03 0. -1.
<mgrwt>
<rscale>  2 0.41164985E+03</rscale>
<asrwt>0</asrwt>
<pdfrwt beam="1">  1       21 0.59856041E-01 0.41164985E+03</pdfrwt>
<pdfrwt beam="2">  1       21 0.71187117E-01 0.41164985E+03</pdfrwt>
<totfact> 0.41308784E+03</totfact>
</mgrwt>
</event>
<event>
 4    1  0.3974123E+000  0.1812678E+03  0.7546771E-02  0.1166582E+00
         21   -1    0    0  503  502  0.00000000000E+00  0.00000000000E+00  0.19248542626E+04  0.19248542626E+04  0.00000000000E+00 0.  1.
         21   -1    0    0  501  503 -0.00000000000E+00 -0.00000000000E+00 -0.18110054894E+02  0.18110054894E+02  0.00000000000E+00 0.  1.
          6    1    1    2  501    0 -0.50840289556E+00 -0.54118019938E+02  0.72060530819E+03  0.74305452610E+03  0.17300000000E+03 0.  1.
         -6    1    1    2    0  502  0.50840289556E+00  0.54118019938E+02  0.11861388995E+04  0.11999097914E+04  0.17300000000E+03 0.  1.
<mgrwt>
<rscale>  2 0.18126781E+03</rscale>
<asrwt>0</asrwt>
<pdfrwt beam="1">  1       21 0.29613126E+00 0.18126781E+03</pdfrwt>
<pdfrwt beam="2">  1       21 0.27861638E-02 0.18126781E+03</pdfrwt>
<totfact> 0.25979761E+04</totfact>
</mgrwt>
</event>
<event>
 4    1  0.3974123E+000  0.2192553E+03  0.7546771E-02  0.1134440E+00
         21   -1    0    0  501  502  0.00000000000E+00  0.00000000000E+00  0.10524302156E+03  0.10524302156E+03  0.00000000000E+00 0. -1.
         21   -1    0    0  502  503 -0.00000000000E+00 -0.00000000000E+00 -0.51803092451E+03  0.51803092451E+03  0.00000000000E+00 0. -1.
          6    1    1    2  501    0 -0.94176161699E+02 -0.96305347481E+02 -0.99234930157E+02  0.24066665899E+03  0.17300000000E+03 0. -1.
         -6    1    1    2    0  503  0.94176161699E+02  0.96305347481E+02 -0.31355297279E+03  0.38260728709E+03  0.17300000000E+03 0. -1.
<mgrwt>
<rscale>  2 0.21925526E+03</rscale>
<asrwt>0</asrwt>
<pdfrwt beam="1">  1       21 0.16191234E-01 0.21925526E+03</pdfrwt>
<pdfrwt beam="2">  1       21 0.79697064E-01 0.21925526E+03</pdfrwt>
<totfact> 0.46710390E+04</totfact>
</mgrwt>
</event>
<event>
 4    1  0.3974123E+000  0.1910130E+03  0.7546771E-02  0.1157551E+00
         21   -1    0    0  501  502  0.00000000000E+00  0.00000000000E+00  0.13010687745E+03  0.13010687745E+03  0.00000000000E+00 0.  1.
         21   -1    0    0  502  503 -0.00000000000E+00 -0.00000000000E+00 -0.56062487268E+03  0.56062487268E+03  0.00000000000E+00 0.  1.
          6    1    1    2  501    0 -0.69563092387E+02  0.41448153910E+02  0.28899997670E+02  0.19318691247E+03  0.17300000000E+03 0.  1.
         -6    1    1    2    0  503  0.69563092387E+02 -0.41448153910E+02 -0.45941799290E+03  0.49754483766E+03  0.17300000000E+03 0.  1.
<mgrwt>
<rscale>  2 0.19101302E+03</rscale>
<asrwt>0</asrwt>
<pdfrwt beam="1">  1       21 0.20016443E-01 0.19101302E+03</pdfrwt>
<pdfrwt beam="2">  1       21 0.86249980E-01 0.19101302E+03</pdfrwt>
<totfact> 0.26734307E+04</totfact>
</mgrwt>
</event>
<event>
 4    1  0.3974123E+000  0.1732922E+03  0.7546771E-02  0.1174457E+00
         21   -1    0    0  503  502  0.00000000000E+00  0.00000000000E+00  0.34872711261E+02  0.34872711261E+02  0.00000000000E+00 0.  1.
         21   -1    0    0  501  503 -0.00000000000E+00 -0.00000000000E+00 -0.94124003122E+03  0.94124003122E+03  0.00000000000E+00 0.  1.
          6    1    1    2  501    0  0.10058021590E+02 -0.14703194972E+00 -0.59556202393E+03  0.62026148500E+03  0.17300000000E+03 0.  1.
         -6    1    1    2    0  502 -0.10058021590E+02  0.14703194972E+00 -0.31080529603E+03  0.35585125749E+03  0.17300000000E+03 0.  1.
<mgrwt>
<rscale>  2 0.17329220E+03</rscale>
<asrwt>0</asrwt>
<pdfrwt beam="1">  1       21 0.53650325E-02 0.17329220E+03</pdfrwt>
<pdfrwt beam="2">  1       21 0.14480616E+00 0.17329220E+03</pdfrwt>
<totfact> 0.78998084E+04</totfact>
</mgrwt>
</event>
<event>
 4    1  0.3974123E+000  0.3153944E+03  0.7546771E-02  0.1077789E+00
         21   -1    0    0  503  502  0.00000000000E+00  0.00000000000E+00  0.34288127330E+03  0.34288127330E+03  0.00000000000E+00 0.  1.
         21   -1    0    0  501  503 -0.00000000000E+00 -0.00000000000E+00 -0.29867429920E+03  0.29867429920E+03  0.00000000000E+00 0.  1.
          6    1    1    2  501    0 -0.82490115258E+02 -0.25047953923E+03 -0.32212376282E+02  0.31703510196E+03  0.17300000000E+03 0.  1.
         -6    1    1    2    0  502  0.82490115258E+02  0.25047953923E+03  0.76419350381E+02  0.32452047054E+03  0.17300000000E+03 0.  1.
<mgrwt>
<rscale>  2 0.31539439E+03</rscale>
<asrwt>0</asrwt>
<pdfrwt beam="1">  1       21 0.52750965E-01 0.31539439E+03</pdfrwt>
<pdfrwt beam="2">  1       21 0.45949892E-01 0.31539439E+03</pdfrwt>
<totfact> 0.14524704E+04</totfact>
</mgrwt>
</event>
<event>
 4    1  0.3974123E+000  0.2023726E+03  0.7546771E-02  0.1147753E+00
         21   -1    0    0  501  502  0.00000000000E+00  0.00000000000E+00  0.15274388653E+03  0.15274388653E+03  0.00000000000E+00 0.  1.
         21   -1    0    0  502  503 -0.00000000000E+00 -0.00000000000E+00 -0.32739483450E+03  0.32739483450E+03  0.00000000000E+00 0. -1.
          6    1    1    2  501    0 -0.30114152021E+02  0.10059219431E+03  0.14818547629E+02  0.20291436879E+03  0.17300000000E+03 0.  1.
         -6    1    1    2    0  503  0.30114152021E+02 -0.10059219431E+03 -0.18946949560E+03  0.27722435223E+03  0.17300000000E+03 0. -1.
<mgrwt>
<rscale>  2 0.20237256E+03</rscale>
<asrwt>0</asrwt>
<pdfrwt beam="1">  1       21 0.23499060E-01 0.20237256E+03</pdfrwt>
<pdfrwt beam="2">  1       21 0.50368435E-01 0.20237256E+03</pdfrwt>
<totfact> 0.63660883E+04</totfact>
</mgrwt>
</event>
<event>
 4    1  0.3974123E+000  0.2113062E+03  0.7546771E-02  0.1140536E+00
         21   -1    0    0  503  502  0.00000000000E+00  0.00000000000E+00  0.52583071003E+03  0.52583071003E+03  0.00000000000E+00 0. -1.
         21   -1    0    0  501  503 -0.00000000000E+00 -0.00000000000E+00 -0.95196540012E+02  0.95196540012E+02  0.00000000000E+00 0. -1.
          6    1    1    2  501    0  0.33167039731E+02  0.11671010235E+03  0.11326454146E+03  0.23974811129E+03  0.17300000000E+03 0. -1.
         -6    1    1    2    0  502 -0.33167039731E+02 -0.11671010235E+03  0.31736962856E+03  0.38127913875E+03  0.17300000000E+03 0. -1.
<mgrwt>
<rscale>  2 0.21130618E+03</rscale>
<asrwt>0</asrwt>
<pdfrwt beam="1">  1       21 0.80897030E-01 0.21130618E+03</pdfrwt>
<pdfrwt beam="2">  1       21 0.14645622E-01 0.21130618E+03</pdfrwt>
<totfact> 0.54453214E+04</totfact>
</mgrwt>
</event>
<event>
 4    1  0.3974123E+000  0.1949608E+03  0.7546771E-02  0.1154062E+00
         21   -1    0    0  503  502  0.00000000000E+00  0.00000000000E+00  0.56417071195E+03  0.56417071195E+03  0.00000000000E+00 0.  1.
         21   -1    0    0  501  503 -0.00000000000E+00 -0.00000000000E+00 -0.67992121859E+02  0.67992121859E+02  0.00000000000E+00 0.  1.
          6    1    1    2  501    0  0.66639712004E+01  0.89645466224E+02  0.21792075949E+03  0.29240242055E+03  0.17300000000E+03 0.  1.
         -6    1    1    2    0  502 -0.66639712004E+01 -0.89645466224E+02  0.27825783060E+03  0.33976041326E+03  0.17300000000E+03 0.  1.
<mgrwt>
<rscale>  2 0.19496081E+03</rscale>
<asrwt>0</asrwt>
<pdfrwt beam="1">  1       21 0.86795491E-01 0.19496081E+03</pdfrwt>
<pdfrwt beam="2">  1       21 0.10460327E-01 0.19496081E+03</pdfrwt>
<totfact> 0.85505665E+04</totfact>
</mgrwt>
</event>
<event>
 4    1  0.3974123E+000  0.4224068E+03  0.7546771E-02  0.1036286E+00
         21   -1    0    0  503  502  0.00000000000E+00  0.00000000000E+00  0.22272606099E+03  0.22272606099E+03  0.00000000000E+00 0.  1.
         21   -1    0    0  501  503 -0.00000000000E+00 -0.00000000000E+00 -0.15421831824E+04  0.15421831824E+04  0.00000000000E+00 0. -1.
          6    1    1    2  501    0  0.33368890213E+03 -0.19274394942E+03 -0.12714527975E+04  0.13397834637E+04  0.17300000000E+03 0. -1.
         -6    1    1    2    0  502 -0.33368890213E+03  0.19274394942E+03 -0.48004323957E+02  0.42512577969E+03  0.17300000000E+03 0.  1.
<mgrwt>
<rscale>  2 0.42240681E+03</rscale>
<asrwt>0</asrwt>
<pdfrwt beam="1">  1       21 0.34265547E-01 0.42240681E+03</pdfrwt>
<pdfrwt beam="2">  1       21 0.23725895E+00 0.42240681E+03</pdfrwt>
<totfact> 0.53692050E+02</totfact>
</mgrwt>
</event>
<event>
 4    1  0.3974123E+000  0.4232148E+03  0.7546771E-02  0.1036025E+00
         21   -1    0    0  503  502  0.00000000000E+00  0.00000000000E+00  0.22229983121E+04  0.22229983121E+04  0.00000000000E+00 0.  1.
         21   -1    0    0  501  503 -0.00000000000E+00 -0.00000000000E+00 -0.86583525279E+02  0.86583525279E+02  0.00000000000E+00 0. -1.
          6    1    1    2  501    0 -0.16496423001E+03  0.34924003342E+03  0.76391704925E+03  0.87331555365E+03  0.17300000000E+03 0. -1.
         -6    1    1    2    0  502  0.16496423001E+03 -0.34924003342E+03  0.13724977376E+04  0.14362662837E+04  0.17300000000E+03 0.  1.
<mgrwt>
<rscale>  2 0.42321484E+03</rscale>
<asrwt>0</asrwt>
<pdfrwt beam="1">  1       21 0.34199970E+00 0.42321484E+03</pdfrwt>
<pdfrwt beam="2">  1       21 0.13320544E-01 0.42321484E+03</pdfrwt>
<totfact> 0.76361927E+02</totfact>
</mgrwt>
</event>
<event>
 4    1  0.3974123E+000  0.2082771E+03  0.7546771E-02  0.1142938E+00
         21   -1    0    0  501  502  0.00000000000E+00  0.00000000000E+00  0.21150732634E+03  0.21150732634E+03  0.00000000000E+00 0.  1.
         21   -1    0    0  502  503 -0.00000000000E+00 -0.00000000000E+00 -0.51892902570E+03  0.51892902570E+03  0.00000000000E+00 0. -1.
          6    1    1    2  501    0  0.93159625051E+02  0.69077107551E+02  0.13030824622E+03  0.24568191134E+03  0.17300000000E+03 0.  1.
         -6    1    1    2    0  503 -0.93159625051E+02 -0.69077107551E+02 -0.43772994558E+03  0.48475444071E+03  0.17300000000E+03 0. -1.
<mgrwt>
<rscale>  2 0.20827713E+03</rscale>
<asrwt>0</asrwt>
<pdfrwt beam="1">  1       21 0.32539589E-01 0.20827713E+03</pdfrwt>
<pdfrwt beam="2">  1       21 0.79835234E-01 0.20827713E+03</pdfrwt>
<totfact> 0.12429305E+04</totfact>
</mgrwt>
</event>
<event>
 4    1  0.3974123E+000  0.1732954E+03  0.7546771E-02  0.1174454E+00
         21   -1    0    0  503  502  0.00000000000E+00  0.00000000000E+00  0.41992397618E+02  0.41992397618E+02  0.00000000000E+00 0. -1.
         21   -1    0    0  501  503 -0.00000000000E+00 -0.00000000000E+00 -0.23839030832E+04  0.23839030832E+04  0.00000000000E+00 0. -1.
          6    1    1    2  501    0  0.66238821181E+01 -0.76427857153E+01 -0.21857835179E+04  0.21926424412E+04  0.17300000000E+03 0. -1.
         -6    1    1    2    0  502 -0.66238821181E+01  0.76427857153E+01 -0.15612716770E+03  0.23325303960E+03  0.17300000000E+03 0. -1.
<mgrwt>
<rscale>  2 0.17329538E+03</rscale>
<asrwt>0</asrwt>
<pdfrwt beam="1">  1       21 0.64603694E-02 0.17329538E+03</pdfrwt>
<pdfrwt beam="2">  1       21 0.36675429E+00 0.17329538E+03</pdfrwt>
<totfact> 0.24841780E+03</totfact>
</mgrwt>
</event>
<event>
 4    1  0.3974123E+000  0.2579327E+03  0.7546771E-02  0.1108392E+00
         21   -1    0    0  501  502  0.00000000000E+00  0.00000000000E+00  0.94691404762E+03  0.94691404762E+03  0.00000000000E+00 0.  1.
         21   -1    0    0  502  503 -0.00000000000E+00 -0.00000000000E+00 -0.73648949913E+02  0.73648949913E+02  0.00000000000E+00 0.  1.
          6    1    1    2  501    0 -0.26532199465E+02  0.18946328058E+03  0.54610863048E+03  0.60395689299E+03  0.17300000000E+03 0.  1.
         -6    1    1    2    0  503  0.26532199465E+02 -0.18946328058E+03  0.32715646722E+03  0.41660610455E+03  0.17300000000E+03 0.  1.
<mgrwt>
<rscale>  2 0.25793273E+03</rscale>
<asrwt>0</asrwt>
<pdfrwt beam="1">  1       21 0.14567908E+00 0.25793273E+03</pdfrwt>
<pdfrwt beam="2">  1       21 0.11330608E-01 0.25793273E+03</pdfrwt>
<totfact> 0.20181624E+04</totfact>
</mgrwt>
</event>
<event>
 4    1  0.3974123E+000  0.1900053E+03  0.7546771E-02  0.1158457E+00
         21   -1    0    0  503  502  0.00000000000E+00  0.00000000000E+00  0.20479226771E+03  0.20479226771E+03  0.00000000000E+00 0. -1.
         21   -1    0    0  501  503 -0.00000000000E+00 -0.00000000000E+00 -0.58937472084E+03  0.58937472084E+03  0.00000000000E+00 0. -1.
          6    1    1    2  501    0 -0.19098447924E+02 -0.76211989507E+02 -0.52472698295E+03  0.55806847670E+03  0.17300000000E+03 0. -1.
         -6    1    1    2    0  502  0.19098447924E+02  0.76211989507E+02  0.14014452982E+03  0.23609851184E+03  0.17300000000E+03 0. -1.
<mgrwt>
<rscale>  2 0.19000531E+03</rscale>
<asrwt>0</asrwt>
<pdfrwt beam="1">  1       21 0.31506503E-01 0.19000531E+03</pdfrwt>
<pdfrwt beam="2">  1       21 0.90673034E-01 0.19000531E+03</pdfrwt>
<totfact> 0.10017526E+04</totfact>
</mgrwt>
</event>
<event>
 4    1  0.3974123E+000  0.1742729E+03  0.7546771E-02  0.1173464E+00
         21   -1    0    0  501  502  0.00000000000E+00  0.00000000000E+00  0.21791881167E+03  0.21791881167E+03  0.00000000000E+00 0.  1.
         21   -1    0    0  502  503 -0.00000000000E+00 -0.00000000000E+00 -0.22058611537E+03  0.22058611537E+03  0.00000000000E+00 0. -1.
          6    1    1    2  501    0 -0.90299127898E+01 -0.18986598353E+02  0.13170577374E+03  0.21844322164E+03  0.17300000000E+03 0.  1.
         -6    1    1    2    0  503  0.90299127898E+01  0.18986598353E+02 -0.13437307744E+03  0.22006170540E+03  0.17300000000E+03 0. -1.
<mgrwt>
<rscale>  2 0.17427286E+03</rscale>
<asrwt>0</asrwt>
<pdfrwt beam="1">  1       21 0.33525971E-01 0.17427286E+03</pdfrwt>
<pdfrwt beam="2">  1       21 0.33936325E-01 0.17427286E+03</pdfrwt>
<totfact> 0.72246704E+04</totfact>
</mgrwt>
</event>
<event>
 4    1  0.3974123E+000  0.2331108E+03  0.7546771E-02  0.1124469E+00
         21   -1    0    0  503  502  0.00000000000E+00  0.00000000000E+00  0.98095885711E+02  0.98095885711E+02  0.00000000000E+00 0. -1.
         21   -1    0    0  501  503 -0.00000000000E+00 -0.00000000000E+00 -0.69616344319E+03  0.69616344319E+03  0.00000000000E+00 0. -1.
          6    1    1    2  501    0 -0.47744485421E+02  0.14876864772E+03 -0.47852381524E+03  0.53228346601E+03  0.17300000000E+03 0. -1.
         -6    1    1    2    0  502  0.47744485421E+02 -0.14876864772E+03 -0.11954374224E+03  0.26197586290E+03  0.17300000000E+03 0. -1.
<mgrwt>
<rscale>  2 0.23311080E+03</rscale>
<asrwt>0</asrwt>
<pdfrwt beam="1">  1       21 0.15091674E-01 0.23311080E+03</pdfrwt>
<pdfrwt beam="2">  1       21 0.10710207E+00 0.23311080E+03</pdfrwt>
<totfact> 0.26418209E+04</totfact>
</mgrwt>
</event>
<event>
 4    1  0.3974123E+000  0.3239440E+03  0.7546771E-02  0.1073848E+00
         21   -1    0    0  503  502  0.00000000000E+00  0.00000000000E+00  0.14519252259E+04  0.14519252259E+04  0.00000000000E+00 0. -1.
         21   -1    0    0  501  503 -0.00000000000E+00 -0.00000000000E+00 -0.22025189968E+03  0.22025189968E+03  0.00000000000E+00 0.  1.
          6    1    1    2  501    0 -0.16817900301E+03 -0.21616325752E+03 -0.69474108837E+02  0.33131010059E+03  0.17300000000E+03 0.  1.
         -6    1    1    2    0  502  0.16817900301E+03  0.21616325752E+03  0.13011474351E+04  0.13408670250E+04  0.17300000000E+03 0. -1.
<mgrwt>
<rscale>  2 0.32394402E+03</rscale>
<asrwt>0</asrwt>
<pdfrwt beam="1">  1       21 0.22337311E+00 0.32394402E+03</pdfrwt>
<pdfrwt beam="2">  1       21 0.33884909E-01 0.32394402E+03</pdfrwt>
<totfact> 0.71280575E+02</totfact>
</mgrwt>
</event>
<event>
 4    1  0.3974123E+000  0.2044730E+03  0.7546771E-02  0.1146019E+00
         21   -1    0    0  501  502  0.00000000000E+00  0.00000000000E+00  0.30080753398E+02  0.30080753398E+02  0.00000000000E+00 0.  1.
         21   -1    0    0  502  503 -0.00000000000E+00 -0.00000000000E+00 -0.14075787274E+04  0.14075787274E+04  0.00000000000E+00 0.  1.
          6    1    1    2  501    0 -0.10274630348E+03  0.36378358722E+02 -0.60818589431E+03  0.64163795859E+03  0.17300000000E+03 0.  1.
         -6    1    1    2    0  503  0.10274630348E+03 -0.36378358722E+02 -0.76931207965E+03  0.79602152217E+03  0.17300000000E+03 0.  1.
<mgrwt>
<rscale>  2 0.20447295E+03</rscale>
<asrwt>0</asrwt>
<pdfrwt beam="1">  1       21 0.46278067E-02 0.20447295E+03</pdfrwt>
<pdfrwt beam="2">  1       21 0.21655064E+00 0.20447295E+03</pdfrwt>
<totfact> 0.32110131E+04</totfact>
</mgrwt>
</event>
<event>
 4    1  0.3974123E+000  0.4252558E+03  0.7546771E-02  0.1035369E+00
         21   -1    0    0  501  502  0.00000000000E+00  0.00000000000E+00  0.26246699561E+03  0.26246699561E+03  0.00000000000E+00 0. -1.
         21   -1    0    0  502  503 -0.00000000000E+00 -0.00000000000E+00 -0.94049818789E+03  0.94049818789E+03  0.00000000000E+00 0.  1.
          6    1    1    2  501    0 -0.79363148359E+02 -0.38028271619E+03 -0.27985331454E+02  0.42617558861E+03  0.17300000000E+03 0.  1.
         -6    1    1    2    0  503  0.79363148359E+02  0.38028271619E+03 -0.65004586083E+03  0.77678959489E+03  0.17300000000E+03 0. -1.
<mgrwt>
<rscale>  2 0.42525575E+03</rscale>
<asrwt>0</asrwt>
<pdfrwt beam="1">  1       21 0.40379537E-01 0.42525575E+03</pdfrwt>
<pdfrwt beam="2">  1       21 0.14469203E+00 0.42525575E+03</pdfrwt>
<totfact> 0.16747447E+03</totfact>
</mgrwt>
</event>
<event>
 4    1  0.3974123E+000  0.2368960E+03  0.7546771E-02  0.1121878E+00
         21   -1    0    0  503  502  0.00000000000E+00  0.00000000000E+00  0.39514895887E+03  0.39514895887E+03  0.00000000000E+00 0.  1.
         21   -1    0    0  501  503 -0.00000000000E+00 -0.00000000000E+00 -0.14295532380E+03  0.14295532380E+03  0.00000000000E+00 0. -1.
          6    1    1    2  501    0 -0.14098013049E+03 -0.79468868895E+02  0.10435283646E+03  0.25886137756E+03  0.17300000000E+03 0. -1.
         -6    1    1    2    0  502  0.14098013049E+03  0.79468868895E+02  0.14784079862E+03  0.27924290511E+03  0.17300000000E+03 0.  1.
<mgrwt>
<rscale>  2 0.23689597E+03</rscale>
<asrwt>0</asrwt>
<pdfrwt beam="1">  1       21 0.60792147E-01 0.23689597E+03</pdfrwt>
<pdfrwt beam="2">  1       21 0.21993127E-01 0.23689597E+03</pdfrwt>
<totfact> 0.47663986E+04</totfact>
</mgrwt>
</event>
<event>
 4    1  0.3974123E+000  0.2561770E+03  0.7546771E-02  0.1109462E+00
         21   -1    0    0  503  502  0.00000000000E+00  0.00000000000E+00  0.92595182644E+03  0.92595182644E+03  0.00000000000E+00 0. -1.
         21   -1    0    0  501  503 -0.00000000000E+00 -0.00000000000E+00 -0.36241737691E+03  0.36241737691E+03  0.00000000000E+00 0.  1.
          6    1    1    2  501    0 -0.89843376569E+02 -0.16621024349E+03 -0.29600519337E+03  0.39146615672E+03  0.17300000000E+03 0.  1.
         -6    1    1    2    0  502  0.89843376569E+02  0.16621024349E+03  0.85953964290E+03  0.89690304664E+03  0.17300000000E+03 0. -1.
<mgrwt>
<rscale>  2 0.25617704E+03</rscale>
<asrwt>0</asrwt>
<pdfrwt beam="1">  1       21 0.14245413E+00 0.25617704E+03</pdfrwt>
<pdfrwt beam="2">  1       21 0.55756520E-01 0.25617704E+03</pdfrwt>
<totfact> 0.97805432E+02</totfact>
</mgrwt>
</event>
<event>
 4    1  0.3974123E+000  0.2714764E+03  0.7546771E-02  0.1100438E+00
         21   -1    0    0  501  502  0.00000000000E+00  0.00000000000E+00  0.58380205694E+02  0.58380205694E+02  0.00000000000E+00 0.  1.
         21   -1    0    0  502  503 -0.00000000000E+00 -0.00000000000E+00 -0.12625682189E+04  0.12625682189E+04  0.00000000000E+00 0.  1.
          6    1    1    2  501    0 -0.18206178842E+02  0.20842019071E+03 -0.60961250196E+03  0.66732813772E+03  0.17300000000E+03 0.  1.
         -6    1    1    2    0  503  0.18206178842E+02 -0.20842019071E+03 -0.59457551123E+03  0.65362028686E+03  0.17300000000E+03 0.  1.
<mgrwt>
<rscale>  2 0.27147641E+03</rscale>
<asrwt>0</asrwt>
<pdfrwt beam="1">  1       21 0.89815706E-02 0.27147641E+03</pdfrwt>
<pdfrwt beam="2">  1       21 0.19424125E+00 0.27147641E+03</pdfrwt>
<totfact> 0.13589187E+04</totfact>
</mgrwt>
</event>
<event>
 4    1  0.3974123E+000  0.1789065E+03  0.7546771E-02  0.1168866E+00
         21   -1    0    0  501  502  0.00000000000E+00  0.00000000000E+00  0.15885829920E+04  0.15885829920E+04  0.00000000000E+00 0.  1.
         21   -1    0    0  502  503 -0.00000000000E+00 -0.00000000000E+00 -0.30608290309E+02  0.30608290309E+02  0.00000000000E+00 0.  1.
          6    1    1    2  501    0  0.37939149672E+02 -0.25281677797E+02  0.12522589063E+04  0.12649742727E+04  0.17300000000E+03 0.  1.
         -6    1    1    2    0  503 -0.37939149672E+02  0.25281677797E+02  0.30571579539E+03  0.35421700956E+03  0.17300000000E+03 0.  1.
<mgrwt>
<rscale>  2 0.17890652E+03</rscale>
<asrwt>0</asrwt>
<pdfrwt beam="1">  1       21 0.24439732E+00 0.17890652E+03</pdfrwt>
<pdfrwt beam="2">  1       21 0.47089690E-02 0.17890652E+03</pdfrwt>
<totfact> 0.21619926E+04</totfact>
</mgrwt>
</event>
<event>
 4    1  0.3974123E+000  0.2359732E+03  0.7546771E-02  0.1122505E+00
         21   -1    0    0  503  502  0.00000000000E+00  0.00000000000E+00  0.12344262266E+04  0.12344262266E+04  0.00000000000E+00 0.  1.
         21   -1    0    0  501  503 -0.00000000000E+00 -0.00000000000E+00 -0.45241103284E+02  0.45241103284E+02  0.00000000000E+00 0. -1.
          6    1    1    2  501    0  0.16032861076E+03  0.70047713852E+01  0.55997531798E+03  0.60766412350E+03  0.17300000000E+03 0. -1.
         -6    1    1    2    0  502 -0.16032861076E+03 -0.70047713852E+01  0.62920980533E+03  0.67200320637E+03  0.17300000000E+03 0. -1.
<mgrwt>
<rscale>  2 0.23597316E+03</rscale>
<asrwt>0</asrwt>
<pdfrwt beam="1">  1       21 0.18991170E+00 0.23597316E+03</pdfrwt>
<pdfrwt beam="2">  1       21 0.69601707E-02 0.23597316E+03</pdfrwt>
<totfact> 0.23169303E+04</totfact>
</mgrwt>
</event>
<event>
 4    1  0.3974123E+000  0.2494900E+03  0.7546771E-02  0.1113628E+00
         21   -1    0    0  503  502  0.00000000000E+00  0.00000000000E+00  0.19052256453E+03  0.19052256453E+03  0.00000000000E+00 0. -1.
         21   -1    0    0  501  503 -0.00000000000E+00 -0.00000000000E+00 -0.32818766605E+03  0.32818766605E+03  0.00000000000E+00 0. -1.
          6    1    1    2  501    0 -0.16368889734E+03  0.74311697072E+02 -0.86246076709E+02  0.26397664515E+03  0.17300000000E+03 0. -1.
         -6    1    1    2    0  502  0.16368889734E+03 -0.74311697072E+02 -0.51419024806E+02  0.25473358543E+03  0.17300000000E+03 0. -1.
<mgrwt>
<rscale>  2 0.24949005E+03</rscale>
<asrwt>0</asrwt>
<pdfrwt beam="1">  1       21 0.29311164E-01 0.24949005E+03</pdfrwt>
<pdfrwt beam="2">  1       21 0.50490410E-01 0.24949005E+03</pdfrwt>
<totfact> 0.40532950E+04</totfact>
</mgrwt>
</event>
<event>
 4    1  0.3974123E+000  0.1803210E+03  0.7546771E-02  0.1167493E+00
         21   -1    0    0  501  502  0.00000000000E+00  0.00000000000E+00  0.22951236789E+03  0.22951236789E+03  0.00000000000E+00 0. -1.
         21   -1    0    0  502  503 -0.00000000000E+00 -0.00000000000E+00 -0.29703399557E+03  0.29703399557E+03  0.00000000000E+00 0. -1.
          6    1    1    2  501    0 -0.28299874066E+01 -0.50780508267E+02  0.15664261526E+03  0.23885681435E+03  0.17300000000E+03 0. -1.
         -6    1    1    2    0  503  0.28299874066E+01  0.50780508267E+02 -0.22416424294E+03  0.28768954910E+03  0.17300000000E+03 0. -1.
<mgrwt>
<rscale>  2 0.18032102E+03</rscale>
<asrwt>0</asrwt>
<pdfrwt beam="1">  1       21 0.35309595E-01 0.18032102E+03</pdfrwt>
<pdfrwt beam="2">  1       21 0.45697537E-01 0.18032102E+03</pdfrwt>
<totfact> 0.35729648E+04</totfact>
</mgrwt>
</event>
<event>
 4    1  0.3974123E+000  0.2172210E+03  0.7546771E-02  0.1135972E+00
         21   -1    0    0  503  502  0.00000000000E+00  0.00000000000E+00  0.65146911903E+03  0.65146911903E+03  0.00000000000E+00 0.  1.
         21   -1    0    0  501  503 -0.00000000000E+00 -0.00000000000E+00 -0.12955992683E+03  0.12955992683E+03  0.00000000000E+00 0.  1.
          6    1    1    2  501    0 -0.29366972433E+02 -0.12803719572E+03  0.16326268590E+01  0.21722708861E+03  0.17300000000E+03 0.  1.
         -6    1    1    2    0  502  0.29366972433E+02  0.12803719572E+03  0.52027656534E+03  0.56380195725E+03  0.17300000000E+03 0.  1.
<mgrwt>
<rscale>  2 0.21722095E+03</rscale>
<asrwt>0</asrwt>
<pdfrwt beam="1">  1       21 0.10022602E+00 0.21722095E+03</pdfrwt>
<pdfrwt beam="2">  1       21 0.19932297E-01 0.21722095E+03</pdfrwt>
<totfact> 0.18684928E+04</totfact>
</mgrwt>
</event>
<event>
 4    1  0.3974123E+000  0.2490335E+03  0.7546771E-02  0.1113917E+00
         21   -1    0    0  503  502  0.00000000000E+00  0.00000000000E+00  0.10453634878E+04  0.10453634878E+04  0.00000000000E+00 0.  1.
         21   -1    0    0  501  503 -0.00000000000E+00 -0.00000000000E+00 -0.10782672080E+03  0.10782672080E+03  0.00000000000E+00 0. -1.
          6    1    1    2  501    0  0.14964760127E+03  0.98459637208E+02  0.82063342640E+02  0.26220621070E+03  0.17300000000E+03 0. -1.
         -6    1    1    2    0  502 -0.14964760127E+03 -0.98459637208E+02  0.85547342432E+03  0.89098399786E+03  0.17300000000E+03 0.  1.
<mgrwt>
<rscale>  2 0.24903354E+03</rscale>
<asrwt>0</asrwt>
<pdfrwt beam="1">  1       21 0.16082515E+00 0.24903354E+03</pdfrwt>
<pdfrwt beam="2">  1       21 0.16588727E-01 0.24903354E+03</pdfrwt>
<totfact> 0.77758340E+03</totfact>
</mgrwt>
</event>
<event>
 4    1  0.3974123E+000  0.1992513E+03  0.7546771E-02  0.1150372E+00
         21   -1    0    0  503  502  0.00000000000E+00  0.00000000000E+00  0.49986464187E+02  0.49986464187E+02  0.00000000000E+00 0. -1.
         21   -1    0    0  501  503 -0.00000000000E+00 -0.00000000000E+00 -0.91021423531E+03  0.91021423531E+03  0.00000000000E+00 0. -1.
          6    1    1    2  501    0 -0.79455324495E+02  0.58812523318E+02 -0.60148909750E+03  0.63363254012E+03  0.17300000000E+03 0. -1.
         -6    1    1    2    0  502  0.79455324495E+02 -0.58812523318E+02 -0.25873867362E+03  0.32656815937E+03  0.17300000000E+03 0. -1.
<mgrwt>
<rscale>  2 0.19925125E+03</rscale>
<asrwt>0</asrwt>
<pdfrwt beam="1">  1       21 0.76902258E-02 0.19925125E+03</pdfrwt>
<pdfrwt beam="2">  1       21 0.14003295E+00 0.19925125E+03</pdfrwt>
<totfact> 0.45793077E+04</totfact>
</mgrwt>
</event>
<event>
 4    1  0.3974123E+000  0.2319612E+03  0.7546771E-02  0.1125267E+00
         21   -1    0    0  503  502  0.00000000000E+00  0.00000000000E+00  0.34253128678E+03  0.34253128678E+03  0.00000000000E+00 0. -1.
         21   -1    0    0  501  503 -0.00000000000E+00 -0.00000000000E+00 -0.28946846762E+03  0.28946846762E+03  0.00000000000E+00 0.  1.
          6    1    1    2  501    0 -0.13007045133E+03 -0.83418591166E+02 -0.18716920047E+03  0.29805753348E+03  0.17300000000E+03 0.  1.
         -6    1    1    2    0  502  0.13007045133E+03  0.83418591166E+02  0.24023201963E+03  0.33394222092E+03  0.17300000000E+03 0. -1.
<mgrwt>
<rscale>  2 0.23196117E+03</rscale>
<asrwt>0</asrwt>
<pdfrwt beam="1">  1       21 0.52697121E-01 0.23196117E+03</pdfrwt>
<pdfrwt beam="2">  1       21 0.44533611E-01 0.23196117E+03</pdfrwt>
<totfact> 0.16144571E+04</totfact>
</mgrwt>
</event>
<event>
 4    1  0.3974123E+000  0.2302584E+03  0.7546771E-02  0.1126458E+00
         21   -1    0    0  501  502  0.00000000000E+00  0.00000000000E+00  0.98419319578E+02  0.98419319578E+02  0.00000000000E+00 0.  1.
         21   -1    0    0  502  503 -0.00000000000E+00 -0.00000000000E+00 -0.94188089388E+03  0.94188089388E+03  0.00000000000E+00 0.  1.
          6    1    1    2  501    0 -0.15183107858E+03 -0.61034023354E+01 -0.81418006599E+02  0.24422903133E+03  0.17300000000E+03 0.  1.
         -6    1    1    2    0  503  0.15183107858E+03  0.61034023354E+01 -0.76204356771E+03  0.79607118214E+03  0.17300000000E+03 0.  1.
<mgrwt>
<rscale>  2 0.23025839E+03</rscale>
<asrwt>0</asrwt>
<pdfrwt beam="1">  1       21 0.15141434E-01 0.23025839E+03</pdfrwt>
<pdfrwt beam="2">  1       21 0.14490475E+00 0.23025839E+03</pdfrwt>
<totfact> 0.12297264E+04</totfact>
</mgrwt>
</event>
<event>
 4    1  0.3974123E+000  0.2250482E+03  0.7546771E-02  0.1130174E+00
         21   -1    0    0  503  502  0.00000000000E+00  0.00000000000E+00  0.33804312121E+03  0.33804312121E+03  0.00000000000E+00 0.  1.
         21   -1    0    0  501  503 -0.00000000000E+00 -0.00000000000E+00 -0.19395928983E+03  0.19395928983E+03  0.00000000000E+00 0.  1.
          6    1    1    2  501    0  0.10948991499E+03 -0.93432484313E+02 -0.54847588034E+02  0.23163533522E+03  0.17300000000E+03 0.  1.
         -6    1    1    2    0  502 -0.10948991499E+03  0.93432484313E+02  0.19893141941E+03  0.30036707582E+03  0.17300000000E+03 0.  1.
<mgrwt>
<rscale>  2 0.22504815E+03</rscale>
<asrwt>0</asrwt>
<pdfrwt beam="1">  1       21 0.52006634E-01 0.22504815E+03</pdfrwt>
<pdfrwt beam="2">  1       21 0.29839891E-01 0.22504815E+03</pdfrwt>
<totfact> 0.37177059E+04</totfact>
</mgrwt>
</event>
<event>
 4    1  0.3974123E+000  0.2907328E+03  0.7546771E-02  0.1089967E+00
         21   -1    0    0  503  502  0.00000000000E+00  0.00000000000E+00  0.22028287269E+03  0.22028287269E+03  0.00000000000E+00 0.  1.
         21   -1    0    0  501  503 -0.00000000000E+00 -0.00000000000E+00 -0.62555507241E+03  0.62555507241E+03  0.00000000000E+00 0. -1.
          6    1    1    2  501    0  0.21856735886E+03 -0.82612939500E+02 -0.46559602193E+03  0.54891278339E+03  0.17300000000E+03 0. -1.
         -6    1    1    2    0  502 -0.21856735886E+03  0.82612939500E+02  0.60323822202E+02  0.29692516171E+03  0.17300000000E+03 0.  1.
<mgrwt>
<rscale>  2 0.29073285E+03</rscale>
<asrwt>0</asrwt>
<pdfrwt beam="1">  1       21 0.33889673E-01 0.29073285E+03</pdfrwt>
<pdfrwt beam="2">  1       21 0.96239240E-01 0.29073285E+03</pdfrwt>
<totfact> 0.70942991E+03</totfact>
</mgrwt>
</event>
<event>
 4    1  0.3974123E+000  0.2710577E+03  0.7546771E-02  0.1100676E+00
         21   -1    0    0  501  502  0.00000000000E+00  0.00000000000E+00  0.32075659410E+03  0.32075659410E+03  0.00000000000E+00 0. -1.
         21   -1    0    0  502  503 -0.00000000000E+00 -0.00000000000E+00 -0.27306002483E+03  0.27306002483E+03  0.00000000000E+00 0. -1.
          6    1    1    2  501    0  0.98257631543E+02 -0.18408882551E+03  0.14303382231E+03  0.30648153641E+03  0.17300000000E+03 0. -1.
         -6    1    1    2    0  503 -0.98257631543E+02  0.18408882551E+03 -0.95337253034E+02  0.28733508252E+03  0.17300000000E+03 0. -1.
<mgrwt>
<rscale>  2 0.27105767E+03</rscale>
<asrwt>0</asrwt>
<pdfrwt beam="1">  1       21 0.49347168E-01 0.27105767E+03</pdfrwt>
<pdfrwt beam="2">  1       21 0.42009235E-01 0.27105767E+03</pdfrwt>
<totfact> 0.20506710E+04</totfact>
</mgrwt>
</event>
<event>
 4    1  0.3974123E+000  0.1815067E+03  0.7546771E-02  0.1166353E+00
         21   -1    0    0  501  502  0.00000000000E+00  0.00000000000E+00  0.40009044462E+02  0.40009044462E+02  0.00000000000E+00 0.  1.
         21   -1    0    0  502  503 -0.00000000000E+00 -0.00000000000E+00 -0.82519150496E+03  0.82519150496E+03  0.00000000000E+00 0.  1.
          6    1    1    2  501    0  0.49806414996E+02  0.23130163503E+02 -0.41257330299E+03  0.45073430508E+03  0.17300000000E+03 0.  1.
         -6    1    1    2    0  503 -0.49806414996E+02 -0.23130163503E+02 -0.37260915751E+03  0.41446624434E+03  0.17300000000E+03 0.  1.
<mgrwt>
<rscale>  2 0.18150670E+03</rscale>
<asrwt>0</asrwt>
<pdfrwt beam="1">  1       21 0.61552382E-02 0.18150670E+03</pdfrwt>
<pdfrwt beam="2">  1       21 0.12695253E+00 0.18150670E+03</pdfrwt>
<totfact> 0.87044923E+04</totfact>
</mgrwt>
</event>
<event>
 4    1  0.3974123E+000  0.2403803E+03  0.7546771E-02  0.1119540E+00
         21   -1    0    0  501  502  0.00000000000E+00  0.00000000000E+00  0.12331171330E+03  0.12331171330E+03  0.00000000000E+00 0. -1.
         21   -1    0    0  502  503 -0.00000000000E+00 -0.00000000000E+00 -0.58320055985E+03  0.58320055985E+03  0.00000000000E+00 0.  1.
          6    1    1    2  501    0  0.11849307857E+03  0.11752909844E+03 -0.73344300177E+02  0.25132068164E+03  0.17300000000E+03 0. -1.
         -6    1    1    2    0  503 -0.11849307857E+03 -0.11752909844E+03 -0.38654454638E+03  0.45519159151E+03  0.17300000000E+03 0. -1.
<mgrwt>
<rscale>  2 0.24038032E+03</rscale>
<asrwt>0</asrwt>
<pdfrwt beam="1">  1       21 0.18971032E-01 0.24038032E+03</pdfrwt>
<pdfrwt beam="2">  1       21 0.89723165E-01 0.24038032E+03</pdfrwt>
<totfact> 0.26264725E+04</totfact>
</mgrwt>
</event>
<event>
 4    1  0.3974123E+000  0.2082528E+03  0.7546771E-02  0.1142957E+00
         21   -1    0    0  501  502  0.00000000000E+00  0.00000000000E+00  0.77658670524E+03  0.77658670524E+03  0.00000000000E+00 0. -1.
         21   -1    0    0  502  503 -0.00000000000E+00 -0.00000000000E+00 -0.67581920268E+02  0.67581920268E+02  0.00000000000E+00 0. -1.
          6    1    1    2  501    0 -0.11648186480E+02 -0.11534540717E+03  0.53039312198E+03  0.56981234371E+03  0.17300000000E+03 0. -1.
         -6    1    1    2    0  503  0.11648186480E+02  0.11534540717E+03  0.17861166299E+03  0.27435628179E+03  0.17300000000E+03 0. -1.
<mgrwt>
<rscale>  2 0.20825283E+03</rscale>
<asrwt>0</asrwt>
<pdfrwt beam="1">  1       21 0.11947487E+00 0.20825283E+03</pdfrwt>
<pdfrwt beam="2">  1       21 0.10397219E-01 0.20825283E+03</pdfrwt>
<totfact> 0.40089792E+04</totfact>
</mgrwt>
</event>
<event>
 4    1  0.3974123E+000  0.3547580E+03  0.7546771E-02  0.1060679E+00
         21   -1    0    0  501  502  0.00000000000E+00  0.00000000000E+00  0.33726699916E+03  0.33726699916E+03  0.00000000000E+00 0. -1.
         21   -1    0    0  502  503 -0.00000000000E+00 -0.00000000000E+00 -0.50399612996E+03  0.50399612996E+03  0.00000000000E+00 0.  1.
          6    1    1    2  501    0  0.30150103815E+03  0.70861631814E+02  0.13095337780E+03  0.37815609743E+03  0.17300000000E+03 0. -1.
         -6    1    1    2    0  503 -0.30150103815E+03 -0.70861631814E+02 -0.29768250860E+03  0.46310703168E+03  0.17300000000E+03 0.  1.
<mgrwt>
<rscale>  2 0.35475801E+03</rscale>
<asrwt>0</asrwt>
<pdfrwt beam="1">  1       21 0.51887231E-01 0.35475801E+03</pdfrwt>
<pdfrwt beam="2">  1       21 0.77537866E-01 0.35475801E+03</pdfrwt>
<totfact> 0.47371292E+03</totfact>
</mgrwt>
</event>
<event>
 4    1  0.3974123E+000  0.2113448E+03  0.7546771E-02  0.1140505E+00
         21   -1    0    0  501  502  0.00000000000E+00  0.00000000000E+00  0.57267806677E+03  0.57267806677E+03  0.00000000000E+00 0. -1.
         21   -1    0    0  502  503 -0.00000000000E+00 -0.00000000000E+00 -0.89763968475E+02  0.89763968475E+02  0.00000000000E+00 0. -1.
          6    1    1    2  501    0 -0.19055125136E+02  0.11989380761E+03  0.36138400965E+03  0.41864665928E+03  0.17300000000E+03 0. -1.
         -6    1    1    2    0  503  0.19055125136E+02 -0.11989380761E+03  0.12153008865E+03  0.24379537597E+03  0.17300000000E+03 0. -1.
<mgrwt>
<rscale>  2 0.21134480E+03</rscale>
<asrwt>0</asrwt>
<pdfrwt beam="1">  1       21 0.88104316E-01 0.21134480E+03</pdfrwt>
<pdfrwt beam="2">  1       21 0.13809842E-01 0.21134480E+03</pdfrwt>
<totfact> 0.49830217E+04</totfact>
</mgrwt>
</event>
<event>
 4    1  0.3974123E+000  0.2183575E+03  0.7546771E-02  0.1135114E+00
         21   -1    0    0  501  502  0.00000000000E+00  0.00000000000E+00  0.13636859809E+03  0.13636859809E+03  0.00000000000E+00 0. -1.
         21   -1    0    0  502  503 -0.00000000000E+00 -0.00000000000E+00 -0.38311838875E+03  0.38311838875E+03  0.00000000000E+00 0. -1.
          6    1    1    2  501    0 -0.88676292596E+02  0.99435921462E+02 -0.46593307447E+02  0.22327320404E+03  0.17300000000E+03 0. -1.
         -6    1    1    2    0  503  0.88676292596E+02 -0.99435921462E+02 -0.20015648322E+03  0.29621378280E+03  0.17300000000E+03 0. -1.
<mgrwt>
<rscale>  2 0.21835748E+03</rscale>
<asrwt>0</asrwt>
<pdfrwt beam="1">  1       21 0.20979785E-01 0.21835748E+03</pdfrwt>
<pdfrwt beam="2">  1       21 0.58941290E-01 0.21835748E+03</pdfrwt>
<totfact> 0.56143249E+04</totfact>
</mgrwt>
</event>
<event>
 4    1  0.3974123E+000  0.1995325E+03  0.7546771E-02  0.1150134E+00
         21   -1    0    0  501  502  0.00000000000E+00  0.00000000000E+00  0.15430222261E+03  0.15430222261E+03  0.00000000000E+00 0.  1.
         21   -1    0    0  502  503 -0.00000000000E+00 -0.00000000000E+00 -0.63338237138E+03  0.63338237138E+03  0.00000000000E+00 0. -1.
          6    1    1    2  501    0  0.71921740007E+02 -0.68640174316E+02  0.63649436057E+02  0.20943844185E+03  0.17300000000E+03 0.  1.
         -6    1    1    2    0  503 -0.71921740007E+02  0.68640174316E+02 -0.54272958483E+03  0.57824615214E+03  0.17300000000E+03 0. -1.
<mgrwt>
<rscale>  2 0.19953248E+03</rscale>
<asrwt>0</asrwt>
<pdfrwt beam="1">  1       21 0.23738804E-01 0.19953248E+03</pdfrwt>
<pdfrwt beam="2">  1       21 0.97443440E-01 0.19953248E+03</pdfrwt>
<totfact> 0.14522331E+04</totfact>
</mgrwt>
</event>
<event>
 4    1  0.3974123E+000  0.1896390E+03  0.7546771E-02  0.1158787E+00
         21   -1    0    0  503  502  0.00000000000E+00  0.00000000000E+00  0.17865051616E+04  0.17865051616E+04  0.00000000000E+00 0.  1.
         21   -1    0    0  501  503 -0.00000000000E+00 -0.00000000000E+00 -0.21224537790E+02  0.21224537790E+02  0.00000000000E+00 0.  1.
          6    1    1    2  501    0 -0.18619157614E+02 -0.75414004951E+02  0.67741376825E+03  0.70345743196E+03  0.17300000000E+03 0.  1.
         -6    1    1    2    0  502  0.18619157614E+02  0.75414004951E+02  0.10878668555E+04  0.11042722674E+04  0.17300000000E+03 0.  1.
<mgrwt>
<rscale>  2 0.18963899E+03</rscale>
<asrwt>0</asrwt>
<pdfrwt beam="1">  1       21 0.27484683E+00 0.18963899E+03</pdfrwt>
<pdfrwt beam="2">  1       21 0.32653149E-02 0.18963899E+03</pdfrwt>
<totfact> 0.26272592E+04</totfact>
</mgrwt>
</event>
<event>
 4    1  0.3974123E+000  0.2413450E+03  0.7546771E-02  0.1118900E+00
         21   -1    0    0  503  502  0.00000000000E+00  0.00000000000E+00  0.28845959953E+03  0.28845959953E+03  0.00000000000E+00 0. -1.
         21   -1    0    0  501  503 -0.00000000000E+00 -0.00000000000E+00 -0.25190483591E+03  0.25190483591E+03  0.00000000000E+00 0. -1.
          6    1    1    2  501    0 -0.16772212259E+03 -0.13700468312E+02 -0.10206892876E+03  0.26204098812E+03  0.17300000000E+03 0. -1.
         -6    1    1    2    0  502  0.16772212259E+03  0.13700468312E+02  0.13862369239E+03  0.27832344732E+03  0.17300000000E+03 0. -1.
<mgrwt>
<rscale>  2 0.24134501E+03</rscale>
<asrwt>0</asrwt>
<pdfrwt beam="1">  1       21 0.44378400E-01 0.24134501E+03</pdfrwt>
<pdfrwt beam="2">  1       21 0.38754590E-01 0.24134501E+03</pdfrwt>
<totfact> 0.30539175E+04</totfact>
</mgrwt>
</event>
<event>
 4    1  0.3974123E+000  0.2048637E+03  0.7546771E-02  0.1145699E+00
         21   -1    0    0  503  502  0.00000000000E+00  0.00000000000E+00  0.16104889903E+03  0.16104889903E+03  0.00000000000E+00 0.  1.
         21   -1    0    0  501  503 -0.00000000000E+00 -0.00000000000E+00 -0.35164734206E+03  0.35164734206E+03  0.00000000000E+00 0.  1.
          6    1    1    2  501    0 -0.39998000779E+02 -0.10217772913E+03 -0.22573997039E+03  0.30484038877E+03  0.17300000000E+03 0.  1.
         -6    1    1    2    0  502  0.39998000779E+02  0.10217772913E+03  0.35141527369E+02  0.20785585231E+03  0.17300000000E+03 0.  1.
<mgrwt>
<rscale>  2 0.20486368E+03</rscale>
<asrwt>0</asrwt>
<pdfrwt beam="1">  1       21 0.24776754E-01 0.20486368E+03</pdfrwt>
<pdfrwt beam="2">  1       21 0.54099591E-01 0.20486368E+03</pdfrwt>
<totfact> 0.49469956E+04</totfact>
</mgrwt>
</event>
<event>
 4    1  0.3974123E+000  0.3371361E+03  0.7546771E-02  0.1068022E+00
         21   -1    0    0  503  502  0.00000000000E+00  0.00000000000E+00  0.52832378922E+02  0.52832378922E+02  0.00000000000E+00 0. -1.
         21   -1    0    0  501  503 -0.00000000000E+00 -0.00000000000E+00 -0.22093108606E+04  0.22093108606E+04  0.00000000000E+00 0.  1.
          6    1    1    2  501    0  0.23192251388E+03  0.17304255622E+03 -0.12614455508E+04  0.13057203592E+04  0.17300000000E+03 0.  1.
         -6    1    1    2    0  502 -0.23192251388E+03 -0.17304255622E+03 -0.89503293085E+03  0.95642288033E+03  0.17300000000E+03 0. -1.
<mgrwt>
<rscale>  2 0.33713614E+03</rscale>
<asrwt>0</asrwt>
<pdfrwt beam="1">  1       21 0.81280570E-02 0.33713614E+03</pdfrwt>
<pdfrwt beam="2">  1       21 0.33989403E+00 0.33713614E+03</pdfrwt>
<totfact> 0.20263049E+03</totfact>
</mgrwt>
</event>
<event>
 4    1  0.3974123E+000  0.2061591E+03  0.7546771E-02  0.1144644E+00
         21   -1    0    0  503  502  0.00000000000E+00  0.00000000000E+00  0.13648102672E+03  0.13648102672E+03  0.00000000000E+00 0. -1.
         21   -1    0    0  501  503 -0.00000000000E+00 -0.00000000000E+00 -0.31203513063E+03  0.31203513063E+03  0.00000000000E+00 0. -1.
          6    1    1    2  501    0 -0.17582743747E+02 -0.11074029596E+03 -0.77739967674E+02  0.22032945468E+03  0.17300000000E+03 0. -1.
         -6    1    1    2    0  502  0.17582743747E+02  0.11074029596E+03 -0.97814136238E+02  0.22818670267E+03  0.17300000000E+03 0. -1.
<mgrwt>
<rscale>  2 0.20615908E+03</rscale>
<asrwt>0</asrwt>
<pdfrwt beam="1">  1       21 0.20997081E-01 0.20615908E+03</pdfrwt>
<pdfrwt beam="2">  1       21 0.48005405E-01 0.20615908E+03</pdfrwt>
<totfact> 0.86895580E+04</totfact>
</mgrwt>
</event>
<event>
 4    1  0.3974123E+000  0.1920992E+03  0.7546771E-02  0.1156581E+00
         21   -1    0    0  501  502  0.00000000000E+00  0.00000000000E+00  0.28187921452E+03  0.28187921452E+03  0.00000000000E+00 0.  1.
         21   -1    0    0  502  503 -0.00000000000E+00 -0.00000000000E+00 -0.15442203871E+03  0.15442203871E+03  0.00000000000E+00 0.  1.
          6    1    1    2  501    0  0.74379037716E+02 -0.37958733602E+02  0.14884325632E+03  0.24301527042E+03  0.17300000000E+03 0.  1.
         -6    1    1    2    0  503 -0.74379037716E+02  0.37958733602E+02 -0.21386080515E+02  0.19328598280E+03  0.17300000000E+03 0.  1.
<mgrwt>
<rscale>  2 0.19209921E+03</rscale>
<asrwt>0</asrwt>
<pdfrwt beam="1">  1       21 0.43366033E-01 0.19209921E+03</pdfrwt>
<pdfrwt beam="2">  1       21 0.23757237E-01 0.19209921E+03</pdfrwt>
<totfact> 0.85341690E+04</totfact>
</mgrwt>
</event>
<event>
 4    1  0.3974123E+000  0.1824603E+03  0.7546771E-02  0.1165443E+00
         21   -1    0    0  503  502  0.00000000000E+00  0.00000000000E+00  0.44348276593E+02  0.44348276593E+02  0.00000000000E+00 0.  1.
         21   -1    0    0  501  503 -0.00000000000E+00 -0.00000000000E+00 -0.76703144513E+03  0.76703144513E+03  0.00000000000E+00 0.  1.
          6    1    1    2  501    0 -0.26283123258E+02  0.51691129407E+02 -0.42055805032E+03  0.45843303668E+03  0.17300000000E+03 0.  1.
         -6    1    1    2    0  502  0.26283123258E+02 -0.51691129407E+02 -0.30212511822E+03  0.35294668505E+03  0.17300000000E+03 0.  1.
<mgrwt>
<rscale>  2 0.18246034E+03</rscale>
<asrwt>0</asrwt>
<pdfrwt beam="1">  1       21 0.68228114E-02 0.18246034E+03</pdfrwt>
<pdfrwt beam="2">  1       21 0.11800485E+00 0.18246034E+03</pdfrwt>
<totfact> 0.87427001E+04</totfact>
</mgrwt>
</event>
<event>
 4    1  0.3974123E+000  0.2037666E+03  0.7546771E-02  0.1146599E+00
         21   -1    0    0  503  502  0.00000000000E+00  0.00000000000E+00  0.73896810151E+03  0.73896810151E+03  0.00000000000E+00 0.  1.
         21   -1    0    0  501  503 -0.00000000000E+00 -0.00000000000E+00 -0.16949174549E+03  0.16949174549E+03  0.00000000000E+00 0.  1.
          6    1    1    2  501    0  0.26664304341E+02  0.10431126694E+03 -0.86646868233E+02  0.22142381379E+03  0.17300000000E+03 0.  1.
         -6    1    1    2    0  502 -0.26664304341E+02 -0.10431126694E+03  0.65612322425E+03  0.68703603322E+03  0.17300000000E+03 0.  1.
<mgrwt>
<rscale>  2 0.20376660E+03</rscale>
<asrwt>0</asrwt>
<pdfrwt beam="1">  1       21 0.11368740E+00 0.20376660E+03</pdfrwt>
<pdfrwt beam="2">  1       21 0.26075654E-01 0.20376660E+03</pdfrwt>
<totfact> 0.83559283E+03</totfact>
</mgrwt>
</event>
<event>
 4    1  0.3974123E+000  0.2129665E+03  0.7546771E-02  0.1139238E+00
         21   -1    0    0  503  502  0.00000000000E+00  0.00000000000E+00  0.28156510552E+03  0.28156510552E+03  0.00000000000E+00 0. -1.
         21   -1    0    0  501  503 -0.00000000000E+00 -0.00000000000E+00 -0.20290581813E+03  0.20290581813E+03  0.00000000000E+00 0. -1.
          6    1    1    2  501    0  0.99016834180E+02 -0.74976043539E+02 -0.70649007972E+02  0.22437919441E+03  0.17300000000E+03 0. -1.
         -6    1    1    2    0  502 -0.99016834180E+02  0.74976043539E+02  0.14930829536E+03  0.26009172924E+03  0.17300000000E+03 0. -1.
<mgrwt>
<rscale>  2 0.21296652E+03</rscale>
<asrwt>0</asrwt>
<pdfrwt beam="1">  1       21 0.43317709E-01 0.21296652E+03</pdfrwt>
<pdfrwt beam="2">  1       21 0.31216280E-01 0.21296652E+03</pdfrwt>
<totfact> 0.50026029E+04</totfact>
</mgrwt>
</event>
<event>
 4    1  0.3974123E+000  0.1967949E+03  0.7546771E-02  0.1152472E+00
         21   -1    0    0  503  502  0.00000000000E+00  0.00000000000E+00  0.52473680907E+02  0.52473680907E+02  0.00000000000E+00 0. -1.
         21   -1    0    0  501  503 -0.00000000000E+00 -0.00000000000E+00 -0.91185370413E+03  0.91185370413E+03  0.00000000000E+00 0. -1.
          6    1    1    2  501    0 -0.24759301036E+02 -0.90477592395E+02 -0.64019433404E+03  0.66975891412E+03  0.17300000000E+03 0. -1.
         -6    1    1    2    0  502  0.24759301036E+02  0.90477592395E+02 -0.21918568919E+03  0.29456847092E+03  0.17300000000E+03 0. -1.
<mgrwt>
<rscale>  2 0.19679486E+03</rscale>
<asrwt>0</asrwt>
<pdfrwt beam="1">  1       21 0.80728736E-02 0.19679486E+03</pdfrwt>
<pdfrwt beam="2">  1       21 0.14028519E+00 0.19679486E+03</pdfrwt>
<totfact> 0.41946067E+04</totfact>
</mgrwt>
</event>
<event>
 4    1  0.3974123E+000  0.1742810E+03  0.7546771E-02  0.1173456E+00
         21   -1    0    0  501  502  0.00000000000E+00  0.00000000000E+00  0.16975726598E+03  0.16975726598E+03  0.00000000000E+00 0.  1.
         21   -1    0    0  502  503 -0.00000000000E+00 -0.00000000000E+00 -0.17963981668E+03  0.17963981668E+03  0.00000000000E+00 0.  1.
          6    1    1    2  501    0 -0.18428128015E+02  0.10259656291E+02  0.60771100930E+01  0.17438689090E+03  0.17300000000E+03 0.  1.
         -6    1    1    2    0  503  0.18428128015E+02 -0.10259656291E+02 -0.15959660789E+02  0.17501019177E+03  0.17300000000E+03 0.  1.
<mgrwt>
<rscale>  2 0.17428097E+03</rscale>
<asrwt>0</asrwt>
<pdfrwt beam="1">  1       21 0.26116503E-01 0.17428097E+03</pdfrwt>
<pdfrwt beam="2">  1       21 0.27636895E-01 0.17428097E+03</pdfrwt>
<totfact> 0.17504726E+05</totfact>
</mgrwt>
</event>
<event>
 4    1  0.3974123E+000  0.2135650E+03  0.7546771E-02  0.1138774E+00
         21   -1    0    0  503  502  0.00000000000E+00  0.00000000000E+00  0.41393486272E+03  0.41393486272E+03  0.00000000000E+00 0.  1.
         21   -1    0    0  501  503 -0.00000000000E+00 -0.00000000000E+00 -0.28307693710E+03  0.28307693710E+03  0.00000000000E+00 0.  1.
          6    1    1    2  501    0  0.11476975597E+03  0.50089031141E+02 -0.20693111859E+03  0.29737265470E+03  0.17300000000E+03 0.  1.
         -6    1    1    2    0  502 -0.11476975597E+03 -0.50089031141E+02  0.33778904420E+03  0.39963914511E+03  0.17300000000E+03 0.  1.
<mgrwt>
<rscale>  2 0.21356500E+03</rscale>
<asrwt>0</asrwt>
<pdfrwt beam="1">  1       21 0.63682287E-01 0.21356500E+03</pdfrwt>
<pdfrwt beam="2">  1       21 0.43550298E-01 0.21356500E+03</pdfrwt>
<totfact> 0.11388790E+04</totfact>
</mgrwt>
</event>
<event>
 4    1  0.3974123E+000  0.2514779E+03  0.7546771E-02  0.1112374E+00
         21   -1    0    0  501  502  0.00000000000E+00  0.00000000000E+00  0.28930170662E+03  0.28930170662E+03  0.00000000000E+00 0. -1.
         21   -1    0    0  502  503 -0.00000000000E+00 -0.00000000000E+00 -0.23747233833E+03  0.23747233833E+03  0.00000000000E+00 0.  1.
          6    1    1    2  501    0  0.14967836012E+03 -0.10444377933E+03  0.10016703397E+03  0.27069272104E+03  0.17300000000E+03 0.  1.
         -6    1    1    2    0  503 -0.14967836012E+03  0.10444377933E+03 -0.48337665673E+02  0.25608132391E+03  0.17300000000E+03 0. -1.
<mgrwt>
<rscale>  2 0.25147786E+03</rscale>
<asrwt>0</asrwt>
<pdfrwt beam="1">  1       21 0.44507955E-01 0.25147786E+03</pdfrwt>
<pdfrwt beam="2">  1       21 0.36534206E-01 0.25147786E+03</pdfrwt>
<totfact> 0.34035967E+04</totfact>
</mgrwt>
</event>
<event>
 4    1  0.3974123E+000  0.1815852E+03  0.7546771E-02  0.1166278E+00
         21   -1    0    0  501  502  0.00000000000E+00  0.00000000000E+00  0.59734794738E+03  0.59734794738E+03  0.00000000000E+00 0.  1.
         21   -1    0    0  502  503 -0.00000000000E+00 -0.00000000000E+00 -0.55413399114E+02  0.55413399114E+02  0.00000000000E+00 0.  1.
          6    1    1    2  501    0  0.35832537693E+02 -0.41955002797E+02  0.29125423036E+03  0.34322327969E+03  0.17300000000E+03 0.  1.
         -6    1    1    2    0  503 -0.35832537693E+02  0.41955002797E+02  0.25068031791E+03  0.30953806681E+03  0.17300000000E+03 0.  1.
<mgrwt>
<rscale>  2 0.18158522E+03</rscale>
<asrwt>0</asrwt>
<pdfrwt beam="1">  1       21 0.91899680E-01 0.18158522E+03</pdfrwt>
<pdfrwt beam="2">  1       21 0.85251387E-02 0.18158522E+03</pdfrwt>
<totfact> 0.10797153E+05</totfact>
</mgrwt>
</event>
<event>
 4    1  0.3974123E+000  0.2062000E+03  0.7546771E-02  0.1144611E+00
         21   -1    0    0  503  502  0.00000000000E+00  0.00000000000E+00  0.15488433255E+04  0.15488433255E+04  0.00000000000E+00 0.  1.
         21   -1    0    0  501  503 -0.00000000000E+00 -0.00000000000E+00 -0.34400996844E+02  0.34400996844E+02  0.00000000000E+00 0.  1.
          6    1    1    2  501    0 -0.89672458558E+02  0.67441003445E+02  0.40142462246E+03  0.45128723257E+03  0.17300000000E+03 0.  1.
         -6    1    1    2    0  502  0.89672458558E+02 -0.67441003445E+02  0.11130177062E+04  0.11319570898E+04  0.17300000000E+03 0.  1.
<mgrwt>
<rscale>  2 0.20620000E+03</rscale>
<asrwt>0</asrwt>
<pdfrwt beam="1">  1       21 0.23828353E+00 0.20620000E+03</pdfrwt>
<pdfrwt beam="2">  1       21 0.52924623E-02 0.20620000E+03</pdfrwt>
<totfact> 0.18835995E+04</totfact>
</mgrwt>
</event>
<event>
 4    1  0.3974123E+000  0.2456498E+03  0.7546771E-02  0.1116085E+00
         21   -1    0    0  501  502  0.00000000000E+00  0.00000000000E+00  0.40864273376E+03  0.40864273376E+03  0.00000000000E+00 0.  1.
         21   -1    0    0  502  503 -0.00000000000E+00 -0.00000000000E+00 -0.17614346481E+03  0.17614346481E+03  0.00000000000E+00 0.  1.
          6    1    1    2  501    0  0.17170978874E+03 -0.30504938481E+02  0.23381050011E+03  0.33913294264E+03  0.17300000000E+03 0.  1.
         -6    1    1    2    0  503 -0.17170978874E+03  0.30504938481E+02 -0.13112311625E+01  0.24565325593E+03  0.17300000000E+03 0.  1.
<mgrwt>
<rscale>  2 0.24564976E+03</rscale>
<asrwt>0</asrwt>
<pdfrwt beam="1">  1       21 0.62868113E-01 0.24564976E+03</pdfrwt>
<pdfrwt beam="2">  1       21 0.27098995E-01 0.24564976E+03</pdfrwt>
<totfact> 0.29597787E+04</totfact>
</mgrwt>
</event>
<event>
 4    1  0.3974123E+000  0.2585067E+03  0.7546771E-02  0.1108044E+00
         21   -1    0    0  501  502  0.00000000000E+00  0.00000000000E+00  0.47873962114E+03  0.47873962114E+03  0.00000000000E+00 0. -1.
         21   -1    0    0  502  503 -0.00000000000E+00 -0.00000000000E+00 -0.14150337666E+03  0.14150337666E+03  0.00000000000E+00 0.  1.
          6    1    1    2  501    0  0.74925238327E+02 -0.17686974123E+03  0.20471086320E+03  0.32974571144E+03  0.17300000000E+03 0.  1.
         -6    1    1    2    0  503 -0.74925238327E+02  0.17686974123E+03  0.13252538127E+03  0.29049728636E+03  0.17300000000E+03 0. -1.
<mgrwt>
<rscale>  2 0.25850667E+03</rscale>
<asrwt>0</asrwt>
<pdfrwt beam="1">  1       21 0.73652249E-01 0.25850667E+03</pdfrwt>
<pdfrwt beam="2">  1       21 0.21769750E-01 0.25850667E+03</pdfrwt>
<totfact> 0.31556253E+04</totfact>
</mgrwt>
</event>
<event>
 4    1  0.3974123E+000  0.5397108E+03  0.7546771E-02  0.1003904E+00
         21   -1    0    0  503  502  0.00000000000E+00  0.00000000000E+00  0.18771976398E+04  0.18771976398E+04  0.00000000000E+00 0. -1.
         21   -1    0    0  501  503 -0.00000000000E+00 -0.00000000000E+00 -0.25199167523E+03  0.25199167523E+03  0.00000000000E+00 0.  1.
          6    1    1    2  501    0 -0.92855802351E+02 -0.50272908940E+03  0.15270937371E+03  0.56089918005E+03  0.17300000000E+03 0.  1.
         -6    1    1    2    0  502  0.92855802351E+02  0.50272908940E+03  0.14724965909E+04  0.15682901350E+04  0.17300000000E+03 0. -1.
<mgrwt>
<rscale>  2 0.53971079E+03</rscale>
<asrwt>0</asrwt>
<pdfrwt beam="1">  1       21 0.28879963E+00 0.53971079E+03</pdfrwt>
<pdfrwt beam="2">  1       21 0.38767951E-01 0.53971079E+03</pdfrwt>
<totfact> 0.19019288E+02</totfact>
</mgrwt>
</event>
<event>
 4    1  0.3974123E+000  0.2652996E+03  0.7546771E-02  0.1104000E+00
         21   -1    0    0  503  502  0.00000000000E+00  0.00000000000E+00  0.89166756789E+03  0.89166756789E+03  0.00000000000E+00 0. -1.
         21   -1    0    0  501  503 -0.00000000000E+00 -0.00000000000E+00 -0.78991129429E+02  0.78991129429E+02  0.00000000000E+00 0. -1.
          6    1    1    2  501    0 -0.76726905230E+02  0.18592434841E+03  0.39341411744E+03  0.47450874504E+03  0.17300000000E+03 0. -1.
         -6    1    1    2    0  502  0.76726905230E+02 -0.18592434841E+03  0.41926232102E+03  0.49614995228E+03  0.17300000000E+03 0. -1.
<mgrwt>
<rscale>  2 0.26529961E+03</rscale>
<asrwt>0</asrwt>
<pdfrwt beam="1">  1       21 0.13717962E+00 0.26529961E+03</pdfrwt>
<pdfrwt beam="2">  1       21 0.12152482E-01 0.26529961E+03</pdfrwt>
<totfact> 0.20751542E+04</totfact>
</mgrwt>
</event>
<event>
 4    1  0.3974123E+000  0.2255393E+03  0.7546771E-02  0.1129819E+00
         21   -1    0    0  503  502  0.00000000000E+00  0.00000000000E+00  0.20845911898E+03  0.20845911898E+03  0.00000000000E+00 0.  1.
         21   -1    0    0  501  503 -0.00000000000E+00 -0.00000000000E+00 -0.24647844550E+03  0.24647844550E+03  0.00000000000E+00 0.  1.
          6    1    1    2  501    0  0.71389154783E+02 -0.12586732012E+03  0.37123897397E+01  0.22556989057E+03  0.17300000000E+03 0.  1.
         -6    1    1    2    0  502 -0.71389154783E+02  0.12586732012E+03 -0.41731716256E+02  0.22936767391E+03  0.17300000000E+03 0.  1.
<mgrwt>
<rscale>  2 0.22553934E+03</rscale>
<asrwt>0</asrwt>
<pdfrwt beam="1">  1       21 0.32070634E-01 0.22553934E+03</pdfrwt>
<pdfrwt beam="2">  1       21 0.37919761E-01 0.22553934E+03</pdfrwt>
<totfact> 0.61814660E+04</totfact>
</mgrwt>
</event>
<event>
 4    1  0.3974123E+000  0.1940862E+03  0.7546771E-02  0.1154827E+00
         21   -1    0    0  503  502  0.00000000000E+00  0.00000000000E+00  0.20435820374E+03  0.20435820374E+03  0.00000000000E+00 0.  1.
         21   -1    0    0  501  503 -0.00000000000E+00 -0.00000000000E+00 -0.20653461945E+03  0.20653461945E+03  0.00000000000E+00 0.  1.
          6    1    1    2  501    0  0.61240532804E+02  0.63166719817E+02 -0.68450911194E+02  0.20580321813E+03  0.17300000000E+03 0.  1.
         -6    1    1    2    0  502 -0.61240532804E+02 -0.63166719817E+02  0.66274495482E+02  0.20508960506E+03  0.17300000000E+03 0.  1.
<mgrwt>
<rscale>  2 0.19408616E+03</rscale>
<asrwt>0</asrwt>
<pdfrwt beam="1">  1       21 0.31439724E-01 0.19408616E+03</pdfrwt>
<pdfrwt beam="2">  1       21 0.31774557E-01 0.19408616E+03</pdfrwt>
<totfact> 0.92552567E+04</totfact>
</mgrwt>
</event>
<event>
 4    1  0.3974123E+000  0.1902907E+03  0.7546771E-02  0.1158199E+00
         21   -1    0    0  503  502  0.00000000000E+00  0.00000000000E+00  0.31598344439E+03  0.31598344439E+03  0.00000000000E+00 0. -1.
         21   -1    0    0  501  503 -0.00000000000E+00 -0.00000000000E+00 -0.19511605439E+03  0.19511605439E+03  0.00000000000E+00 0. -1.
          6    1    1    2  501    0 -0.75514322897E+02  0.24065059459E+02 -0.10373113543E+03  0.21672722142E+03  0.17300000000E+03 0. -1.
         -6    1    1    2    0  502  0.75514322897E+02 -0.24065059459E+02  0.22459852542E+03  0.29437227735E+03  0.17300000000E+03 0. -1.
<mgrwt>
<rscale>  2 0.19029067E+03</rscale>
<asrwt>0</asrwt>
<pdfrwt beam="1">  1       21 0.48612838E-01 0.19029067E+03</pdfrwt>
<pdfrwt beam="2">  1       21 0.30017854E-01 0.19029067E+03</pdfrwt>
<totfact> 0.43053727E+04</totfact>
</mgrwt>
</event>
<event>
 4    1  0.3974123E+000  0.2698167E+03  0.7546771E-02  0.1101385E+00
         21   -1    0    0  503  502  0.00000000000E+00  0.00000000000E+00  0.52508752997E+03  0.52508752997E+03  0.00000000000E+00 0. -1.
         21   -1    0    0  501  503 -0.00000000000E+00 -0.00000000000E+00 -0.13865055817E+03  0.13865055817E+03  0.00000000000E+00 0.  1.
          6    1    1    2  501    0 -0.20464682386E+03 -0.31491684418E+02  0.19521329942E+03  0.33303045052E+03  0.17300000000E+03 0.  1.
         -6    1    1    2    0  502  0.20464682386E+03  0.31491684418E+02  0.19122367238E+03  0.33070763762E+03  0.17300000000E+03 0. -1.
<mgrwt>
<rscale>  2 0.26981669E+03</rscale>
<asrwt>0</asrwt>
<pdfrwt beam="1">  1       21 0.80782696E-01 0.26981669E+03</pdfrwt>
<pdfrwt beam="2">  1       21 0.21330855E-01 0.26981669E+03</pdfrwt>
<totfact> 0.26479030E+04</totfact>
</mgrwt>
</event>
<event>
 4    1  0.3974123E+000  0.1946799E+03  0.7546771E-02  0.1154307E+00
         21   -1    0    0  503  502  0.00000000000E+00  0.00000000000E+00  0.61011195605E+02  0.61011195605E+02  0.00000000000E+00 0.  1.
         21   -1    0    0  501  503 -0.00000000000E+00 -0.00000000000E+00 -0.14418741623E+04  0.14418741623E+04  0.00000000000E+00 0.  1.
          6    1    1    2  501    0 -0.88878906400E+02  0.84725745232E+01 -0.12573454657E+04  0.12723277348E+04  0.17300000000E+03 0.  1.
         -6    1    1    2    0  502  0.88878906400E+02 -0.84725745232E+01 -0.12351750092E+03  0.23055762307E+03  0.17300000000E+03 0.  1.
<mgrwt>
<rscale>  2 0.19467985E+03</rscale>
<asrwt>0</asrwt>
<pdfrwt beam="1">  1       21 0.93863369E-02 0.19467985E+03</pdfrwt>
<pdfrwt beam="2">  1       21 0.22182681E+00 0.19467985E+03</pdfrwt>
<totfact> 0.88787860E+03</totfact>
</mgrwt>
</event>
<event>
 4    1  0.3974123E+000  0.2011336E+03  0.7546771E-02  0.1148786E+00
         21   -1    0    0  503  502  0.00000000000E+00  0.00000000000E+00  0.40667078042E+03  0.40667078042E+03  0.00000000000E+00 0.  1.
         21   -1    0    0  501  503 -0.00000000000E+00 -0.00000000000E+00 -0.14074669047E+03  0.14074669047E+03  0.00000000000E+00 0. -1.
          6    1    1    2  501    0  0.10242003587E+03  0.59874771329E+01 -0.15249137030E+02  0.20171080737E+03  0.17300000000E+03 0. -1.
         -6    1    1    2    0  502 -0.10242003587E+03 -0.59874771329E+01  0.28117322698E+03  0.34570666351E+03  0.17300000000E+03 0.  1.
<mgrwt>
<rscale>  2 0.20113357E+03</rscale>
<asrwt>0</asrwt>
<pdfrwt beam="1">  1       21 0.62564735E-01 0.20113357E+03</pdfrwt>
<pdfrwt beam="2">  1       21 0.21653337E-01 0.20113357E+03</pdfrwt>
<totfact> 0.46892945E+04</totfact>
</mgrwt>
</event>
<event>
 4    1  0.3974123E+000  0.1809788E+03  0.7546771E-02  0.1166859E+00
         21   -1    0    0  501  502  0.00000000000E+00  0.00000000000E+00  0.69330437633E+03  0.69330437633E+03  0.00000000000E+00 0. -1.
         21   -1    0    0  502  503 -0.00000000000E+00 -0.00000000000E+00 -0.58434947028E+02  0.58434947028E+02  0.00000000000E+00 0. -1.
          6    1    1    2  501    0  0.35138194339E+02 -0.39870293102E+02  0.48193484280E+03  0.51479561544E+03  0.17300000000E+03 0. -1.
         -6    1    1    2    0  503 -0.35138194339E+02  0.39870293102E+02  0.15293458651E+03  0.23694370792E+03  0.17300000000E+03 0. -1.
<mgrwt>
<rscale>  2 0.18097882E+03</rscale>
<asrwt>0</asrwt>
<pdfrwt beam="1">  1       21 0.10666221E+00 0.18097882E+03</pdfrwt>
<pdfrwt beam="2">  1       21 0.89899924E-02 0.18097882E+03</pdfrwt>
<totfact> 0.69231162E+04</totfact>
</mgrwt>
</event>
<event>
 4    1  0.3974123E+000  0.2142556E+03  0.7546771E-02  0.1138240E+00
         21   -1    0    0  501  502  0.00000000000E+00  0.00000000000E+00  0.52215866225E+03  0.52215866225E+03  0.00000000000E+00 0. -1.
         21   -1    0    0  502  503 -0.00000000000E+00 -0.00000000000E+00 -0.98070049801E+02  0.98070049801E+02  0.00000000000E+00 0. -1.
          6    1    1    2  501    0  0.11033144149E+02  0.12591551817E+03  0.31183730166E+03  0.37834898004E+03  0.17300000000E+03 0. -1.
         -6    1    1    2    0  503 -0.11033144149E+02 -0.12591551817E+03  0.11225131079E+03  0.24187973202E+03  0.17300000000E+03 0. -1.
<mgrwt>
<rscale>  2 0.21425557E+03</rscale>
<asrwt>0</asrwt>
<pdfrwt beam="1">  1       21 0.80332101E-01 0.21425557E+03</pdfrwt>
<pdfrwt beam="2">  1       21 0.15087700E-01 0.21425557E+03</pdfrwt>
<totfact> 0.52333188E+04</totfact>
</mgrwt>
</event>
<event>
 4    1  0.3974123E+000  0.1844970E+03  0.7546771E-02  0.1163520E+00
         21   -1    0    0  501  502  0.00000000000E+00  0.00000000000E+00  0.48515752335E+03  0.48515752335E+03  0.00000000000E+00 0. -1.
         21   -1    0    0  502  503 -0.00000000000E+00 -0.00000000000E+00 -0.70246759186E+02  0.70246759186E+02  0.00000000000E+00 0.  1.
          6    1    1    2  501    0 -0.62986901534E+02  0.11948848643E+02  0.19775094576E+03  0.27045251209E+03  0.17300000000E+03 0. -1.
         -6    1    1    2    0  503  0.62986901534E+02 -0.11948848643E+02  0.21715981840E+03  0.28495177044E+03  0.17300000000E+03 0. -1.
<mgrwt>
<rscale>  2 0.18449695E+03</rscale>
<asrwt>0</asrwt>
<pdfrwt beam="1">  1       21 0.74639617E-01 0.18449695E+03</pdfrwt>
<pdfrwt beam="2">  1       21 0.10807194E-01 0.18449695E+03</pdfrwt>
<totfact> 0.11400167E+05</totfact>
</mgrwt>
</event>
<event>
 4    1  0.3974123E+000  0.1856653E+03  0.7546771E-02  0.1162430E+00
         21   -1    0    0  503  502  0.00000000000E+00  0.00000000000E+00  0.28329500935E+02  0.28329500935E+02  0.00000000000E+00 0.  1.
         21   -1    0    0  501  503 -0.00000000000E+00 -0.00000000000E+00 -0.21318249539E+04  0.21318249539E+04  0.00000000000E+00 0.  1.
          6    1    1    2  501    0 -0.21610829498E+02  0.63840324186E+02 -0.17593564481E+04  0.17691259781E+04  0.17300000000E+03 0.  1.
         -6    1    1    2    0  502  0.21610829498E+02 -0.63840324186E+02 -0.34413900488E+03  0.39102847674E+03  0.17300000000E+03 0.  1.
<mgrwt>
<rscale>  2 0.18566533E+03</rscale>
<asrwt>0</asrwt>
<pdfrwt beam="1">  1       21 0.43583853E-02 0.18566533E+03</pdfrwt>
<pdfrwt beam="2">  1       21 0.32797303E+00 0.18566533E+03</pdfrwt>
<totfact> 0.80493796E+03</totfact>
</mgrwt>
</event>
<event>
 4    1  0.3974123E+000  0.1753257E+03  0.7546771E-02  0.1172405E+00
         21   -1    0    0  503  502  0.00000000000E+00  0.00000000000E+00  0.21029613103E+03  0.21029613103E+03  0.00000000000E+00 0.  1.
         21   -1    0    0  501  503 -0.00000000000E+00 -0.00000000000E+00 -0.20502237154E+03  0.20502237154E+03  0.00000000000E+00 0.  1.
          6    1    1    2  501    0  0.19971591035E+02  0.20279355432E+02 -0.10862088720E+03  0.20624648807E+03  0.17300000000E+03 0.  1.
         -6    1    1    2    0  502 -0.19971591035E+02 -0.20279355432E+02  0.11389464669E+03  0.20907201451E+03  0.17300000000E+03 0.  1.
<mgrwt>
<rscale>  2 0.17532574E+03</rscale>
<asrwt>0</asrwt>
<pdfrwt beam="1">  1       21 0.32353251E-01 0.17532574E+03</pdfrwt>
<pdfrwt beam="2">  1       21 0.31541903E-01 0.17532574E+03</pdfrwt>
<totfact> 0.89418125E+04</totfact>
</mgrwt>
</event>
<event>
 4    1  0.3974123E+000  0.1840620E+03  0.7546771E-02  0.1163929E+00
         21   -1    0    0  503  502  0.00000000000E+00  0.00000000000E+00  0.63703434654E+03  0.63703434654E+03  0.00000000000E+00 0.  1.
         21   -1    0    0  501  503 -0.00000000000E+00 -0.00000000000E+00 -0.13003626256E+03  0.13003626256E+03  0.00000000000E+00 0.  1.
          6    1    1    2  501    0  0.53398821134E+02 -0.33142020405E+02 -0.41354799555E+02  0.18865059518E+03  0.17300000000E+03 0.  1.
         -6    1    1    2    0  502 -0.53398821134E+02  0.33142020405E+02  0.54835288353E+03  0.57842001391E+03  0.17300000000E+03 0.  1.
<mgrwt>
<rscale>  2 0.18406202E+03</rscale>
<asrwt>0</asrwt>
<pdfrwt beam="1">  1       21 0.98005283E-01 0.18406202E+03</pdfrwt>
<pdfrwt beam="2">  1       21 0.20005579E-01 0.18406202E+03</pdfrwt>
<totfact> 0.19969050E+04</totfact>
</mgrwt>
</event>
<event>
 4    1  0.3974123E+000  0.2899849E+03  0.7546771E-02  0.1090357E+00
         21   -1    0    0  501  502  0.00000000000E+00  0.00000000000E+00  0.37031154574E+03  0.37031154574E+03  0.00000000000E+00 0. -1.
         21   -1    0    0  502  503 -0.00000000000E+00 -0.00000000000E+00 -0.23709368003E+03  0.23709368003E+03  0.00000000000E+00 0.  1.
          6    1    1    2  501    0 -0.13457536942E+03 -0.18987283358E+03  0.12901603576E+03  0.31738991866E+03  0.17300000000E+03 0.  1.
         -6    1    1    2    0  503  0.13457536942E+03  0.18987283358E+03  0.42018299541E+01  0.29001530711E+03  0.17300000000E+03 0.  1.
<mgrwt>
<rscale>  2 0.28998487E+03</rscale>
<asrwt>0</asrwt>
<pdfrwt beam="1">  1       21 0.56971007E-01 0.28998487E+03</pdfrwt>
<pdfrwt beam="2">  1       21 0.36475951E-01 0.28998487E+03</pdfrwt>
<totfact> 0.19979218E+04</totfact>
</mgrwt>
</event>
<event>
 4    1  0.3974123E+000  0.2377327E+03  0.7546771E-02  0.1121313E+00
         21   -1    0    0  503  502  0.00000000000E+00  0.00000000000E+00  0.69928855531E+03  0.69928855531E+03  0.00000000000E+00 0. -1.
         21   -1    0    0  501  503 -0.00000000000E+00 -0.00000000000E+00 -0.89026996238E+02  0.89026996238E+02  0.00000000000E+00 0.  1.
          6    1    1    2  501    0 -0.10312117854E+03  0.12630853572E+03  0.18545971665E+03  0.30151638456E+03  0.17300000000E+03 0.  1.
         -6    1    1    2    0  502  0.10312117854E+03 -0.12630853572E+03  0.42480184242E+03  0.48679916699E+03  0.17300000000E+03 0. -1.
<mgrwt>
<rscale>  2 0.23773267E+03</rscale>
<asrwt>0</asrwt>
<pdfrwt beam="1">  1       21 0.10758285E+00 0.23773267E+03</pdfrwt>
<pdfrwt beam="2">  1       21 0.13696461E-01 0.23773267E+03</pdfrwt>
<totfact> 0.31117541E+04</totfact>
</mgrwt>
</event>
<event>
 4    1  0.3974123E+000  0.1783669E+03  0.7546771E-02  0.1169393E+00
         21   -1    0    0  503  502  0.00000000000E+00  0.00000000000E+00  0.11558822813E+03  0.11558822813E+03  0.00000000000E+00 0.  1.
         21   -1    0    0  501  503 -0.00000000000E+00 -0.00000000000E+00 -0.28952516762E+03  0.28952516762E+03  0.00000000000E+00 0.  1.
          6    1    1    2  501    0 -0.40064042031E+02  0.16752125706E+02 -0.13195808531E+03  0.22187315624E+03  0.17300000000E+03 0. -1.
         -6    1    1    2    0  502  0.40064042031E+02 -0.16752125706E+02 -0.41978854178E+02  0.18324023952E+03  0.17300000000E+03 0. -1.
<mgrwt>
<rscale>  2 0.17836693E+03</rscale>
<asrwt>0</asrwt>
<pdfrwt beam="1">  1       21 0.17782805E-01 0.17836693E+03</pdfrwt>
<pdfrwt beam="2">  1       21 0.44542333E-01 0.17836693E+03</pdfrwt>
<totfact> 0.13960808E+05</totfact>
</mgrwt>
</event>
<event>
 4    1  0.3974123E+000  0.1890399E+03  0.7546771E-02  0.1159330E+00
         21   -1    0    0  503  502  0.00000000000E+00  0.00000000000E+00  0.18296417910E+02  0.18296417910E+02  0.00000000000E+00 0.  1.
         21   -1    0    0  501  503 -0.00000000000E+00 -0.00000000000E+00 -0.26083767202E+04  0.26083767202E+04  0.00000000000E+00 0. -1.
          6    1    1    2  501    0 -0.58507462262E+02  0.48825885558E+02 -0.19532716790E+04  0.19623981100E+04  0.17300000000E+03 0. -1.
         -6    1    1    2    0  502  0.58507462262E+02 -0.48825885558E+02 -0.63680862324E+03  0.66427502804E+03  0.17300000000E+03 0.  1.
<mgrwt>
<rscale>  2 0.18903992E+03</rscale>
<asrwt>0</asrwt>
<pdfrwt beam="1">  1       21 0.28148354E-02 0.18903992E+03</pdfrwt>
<pdfrwt beam="2">  1       21 0.40128846E+00 0.18903992E+03</pdfrwt>
<totfact> 0.60422380E+03</totfact>
</mgrwt>
</event>
<event>
 4    1  0.3974123E+000  0.4748474E+03  0.7546771E-02  0.1020561E+00
         21   -1    0    0  503  502  0.00000000000E+00  0.00000000000E+00  0.31851687397E+03  0.31851687397E+03  0.00000000000E+00 0.  1.
         21   -1    0    0  501  503 -0.00000000000E+00 -0.00000000000E+00 -0.20302956854E+04  0.20302956854E+04  0.00000000000E+00 0.  1.
          6    1    1    2  501    0 -0.11769144560E+02 -0.44205487670E+03 -0.18036931824E+04  0.18651512332E+04  0.17300000000E+03 0.  1.
         -6    1    1    2    0  502  0.11769144560E+02  0.44205487670E+03  0.91914370954E+02  0.48366132610E+03  0.17300000000E+03 0.  1.
<mgrwt>
<rscale>  2 0.47484737E+03</rscale>
<asrwt>0</asrwt>
<pdfrwt beam="1">  1       21 0.49002597E-01 0.47484737E+03</pdfrwt>
<pdfrwt beam="2">  1       21 0.31235318E+00 0.47484737E+03</pdfrwt>
<totfact> 0.87019403E+01</totfact>
</mgrwt>
</event>
<event>
 4    1  0.3974123E+000  0.2959739E+03  0.7546771E-02  0.1087271E+00
         21   -1    0    0  501  502  0.00000000000E+00  0.00000000000E+00  0.70772911859E+03  0.70772911859E+03  0.00000000000E+00 0.  1.
         21   -1    0    0  502  503 -0.00000000000E+00 -0.00000000000E+00 -0.24562145526E+03  0.24562145526E+03  0.00000000000E+00 0. -1.
          6    1    1    2  501    0  0.51564311085E+01  0.24009364082E+03  0.56678563065E+03  0.63941105422E+03  0.17300000000E+03 0.  1.
         -6    1    1    2    0  503 -0.51564311085E+01 -0.24009364082E+03 -0.10467796732E+03  0.31393951963E+03  0.17300000000E+03 0. -1.
<mgrwt>
<rscale>  2 0.29597389E+03</rscale>
<asrwt>0</asrwt>
<pdfrwt beam="1">  1       21 0.10888140E+00 0.29597389E+03</pdfrwt>
<pdfrwt beam="2">  1       21 0.37787916E-01 0.29597389E+03</pdfrwt>
<totfact> 0.42188698E+03</totfact>
</mgrwt>
</event>
<event>
 4    1  0.3974123E+000  0.1759778E+03  0.7546771E-02  0.1171754E+00
         21   -1    0    0  503  502  0.00000000000E+00  0.00000000000E+00  0.15893339397E+03  0.15893339397E+03  0.00000000000E+00 0.  1.
         21   -1    0    0  501  503 -0.00000000000E+00 -0.00000000000E+00 -0.21564493735E+03  0.21564493735E+03  0.00000000000E+00 0.  1.
          6    1    1    2  501    0 -0.31759524832E+02  0.55229909606E+01 -0.86515436285E+02  0.19609459850E+03  0.17300000000E+03 0.  1.
         -6    1    1    2    0  502  0.31759524832E+02 -0.55229909606E+01  0.29803892906E+02  0.17848373281E+03  0.17300000000E+03 0.  1.
<mgrwt>
<rscale>  2 0.17597776E+03</rscale>
<asrwt>0</asrwt>
<pdfrwt beam="1">  1       21 0.24451292E-01 0.17597776E+03</pdfrwt>
<pdfrwt beam="2">  1       21 0.33176144E-01 0.17597776E+03</pdfrwt>
<totfact> 0.13900754E+05</totfact>
</mgrwt>
</event>
<event>
 4    1  0.3974123E+000  0.2303010E+03  0.7546771E-02  0.1126428E+00
         21   -1    0    0  503  502  0.00000000000E+00  0.00000000000E+00  0.58804599313E+02  0.58804599313E+02  0.00000000000E+00 0.  1.
         21   -1    0    0  501  503 -0.00000000000E+00 -0.00000000000E+00 -0.92093070194E+03  0.92093070194E+03  0.00000000000E+00 0.  1.
          6    1    1    2  501    0 -0.14531031335E+02 -0.15132212348E+03 -0.50139852443E+03  0.55175992626E+03  0.17300000000E+03 0.  1.
         -6    1    1    2    0  502  0.14531031335E+02  0.15132212348E+03 -0.36072757820E+03  0.42797537500E+03  0.17300000000E+03 0.  1.
<mgrwt>
<rscale>  2 0.23030097E+03</rscale>
<asrwt>0</asrwt>
<pdfrwt beam="1">  1       21 0.90468617E-02 0.23030097E+03</pdfrwt>
<pdfrwt beam="2">  1       21 0.14168164E+00 0.23030097E+03</pdfrwt>
<totfact> 0.32862831E+04</totfact>
</mgrwt>
</event>
<event>
 4    1  0.3974123E+000  0.1878855E+03  0.7546771E-02  0.1160382E+00
         21   -1    0    0  503  502  0.00000000000E+00  0.00000000000E+00  0.51413133504E+03  0.51413133504E+03  0.00000000000E+00 0. -1.
         21   -1    0    0  501  503 -0.00000000000E+00 -0.00000000000E+00 -0.17792391128E+03  0.17792391128E+03  0.00000000000E+00 0. -1.
          6    1    1    2  501    0 -0.46504340340E+01  0.73145897348E+02 -0.10305858876E+03  0.21429424060E+03  0.17300000000E+03 0. -1.
         -6    1    1    2    0  502  0.46504340340E+01 -0.73145897348E+02  0.43926601252E+03  0.47776100573E+03  0.17300000000E+03 0. -1.
<mgrwt>
<rscale>  2 0.18788547E+03</rscale>
<asrwt>0</asrwt>
<pdfrwt beam="1">  1       21 0.79097128E-01 0.18788547E+03</pdfrwt>
<pdfrwt beam="2">  1       21 0.27372910E-01 0.18788547E+03</pdfrwt>
<totfact> 0.18013114E+04</totfact>
</mgrwt>
</event>
<event>
 4    1  0.3974123E+000  0.2182433E+03  0.7546771E-02  0.1135200E+00
         21   -1    0    0  503  502  0.00000000000E+00  0.00000000000E+00  0.20598061740E+03  0.20598061740E+03  0.00000000000E+00 0.  1.
         21   -1    0    0  501  503 -0.00000000000E+00 -0.00000000000E+00 -0.42452141970E+03  0.42452141970E+03  0.00000000000E+00 0.  1.
          6    1    1    2  501    0 -0.12906018915E+03 -0.32320568156E+02 -0.32198933435E+03  0.38898236848E+03  0.17300000000E+03 0.  1.
         -6    1    1    2    0  502  0.12906018915E+03  0.32320568156E+02  0.10344853205E+03  0.24151966862E+03  0.17300000000E+03 0.  1.
<mgrwt>
<rscale>  2 0.21824333E+03</rscale>
<asrwt>0</asrwt>
<pdfrwt beam="1">  1       21 0.31689326E-01 0.21824333E+03</pdfrwt>
<pdfrwt beam="2">  1       21 0.65310987E-01 0.21824333E+03</pdfrwt>
<totfact> 0.20343404E+04</totfact>
</mgrwt>
</event>
<event>
 4    1  0.3974123E+000  0.2105723E+03  0.7546771E-02  0.1141114E+00
         21   -1    0    0  503  502  0.00000000000E+00  0.00000000000E+00  0.10573560097E+04  0.10573560097E+04  0.00000000000E+00 0. -1.
         21   -1    0    0  501  503 -0.00000000000E+00 -0.00000000000E+00 -0.59797457472E+02  0.59797457472E+02  0.00000000000E+00 0. -1.
          6    1    1    2  501    0  0.10744263227E+03  0.53551609330E+02  0.19349341928E+03  0.28597272142E+03  0.17300000000E+03 0. -1.
         -6    1    1    2    0  502 -0.10744263227E+03 -0.53551609330E+02  0.80406513295E+03  0.83118074575E+03  0.17300000000E+03 0. -1.
<mgrwt>
<rscale>  2 0.21057230E+03</rscale>
<asrwt>0</asrwt>
<pdfrwt beam="1">  1       21 0.16267014E+00 0.21057230E+03</pdfrwt>
<pdfrwt beam="2">  1       21 0.91996097E-02 0.21057230E+03</pdfrwt>
<totfact> 0.22351525E+04</totfact>
</mgrwt>
</event>
<event>
 4    1  0.3974123E+000  0.2116134E+03  0.7546771E-02  0.1140295E+00
         21   -1    0    0  501  502  0.00000000000E+00  0.00000000000E+00  0.98010822294E+03  0.98010822294E+03  0.00000000000E+00 0.  1.
         21   -1    0    0  502  503 -0.00000000000E+00 -0.00000000000E+00 -0.62703782340E+02  0.62703782340E+02  0.00000000000E+00 0.  1.
          6    1    1    2  501    0  0.44186961205E+02 -0.11357260830E+03  0.73030960332E+03  0.76035014408E+03  0.17300000000E+03 0.  1.
         -6    1    1    2    0  503 -0.44186961205E+02  0.11357260830E+03  0.18709483728E+03  0.28246186120E+03  0.17300000000E+03 0.  1.
<mgrwt>
<rscale>  2 0.21161339E+03</rscale>
<asrwt>0</asrwt>
<pdfrwt beam="1">  1       21 0.15078587E+00 0.21161339E+03</pdfrwt>
<pdfrwt beam="2">  1       21 0.96467365E-02 0.21161339E+03</pdfrwt>
<totfact> 0.25183378E+04</totfact>
</mgrwt>
</event>
<event>
 4    1  0.3974123E+000  0.2444423E+03  0.7546771E-02  0.1116868E+00
         21   -1    0    0  501  502  0.00000000000E+00  0.00000000000E+00  0.17294810708E+03  0.17294810708E+03  0.00000000000E+00 0.  1.
         21   -1    0    0  502  503 -0.00000000000E+00 -0.00000000000E+00 -0.47423515723E+03  0.47423515723E+03  0.00000000000E+00 0. -1.
          6    1    1    2  501    0  0.13964912382E+03 -0.10159312974E+03  0.17958934876E+02  0.24510113247E+03  0.17300000000E+03 0.  1.
         -6    1    1    2    0  503 -0.13964912382E+03  0.10159312974E+03 -0.31924598503E+03  0.40208213185E+03  0.17300000000E+03 0. -1.
<mgrwt>
<rscale>  2 0.24444231E+03</rscale>
<asrwt>0</asrwt>
<pdfrwt beam="1">  1       21 0.26607401E-01 0.24444231E+03</pdfrwt>
<pdfrwt beam="2">  1       21 0.72959254E-01 0.24444231E+03</pdfrwt>
<totfact> 0.22093697E+04</totfact>
</mgrwt>
</event>
<event>
 4    1  0.3974123E+000  0.1800012E+03  0.7546771E-02  0.1167802E+00
         21   -1    0    0  503  502  0.00000000000E+00  0.00000000000E+00  0.69567192529E+02  0.69567192529E+02  0.00000000000E+00 0. -1.
         21   -1    0    0  501  503 -0.00000000000E+00 -0.00000000000E+00 -0.80933992038E+03  0.80933992038E+03  0.00000000000E+00 0. -1.
          6    1    1    2  501    0  0.37923081916E+02 -0.32144442516E+02 -0.65621989099E+03  0.68045938207E+03  0.17300000000E+03 0. -1.
         -6    1    1    2    0  502 -0.37923081916E+02  0.32144442516E+02 -0.83552836869E+02  0.19844773084E+03  0.17300000000E+03 0. -1.
<mgrwt>
<rscale>  2 0.18000118E+03</rscale>
<asrwt>0</asrwt>
<pdfrwt beam="1">  1       21 0.10702645E-01 0.18000118E+03</pdfrwt>
<pdfrwt beam="2">  1       21 0.12451383E+00 0.18000118E+03</pdfrwt>
<totfact> 0.34910573E+04</totfact>
</mgrwt>
</event>
<event>
 4    1  0.3974123E+000  0.1817411E+03  0.7546771E-02  0.1166129E+00
         21   -1    0    0  501  502  0.00000000000E+00  0.00000000000E+00  0.33902949118E+03  0.33902949118E+03  0.00000000000E+00 0. -1.
         21   -1    0    0  502  503 -0.00000000000E+00 -0.00000000000E+00 -0.10341469363E+03  0.10341469363E+03  0.00000000000E+00 0. -1.
          6    1    1    2  501    0 -0.31666891359E+00 -0.55684237872E+02  0.17104908693E+03  0.24957488809E+03  0.17300000000E+03 0. -1.
         -6    1    1    2    0  503  0.31666891359E+00  0.55684237872E+02  0.64565710614E+02  0.19286929671E+03  0.17300000000E+03 0. -1.
<mgrwt>
<rscale>  2 0.18174112E+03</rscale>
<asrwt>0</asrwt>
<pdfrwt beam="1">  1       21 0.52158383E-01 0.18174112E+03</pdfrwt>
<pdfrwt beam="2">  1       21 0.15909953E-01 0.18174112E+03</pdfrwt>
<totfact> 0.12335602E+05</totfact>
</mgrwt>
</event>
<event>
 4    1  0.3974123E+000  0.1972512E+03  0.7546771E-02  0.1152079E+00
         21   -1    0    0  503  502  0.00000000000E+00  0.00000000000E+00  0.13322867865E+04  0.13322867865E+04  0.00000000000E+00 0. -1.
         21   -1    0    0  501  503 -0.00000000000E+00 -0.00000000000E+00 -0.41470161335E+02  0.41470161335E+02  0.00000000000E+00 0. -1.
          6    1    1    2  501    0  0.90094998518E+02  0.29358376772E+02  0.27184222272E+03  0.33586636792E+03  0.17300000000E+03 0. -1.
         -6    1    1    2    0  502 -0.90094998518E+02 -0.29358376772E+02  0.10189744025E+04  0.10378905800E+04  0.17300000000E+03 0. -1.
<mgrwt>
<rscale>  2 0.19725117E+03</rscale>
<asrwt>0</asrwt>
<pdfrwt beam="1">  1       21 0.20496717E+00 0.19725117E+03</pdfrwt>
<pdfrwt beam="2">  1       21 0.63800258E-02 0.19725117E+03</pdfrwt>
<totfact> 0.22075168E+04</totfact>
</mgrwt>
</event>
<event>
 4    1  0.3974123E+000  0.2890282E+03  0.7546771E-02  0.1090858E+00
         21   -1    0    0  501  502  0.00000000000E+00  0.00000000000E+00  0.84673004771E+02  0.84673004771E+02  0.00000000000E+00 0.  1.
         21   -1    0    0  502  503 -0.00000000000E+00 -0.00000000000E+00 -0.11200155043E+04  0.11200155043E+04  0.00000000000E+00 0. -1.
          6    1    1    2  501    0  0.21429674764E+03 -0.87665211229E+02 -0.30977001324E+03  0.42366820321E+03  0.17300000000E+03 0.  1.
         -6    1    1    2    0  503 -0.21429674764E+03  0.87665211229E+02 -0.72557248632E+03  0.78102030589E+03  0.17300000000E+03 0.  1.
<mgrwt>
<rscale>  2 0.28902817E+03</rscale>
<asrwt>0</asrwt>
<pdfrwt beam="1">  1       21 0.13026618E-01 0.28902817E+03</pdfrwt>
<pdfrwt beam="2">  1       21 0.17231005E+00 0.28902817E+03</pdfrwt>
<totfact> 0.97695723E+03</totfact>
</mgrwt>
</event>
<event>
 4    1  0.3974123E+000  0.2510165E+03  0.7546771E-02  0.1112664E+00
         21   -1    0    0  501  502  0.00000000000E+00  0.00000000000E+00  0.53228631430E+03  0.53228631430E+03  0.00000000000E+00 0. -1.
         21   -1    0    0  502  503 -0.00000000000E+00 -0.00000000000E+00 -0.12343303264E+03  0.12343303264E+03  0.00000000000E+00 0.  1.
          6    1    1    2  501    0  0.56890907801E+02  0.17275327704E+03  0.27079681894E+03  0.36924272135E+03  0.17300000000E+03 0. -1.
         -6    1    1    2    0  503 -0.56890907801E+02 -0.17275327704E+03  0.13805646271E+03  0.28647662560E+03  0.17300000000E+03 0.  1.
<mgrwt>
<rscale>  2 0.25101647E+03</rscale>
<asrwt>0</asrwt>
<pdfrwt beam="1">  1       21 0.81890201E-01 0.25101647E+03</pdfrwt>
<pdfrwt beam="2">  1       21 0.18989698E-01 0.25101647E+03</pdfrwt>
<totfact> 0.32208699E+04</totfact>
</mgrwt>
</event>
<event>
 4    1  0.3974123E+000  0.2171774E+03  0.7546771E-02  0.1136005E+00
         21   -1    0    0  503  502  0.00000000000E+00  0.00000000000E+00  0.21621580717E+02  0.21621580717E+02  0.00000000000E+00 0.  1.
         21   -1    0    0  501  503 -0.00000000000E+00 -0.00000000000E+00 -0.21847429680E+04  0.21847429680E+04  0.00000000000E+00 0. -1.
          6    1    1    2  501    0  0.13099200151E+03  0.88396902253E+01 -0.11244959235E+04  0.11452760046E+04  0.17300000000E+03 0.  1.
         -6    1    1    2    0  502 -0.13099200151E+03 -0.88396902253E+01 -0.10386254637E+04  0.10610885441E+04  0.17300000000E+03 0. -1.
<mgrwt>
<rscale>  2 0.21717745E+03</rscale>
<asrwt>0</asrwt>
<pdfrwt beam="1">  1       21 0.33263963E-02 0.21717745E+03</pdfrwt>
<pdfrwt beam="2">  1       21 0.33611438E+00 0.21717745E+03</pdfrwt>
<totfact> 0.10949300E+04</totfact>
</mgrwt>
</event>
<event>
 4    1  0.3974123E+000  0.1806722E+03  0.7546771E-02  0.1167154E+00
         21   -1    0    0  503  502  0.00000000000E+00  0.00000000000E+00  0.17074222452E+03  0.17074222452E+03  0.00000000000E+00 0.  1.
         21   -1    0    0  501  503 -0.00000000000E+00 -0.00000000000E+00 -0.21938376543E+03  0.21938376543E+03  0.00000000000E+00 0.  1.
          6    1    1    2  501    0  0.14734211508E+02  0.49963523243E+02 -0.94261208672E+02  0.20378328220E+03  0.17300000000E+03 0.  1.
         -6    1    1    2    0  502 -0.14734211508E+02 -0.49963523243E+02  0.45619667767E+02  0.18634270775E+03  0.17300000000E+03 0.  1.
<mgrwt>
<rscale>  2 0.18067222E+03</rscale>
<asrwt>0</asrwt>
<pdfrwt beam="1">  1       21 0.26268035E-01 0.18067222E+03</pdfrwt>
<pdfrwt beam="2">  1       21 0.33751348E-01 0.18067222E+03</pdfrwt>
<totfact> 0.11700891E+05</totfact>
</mgrwt>
</event>
<event>
 4    1  0.3974123E+000  0.2507641E+03  0.7546771E-02  0.1112823E+00
         21   -1    0    0  501  502  0.00000000000E+00  0.00000000000E+00  0.61184795943E+03  0.61184795943E+03  0.00000000000E+00 0.  1.
         21   -1    0    0  502  503 -0.00000000000E+00 -0.00000000000E+00 -0.11528675158E+03  0.11528675158E+03  0.00000000000E+00 0. -1.
          6    1    1    2  501    0 -0.16216942623E+03  0.81576519022E+02  0.36805248832E+03  0.44535972586E+03  0.17300000000E+03 0. -1.
         -6    1    1    2    0  503  0.16216942623E+03 -0.81576519022E+02  0.12850871954E+03  0.28177498515E+03  0.17300000000E+03 0. -1.
<mgrwt>
<rscale>  2 0.25076413E+03</rscale>
<asrwt>0</asrwt>
<pdfrwt beam="1">  1       21 0.94130453E-01 0.25076413E+03</pdfrwt>
<pdfrwt beam="2">  1       21 0.17736424E-01 0.25076413E+03</pdfrwt>
<totfact> 0.26480185E+04</totfact>
</mgrwt>
</event>
<event>
 4    1  0.3974123E+000  0.2094343E+03  0.7546771E-02  0.1142015E+00
         21   -1    0    0  501  502  0.00000000000E+00  0.00000000000E+00  0.10461261643E+04  0.10461261643E+04  0.00000000000E+00 0.  1.
         21   -1    0    0  502  503 -0.00000000000E+00 -0.00000000000E+00 -0.82512111605E+02  0.82512111605E+02  0.00000000000E+00 0. -1.
          6    1    1    2  501    0  0.15662403853E+02 -0.11699750717E+03  0.87757451509E+03  0.90221935088E+03  0.17300000000E+03 0.  1.
         -6    1    1    2    0  503 -0.15662403853E+02  0.11699750717E+03  0.86039537613E+02  0.22641892503E+03  0.17300000000E+03 0. -1.
<mgrwt>
<rscale>  2 0.20943430E+03</rscale>
<asrwt>0</asrwt>
<pdfrwt beam="1">  1       21 0.16094248E+00 0.20943430E+03</pdfrwt>
<pdfrwt beam="2">  1       21 0.12694172E-01 0.20943430E+03</pdfrwt>
<totfact> 0.12983074E+04</totfact>
</mgrwt>
</event>
<event>
 4    1  0.3974123E+000  0.3113557E+03  0.7546771E-02  0.1079698E+00
         21   -1    0    0  501  502  0.00000000000E+00  0.00000000000E+00  0.43843380628E+03  0.43843380628E+03  0.00000000000E+00 0. -1.
         21   -1    0    0  502  503 -0.00000000000E+00 -0.00000000000E+00 -0.34585387267E+03  0.34585387267E+03  0.00000000000E+00 0.  1.
          6    1    1    2  501    0  0.22396385399E+03  0.12982122290E+03  0.28179904823E+03  0.41994411698E+03  0.17300000000E+03 0.  1.
         -6    1    1    2    0  503 -0.22396385399E+03 -0.12982122290E+03 -0.18921911462E+03  0.36434356196E+03  0.17300000000E+03 0. -1.
<mgrwt>
<rscale>  2 0.31135568E+03</rscale>
<asrwt>0</asrwt>
<pdfrwt beam="1">  1       21 0.67451355E-01 0.31135568E+03</pdfrwt>
<pdfrwt beam="2">  1       21 0.53208288E-01 0.31135568E+03</pdfrwt>
<totfact> 0.62643094E+03</totfact>
</mgrwt>
</event>
<event>
 4    1  0.3974123E+000  0.1810675E+03  0.7546771E-02  0.1166774E+00
         21   -1    0    0  503  502  0.00000000000E+00  0.00000000000E+00  0.55294189984E+03  0.55294189984E+03  0.00000000000E+00 0.  1.
         21   -1    0    0  501  503 -0.00000000000E+00 -0.00000000000E+00 -0.62306180424E+02  0.62306180424E+02  0.00000000000E+00 0.  1.
          6    1    1    2  501    0  0.53379500168E+02  0.26597896240E+01  0.17766512876E+03  0.25367369493E+03  0.17300000000E+03 0.  1.
         -6    1    1    2    0  502 -0.53379500168E+02 -0.26597896240E+01  0.31297059066E+03  0.36157438534E+03  0.17300000000E+03 0.  1.
<mgrwt>
<rscale>  2 0.18106752E+03</rscale>
<asrwt>0</asrwt>
<pdfrwt beam="1">  1       21 0.85067981E-01 0.18106752E+03</pdfrwt>
<pdfrwt beam="2">  1       21 0.95855666E-02 0.18106752E+03</pdfrwt>
<totfact> 0.10505402E+05</totfact>
</mgrwt>
</event>
<event>
 4    1  0.3974123E+000  0.3594451E+03  0.7546771E-02  0.1058804E+00
         21   -1    0    0  503  502  0.00000000000E+00  0.00000000000E+00  0.20476023281E+03  0.20476023281E+03  0.00000000000E+00 0.  1.
         21   -1    0    0  501  503 -0.00000000000E+00 -0.00000000000E+00 -0.81270087762E+03  0.81270087762E+03  0.00000000000E+00 0.  1.
          6    1    1    2  501    0 -0.23863732949E+03 -0.20572797326E+03 -0.54452737177E+03  0.65246519648E+03  0.17300000000E+03 0.  1.
         -6    1    1    2    0  502  0.23863732949E+03  0.20572797326E+03 -0.63413273038E+02  0.36499591396E+03  0.17300000000E+03 0.  1.
<mgrwt>
<rscale>  2 0.35944509E+03</rscale>
<asrwt>0</asrwt>
<pdfrwt beam="1">  1       21 0.31501575E-01 0.35944509E+03</pdfrwt>
<pdfrwt beam="2">  1       21 0.12503090E+00 0.35944509E+03</pdfrwt>
<totfact> 0.41717901E+03</totfact>
</mgrwt>
</event>
<event>
 4    1  0.3974123E+000  0.1853178E+03  0.7546771E-02  0.1162753E+00
         21   -1    0    0  501  502  0.00000000000E+00  0.00000000000E+00  0.21107505071E+03  0.21107505071E+03  0.00000000000E+00 0.  1.
         21   -1    0    0  502  503 -0.00000000000E+00 -0.00000000000E+00 -0.18124636389E+03  0.18124636389E+03  0.00000000000E+00 0.  1.
          6    1    1    2  501    0 -0.60030787072E+02  0.28460155726E+02  0.77657203363E+02  0.20093112525E+03  0.17300000000E+03 0.  1.
         -6    1    1    2    0  503  0.60030787072E+02 -0.28460155726E+02 -0.47828516545E+02  0.19139028934E+03  0.17300000000E+03 0.  1.
<mgrwt>
<rscale>  2 0.18531777E+03</rscale>
<asrwt>0</asrwt>
<pdfrwt beam="1">  1       21 0.32473085E-01 0.18531777E+03</pdfrwt>
<pdfrwt beam="2">  1       21 0.27884056E-01 0.18531777E+03</pdfrwt>
<totfact> 0.11236796E+05</totfact>
</mgrwt>
</event>
<event>
 4    1  0.3974123E+000  0.1767623E+03  0.7546771E-02  0.1170974E+00
         21   -1    0    0  503  502  0.00000000000E+00  0.00000000000E+00  0.22484880571E+03  0.22484880571E+03  0.00000000000E+00 0.  1.
         21   -1    0    0  501  503 -0.00000000000E+00 -0.00000000000E+00 -0.63520283207E+03  0.63520283207E+03  0.00000000000E+00 0.  1.
          6    1    1    2  501    0  0.27524055275E+02 -0.23629208820E+02 -0.58526626756E+03  0.61137673907E+03  0.17300000000E+03 0.  1.
         -6    1    1    2    0  502 -0.27524055275E+02  0.23629208820E+02  0.17491224120E+03  0.24867489872E+03  0.17300000000E+03 0.  1.
<mgrwt>
<rscale>  2 0.17676231E+03</rscale>
<asrwt>0</asrwt>
<pdfrwt beam="1">  1       21 0.34592125E-01 0.17676231E+03</pdfrwt>
<pdfrwt beam="2">  1       21 0.97723510E-01 0.17676231E+03</pdfrwt>
<totfact> 0.70672409E+03</totfact>
</mgrwt>
</event>
<event>
 4    1  0.3974123E+000  0.2079258E+03  0.7546771E-02  0.1143219E+00
         21   -1    0    0  503  502  0.00000000000E+00  0.00000000000E+00  0.38415320622E+03  0.38415320622E+03  0.00000000000E+00 0. -1.
         21   -1    0    0  501  503 -0.00000000000E+00 -0.00000000000E+00 -0.11875551701E+03  0.11875551701E+03  0.00000000000E+00 0. -1.
          6    1    1    2  501    0  0.11485402699E+03  0.10615887654E+02  0.75178492052E+02  0.22109941261E+03  0.17300000000E+03 0.  1.
         -6    1    1    2    0  502 -0.11485402699E+03 -0.10615887654E+02  0.19021919716E+03  0.28180931063E+03  0.17300000000E+03 0.  1.
<mgrwt>
<rscale>  2 0.20792582E+03</rscale>
<asrwt>0</asrwt>
<pdfrwt beam="1">  1       21 0.59100493E-01 0.20792582E+03</pdfrwt>
<pdfrwt beam="2">  1       21 0.18270080E-01 0.20792582E+03</pdfrwt>
<totfact> 0.72608999E+04</totfact>
</mgrwt>
</event>
<event>
 4    1  0.3974123E+000  0.1770276E+03  0.7546771E-02  0.1170711E+00
         21   -1    0    0  501  502  0.00000000000E+00  0.00000000000E+00  0.28808624508E+03  0.28808624508E+03  0.00000000000E+00 0.  1.
         21   -1    0    0  502  503 -0.00000000000E+00 -0.00000000000E+00 -0.12612630945E+03  0.12612630945E+03  0.00000000000E+00 0.  1.
          6    1    1    2  501    0 -0.10925249821E+02 -0.35922497425E+02  0.15777987788E+03  0.23713556623E+03  0.17300000000E+03 0. -1.
         -6    1    1    2    0  503  0.10925249821E+02  0.35922497425E+02  0.41800577480E+01  0.17707698831E+03  0.17300000000E+03 0. -1.
<mgrwt>
<rscale>  2 0.17702764E+03</rscale>
<asrwt>0</asrwt>
<pdfrwt beam="1">  1       21 0.44320961E-01 0.17702764E+03</pdfrwt>
<pdfrwt beam="2">  1       21 0.19404048E-01 0.17702764E+03</pdfrwt>
<totfact> 0.12006262E+05</totfact>
</mgrwt>
</event>
<event>
 4    1  0.3974123E+000  0.1788446E+03  0.7546771E-02  0.1168926E+00
         21   -1    0    0  501  502  0.00000000000E+00  0.00000000000E+00  0.12858919971E+03  0.12858919971E+03  0.00000000000E+00 0. -1.
         21   -1    0    0  502  503 -0.00000000000E+00 -0.00000000000E+00 -0.28142663673E+03  0.28142663673E+03  0.00000000000E+00 0.  1.
          6    1    1    2  501    0 -0.44518260731E+02  0.86314084590E+01 -0.65523729382E+01  0.17896455052E+03  0.17300000000E+03 0. -1.
         -6    1    1    2    0  503  0.44518260731E+02 -0.86314084590E+01 -0.14628506409E+03  0.23105128592E+03  0.17300000000E+03 0.  1.
<mgrwt>
<rscale>  2 0.17884456E+03</rscale>
<asrwt>0</asrwt>
<pdfrwt beam="1">  1       21 0.19782954E-01 0.17884456E+03</pdfrwt>
<pdfrwt beam="2">  1       21 0.43296405E-01 0.17884456E+03</pdfrwt>
<totfact> 0.12140389E+05</totfact>
</mgrwt>
</event>
<event>
 4    1  0.3974123E+000  0.1960442E+03  0.7546771E-02  0.1153120E+00
         21   -1    0    0  503  502  0.00000000000E+00  0.00000000000E+00  0.24253893068E+03  0.24253893068E+03  0.00000000000E+00 0.  1.
         21   -1    0    0  501  503 -0.00000000000E+00 -0.00000000000E+00 -0.15912297118E+03  0.15912297118E+03  0.00000000000E+00 0.  1.
          6    1    1    2  501    0  0.24330716294E+02  0.88951415604E+02  0.54646178031E+02  0.20351791780E+03  0.17300000000E+03 0.  1.
         -6    1    1    2    0  502 -0.24330716294E+02 -0.88951415604E+02  0.28769781474E+02  0.19814398406E+03  0.17300000000E+03 0.  1.
<mgrwt>
<rscale>  2 0.19604422E+03</rscale>
<asrwt>0</asrwt>
<pdfrwt beam="1">  1       21 0.37313681E-01 0.19604422E+03</pdfrwt>
<pdfrwt beam="2">  1       21 0.24480457E-01 0.19604422E+03</pdfrwt>
<totfact> 0.10906682E+05</totfact>
</mgrwt>
</event>
<event>
 4    1  0.3974123E+000  0.2347372E+03  0.7546771E-02  0.1123349E+00
         21   -1    0    0  503  502  0.00000000000E+00  0.00000000000E+00  0.26293071813E+03  0.26293071813E+03  0.00000000000E+00 0.  1.
         21   -1    0    0  501  503 -0.00000000000E+00 -0.00000000000E+00 -0.24856692504E+03  0.24856692504E+03  0.00000000000E+00 0. -1.
          6    1    1    2  501    0  0.24648108623E+01 -0.15863949251E+03 -0.94121652535E+02  0.25290403190E+03  0.17300000000E+03 0. -1.
         -6    1    1    2    0  502 -0.24648108623E+01  0.15863949251E+03  0.10848544562E+03  0.25859361127E+03  0.17300000000E+03 0. -1.
<mgrwt>
<rscale>  2 0.23473722E+03</rscale>
<asrwt>0</asrwt>
<pdfrwt beam="1">  1       21 0.40450880E-01 0.23473722E+03</pdfrwt>
<pdfrwt beam="2">  1       21 0.38241065E-01 0.23473722E+03</pdfrwt>
<totfact> 0.38039281E+04</totfact>
</mgrwt>
</event>
<event>
 4    1  0.3974123E+000  0.2056809E+03  0.7546771E-02  0.1145033E+00
         21   -1    0    0  503  502  0.00000000000E+00  0.00000000000E+00  0.53572864600E+02  0.53572864600E+02  0.00000000000E+00 0.  1.
         21   -1    0    0  501  503 -0.00000000000E+00 -0.00000000000E+00 -0.80501584720E+03  0.80501584720E+03  0.00000000000E+00 0.  1.
          6    1    1    2  501    0 -0.29222756082E+02  0.10733906080E+03 -0.43500200031E+03  0.48117708146E+03  0.17300000000E+03 0.  1.
         -6    1    1    2    0  502  0.29222756082E+02 -0.10733906080E+03 -0.31644098229E+03  0.37741163034E+03  0.17300000000E+03 0.  1.
<mgrwt>
<rscale>  2 0.20568093E+03</rscale>
<asrwt>0</asrwt>
<pdfrwt beam="1">  1       21 0.82419791E-02 0.20568093E+03</pdfrwt>
<pdfrwt beam="2">  1       21 0.12384859E+00 0.20568093E+03</pdfrwt>
<totfact> 0.55242595E+04</totfact>
</mgrwt>
</event>
<event>
 4    1  0.3974123E+000  0.2527031E+03  0.7546771E-02  0.1111608E+00
         21   -1    0    0  501  502  0.00000000000E+00  0.00000000000E+00  0.18056790496E+03  0.18056790496E+03  0.00000000000E+00 0. -1.
         21   -1    0    0  502  503 -0.00000000000E+00 -0.00000000000E+00 -0.45536497379E+03  0.45536497379E+03  0.00000000000E+00 0. -1.
          6    1    1    2  501    0 -0.60055089172E+01  0.18410270314E+03  0.12874729191E+02  0.25303088762E+03  0.17300000000E+03 0. -1.
         -6    1    1    2    0  503  0.60055089172E+01 -0.18410270314E+03 -0.28767179802E+03  0.38290199113E+03  0.17300000000E+03 0. -1.
<mgrwt>
<rscale>  2 0.25270313E+03</rscale>
<asrwt>0</asrwt>
<pdfrwt beam="1">  1       21 0.27779678E-01 0.25270313E+03</pdfrwt>
<pdfrwt beam="2">  1       21 0.70056149E-01 0.25270313E+03</pdfrwt>
<totfact> 0.22158873E+04</totfact>
</mgrwt>
</event>
<event>
 4    1  0.3974123E+000  0.1882761E+03  0.7546771E-02  0.1160025E+00
         21   -1    0    0  503  502  0.00000000000E+00  0.00000000000E+00  0.11780063990E+03  0.11780063990E+03  0.00000000000E+00 0.  1.
         21   -1    0    0  501  503 -0.00000000000E+00 -0.00000000000E+00 -0.30125717156E+03  0.30125717156E+03  0.00000000000E+00 0.  1.
          6    1    1    2  501    0 -0.73672865953E+02 -0.95491407784E+01 -0.98798723796E+02  0.21262423449E+03  0.17300000000E+03 0.  1.
         -6    1    1    2    0  502  0.73672865953E+02  0.95491407784E+01 -0.84657807866E+02  0.20643357697E+03  0.17300000000E+03 0.  1.
<mgrwt>
<rscale>  2 0.18827607E+03</rscale>
<asrwt>0</asrwt>
<pdfrwt beam="1">  1       21 0.18123175E-01 0.18827607E+03</pdfrwt>
<pdfrwt beam="2">  1       21 0.46347257E-01 0.18827607E+03</pdfrwt>
<totfact> 0.12382559E+05</totfact>
</mgrwt>
</event>
<event>
 4    1  0.3974123E+000  0.2999597E+03  0.7546771E-02  0.1085261E+00
         21   -1    0    0  501  502  0.00000000000E+00  0.00000000000E+00  0.74089167296E+03  0.74089167296E+03  0.00000000000E+00 0. -1.
         21   -1    0    0  502  503 -0.00000000000E+00 -0.00000000000E+00 -0.17451356921E+03  0.17451356921E+03  0.00000000000E+00 0.  1.
          6    1    1    2  501    0  0.12388884214E+02  0.24473118846E+03  0.53559358705E+03  0.61386996143E+03  0.17300000000E+03 0. -1.
         -6    1    1    2    0  503 -0.12388884214E+02 -0.24473118846E+03  0.30784516705E+02  0.30153528074E+03  0.17300000000E+03 0.  1.
<mgrwt>
<rscale>  2 0.29995973E+03</rscale>
<asrwt>0</asrwt>
<pdfrwt beam="1">  1       21 0.11398333E+00 0.29995973E+03</pdfrwt>
<pdfrwt beam="2">  1       21 0.26848242E-01 0.29995973E+03</pdfrwt>
<totfact> 0.74105649E+03</totfact>
</mgrwt>
</event>
<event>
 4    1  0.3974123E+000  0.4057140E+03  0.7546771E-02  0.1041819E+00
         21   -1    0    0  503  502  0.00000000000E+00  0.00000000000E+00  0.17420074955E+03  0.17420074955E+03  0.00000000000E+00 0.  1.
         21   -1    0    0  501  503 -0.00000000000E+00 -0.00000000000E+00 -0.95368429924E+03  0.95368429924E+03  0.00000000000E+00 0. -1.
          6    1    1    2  501    0 -0.59628148501E+02 -0.36210400598E+03 -0.44383807817E+03  0.60132858478E+03  0.17300000000E+03 0. -1.
         -6    1    1    2    0  502  0.59628148501E+02  0.36210400598E+03 -0.33564547152E+03  0.52655646401E+03  0.17300000000E+03 0.  1.
<mgrwt>
<rscale>  2 0.40571397E+03</rscale>
<asrwt>0</asrwt>
<pdfrwt beam="1">  1       21 0.26800115E-01 0.40571397E+03</pdfrwt>
<pdfrwt beam="2">  1       21 0.14672066E+00 0.40571397E+03</pdfrwt>
<totfact> 0.37016907E+03</totfact>
</mgrwt>
</event>
<event>
 4    1  0.3974123E+000  0.3286788E+03  0.7546771E-02  0.1071723E+00
         21   -1    0    0  503  502  0.00000000000E+00  0.00000000000E+00  0.20170048392E+04  0.20170048392E+04  0.00000000000E+00 0.  1.
         21   -1    0    0  501  503 -0.00000000000E+00 -0.00000000000E+00 -0.53660926560E+02  0.53660926560E+02  0.00000000000E+00 0. -1.
          6    1    1    2  501    0  0.14609206710E+03 -0.23823908416E+03  0.10266857106E+04  0.10780135907E+04  0.17300000000E+03 0.  1.
         -6    1    1    2    0  502 -0.14609206710E+03  0.23823908416E+03  0.93665820205E+03  0.99265217512E+03  0.17300000000E+03 0. -1.
<mgrwt>
<rscale>  2 0.32867880E+03</rscale>
<asrwt>0</asrwt>
<pdfrwt beam="1">  1       21 0.31030838E+00 0.32867880E+03</pdfrwt>
<pdfrwt beam="2">  1       21 0.82555287E-02 0.32867880E+03</pdfrwt>
<totfact> 0.29793246E+03</totfact>
</mgrwt>
</event>
<event>
 4    1  0.3974123E+000  0.1922659E+03  0.7546771E-02  0.1156433E+00
         21   -1    0    0  503  502  0.00000000000E+00  0.00000000000E+00  0.24831274182E+03  0.24831274182E+03  0.00000000000E+00 0. -1.
         21   -1    0    0  501  503 -0.00000000000E+00 -0.00000000000E+00 -0.17832862928E+03  0.17832862928E+03  0.00000000000E+00 0.  1.
          6    1    1    2  501    0 -0.57053906843E+02  0.61498308141E+02 -0.51710617950E+02  0.19909841335E+03  0.17300000000E+03 0. -1.
         -6    1    1    2    0  502  0.57053906843E+02 -0.61498308141E+02  0.12169473050E+03  0.22754295775E+03  0.17300000000E+03 0. -1.
<mgrwt>
<rscale>  2 0.19226594E+03</rscale>
<asrwt>0</asrwt>
<pdfrwt beam="1">  1       21 0.38201960E-01 0.19226594E+03</pdfrwt>
<pdfrwt beam="2">  1       21 0.27435174E-01 0.19226594E+03</pdfrwt>
<totfact> 0.83758389E+04</totfact>
</mgrwt>
</event>
<event>
 4    1  0.3974123E+000  0.2145217E+03  0.7546771E-02  0.1138035E+00
         21   -1    0    0  501  502  0.00000000000E+00  0.00000000000E+00  0.33770336506E+02  0.33770336506E+02  0.00000000000E+00 0. -1.
         21   -1    0    0  502  503 -0.00000000000E+00 -0.00000000000E+00 -0.17702444485E+04  0.17702444485E+04  0.00000000000E+00 0. -1.
          6    1    1    2  501    0  0.11660027898E+03  0.49949261313E+02 -0.43545458050E+03  0.48542789933E+03  0.17300000000E+03 0. -1.
         -6    1    1    2    0  503 -0.11660027898E+03 -0.49949261313E+02 -0.13010195315E+04  0.13185868856E+04  0.17300000000E+03 0. -1.
<mgrwt>
<rscale>  2 0.21452169E+03</rscale>
<asrwt>0</asrwt>
<pdfrwt beam="1">  1       21 0.51954352E-02 0.21452169E+03</pdfrwt>
<pdfrwt beam="2">  1       21 0.27234536E+00 0.21452169E+03</pdfrwt>
<totfact> 0.12163097E+04</totfact>
</mgrwt>
</event>
<event>
 4    1  0.3974123E+000  0.2445399E+03  0.7546771E-02  0.1116805E+00
         21   -1    0    0  503  502  0.00000000000E+00  0.00000000000E+00  0.26614721340E+03  0.26614721340E+03  0.00000000000E+00 0.  1.
         21   -1    0    0  501  503 -0.00000000000E+00 -0.00000000000E+00 -0.30394353606E+03  0.30394353606E+03  0.00000000000E+00 0. -1.
          6    1    1    2  501    0 -0.76438185427E+02 -0.15500953319E+03 -0.16445606079E+03  0.29469568626E+03  0.17300000000E+03 0. -1.
         -6    1    1    2    0  502  0.76438185427E+02  0.15500953319E+03  0.12665973812E+03  0.27539506320E+03  0.17300000000E+03 0.  1.
<mgrwt>
<rscale>  2 0.24453988E+03</rscale>
<asrwt>0</asrwt>
<pdfrwt beam="1">  1       21 0.40945725E-01 0.24453988E+03</pdfrwt>
<pdfrwt beam="2">  1       21 0.46760544E-01 0.24453988E+03</pdfrwt>
<totfact> 0.24475569E+04</totfact>
</mgrwt>
</event>
<event>
 4    1  0.3974123E+000  0.2251788E+03  0.7546771E-02  0.1130080E+00
         21   -1    0    0  501  502  0.00000000000E+00  0.00000000000E+00  0.15439334083E+04  0.15439334083E+04  0.00000000000E+00 0. -1.
         21   -1    0    0  502  503 -0.00000000000E+00 -0.00000000000E+00 -0.32887214297E+02  0.32887214297E+02  0.00000000000E+00 0. -1.
          6    1    1    2  501    0  0.11658954408E+01  0.14413588948E+03  0.72621730203E+03  0.76032695843E+03  0.17300000000E+03 0. -1.
         -6    1    1    2    0  503 -0.11658954408E+01 -0.14413588948E+03  0.78482889198E+03  0.81649366418E+03  0.17300000000E+03 0. -1.
<mgrwt>
<rscale>  2 0.22517885E+03</rscale>
<asrwt>0</asrwt>
<pdfrwt beam="1">  1       21 0.23752816E+00 0.22517885E+03</pdfrwt>
<pdfrwt beam="2">  1       21 0.50595726E-02 0.22517885E+03</pdfrwt>
<totfact> 0.20244737E+04</totfact>
</mgrwt>
</event>
<event>
 4    1  0.3974123E+000  0.2033957E+03  0.7546771E-02  0.1146905E+00
         21   -1    0    0  503  502  0.00000000000E+00  0.00000000000E+00  0.28678685968E+03  0.28678685968E+03  0.00000000000E+00 0.  1.
         21   -1    0    0  501  503 -0.00000000000E+00 -0.00000000000E+00 -0.30705538914E+03  0.30705538914E+03  0.00000000000E+00 0.  1.
          6    1    1    2  501    0 -0.60221250040E+02 -0.88398096369E+02 -0.22633806279E+03  0.30430041253E+03  0.17300000000E+03 0.  1.
         -6    1    1    2    0  502  0.60221250040E+02  0.88398096369E+02  0.20606953332E+03  0.28954183629E+03  0.17300000000E+03 0.  1.
<mgrwt>
<rscale>  2 0.20339573E+03</rscale>
<asrwt>0</asrwt>
<pdfrwt beam="1">  1       21 0.44121055E-01 0.20339573E+03</pdfrwt>
<pdfrwt beam="2">  1       21 0.47239291E-01 0.20339573E+03</pdfrwt>
<totfact> 0.21020417E+04</totfact>
</mgrwt>
</event>
<event>
 4    1  0.3974123E+000  0.1908250E+03  0.7546771E-02  0.1157719E+00
         21   -1    0    0  501  502  0.00000000000E+00  0.00000000000E+00  0.15432100120E+03  0.15432100120E+03  0.00000000000E+00 0.  1.
         21   -1    0    0  502  503 -0.00000000000E+00 -0.00000000000E+00 -0.23596402751E+03  0.23596402751E+03  0.00000000000E+00 0.  1.
          6    1    1    2  501    0  0.36228181380E+02 -0.71921508915E+02 -0.40967577016E+02  0.19517306919E+03  0.17300000000E+03 0.  1.
         -6    1    1    2    0  503 -0.36228181380E+02  0.71921508915E+02 -0.40675449295E+02  0.19511195952E+03  0.17300000000E+03 0.  1.
<mgrwt>
<rscale>  2 0.19082501E+03</rscale>
<asrwt>0</asrwt>
<pdfrwt beam="1">  1       21 0.23741693E-01 0.19082501E+03</pdfrwt>
<pdfrwt beam="2">  1       21 0.36302158E-01 0.19082501E+03</pdfrwt>
<totfact> 0.12237673E+05</totfact>
</mgrwt>
</event>
<event>
 4    1  0.3974123E+000  0.1810544E+03  0.7546771E-02  0.1166787E+00
         21   -1    0    0  503  502  0.00000000000E+00  0.00000000000E+00  0.33979308400E+03  0.33979308400E+03  0.00000000000E+00 0. -1.
         21   -1    0    0  501  503 -0.00000000000E+00 -0.00000000000E+00 -0.11029987279E+03  0.11029987279E+03  0.00000000000E+00 0.  1.
          6    1    1    2  501    0  0.18978709158E+02  0.49914840603E+02  0.35065599454E+02  0.18441875983E+03  0.17300000000E+03 0.  1.
         -6    1    1    2    0  502 -0.18978709158E+02 -0.49914840603E+02  0.19442761175E+03  0.26567419695E+03  0.17300000000E+03 0. -1.
<mgrwt>
<rscale>  2 0.18105436E+03</rscale>
<asrwt>0</asrwt>
<pdfrwt beam="1">  1       21 0.52275858E-01 0.18105436E+03</pdfrwt>
<pdfrwt beam="2">  1       21 0.16969211E-01 0.18105436E+03</pdfrwt>
<totfact> 0.10912986E+05</totfact>
</mgrwt>
</event>
<event>
 4    1  0.3974123E+000  0.1856058E+03  0.7546771E-02  0.1162485E+00
         21   -1    0    0  503  502  0.00000000000E+00  0.00000000000E+00  0.33709254954E+03  0.33709254954E+03  0.00000000000E+00 0. -1.
         21   -1    0    0  501  503 -0.00000000000E+00 -0.00000000000E+00 -0.13748932182E+03  0.13748932182E+03  0.00000000000E+00 0.  1.
          6    1    1    2  501    0 -0.66021962756E+02 -0.12712941039E+02 -0.20422831335E+02  0.18672603053E+03  0.17300000000E+03 0.  1.
         -6    1    1    2    0  502  0.66021962756E+02  0.12712941039E+02  0.22002605906E+03  0.28785584083E+03  0.17300000000E+03 0. -1.
<mgrwt>
<rscale>  2 0.18560581E+03</rscale>
<asrwt>0</asrwt>
<pdfrwt beam="1">  1       21 0.51860392E-01 0.18560581E+03</pdfrwt>
<pdfrwt beam="2">  1       21 0.21152203E-01 0.18560581E+03</pdfrwt>
<totfact> 0.73589514E+04</totfact>
</mgrwt>
</event>
<event>
 4    1  0.3974123E+000  0.1780834E+03  0.7546771E-02  0.1169671E+00
         21   -1    0    0  501  502  0.00000000000E+00  0.00000000000E+00  0.30179347474E+03  0.30179347474E+03  0.00000000000E+00 0.  1.
         21   -1    0    0  502  503 -0.00000000000E+00 -0.00000000000E+00 -0.10585005717E+03  0.10585005717E+03  0.00000000000E+00 0.  1.
          6    1    1    2  501    0  0.34919247918E+02  0.23776935757E+02  0.11531000569E+03  0.21215582472E+03  0.17300000000E+03 0.  1.
         -6    1    1    2    0  503 -0.34919247918E+02 -0.23776935757E+02  0.80633411884E+02  0.19548770719E+03  0.17300000000E+03 0.  1.
<mgrwt>
<rscale>  2 0.17808340E+03</rscale>
<asrwt>0</asrwt>
<pdfrwt beam="1">  1       21 0.46429765E-01 0.17808340E+03</pdfrwt>
<pdfrwt beam="2">  1       21 0.16284624E-01 0.17808340E+03</pdfrwt>
<totfact> 0.15071362E+05</totfact>
</mgrwt>
</event>
<event>
 4    1  0.3974123E+000  0.1779743E+03  0.7546771E-02  0.1169778E+00
         21   -1    0    0  503  502  0.00000000000E+00  0.00000000000E+00  0.86788455860E+02  0.86788455860E+02  0.00000000000E+00 0.  1.
         21   -1    0    0  501  503 -0.00000000000E+00 -0.00000000000E+00 -0.11964935698E+04  0.11964935698E+04  0.00000000000E+00 0.  1.
          6    1    1    2  501    0 -0.29603122471E+02 -0.29487428768E+02 -0.10897557673E+04  0.11041931378E+04  0.17300000000E+03 0.  1.
         -6    1    1    2    0  502  0.29603122471E+02  0.29487428768E+02 -0.19949346674E+02  0.17908888784E+03  0.17300000000E+03 0.  1.
<mgrwt>
<rscale>  2 0.17797431E+03</rscale>
<asrwt>0</asrwt>
<pdfrwt beam="1">  1       21 0.13352070E-01 0.17797431E+03</pdfrwt>
<pdfrwt beam="2">  1       21 0.18407593E+00 0.17797431E+03</pdfrwt>
<totfact> 0.83769020E+03</totfact>
</mgrwt>
</event>
<event>
 4    1  0.3974123E+000  0.1805111E+03  0.7546771E-02  0.1167309E+00
         21   -1    0    0  501  502  0.00000000000E+00  0.00000000000E+00  0.14049398696E+03  0.14049398696E+03  0.00000000000E+00 0. -1.
         21   -1    0    0  502  503 -0.00000000000E+00 -0.00000000000E+00 -0.75445880807E+03  0.75445880807E+03  0.00000000000E+00 0. -1.
          6    1    1    2  501    0  0.35920036926E+02  0.36946009633E+02  0.65417017668E+02  0.19199907000E+03  0.17300000000E+03 0. -1.
         -6    1    1    2    0  503 -0.35920036926E+02 -0.36946009633E+02 -0.67938183877E+03  0.70295372503E+03  0.17300000000E+03 0. -1.
<mgrwt>
<rscale>  2 0.18051110E+03</rscale>
<asrwt>0</asrwt>
<pdfrwt beam="1">  1       21 0.21614460E-01 0.18051110E+03</pdfrwt>
<pdfrwt beam="2">  1       21 0.11607058E+00 0.18051110E+03</pdfrwt>
<totfact> 0.11536692E+04</totfact>
</mgrwt>
</event>
<event>
 4    1  0.3974123E+000  0.1978047E+03  0.7546771E-02  0.1151605E+00
         21   -1    0    0  501  502  0.00000000000E+00  0.00000000000E+00  0.60804353126E+03  0.60804353126E+03  0.00000000000E+00 0. -1.
         21   -1    0    0  502  503 -0.00000000000E+00 -0.00000000000E+00 -0.23193922514E+03  0.23193922514E+03  0.00000000000E+00 0. -1.
          6    1    1    2  501    0  0.56087025600E+02  0.77794189787E+02  0.54506041070E+03  0.57984268704E+03  0.17300000000E+03 0. -1.
         -6    1    1    2    0  503 -0.56087025600E+02 -0.77794189787E+02 -0.16895610459E+03  0.26014006935E+03  0.17300000000E+03 0. -1.
<mgrwt>
<rscale>  2 0.19780468E+03</rscale>
<asrwt>0</asrwt>
<pdfrwt beam="1">  1       21 0.93545158E-01 0.19780468E+03</pdfrwt>
<pdfrwt beam="2">  1       21 0.35682958E-01 0.19780468E+03</pdfrwt>
<totfact> 0.72450511E+03</totfact>
</mgrwt>
</event>
<event>
 4    1  0.3974123E+000  0.2143601E+03  0.7546771E-02  0.1138159E+00
         21   -1    0    0  503  502  0.00000000000E+00  0.00000000000E+00  0.46024804951E+03  0.46024804951E+03  0.00000000000E+00 0.  1.
         21   -1    0    0  501  503 -0.00000000000E+00 -0.00000000000E+00 -0.10524332595E+03  0.10524332595E+03  0.00000000000E+00 0.  1.
          6    1    1    2  501    0  0.16907146495E+02 -0.12544075522E+03  0.11342412800E+03  0.24251859204E+03  0.17300000000E+03 0.  1.
         -6    1    1    2    0  502 -0.16907146495E+02  0.12544075522E+03  0.24158059556E+03  0.32297278341E+03  0.17300000000E+03 0.  1.
<mgrwt>
<rscale>  2 0.21436006E+03</rscale>
<asrwt>0</asrwt>
<pdfrwt beam="1">  1       21 0.70807391E-01 0.21436006E+03</pdfrwt>
<pdfrwt beam="2">  1       21 0.16191281E-01 0.21436006E+03</pdfrwt>
<totfact> 0.61019603E+04</totfact>
</mgrwt>
</event>
<event>
 4    1  0.3974123E+000  0.2229997E+03  0.7546771E-02  0.1131666E+00
         21   -1    0    0  501  502  0.00000000000E+00  0.00000000000E+00  0.20163768746E+03  0.20163768746E+03  0.00000000000E+00 0.  1.
         21   -1    0    0  502  503 -0.00000000000E+00 -0.00000000000E+00 -0.31185739896E+03  0.31185739896E+03  0.00000000000E+00 0. -1.
          6    1    1    2  501    0  0.12232647185E+03 -0.69542227160E+02  0.62315009631E+02  0.23154275523E+03  0.17300000000E+03 0.  1.
         -6    1    1    2    0  503 -0.12232647185E+03  0.69542227160E+02 -0.17253472113E+03  0.28195233120E+03  0.17300000000E+03 0. -1.
<mgrwt>
<rscale>  2 0.22299975E+03</rscale>
<asrwt>0</asrwt>
<pdfrwt beam="1">  1       21 0.31021183E-01 0.22299975E+03</pdfrwt>
<pdfrwt beam="2">  1       21 0.47978061E-01 0.22299975E+03</pdfrwt>
<totfact> 0.40825934E+04</totfact>
</mgrwt>
</event>
<event>
 4    1  0.3974123E+000  0.1807794E+03  0.7546771E-02  0.1167051E+00
         21   -1    0    0  503  502  0.00000000000E+00  0.00000000000E+00  0.11159459440E+03  0.11159459440E+03  0.00000000000E+00 0.  1.
         21   -1    0    0  501  503 -0.00000000000E+00 -0.00000000000E+00 -0.43165163248E+03  0.43165163248E+03  0.00000000000E+00 0.  1.
          6    1    1    2  501    0 -0.12280860357E+02 -0.51003720139E+02 -0.31405209201E+03  0.36236710046E+03  0.17300000000E+03 0.  1.
         -6    1    1    2    0  502  0.12280860357E+02  0.51003720139E+02 -0.60049460730E+01  0.18087912643E+03  0.17300000000E+03 0.  1.
<mgrwt>
<rscale>  2 0.18077942E+03</rscale>
<asrwt>0</asrwt>
<pdfrwt beam="1">  1       21 0.17168399E-01 0.18077942E+03</pdfrwt>
<pdfrwt beam="2">  1       21 0.66407942E-01 0.18077942E+03</pdfrwt>
<totfact> 0.64059554E+04</totfact>
</mgrwt>
</event>
<event>
 4    1  0.3974123E+000  0.1946199E+03  0.7546771E-02  0.1154359E+00
         21   -1    0    0  503  502  0.00000000000E+00  0.00000000000E+00  0.20134021382E+03  0.20134021382E+03  0.00000000000E+00 0.  1.
         21   -1    0    0  501  503 -0.00000000000E+00 -0.00000000000E+00 -0.20906659888E+03  0.20906659888E+03  0.00000000000E+00 0.  1.
          6    1    1    2  501    0 -0.35183868436E+02 -0.81914663856E+02 -0.68810032050E+02  0.20642610606E+03  0.17300000000E+03 0.  1.
         -6    1    1    2    0  502  0.35183868436E+02  0.81914663856E+02  0.61083646983E+02  0.20398070664E+03  0.17300000000E+03 0.  1.
<mgrwt>
<rscale>  2 0.19461993E+03</rscale>
<asrwt>0</asrwt>
<pdfrwt beam="1">  1       21 0.30975418E-01 0.19461993E+03</pdfrwt>
<pdfrwt beam="2">  1       21 0.32164092E-01 0.19461993E+03</pdfrwt>
<totfact> 0.93014505E+04</totfact>
</mgrwt>
</event>
<event>
 4    1  0.3974123E+000  0.3151873E+03  0.7546771E-02  0.1077886E+00
         21   -1    0    0  501  502  0.00000000000E+00  0.00000000000E+00  0.89781096434E+02  0.89781096434E+02  0.00000000000E+00 0. -1.
         21   -1    0    0  502  503 -0.00000000000E+00 -0.00000000000E+00 -0.12641718033E+04  0.12641718033E+04  0.00000000000E+00 0.  1.
          6    1    1    2  501    0  0.22210620358E+03  0.14171395947E+03 -0.34811492832E+03  0.46960304013E+03  0.17300000000E+03 0. -1.
         -6    1    1    2    0  503 -0.22210620358E+03 -0.14171395947E+03 -0.82627577858E+03  0.88434985964E+03  0.17300000000E+03 0.  1.
<mgrwt>
<rscale>  2 0.31518726E+03</rscale>
<asrwt>0</asrwt>
<pdfrwt beam="1">  1       21 0.13812476E-01 0.31518726E+03</pdfrwt>
<pdfrwt beam="2">  1       21 0.19448797E+00 0.31518726E+03</pdfrwt>
<totfact> 0.60952804E+03</totfact>
</mgrwt>
</event>
<event>
 4    1  0.3974123E+000  0.2523233E+03  0.7546771E-02  0.1111845E+00
         21   -1    0    0  501  502  0.00000000000E+00  0.00000000000E+00  0.47721106308E+03  0.47721106308E+03  0.00000000000E+00 0. -1.
         21   -1    0    0  502  503 -0.00000000000E+00 -0.00000000000E+00 -0.16155453965E+03  0.16155453965E+03  0.00000000000E+00 0. -1.
          6    1    1    2  501    0  0.17222583861E+03  0.63845971439E+02  0.29112254108E+03  0.38525236077E+03  0.17300000000E+03 0. -1.
         -6    1    1    2    0  503 -0.17222583861E+03 -0.63845971439E+02  0.24533982350E+02  0.25351324195E+03  0.17300000000E+03 0. -1.
<mgrwt>
<rscale>  2 0.25232330E+03</rscale>
<asrwt>0</asrwt>
<pdfrwt beam="1">  1       21 0.73417086E-01 0.25232330E+03</pdfrwt>
<pdfrwt beam="2">  1       21 0.24854545E-01 0.25232330E+03</pdfrwt>
<totfact> 0.24750531E+04</totfact>
</mgrwt>
</event>
<event>
 4    1  0.3974123E+000  0.1769732E+03  0.7546771E-02  0.1170765E+00
         21   -1    0    0  501  502  0.00000000000E+00  0.00000000000E+00  0.20635938726E+02  0.20635938726E+02  0.00000000000E+00 0. -1.
         21   -1    0    0  502  503 -0.00000000000E+00 -0.00000000000E+00 -0.17835878273E+04  0.17835878273E+04  0.00000000000E+00 0. -1.
          6    1    1    2  501    0 -0.27093472695E+02  0.25621352836E+02 -0.53317977628E+03  0.56178303981E+03  0.17300000000E+03 0. -1.
         -6    1    1    2    0  503  0.27093472695E+02 -0.25621352836E+02 -0.12297721123E+04  0.12424407262E+04  0.17300000000E+03 0. -1.
<mgrwt>
<rscale>  2 0.17697319E+03</rscale>
<asrwt>0</asrwt>
<pdfrwt beam="1">  1       21 0.31747586E-02 0.17697319E+03</pdfrwt>
<pdfrwt beam="2">  1       21 0.27439823E+00 0.17697319E+03</pdfrwt>
<totfact> 0.28021390E+04</totfact>
</mgrwt>
</event>
<event>
 4    1  0.3974123E+000  0.3406907E+03  0.7546771E-02  0.1066502E+00
         21   -1    0    0  503  502  0.00000000000E+00  0.00000000000E+00  0.59179304830E+02  0.59179304830E+02  0.00000000000E+00 0. -1.
         21   -1    0    0  501  503 -0.00000000000E+00 -0.00000000000E+00 -0.26636832554E+04  0.26636832554E+04  0.00000000000E+00 0.  1.
          6    1    1    2  501    0 -0.20900887134E+02 -0.29275294184E+03 -0.20013407148E+04  0.20301317171E+04  0.17300000000E+03 0.  1.
         -6    1    1    2    0  502  0.20900887134E+02  0.29275294184E+03 -0.60316323573E+03  0.69273084309E+03  0.17300000000E+03 0. -1.
<mgrwt>
<rscale>  2 0.34069067E+03</rscale>
<asrwt>0</asrwt>
<pdfrwt beam="1">  1       21 0.91045073E-02 0.34069067E+03</pdfrwt>
<pdfrwt beam="2">  1       21 0.40979748E+00 0.34069067E+03</pdfrwt>
<totfact> 0.60884123E+02</totfact>
</mgrwt>
</event>
<event>
 4    1  0.3974123E+000  0.3455493E+03  0.7546771E-02  0.1064457E+00
         21   -1    0    0  503  502  0.00000000000E+00  0.00000000000E+00  0.31831715601E+03  0.31831715601E+03  0.00000000000E+00 0.  1.
         21   -1    0    0  501  503 -0.00000000000E+00 -0.00000000000E+00 -0.38609299377E+03  0.38609299377E+03  0.00000000000E+00 0. -1.
          6    1    1    2  501    0 -0.24398891938E+03 -0.17304550421E+03 -0.93287821867E+02  0.35792032216E+03  0.17300000000E+03 0. -1.
         -6    1    1    2    0  502  0.24398891938E+03  0.17304550421E+03  0.25511984107E+02  0.34648982761E+03  0.17300000000E+03 0.  1.
<mgrwt>
<rscale>  2 0.34554933E+03</rscale>
<asrwt>0</asrwt>
<pdfrwt beam="1">  1       21 0.48971870E-01 0.34554933E+03</pdfrwt>
<pdfrwt beam="2">  1       21 0.59398922E-01 0.34554933E+03</pdfrwt>
<totfact> 0.97291886E+03</totfact>
</mgrwt>
</event>
<event>
 4    1  0.3974123E+000  0.2032828E+03  0.7546771E-02  0.1146999E+00
         21   -1    0    0  501  502  0.00000000000E+00  0.00000000000E+00  0.21421411799E+03  0.21421411799E+03  0.00000000000E+00 0.  1.
         21   -1    0    0  502  503 -0.00000000000E+00 -0.00000000000E+00 -0.19346638314E+03  0.19346638314E+03  0.00000000000E+00 0.  1.
          6    1    1    2  501    0 -0.50756361525E+02  0.93907820095E+02 -0.56476228068E+00  0.20328356025E+03  0.17300000000E+03 0.  1.
         -6    1    1    2    0  503  0.50756361525E+02 -0.93907820095E+02  0.21312497136E+02  0.20439694089E+03  0.17300000000E+03 0.  1.
<mgrwt>
<rscale>  2 0.20328278E+03</rscale>
<asrwt>0</asrwt>
<pdfrwt beam="1">  1       21 0.32956018E-01 0.20328278E+03</pdfrwt>
<pdfrwt beam="2">  1       21 0.29764059E-01 0.20328278E+03</pdfrwt>
<totfact> 0.95504010E+04</totfact>
</mgrwt>
</event>
<event>
 4    1  0.3974123E+000  0.2109185E+03  0.7546771E-02  0.1140841E+00
         21   -1    0    0  503  502  0.00000000000E+00  0.00000000000E+00  0.29253304986E+02  0.29253304986E+02  0.00000000000E+00 0. -1.
         21   -1    0    0  501  503 -0.00000000000E+00 -0.00000000000E+00 -0.17767554844E+04  0.17767554844E+04  0.00000000000E+00 0. -1.
          6    1    1    2  501    0 -0.12004950369E+03 -0.12072403590E+02 -0.12165271208E+04  0.12346760150E+04  0.17300000000E+03 0. -1.
         -6    1    1    2    0  502  0.12004950369E+03  0.12072403590E+02 -0.53097505854E+03  0.57133277436E+03  0.17300000000E+03 0. -1.
<mgrwt>
<rscale>  2 0.21091853E+03</rscale>
<asrwt>0</asrwt>
<pdfrwt beam="1">  1       21 0.45005083E-02 0.21091853E+03</pdfrwt>
<pdfrwt beam="2">  1       21 0.27334701E+00 0.21091853E+03</pdfrwt>
<totfact> 0.15361000E+04</totfact>
</mgrwt>
</event>
<event>
 4    1  0.3974123E+000  0.2610382E+03  0.7546771E-02  0.1106521E+00
         21   -1    0    0  503  502  0.00000000000E+00  0.00000000000E+00  0.35593013970E+03  0.35593013970E+03  0.00000000000E+00 0.  1.
         21   -1    0    0  501  503 -0.00000000000E+00 -0.00000000000E+00 -0.19802883331E+03  0.19802883331E+03  0.00000000000E+00 0. -1.
          6    1    1    2  501    0  0.99782410585E+02  0.16809344329E+03  0.28445808525E+02  0.26258350893E+03  0.17300000000E+03 0. -1.
         -6    1    1    2    0  502 -0.99782410585E+02 -0.16809344329E+03  0.12945549786E+03  0.29137546408E+03  0.17300000000E+03 0.  1.
<mgrwt>
<rscale>  2 0.26103819E+03</rscale>
<asrwt>0</asrwt>
<pdfrwt beam="1">  1       21 0.54758483E-01 0.26103819E+03</pdfrwt>
<pdfrwt beam="2">  1       21 0.30465974E-01 0.26103819E+03</pdfrwt>
<totfact> 0.31494796E+04</totfact>
</mgrwt>
</event>
<event>
 4    1  0.3974123E+000  0.2106214E+03  0.7546771E-02  0.1141075E+00
         21   -1    0    0  503  502  0.00000000000E+00  0.00000000000E+00  0.66173790522E+03  0.66173790522E+03  0.00000000000E+00 0.  1.
         21   -1    0    0  501  503 -0.00000000000E+00 -0.00000000000E+00 -0.92301889476E+02  0.92301889476E+02  0.00000000000E+00 0.  1.
          6    1    1    2  501    0 -0.11460065110E+03 -0.36042824605E+02  0.87470481462E+02  0.22806244663E+03  0.17300000000E+03 0.  1.
         -6    1    1    2    0  502  0.11460065110E+03  0.36042824605E+02  0.48196553429E+03  0.52597734806E+03  0.17300000000E+03 0.  1.
<mgrwt>
<rscale>  2 0.21062145E+03</rscale>
<asrwt>0</asrwt>
<pdfrwt beam="1">  1       21 0.10180583E+00 0.21062145E+03</pdfrwt>
<pdfrwt beam="2">  1       21 0.14200291E-01 0.21062145E+03</pdfrwt>
<totfact> 0.33753168E+04</totfact>
</mgrwt>
</event>
<event>
 4    1  0.3974123E+000  0.2086931E+03  0.7546771E-02  0.1142605E+00
         21   -1    0    0  501  502  0.00000000000E+00  0.00000000000E+00  0.19987523771E+03  0.19987523771E+03  0.00000000000E+00 0. -1.
         21   -1    0    0  502  503 -0.00000000000E+00 -0.00000000000E+00 -0.21790491177E+03  0.21790491177E+03  0.00000000000E+00 0. -1.
          6    1    1    2  501    0 -0.42563019003E+02  0.10868398249E+03 -0.10004396006E+02  0.20893278004E+03  0.17300000000E+03 0. -1.
         -6    1    1    2    0  503  0.42563019003E+02 -0.10868398249E+03 -0.80252780549E+01  0.20884736944E+03  0.17300000000E+03 0. -1.
<mgrwt>
<rscale>  2 0.20869312E+03</rscale>
<asrwt>0</asrwt>
<pdfrwt beam="1">  1       21 0.30750037E-01 0.20869312E+03</pdfrwt>
<pdfrwt beam="2">  1       21 0.33523832E-01 0.20869312E+03</pdfrwt>
<totfact> 0.86447435E+04</totfact>
</mgrwt>
</event>
<event>
 4    1  0.3974123E+000  0.2534741E+03  0.7546771E-02  0.1111129E+00
         21   -1    0    0  501  502  0.00000000000E+00  0.00000000000E+00  0.62781817865E+02  0.62781817865E+02  0.00000000000E+00 0. -1.
         21   -1    0    0  502  503 -0.00000000000E+00 -0.00000000000E+00 -0.13065377825E+04  0.13065377825E+04  0.00000000000E+00 0.  1.
          6    1    1    2  501    0 -0.17069826794E+03  0.71987815673E+02 -0.30313960777E+03  0.39514904287E+03  0.17300000000E+03 0.  1.
         -6    1    1    2    0  503  0.17069826794E+03 -0.71987815673E+02 -0.94061635687E+03  0.97417055750E+03  0.17300000000E+03 0.  1.
<mgrwt>
<rscale>  2 0.25347415E+03</rscale>
<asrwt>0</asrwt>
<pdfrwt beam="1">  1       21 0.96587412E-02 0.25347415E+03</pdfrwt>
<pdfrwt beam="2">  1       21 0.20100581E+00 0.25347415E+03</pdfrwt>
<totfact> 0.10908336E+04</totfact>
</mgrwt>
</event>
<event>
 4    1  0.3974123E+000  0.1786371E+03  0.7546771E-02  0.1169129E+00
         21   -1    0    0  503  502  0.00000000000E+00  0.00000000000E+00  0.38927194517E+03  0.38927194517E+03  0.00000000000E+00 0. -1.
         21   -1    0    0  501  503 -0.00000000000E+00 -0.00000000000E+00 -0.16318638834E+03  0.16318638834E+03  0.00000000000E+00 0. -1.
          6    1    1    2  501    0 -0.45157567293E+01  0.44292635419E+02 -0.81821165864E+02  0.19648392503E+03  0.17300000000E+03 0. -1.
         -6    1    1    2    0  502  0.45157567293E+01 -0.44292635419E+02  0.30790672269E+03  0.35597440848E+03  0.17300000000E+03 0. -1.
<mgrwt>
<rscale>  2 0.17863715E+03</rscale>
<asrwt>0</asrwt>
<pdfrwt beam="1">  1       21 0.59887991E-01 0.17863715E+03</pdfrwt>
<pdfrwt beam="2">  1       21 0.25105598E-01 0.17863715E+03</pdfrwt>
<totfact> 0.39369228E+04</totfact>
</mgrwt>
</event>
<event>
 4    1  0.3974123E+000  0.1836420E+03  0.7546771E-02  0.1164324E+00
         21   -1    0    0  501  502  0.00000000000E+00  0.00000000000E+00  0.26804869982E+03  0.26804869982E+03  0.00000000000E+00 0.  1.
         21   -1    0    0  502  503 -0.00000000000E+00 -0.00000000000E+00 -0.14096221595E+03  0.14096221595E+03  0.00000000000E+00 0.  1.
          6    1    1    2  501    0 -0.60824910160E+02 -0.97842817807E+01  0.13058227217E+03  0.22533559788E+03  0.17300000000E+03 0.  1.
         -6    1    1    2    0  503  0.60824910160E+02  0.97842817807E+01 -0.34957882971E+01  0.18367531789E+03  0.17300000000E+03 0.  1.
<mgrwt>
<rscale>  2 0.18364205E+03</rscale>
<asrwt>0</asrwt>
<pdfrwt beam="1">  1       21 0.41238261E-01 0.18364205E+03</pdfrwt>
<pdfrwt beam="2">  1       21 0.21686495E-01 0.18364205E+03</pdfrwt>
<totfact> 0.11267170E+05</totfact>
</mgrwt>
</event>
<event>
 4    1  0.3974123E+000  0.1795124E+03  0.7546771E-02  0.1168276E+00
         21   -1    0    0  501  502  0.00000000000E+00  0.00000000000E+00  0.11789225352E+04  0.11789225352E+04  0.00000000000E+00 0. -1.
         21   -1    0    0  502  503 -0.00000000000E+00 -0.00000000000E+00 -0.28886041722E+02  0.28886041722E+02  0.00000000000E+00 0. -1.
          6    1    1    2  501    0 -0.20534525830E+00  0.47912886845E+02  0.71500070599E+03  0.73719108544E+03  0.17300000000E+03 0. -1.
         -6    1    1    2    0  503  0.20534525830E+00 -0.47912886845E+02  0.43503578754E+03  0.47061749153E+03  0.17300000000E+03 0. -1.
<mgrwt>
<rscale>  2 0.17951236E+03</rscale>
<asrwt>0</asrwt>
<pdfrwt beam="1">  1       21 0.18137266E+00 0.17951236E+03</pdfrwt>
<pdfrwt beam="2">  1       21 0.44440073E-02 0.17951236E+03</pdfrwt>
<totfact> 0.58933504E+04</totfact>
</mgrwt>
</event>
<event>
 4    1  0.3974123E+000  0.1853046E+03  0.7546771E-02  0.1162766E+00
         21   -1    0    0  501  502  0.00000000000E+00  0.00000000000E+00  0.25373756182E+04  0.25373756182E+04  0.00000000000E+00 0.  1.
         21   -1    0    0  502  503 -0.00000000000E+00 -0.00000000000E+00 -0.14331055334E+03  0.14331055334E+03  0.00000000000E+00 0.  1.
          6    1    1    2  501    0 -0.32959297916E+02  0.57640943595E+02  0.24725224199E+04  0.24794565757E+04  0.17300000000E+03 0.  1.
         -6    1    1    2    0  503  0.32959297916E+02 -0.57640943595E+02 -0.78457355043E+02  0.20122959588E+03  0.17300000000E+03 0.  1.
<mgrwt>
<rscale>  2 0.18530460E+03</rscale>
<asrwt>0</asrwt>
<pdfrwt beam="1">  1       21 0.39036545E+00 0.18530460E+03</pdfrwt>
<pdfrwt beam="2">  1       21 0.22047779E-01 0.18530460E+03</pdfrwt>
<totfact> 0.19467121E+02</totfact>
</mgrwt>
</event>
<event>
 4    1  0.3974123E+000  0.1805087E+03  0.7546771E-02  0.1167312E+00
         21   -1    0    0  503  502  0.00000000000E+00  0.00000000000E+00  0.21166902958E+03  0.21166902958E+03  0.00000000000E+00 0.  1.
         21   -1    0    0  501  503 -0.00000000000E+00 -0.00000000000E+00 -0.18934561918E+03  0.18934561918E+03  0.00000000000E+00 0.  1.
          6    1    1    2  501    0 -0.39649362834E+02  0.32898570300E+02 -0.75547661757E+02  0.19568044639E+03  0.17300000000E+03 0.  1.
         -6    1    1    2    0  502  0.39649362834E+02 -0.32898570300E+02  0.97871072152E+02  0.20533420238E+03  0.17300000000E+03 0.  1.
<mgrwt>
<rscale>  2 0.18050869E+03</rscale>
<asrwt>0</asrwt>
<pdfrwt beam="1">  1       21 0.32564466E-01 0.18050869E+03</pdfrwt>
<pdfrwt beam="2">  1       21 0.29130095E-01 0.18050869E+03</pdfrwt>
<totfact> 0.10286531E+05</totfact>
</mgrwt>
</event>
<event>
 4    1  0.3974123E+000  0.1847430E+03  0.7546771E-02  0.1163290E+00
         21   -1    0    0  501  502  0.00000000000E+00  0.00000000000E+00  0.60342483178E+03  0.60342483178E+03  0.00000000000E+00 0. -1.
         21   -1    0    0  502  503 -0.00000000000E+00 -0.00000000000E+00 -0.59299044224E+02  0.59299044224E+02  0.00000000000E+00 0. -1.
          6    1    1    2  501    0  0.15934915327E+01 -0.64795306659E+02  0.34327335645E+03  0.38982889609E+03  0.17300000000E+03 0. -1.
         -6    1    1    2    0  503 -0.15934915327E+01  0.64795306659E+02  0.20085243111E+03  0.27289497992E+03  0.17300000000E+03 0. -1.
<mgrwt>
<rscale>  2 0.18474299E+03</rscale>
<asrwt>0</asrwt>
<pdfrwt beam="1">  1       21 0.92834585E-01 0.18474299E+03</pdfrwt>
<pdfrwt beam="2">  1       21 0.91229303E-02 0.18474299E+03</pdfrwt>
<totfact> 0.93550551E+04</totfact>
</mgrwt>
</event>
<event>
 4    1  0.3974123E+000  0.1821963E+03  0.7546771E-02  0.1165694E+00
         21   -1    0    0  503  502  0.00000000000E+00  0.00000000000E+00  0.11629534382E+03  0.11629534382E+03  0.00000000000E+00 0.  1.
         21   -1    0    0  501  503 -0.00000000000E+00 -0.00000000000E+00 -0.33871597142E+03  0.33871597142E+03  0.00000000000E+00 0.  1.
          6    1    1    2  501    0 -0.37676963126E+02 -0.42975871598E+02 -0.20143705677E+03  0.27161069001E+03  0.17300000000E+03 0. -1.
         -6    1    1    2    0  502  0.37676963126E+02  0.42975871598E+02 -0.20983570825E+02  0.18340062523E+03  0.17300000000E+03 0. -1.
<mgrwt>
<rscale>  2 0.18219627E+03</rscale>
<asrwt>0</asrwt>
<pdfrwt beam="1">  1       21 0.17891592E-01 0.18219627E+03</pdfrwt>
<pdfrwt beam="2">  1       21 0.52110149E-01 0.18219627E+03</pdfrwt>
<totfact> 0.99615107E+04</totfact>
</mgrwt>
</event>
<event>
 4    1  0.3974123E+000  0.1937222E+03  0.7546771E-02  0.1155146E+00
         21   -1    0    0  503  502  0.00000000000E+00  0.00000000000E+00  0.71736630209E+02  0.71736630209E+02  0.00000000000E+00 0. -1.
         21   -1    0    0  501  503 -0.00000000000E+00 -0.00000000000E+00 -0.64047967778E+03  0.64047967778E+03  0.00000000000E+00 0.  1.
          6    1    1    2  501    0  0.86477945478E+02  0.10993890968E+02 -0.43679493873E+03  0.47782645301E+03  0.17300000000E+03 0. -1.
         -6    1    1    2    0  502 -0.86477945478E+02 -0.10993890968E+02 -0.13194810884E+03  0.23438985498E+03  0.17300000000E+03 0. -1.
<mgrwt>
<rscale>  2 0.19372223E+03</rscale>
<asrwt>0</asrwt>
<pdfrwt beam="1">  1       21 0.11036405E-01 0.19372223E+03</pdfrwt>
<pdfrwt beam="2">  1       21 0.98535335E-01 0.19372223E+03</pdfrwt>
<totfact> 0.57892352E+04</totfact>
</mgrwt>
</event>
<event>
 4    1  0.3974123E+000  0.1899775E+03  0.7546771E-02  0.1158482E+00
         21   -1    0    0  501  502  0.00000000000E+00  0.00000000000E+00  0.11067220069E+04  0.11067220069E+04  0.00000000000E+00 0.  1.
         21   -1    0    0  502  503 -0.00000000000E+00 -0.00000000000E+00 -0.15273488060E+03  0.15273488060E+03  0.00000000000E+00 0.  1.
          6    1    1    2  501    0  0.63281829738E+02 -0.46452741580E+02  0.10354620222E+04  0.10527454804E+04  0.17300000000E+03 0.  1.
         -6    1    1    2    0  503 -0.63281829738E+02  0.46452741580E+02 -0.81474895851E+02  0.20671140711E+03  0.17300000000E+03 0.  1.
<mgrwt>
<rscale>  2 0.18997749E+03</rscale>
<asrwt>0</asrwt>
<pdfrwt beam="1">  1       21 0.17026492E+00 0.18997749E+03</pdfrwt>
<pdfrwt beam="2">  1       21 0.23497675E-01 0.18997749E+03</pdfrwt>
<totfact> 0.36300317E+03</totfact>
</mgrwt>
</event>
<event>
 4    1  0.3974123E+000  0.1734928E+03  0.7546771E-02  0.1174254E+00
         21   -1    0    0  501  502  0.00000000000E+00  0.00000000000E+00  0.57185445076E+02  0.57185445076E+02  0.00000000000E+00 0. -1.
         21   -1    0    0  502  503 -0.00000000000E+00 -0.00000000000E+00 -0.98024878670E+03  0.98024878670E+03  0.00000000000E+00 0. -1.
          6    1    1    2  501    0  0.42318282890E+01 -0.12362987521E+02 -0.10855961890E+03  0.20465811171E+03  0.17300000000E+03 0. -1.
         -6    1    1    2    0  503 -0.42318282890E+01  0.12362987521E+02 -0.81450372272E+03  0.83277612007E+03  0.17300000000E+03 0. -1.
<mgrwt>
<rscale>  2 0.17349280E+03</rscale>
<asrwt>0</asrwt>
<pdfrwt beam="1">  1       21 0.87977611E-02 0.17349280E+03</pdfrwt>
<pdfrwt beam="2">  1       21 0.15080750E+00 0.17349280E+03</pdfrwt>
<totfact> 0.30324039E+04</totfact>
</mgrwt>
</event>
<event>
 4    1  0.3974123E+000  0.1938043E+03  0.7546771E-02  0.1155074E+00
         21   -1    0    0  503  502  0.00000000000E+00  0.00000000000E+00  0.40248398835E+03  0.40248398835E+03  0.00000000000E+00 0.  1.
         21   -1    0    0  501  503 -0.00000000000E+00 -0.00000000000E+00 -0.10741072219E+03  0.10741072219E+03  0.00000000000E+00 0.  1.
          6    1    1    2  501    0  0.46428797060E+02  0.73996499388E+02  0.55198418062E+02  0.20151173781E+03  0.17300000000E+03 0.  1.
         -6    1    1    2    0  502 -0.46428797060E+02 -0.73996499388E+02  0.23987484810E+03  0.30838297273E+03  0.17300000000E+03 0.  1.
<mgrwt>
<rscale>  2 0.19380432E+03</rscale>
<asrwt>0</asrwt>
<pdfrwt beam="1">  1       21 0.61920613E-01 0.19380432E+03</pdfrwt>
<pdfrwt beam="2">  1       21 0.16524727E-01 0.19380432E+03</pdfrwt>
<totfact> 0.79541423E+04</totfact>
</mgrwt>
</event>
<event>
 4    1  0.3974123E+000  0.1845871E+03  0.7546771E-02  0.1163436E+00
         21   -1    0    0  503  502  0.00000000000E+00  0.00000000000E+00  0.10263854081E+03  0.10263854081E+03  0.00000000000E+00 0. -1.
         21   -1    0    0  501  503 -0.00000000000E+00 -0.00000000000E+00 -0.42643622743E+03  0.42643622743E+03  0.00000000000E+00 0. -1.
          6    1    1    2  501    0  0.12438814090E+02 -0.63155945433E+02 -0.28641047205E+03  0.34073942543E+03  0.17300000000E+03 0. -1.
         -6    1    1    2    0  502 -0.12438814090E+02  0.63155945433E+02 -0.37387214567E+02  0.18833534281E+03  0.17300000000E+03 0. -1.
<mgrwt>
<rscale>  2 0.18458710E+03</rscale>
<asrwt>0</asrwt>
<pdfrwt beam="1">  1       21 0.15790545E-01 0.18458710E+03</pdfrwt>
<pdfrwt beam="2">  1       21 0.65605572E-01 0.18458710E+03</pdfrwt>
<totfact> 0.76550300E+04</totfact>
</mgrwt>
</event>
<event>
 4    1  0.3974123E+000  0.2184043E+03  0.7546771E-02  0.1135078E+00
         21   -1    0    0  503  502  0.00000000000E+00  0.00000000000E+00  0.47102145186E+03  0.47102145186E+03  0.00000000000E+00 0. -1.
         21   -1    0    0  501  503 -0.00000000000E+00 -0.00000000000E+00 -0.30114128567E+03  0.30114128567E+03  0.00000000000E+00 0.  1.
          6    1    1    2  501    0 -0.36506973567E+02  0.12821348228E+03 -0.22959466785E+03  0.31688194594E+03  0.17300000000E+03 0.  1.
         -6    1    1    2    0  502  0.36506973567E+02 -0.12821348228E+03  0.39947483404E+03  0.45528079159E+03  0.17300000000E+03 0. -1.
<mgrwt>
<rscale>  2 0.21840434E+03</rscale>
<asrwt>0</asrwt>
<pdfrwt beam="1">  1       21 0.72464839E-01 0.21840434E+03</pdfrwt>
<pdfrwt beam="2">  1       21 0.46329429E-01 0.21840434E+03</pdfrwt>
<totfact> 0.75224371E+03</totfact>
</mgrwt>
</event>
<event>
 4    1  0.3974123E+000  0.2094349E+03  0.7546771E-02  0.1142014E+00
         21   -1    0    0  501  502  0.00000000000E+00  0.00000000000E+00  0.16306069180E+04  0.16306069180E+04  0.00000000000E+00 0.  1.
         21   -1    0    0  502  503 -0.00000000000E+00 -0.00000000000E+00 -0.60183542670E+03  0.60183542670E+03  0.00000000000E+00 0.  1.
          6    1    1    2  501    0  0.10701743612E+03 -0.49812258391E+02  0.16053763083E+04  0.16189799517E+04  0.17300000000E+03 0.  1.
         -6    1    1    2    0  503 -0.10701743612E+03  0.49812258391E+02 -0.57660481697E+03  0.61346239304E+03  0.17300000000E+03 0.  1.
<mgrwt>
<rscale>  2 0.20943494E+03</rscale>
<asrwt>0</asrwt>
<pdfrwt beam="1">  1       21 0.25086260E+00 0.20943494E+03</pdfrwt>
<pdfrwt beam="2">  1       21 0.92590067E-01 0.20943494E+03</pdfrwt>
<totfact> 0.62989629E+01</totfact>
</mgrwt>
</event>
<event>
 4    1  0.3974123E+000  0.2368216E+03  0.7546771E-02  0.1121928E+00
         21   -1    0    0  501  502  0.00000000000E+00  0.00000000000E+00  0.10365248283E+03  0.10365248283E+03  0.00000000000E+00 0. -1.
         21   -1    0    0  502  503 -0.00000000000E+00 -0.00000000000E+00 -0.11736246431E+04  0.11736246431E+04  0.00000000000E+00 0.  1.
          6    1    1    2  501    0 -0.13024752671E+03  0.95870062600E+02 -0.66134426557E+02  0.24588259290E+03  0.17300000000E+03 0. -1.
         -6    1    1    2    0  503  0.13024752671E+03 -0.95870062600E+02 -0.10038377338E+04  0.10313945331E+04  0.17300000000E+03 0.  1.
<mgrwt>
<rscale>  2 0.23682164E+03</rscale>
<asrwt>0</asrwt>
<pdfrwt beam="1">  1       21 0.15946536E-01 0.23682164E+03</pdfrwt>
<pdfrwt beam="2">  1       21 0.18055763E+00 0.23682164E+03</pdfrwt>
<totfact> 0.61078483E+03</totfact>
</mgrwt>
</event>
<event>
 4    1  0.3974123E+000  0.1763585E+03  0.7546771E-02  0.1171375E+00
         21   -1    0    0  503  502  0.00000000000E+00  0.00000000000E+00  0.44189899461E+02  0.44189899461E+02  0.00000000000E+00 0.  1.
         21   -1    0    0  501  503 -0.00000000000E+00 -0.00000000000E+00 -0.71620864473E+03  0.71620864473E+03  0.00000000000E+00 0.  1.
          6    1    1    2  501    0  0.33761524233E+02 -0.57861676387E+01 -0.38598648403E+03  0.42436763085E+03  0.17300000000E+03 0.  1.
         -6    1    1    2    0  502 -0.33761524233E+02  0.57861676387E+01 -0.28603226124E+03  0.33603091334E+03  0.17300000000E+03 0.  1.
<mgrwt>
<rscale>  2 0.17635850E+03</rscale>
<asrwt>0</asrwt>
<pdfrwt beam="1">  1       21 0.67984467E-02 0.17635850E+03</pdfrwt>
<pdfrwt beam="2">  1       21 0.11018593E+00 0.17635850E+03</pdfrwt>
<totfact> 0.10418726E+05</totfact>
</mgrwt>
</event>
<event>
 4    1  0.3974123E+000  0.1733820E+03  0.7546771E-02  0.1174366E+00
         21   -1    0    0  501  502  0.00000000000E+00  0.00000000000E+00  0.28084320135E+03  0.28084320135E+03  0.00000000000E+00 0. -1.
         21   -1    0    0  502  503 -0.00000000000E+00 -0.00000000000E+00 -0.42087843939E+03  0.42087843939E+03  0.00000000000E+00 0. -1.
          6    1    1    2  501    0 -0.10805226435E+02 -0.39431355124E+01  0.23295960701E+03  0.29039882874E+03  0.17300000000E+03 0. -1.
         -6    1    1    2    0  503  0.10805226435E+02  0.39431355124E+01 -0.37299484505E+03  0.41132281200E+03  0.17300000000E+03 0. -1.
<mgrwt>
<rscale>  2 0.17338195E+03</rscale>
<asrwt>0</asrwt>
<pdfrwt beam="1">  1       21 0.43206646E-01 0.17338195E+03</pdfrwt>
<pdfrwt beam="2">  1       21 0.64750529E-01 0.17338195E+03</pdfrwt>
<totfact> 0.11469711E+04</totfact>
</mgrwt>
</event>
<event>
 4    1  0.3974123E+000  0.3449558E+03  0.7546771E-02  0.1064705E+00
         21   -1    0    0  501  502  0.00000000000E+00  0.00000000000E+00  0.89863868139E+02  0.89863868139E+02  0.00000000000E+00 0.  1.
         21   -1    0    0  502  503 -0.00000000000E+00 -0.00000000000E+00 -0.13273965173E+04  0.13273965173E+04  0.00000000000E+00 0.  1.
          6    1    1    2  501    0  0.22089731574E+03  0.20067362763E+03 -0.58379859450E+03  0.67809684254E+03  0.17300000000E+03 0.  1.
         -6    1    1    2    0  503 -0.22089731574E+03 -0.20067362763E+03 -0.65373405471E+03  0.73916354294E+03  0.17300000000E+03 0.  1.
<mgrwt>
<rscale>  2 0.34495584E+03</rscale>
<asrwt>0</asrwt>
<pdfrwt beam="1">  1       21 0.13825211E-01 0.34495584E+03</pdfrwt>
<pdfrwt beam="2">  1       21 0.20421485E+00 0.34495584E+03</pdfrwt>
<totfact> 0.51665152E+03</totfact>
</mgrwt>
</event>
<event>
 4    1  0.3974123E+000  0.1925284E+03  0.7546771E-02  0.1156200E+00
         21   -1    0    0  503  502  0.00000000000E+00  0.00000000000E+00  0.42115013207E+03  0.42115013207E+03  0.00000000000E+00 0. -1.
         21   -1    0    0  501  503 -0.00000000000E+00 -0.00000000000E+00 -0.12934500255E+03  0.12934500255E+03  0.00000000000E+00 0. -1.
          6    1    1    2  501    0  0.73276554609E+02 -0.42056115462E+02 -0.96889295143E+01  0.19277200434E+03  0.17300000000E+03 0. -1.
         -6    1    1    2    0  502 -0.73276554609E+02  0.42056115462E+02  0.30149405904E+03  0.35772313028E+03  0.17300000000E+03 0. -1.
<mgrwt>
<rscale>  2 0.19252836E+03</rscale>
<asrwt>0</asrwt>
<pdfrwt beam="1">  1       21 0.64792328E-01 0.19252836E+03</pdfrwt>
<pdfrwt beam="2">  1       21 0.19899231E-01 0.19252836E+03</pdfrwt>
<totfact> 0.51147168E+04</totfact>
</mgrwt>
</event>
<event>
 4    1  0.3974123E+000  0.2575682E+03  0.7546771E-02  0.1108613E+00
         21   -1    0    0  501  502  0.00000000000E+00  0.00000000000E+00  0.62213350689E+02  0.62213350689E+02  0.00000000000E+00 0. -1.
         21   -1    0    0  502  503 -0.00000000000E+00 -0.00000000000E+00 -0.13102859034E+04  0.13102859034E+04  0.00000000000E+00 0.  1.
          6    1    1    2  501    0  0.10260180566E+02  0.19054429099E+03 -0.32793913933E+03  0.41699577604E+03  0.17300000000E+03 0. -1.
         -6    1    1    2    0  503 -0.10260180566E+02 -0.19054429099E+03 -0.92013341344E+03  0.95550347810E+03  0.17300000000E+03 0.  1.
<mgrwt>
<rscale>  2 0.25756824E+03</rscale>
<asrwt>0</asrwt>
<pdfrwt beam="1">  1       21 0.95712841E-02 0.25756824E+03</pdfrwt>
<pdfrwt beam="2">  1       21 0.20158246E+00 0.25756824E+03</pdfrwt>
<totfact> 0.10961742E+04</totfact>
</mgrwt>
</event>
<event>
 4    1  0.3974123E+000  0.1819554E+03  0.7546771E-02  0.1165924E+00
         21   -1    0    0  501  502  0.00000000000E+00  0.00000000000E+00  0.30316938143E+03  0.30316938143E+03  0.00000000000E+00 0.  1.
         21   -1    0    0  502  503 -0.00000000000E+00 -0.00000000000E+00 -0.17955644478E+03  0.17955644478E+03  0.00000000000E+00 0.  1.
          6    1    1    2  501    0  0.49482801878E+02 -0.27022850120E+02  0.21288571878E+03  0.28005019438E+03  0.17300000000E+03 0.  1.
         -6    1    1    2    0  503 -0.49482801878E+02  0.27022850120E+02 -0.89272782124E+02  0.20267563183E+03  0.17300000000E+03 0.  1.
<mgrwt>
<rscale>  2 0.18195544E+03</rscale>
<asrwt>0</asrwt>
<pdfrwt beam="1">  1       21 0.46641443E-01 0.18195544E+03</pdfrwt>
<pdfrwt beam="2">  1       21 0.27624068E-01 0.18195544E+03</pdfrwt>
<totfact> 0.55316297E+04</totfact>
</mgrwt>
</event>
<event>
 4    1  0.3974123E+000  0.1873092E+03  0.7546771E-02  0.1160911E+00
         21   -1    0    0  503  502  0.00000000000E+00  0.00000000000E+00  0.13704705203E+04  0.13704705203E+04  0.00000000000E+00 0.  1.
         21   -1    0    0  501  503 -0.00000000000E+00 -0.00000000000E+00 -0.90708021147E+02  0.90708021147E+02  0.00000000000E+00 0.  1.
          6    1    1    2  501    0  0.12031618508E+02 -0.70788377684E+02  0.20916428866E+02  0.18847347627E+03  0.17300000000E+03 0.  1.
         -6    1    1    2    0  502 -0.12031618508E+02  0.70788377684E+02  0.12588460702E+04  0.12727050651E+04  0.17300000000E+03 0.  1.
<mgrwt>
<rscale>  2 0.18730925E+03</rscale>
<asrwt>0</asrwt>
<pdfrwt beam="1">  1       21 0.21084160E+00 0.18730925E+03</pdfrwt>
<pdfrwt beam="2">  1       21 0.13955081E-01 0.18730925E+03</pdfrwt>
<totfact> 0.51534377E+03</totfact>
</mgrwt>
</event>
<event>
 4    1  0.3974123E+000  0.2116550E+03  0.7546771E-02  0.1140262E+00
         21   -1    0    0  501  502  0.00000000000E+00  0.00000000000E+00  0.19397419554E+03  0.19397419554E+03  0.00000000000E+00 0.  1.
         21   -1    0    0  502  503 -0.00000000000E+00 -0.00000000000E+00 -0.25924631733E+03  0.25924631733E+03  0.00000000000E+00 0.  1.
          6    1    1    2  501    0  0.74030564644E+02 -0.96893360084E+02  0.42233918839E+02  0.21582759701E+03  0.17300000000E+03 0.  1.
         -6    1    1    2    0  503 -0.74030564644E+02  0.96893360084E+02 -0.10750604064E+03  0.23739291586E+03  0.17300000000E+03 0.  1.
<mgrwt>
<rscale>  2 0.21165502E+03</rscale>
<asrwt>0</asrwt>
<pdfrwt beam="1">  1       21 0.29842184E-01 0.21165502E+03</pdfrwt>
<pdfrwt beam="2">  1       21 0.39884049E-01 0.21165502E+03</pdfrwt>
<totfact> 0.64676651E+04</totfact>
</mgrwt>
</event>
<event>
 4    1  0.3974123E+000  0.1803087E+03  0.7546771E-02  0.1167505E+00
         21   -1    0    0  503  502  0.00000000000E+00  0.00000000000E+00  0.32325947556E+03  0.32325947556E+03  0.00000000000E+00 0. -1.
         21   -1    0    0  501  503 -0.00000000000E+00 -0.00000000000E+00 -0.10541788590E+03  0.10541788590E+03  0.00000000000E+00 0. -1.
          6    1    1    2  501    0 -0.42217583694E+02 -0.28282455834E+02  0.62971511812E+02  0.19098856767E+03  0.17300000000E+03 0. -1.
         -6    1    1    2    0  502  0.42217583694E+02  0.28282455834E+02  0.15487007785E+03  0.23768879379E+03  0.17300000000E+03 0. -1.
<mgrwt>
<rscale>  2 0.18030868E+03</rscale>
<asrwt>0</asrwt>
<pdfrwt beam="1">  1       21 0.49732226E-01 0.18030868E+03</pdfrwt>
<pdfrwt beam="2">  1       21 0.16218136E-01 0.18030868E+03</pdfrwt>
<totfact> 0.13162190E+05</totfact>
</mgrwt>
</event>
<event>
 4    1  0.3974123E+000  0.2236545E+03  0.7546771E-02  0.1131187E+00
         21   -1    0    0  503  502  0.00000000000E+00  0.00000000000E+00  0.58086314641E+03  0.58086314641E+03  0.00000000000E+00 0.  1.
         21   -1    0    0  501  503 -0.00000000000E+00 -0.00000000000E+00 -0.86964845732E+02  0.86964845732E+02  0.00000000000E+00 0.  1.
          6    1    1    2  501    0 -0.73385680445E+02 -0.12127191798E+03  0.21395036047E+03  0.30950943916E+03  0.17300000000E+03 0.  1.
         -6    1    1    2    0  502  0.73385680445E+02  0.12127191798E+03  0.27994794021E+03  0.35831855298E+03  0.17300000000E+03 0.  1.
<mgrwt>
<rscale>  2 0.22365450E+03</rscale>
<asrwt>0</asrwt>
<pdfrwt beam="1">  1       21 0.89363559E-01 0.22365450E+03</pdfrwt>
<pdfrwt beam="2">  1       21 0.13379207E-01 0.22365450E+03</pdfrwt>
<totfact> 0.50773829E+04</totfact>
</mgrwt>
</event>
<event>
 4    1  0.3974123E+000  0.2150322E+03  0.7546771E-02  0.1137642E+00
         21   -1    0    0  501  502  0.00000000000E+00  0.00000000000E+00  0.41360021843E+02  0.41360021843E+02  0.00000000000E+00 0. -1.
         21   -1    0    0  502  503 -0.00000000000E+00 -0.00000000000E+00 -0.14930614417E+04  0.14930614417E+04  0.00000000000E+00 0.  1.
          6    1    1    2  501    0 -0.10511968090E+03 -0.72523852348E+02 -0.34130310966E+03  0.40339393790E+03  0.17300000000E+03 0. -1.
         -6    1    1    2    0  503  0.10511968090E+03  0.72523852348E+02 -0.11103983102E+04  0.11310275256E+04  0.17300000000E+03 0.  1.
<mgrwt>
<rscale>  2 0.21503222E+03</rscale>
<asrwt>0</asrwt>
<pdfrwt beam="1">  1       21 0.63630800E-02 0.21503222E+03</pdfrwt>
<pdfrwt beam="2">  1       21 0.22970177E+00 0.21503222E+03</pdfrwt>
<totfact> 0.15368627E+04</totfact>
</mgrwt>
</event>
<event>
 4    1  0.3974123E+000  0.2114638E+03  0.7546771E-02  0.1140412E+00
         21   -1    0    0  503  502  0.00000000000E+00  0.00000000000E+00  0.20968890652E+03  0.20968890652E+03  0.00000000000E+00 0. -1.
         21   -1    0    0  501  503 -0.00000000000E+00 -0.00000000000E+00 -0.23435986081E+03  0.23435986081E+03  0.00000000000E+00 0.  1.
          6    1    1    2  501    0 -0.10305136321E+03 -0.64562660688E+02 -0.78964645512E+02  0.22572624096E+03  0.17300000000E+03 0. -1.
         -6    1    1    2    0  502  0.10305136321E+03  0.64562660688E+02  0.54293691229E+02  0.21832252638E+03  0.17300000000E+03 0.  1.
<mgrwt>
<rscale>  2 0.21146376E+03</rscale>
<asrwt>0</asrwt>
<pdfrwt beam="1">  1       21 0.32259832E-01 0.21146376E+03</pdfrwt>
<pdfrwt beam="2">  1       21 0.36055363E-01 0.21146376E+03</pdfrwt>
<totfact> 0.68002911E+04</totfact>
</mgrwt>
</event>
<event>
 4    1  0.3974123E+000  0.2099386E+03  0.7546771E-02  0.1141615E+00
         21   -1    0    0  503  502  0.00000000000E+00  0.00000000000E+00  0.20110384541E+04  0.20110384541E+04  0.00000000000E+00 0. -1.
         21   -1    0    0  501  503 -0.00000000000E+00 -0.00000000000E+00 -0.47499736187E+02  0.47499736187E+02  0.00000000000E+00 0. -1.
          6    1    1    2  501    0 -0.91633015705E+02 -0.75819621195E+02  0.22639188854E+03  0.30875153720E+03  0.17300000000E+03 0. -1.
         -6    1    1    2    0  502  0.91633015705E+02  0.75819621195E+02  0.17371468293E+04  0.17497866531E+04  0.17300000000E+03 0. -1.
<mgrwt>
<rscale>  2 0.20993862E+03</rscale>
<asrwt>0</asrwt>
<pdfrwt beam="1">  1       21 0.30939047E+00 0.20993862E+03</pdfrwt>
<pdfrwt beam="2">  1       21 0.73076533E-02 0.20993862E+03</pdfrwt>
<totfact> 0.41481904E+03</totfact>
</mgrwt>
</event>
<event>
 4    1  0.3974123E+000  0.2025147E+03  0.7546771E-02  0.1147635E+00
         21   -1    0    0  503  502  0.00000000000E+00  0.00000000000E+00  0.88349392407E+03  0.88349392407E+03  0.00000000000E+00 0.  1.
         21   -1    0    0  501  503 -0.00000000000E+00 -0.00000000000E+00 -0.47885229128E+02  0.47885229128E+02  0.00000000000E+00 0.  1.
          6    1    1    2  501    0 -0.79799522894E+02  0.68667484571E+02  0.49925255068E+03  0.53876274617E+03  0.17300000000E+03 0.  1.
         -6    1    1    2    0  502  0.79799522894E+02 -0.68667484571E+02  0.33635614426E+03  0.39261640704E+03  0.17300000000E+03 0.  1.
<mgrwt>
<rscale>  2 0.20251466E+03</rscale>
<asrwt>0</asrwt>
<pdfrwt beam="1">  1       21 0.13592213E+00 0.20251466E+03</pdfrwt>
<pdfrwt beam="2">  1       21 0.73669590E-02 0.20251466E+03</pdfrwt>
<totfact> 0.53176264E+04</totfact>
</mgrwt>
</event>
<event>
 4    1  0.3974123E+000  0.2510351E+03  0.7546771E-02  0.1112652E+00
         21   -1    0    0  501  502  0.00000000000E+00  0.00000000000E+00  0.71562302045E+03  0.71562302045E+03  0.00000000000E+00 0.  1.
         21   -1    0    0  502  503 -0.00000000000E+00 -0.00000000000E+00 -0.18743645915E+03  0.18743645915E+03  0.00000000000E+00 0.  1.
          6    1    1    2  501    0  0.18143027192E+03 -0.13140664752E+02  0.59286803771E+03  0.64382538842E+03  0.17300000000E+03 0.  1.
         -6    1    1    2    0  503 -0.18143027192E+03  0.13140664752E+02 -0.64681476402E+02  0.25923409118E+03  0.17300000000E+03 0.  1.
<mgrwt>
<rscale>  2 0.25103510E+03</rscale>
<asrwt>0</asrwt>
<pdfrwt beam="1">  1       21 0.11009585E+00 0.25103510E+03</pdfrwt>
<pdfrwt beam="2">  1       21 0.28836379E-01 0.25103510E+03</pdfrwt>
<totfact> 0.72089955E+03</totfact>
</mgrwt>
</event>
<event>
 4    1  0.3974123E+000  0.1859915E+03  0.7546771E-02  0.1162127E+00
         21   -1    0    0  501  502  0.00000000000E+00  0.00000000000E+00  0.78521223290E+03  0.78521223290E+03  0.00000000000E+00 0.  1.
         21   -1    0    0  502  503 -0.00000000000E+00 -0.00000000000E+00 -0.52467679023E+02  0.52467679023E+02  0.00000000000E+00 0. -1.
          6    1    1    2  501    0 -0.51241344424E+02  0.45145873156E+02  0.53408247267E+03  0.56554125655E+03  0.17300000000E+03 0.  1.
         -6    1    1    2    0  503  0.51241344424E+02 -0.45145873156E+02  0.19866208121E+03  0.27213865538E+03  0.17300000000E+03 0. -1.
<mgrwt>
<rscale>  2 0.18599147E+03</rscale>
<asrwt>0</asrwt>
<pdfrwt beam="1">  1       21 0.12080187E+00 0.18599147E+03</pdfrwt>
<pdfrwt beam="2">  1       21 0.80719512E-02 0.18599147E+03</pdfrwt>
<totfact> 0.61570834E+04</totfact>
</mgrwt>
</event>
<event>
 4    1  0.3974123E+000  0.2069381E+03  0.7546771E-02  0.1144014E+00
         21   -1    0    0  503  502  0.00000000000E+00  0.00000000000E+00  0.12391536384E+04  0.12391536384E+04  0.00000000000E+00 0.  1.
         21   -1    0    0  501  503 -0.00000000000E+00 -0.00000000000E+00 -0.41347832041E+02  0.41347832041E+02  0.00000000000E+00 0.  1.
          6    1    1    2  501    0 -0.54617028044E+02  0.99555700328E+02  0.33946374307E+03  0.39756633419E+03  0.17300000000E+03 0.  1.
         -6    1    1    2    0  502  0.54617028044E+02 -0.99555700328E+02  0.85834206331E+03  0.88293513627E+03  0.17300000000E+03 0.  1.
<mgrwt>
<rscale>  2 0.20693805E+03</rscale>
<asrwt>0</asrwt>
<pdfrwt beam="1">  1       21 0.19063899E+00 0.20693805E+03</pdfrwt>
<pdfrwt beam="2">  1       21 0.63612059E-02 0.20693805E+03</pdfrwt>
<totfact> 0.27278660E+04</totfact>
</mgrwt>
</event>
<event>
 4    1  0.3974123E+000  0.2705148E+03  0.7546771E-02  0.1100985E+00
         21   -1    0    0  501  502  0.00000000000E+00  0.00000000000E+00  0.63063705636E+03  0.63063705636E+03  0.00000000000E+00 0.  1.
         21   -1    0    0  502  503 -0.00000000000E+00 -0.00000000000E+00 -0.13039037451E+03  0.13039037451E+03  0.00000000000E+00 0.  1.
          6    1    1    2  501    0 -0.20058902525E+03  0.54893619085E+02  0.37636414212E+03  0.46349566766E+03  0.17300000000E+03 0.  1.
         -6    1    1    2    0  503  0.20058902525E+03 -0.54893619085E+02  0.12388253972E+03  0.29753176320E+03  0.17300000000E+03 0.  1.
<mgrwt>
<rscale>  2 0.27051482E+03</rscale>
<asrwt>0</asrwt>
<pdfrwt beam="1">  1       21 0.97021084E-01 0.27051482E+03</pdfrwt>
<pdfrwt beam="2">  1       21 0.20060058E-01 0.27051482E+03</pdfrwt>
<totfact> 0.19403051E+04</totfact>
</mgrwt>
</event>
<event>
 4    1  0.3974123E+000  0.1859511E+03  0.7546771E-02  0.1162165E+00
         21   -1    0    0  501  502  0.00000000000E+00  0.00000000000E+00  0.13715177205E+03  0.13715177205E+03  0.00000000000E+00 0.  1.
         21   -1    0    0  502  503 -0.00000000000E+00 -0.00000000000E+00 -0.29023916274E+03  0.29023916274E+03  0.00000000000E+00 0.  1.
          6    1    1    2  501    0  0.12852235926E+02  0.66959958303E+02  0.90710198168E+00  0.18595332430E+03  0.17300000000E+03 0.  1.
         -6    1    1    2    0  503 -0.12852235926E+02 -0.66959958303E+02 -0.15399449268E+03  0.24143761049E+03  0.17300000000E+03 0.  1.
<mgrwt>
<rscale>  2 0.18595111E+03</rscale>
<asrwt>0</asrwt>
<pdfrwt beam="1">  1       21 0.21100273E-01 0.18595111E+03</pdfrwt>
<pdfrwt beam="2">  1       21 0.44652179E-01 0.18595111E+03</pdfrwt>
<totfact> 0.10078661E+05</totfact>
</mgrwt>
</event>
<event>
 4    1  0.3974123E+000  0.2601243E+03  0.7546771E-02  0.1107069E+00
         21   -1    0    0  501  502  0.00000000000E+00  0.00000000000E+00  0.30672436685E+03  0.30672436685E+03  0.00000000000E+00 0.  1.
         21   -1    0    0  502  503 -0.00000000000E+00 -0.00000000000E+00 -0.23036990964E+03  0.23036990964E+03  0.00000000000E+00 0.  1.
          6    1    1    2  501    0  0.78163888424E+02  0.17783717679E+03  0.93469143987E+02  0.27640755377E+03  0.17300000000E+03 0.  1.
         -6    1    1    2    0  503 -0.78163888424E+02 -0.17783717679E+03 -0.17114686784E+02  0.26068672272E+03  0.17300000000E+03 0.  1.
<mgrwt>
<rscale>  2 0.26012431E+03</rscale>
<asrwt>0</asrwt>
<pdfrwt beam="1">  1       21 0.47188364E-01 0.26012431E+03</pdfrwt>
<pdfrwt beam="2">  1       21 0.35441524E-01 0.26012431E+03</pdfrwt>
<totfact> 0.31925525E+04</totfact>
</mgrwt>
</event>
<event>
 4    1  0.3974123E+000  0.2383650E+03  0.7546771E-02  0.1120887E+00
         21   -1    0    0  503  502  0.00000000000E+00  0.00000000000E+00  0.40433385996E+03  0.40433385996E+03  0.00000000000E+00 0. -1.
         21   -1    0    0  501  503 -0.00000000000E+00 -0.00000000000E+00 -0.16569365023E+03  0.16569365023E+03  0.00000000000E+00 0. -1.
          6    1    1    2  501    0 -0.42620833097E+02 -0.15834249574E+03  0.82321293064E+01  0.23850712636E+03  0.17300000000E+03 0. -1.
         -6    1    1    2    0  502  0.42620833097E+02  0.15834249574E+03  0.23040808042E+03  0.33152038383E+03  0.17300000000E+03 0. -1.
<mgrwt>
<rscale>  2 0.23836502E+03</rscale>
<asrwt>0</asrwt>
<pdfrwt beam="1">  1       21 0.62205209E-01 0.23836502E+03</pdfrwt>
<pdfrwt beam="2">  1       21 0.25491331E-01 0.23836502E+03</pdfrwt>
<totfact> 0.34194295E+04</totfact>
</mgrwt>
</event>
<event>
 4    1  0.3974123E+000  0.2061831E+03  0.7546771E-02  0.1144625E+00
         21   -1    0    0  501  502  0.00000000000E+00  0.00000000000E+00  0.16904458484E+04  0.16904458484E+04  0.00000000000E+00 0. -1.
         21   -1    0    0  502  503 -0.00000000000E+00 -0.00000000000E+00 -0.32158962590E+02  0.32158962590E+02  0.00000000000E+00 0. -1.
          6    1    1    2  501    0 -0.10947036931E+02  0.11163618969E+03  0.12312959925E+04  0.12484395451E+04  0.17300000000E+03 0. -1.
         -6    1    1    2    0  503  0.10947036931E+02 -0.11163618969E+03  0.42699089328E+03  0.47416526593E+03  0.17300000000E+03 0. -1.
<mgrwt>
<rscale>  2 0.20618311E+03</rscale>
<asrwt>0</asrwt>
<pdfrwt beam="1">  1       21 0.26006852E+00 0.20618311E+03</pdfrwt>
<pdfrwt beam="2">  1       21 0.49475340E-02 0.20618311E+03</pdfrwt>
<totfact> 0.15703952E+04</totfact>
</mgrwt>
</event>
<event>
 4    1  0.3974123E+000  0.1871683E+03  0.7546771E-02  0.1161040E+00
         21   -1    0    0  501  502  0.00000000000E+00  0.00000000000E+00  0.10484754649E+04  0.10484754649E+04  0.00000000000E+00 0. -1.
         21   -1    0    0  502  503 -0.00000000000E+00 -0.00000000000E+00 -0.36887134134E+02  0.36887134134E+02  0.00000000000E+00 0. -1.
          6    1    1    2  501    0 -0.58338174685E+02 -0.41226763774E+02  0.67235532246E+03  0.69792096137E+03  0.17300000000E+03 0. -1.
         -6    1    1    2    0  503  0.58338174685E+02  0.41226763774E+02  0.33923300835E+03  0.38744163771E+03  0.17300000000E+03 0. -1.
<mgrwt>
<rscale>  2 0.18716834E+03</rscale>
<asrwt>0</asrwt>
<pdfrwt beam="1">  1       21 0.16130390E+00 0.18716834E+03</pdfrwt>
<pdfrwt beam="2">  1       21 0.56749445E-02 0.18716834E+03</pdfrwt>
<totfact> 0.53568318E+04</totfact>
</mgrwt>
</event>
<event>
 4    1  0.3974123E+000  0.1802334E+03  0.7546771E-02  0.1167577E+00
         21   -1    0    0  503  502  0.00000000000E+00  0.00000000000E+00  0.27936358136E+04  0.27936358136E+04  0.00000000000E+00 0. -1.
         21   -1    0    0  501  503 -0.00000000000E+00 -0.00000000000E+00 -0.25243178477E+02  0.25243178477E+02  0.00000000000E+00 0. -1.
          6    1    1    2  501    0 -0.43759741761E+02  0.25301462661E+02  0.34908298005E+03  0.39286512440E+03  0.17300000000E+03 0. -1.
         -6    1    1    2    0  502  0.43759741761E+02 -0.25301462661E+02  0.24193096550E+04  0.24260138676E+04  0.17300000000E+03 0. -1.
<mgrwt>
<rscale>  2 0.18023340E+03</rscale>
<asrwt>0</asrwt>
<pdfrwt beam="1">  1       21 0.42978988E+00 0.18023340E+03</pdfrwt>
<pdfrwt beam="2">  1       21 0.38835681E-02 0.18023340E+03</pdfrwt>
<totfact> 0.23679409E+03</totfact>
</mgrwt>
</event>
<event>
 4    1  0.3974123E+000  0.2193092E+03  0.7546771E-02  0.1134399E+00
         21   -1    0    0  503  502  0.00000000000E+00  0.00000000000E+00  0.21654735833E+02  0.21654735833E+02  0.00000000000E+00 0.  1.
         21   -1    0    0  501  503 -0.00000000000E+00 -0.00000000000E+00 -0.22606802198E+04  0.22606802198E+04  0.00000000000E+00 0. -1.
          6    1    1    2  501    0  0.13184158158E+03  0.28023347716E+02 -0.12705824380E+04  0.12893704830E+04  0.17300000000E+03 0. -1.
         -6    1    1    2    0  502 -0.13184158158E+03 -0.28023347716E+02 -0.96844304598E+03  0.99296447266E+03  0.17300000000E+03 0.  1.
<mgrwt>
<rscale>  2 0.21930917E+03</rscale>
<asrwt>0</asrwt>
<pdfrwt beam="1">  1       21 0.33314976E-02 0.21930917E+03</pdfrwt>
<pdfrwt beam="2">  1       21 0.34779698E+00 0.21930917E+03</pdfrwt>
<totfact> 0.92968354E+03</totfact>
</mgrwt>
</event>
<event>
 4    1  0.3974123E+000  0.2142384E+03  0.7546771E-02  0.1138253E+00
         21   -1    0    0  501  502  0.00000000000E+00  0.00000000000E+00  0.11814297310E+04  0.11814297310E+04  0.00000000000E+00 0.  1.
         21   -1    0    0  502  503 -0.00000000000E+00 -0.00000000000E+00 -0.11088671360E+03  0.11088671360E+03  0.00000000000E+00 0.  1.
          6    1    1    2  501    0  0.12581061591E+03 -0.11865780533E+02  0.10560789494E+04  0.10775903002E+04  0.17300000000E+03 0.  1.
         -6    1    1    2    0  503 -0.12581061591E+03  0.11865780533E+02  0.14464068045E+02  0.21472614440E+03  0.17300000000E+03 0.  1.
<mgrwt>
<rscale>  2 0.21423844E+03</rscale>
<asrwt>0</asrwt>
<pdfrwt beam="1">  1       21 0.18175841E+00 0.21423844E+03</pdfrwt>
<pdfrwt beam="2">  1       21 0.17059495E-01 0.21423844E+03</pdfrwt>
<totfact> 0.53867426E+03</totfact>
</mgrwt>
</event>
<event>
 4    1  0.3974123E+000  0.1782484E+03  0.7546771E-02  0.1169509E+00
         21   -1    0    0  503  502  0.00000000000E+00  0.00000000000E+00  0.13088597773E+03  0.13088597773E+03  0.00000000000E+00 0.  1.
         21   -1    0    0  501  503 -0.00000000000E+00 -0.00000000000E+00 -0.32749958131E+03  0.32749958131E+03  0.00000000000E+00 0.  1.
          6    1    1    2  501    0 -0.31505453822E+02  0.29170058183E+02 -0.21489806429E+03  0.27920183372E+03  0.17300000000E+03 0.  1.
         -6    1    1    2    0  502  0.31505453822E+02 -0.29170058183E+02  0.18284460708E+02  0.17918372532E+03  0.17300000000E+03 0.  1.
<mgrwt>
<rscale>  2 0.17824838E+03</rscale>
<asrwt>0</asrwt>
<pdfrwt beam="1">  1       21 0.20136304E-01 0.17824838E+03</pdfrwt>
<pdfrwt beam="2">  1       21 0.50384551E-01 0.17824838E+03</pdfrwt>
<totfact> 0.85964211E+04</totfact>
</mgrwt>
</event>
<event>
 4    1  0.3974123E+000  0.1761157E+03  0.7546771E-02  0.1171616E+00
         21   -1    0    0  503  502  0.00000000000E+00  0.00000000000E+00  0.11360338081E+03  0.11360338081E+03  0.00000000000E+00 0. -1.
         21   -1    0    0  501  503 -0.00000000000E+00 -0.00000000000E+00 -0.27305427158E+03  0.27305427158E+03  0.00000000000E+00 0. -1.
          6    1    1    2  501    0  0.31471868708E+02 -0.98620246011E+01 -0.81673744648E+02  0.19413227092E+03  0.17300000000E+03 0. -1.
         -6    1    1    2    0  502 -0.31471868708E+02  0.98620246011E+01 -0.77777146120E+02  0.19252538146E+03  0.17300000000E+03 0. -1.
<mgrwt>
<rscale>  2 0.17611570E+03</rscale>
<asrwt>0</asrwt>
<pdfrwt beam="1">  1       21 0.17477443E-01 0.17611570E+03</pdfrwt>
<pdfrwt beam="2">  1       21 0.42008349E-01 0.17611570E+03</pdfrwt>
<totfact> 0.16252904E+05</totfact>
</mgrwt>
</event>
<event>
 4    1  0.3974123E+000  0.2937365E+03  0.7546771E-02  0.1088414E+00
         21   -1    0    0  501  502  0.00000000000E+00  0.00000000000E+00  0.74074292798E+02  0.74074292798E+02  0.00000000000E+00 0.  1.
         21   -1    0    0  502  503 -0.00000000000E+00 -0.00000000000E+00 -0.11719082196E+04  0.11719082196E+04  0.00000000000E+00 0. -1.
          6    1    1    2  501    0 -0.15339179612E+03 -0.18117150411E+03 -0.50037086668E+03  0.58021733965E+03  0.17300000000E+03 0.  1.
         -6    1    1    2    0  503  0.15339179612E+03  0.18117150411E+03 -0.59746306009E+03  0.66576517271E+03  0.17300000000E+03 0. -1.
<mgrwt>
<rscale>  2 0.29373654E+03</rscale>
<asrwt>0</asrwt>
<pdfrwt beam="1">  1       21 0.11396045E-01 0.29373654E+03</pdfrwt>
<pdfrwt beam="2">  1       21 0.18029358E+00 0.29373654E+03</pdfrwt>
<totfact> 0.10909366E+04</totfact>
</mgrwt>
</event>
<event>
 4    1  0.3974123E+000  0.2638214E+03  0.7546771E-02  0.1104869E+00
         21   -1    0    0  501  502  0.00000000000E+00  0.00000000000E+00  0.14736132560E+03  0.14736132560E+03  0.00000000000E+00 0.  1.
         21   -1    0    0  502  503 -0.00000000000E+00 -0.00000000000E+00 -0.48588212110E+03  0.48588212110E+03  0.00000000000E+00 0. -1.
          6    1    1    2  501    0  0.17830771440E+03  0.88764184557E+02 -0.22215810723E+03  0.34489990734E+03  0.17300000000E+03 0.  1.
         -6    1    1    2    0  503 -0.17830771440E+03 -0.88764184557E+02 -0.11636268827E+03  0.28834353937E+03  0.17300000000E+03 0.  1.
<mgrwt>
<rscale>  2 0.26382138E+03</rscale>
<asrwt>0</asrwt>
<pdfrwt beam="1">  1       21 0.22670973E-01 0.26382138E+03</pdfrwt>
<pdfrwt beam="2">  1       21 0.74751096E-01 0.26382138E+03</pdfrwt>
<totfact> 0.28194999E+04</totfact>
</mgrwt>
</event>
<event>
 4    1  0.3974123E+000  0.2012467E+03  0.7546771E-02  0.1148691E+00
         21   -1    0    0  503  502  0.00000000000E+00  0.00000000000E+00  0.20147642285E+04  0.20147642285E+04  0.00000000000E+00 0.  1.
         21   -1    0    0  501  503 -0.00000000000E+00 -0.00000000000E+00 -0.24132201757E+02  0.24132201757E+02  0.00000000000E+00 0.  1.
          6    1    1    2  501    0  0.16688623551E+02  0.10145306337E+03  0.57869135901E+03  0.61268582750E+03  0.17300000000E+03 0.  1.
         -6    1    1    2    0  502 -0.16688623551E+02 -0.10145306337E+03  0.14119406678E+04  0.14262106028E+04  0.17300000000E+03 0.  1.
<mgrwt>
<rscale>  2 0.20124670E+03</rscale>
<asrwt>0</asrwt>
<pdfrwt beam="1">  1       21 0.30996359E+00 0.20124670E+03</pdfrwt>
<pdfrwt beam="2">  1       21 0.37126480E-02 0.20124670E+03</pdfrwt>
<totfact> 0.13158086E+04</totfact>
</mgrwt>
</event>
<event>
 4    1  0.3974123E+000  0.1788609E+03  0.7546771E-02  0.1168910E+00
         21   -1    0    0  503  502  0.00000000000E+00  0.00000000000E+00  0.41064215270E+03  0.41064215270E+03  0.00000000000E+00 0.  1.
         21   -1    0    0  501  503 -0.00000000000E+00 -0.00000000000E+00 -0.78039502251E+02  0.78039502251E+02  0.00000000000E+00 0.  1.
          6    1    1    2  501    0 -0.41738355525E+02 -0.17891990454E+02  0.15617002197E+03  0.23744533983E+03  0.17300000000E+03 0.  1.
         -6    1    1    2    0  502  0.41738355525E+02  0.17891990454E+02  0.17643262848E+03  0.25123631512E+03  0.17300000000E+03 0.  1.
<mgrwt>
<rscale>  2 0.17886088E+03</rscale>
<asrwt>0</asrwt>
<pdfrwt beam="1">  1       21 0.63175715E-01 0.17886088E+03</pdfrwt>
<pdfrwt beam="2">  1       21 0.12006077E-01 0.17886088E+03</pdfrwt>
<totfact> 0.13657545E+05</totfact>
</mgrwt>
</event>
<event>
 4    1  0.3974123E+000  0.2341822E+03  0.7546771E-02  0.1123730E+00
         21   -1    0    0  501  502  0.00000000000E+00  0.00000000000E+00  0.22439098235E+03  0.22439098235E+03  0.00000000000E+00 0.  1.
         21   -1    0    0  502  503 -0.00000000000E+00 -0.00000000000E+00 -0.28774927361E+03  0.28774927361E+03  0.00000000000E+00 0.  1.
          6    1    1    2  501    0  0.54086561814E+02 -0.14827994223E+03  0.67710137325E+02  0.24377440418E+03  0.17300000000E+03 0.  1.
         -6    1    1    2    0  503 -0.54086561814E+02  0.14827994223E+03 -0.13106842858E+03  0.26836585179E+03  0.17300000000E+03 0.  1.
<mgrwt>
<rscale>  2 0.23418219E+03</rscale>
<asrwt>0</asrwt>
<pdfrwt beam="1">  1       21 0.34521690E-01 0.23418219E+03</pdfrwt>
<pdfrwt beam="2">  1       21 0.44269119E-01 0.23418219E+03</pdfrwt>
<totfact> 0.38835478E+04</totfact>
</mgrwt>
</event>
<event>
 4    1  0.3974123E+000  0.1787431E+03  0.7546771E-02  0.1169025E+00
         21   -1    0    0  501  502  0.00000000000E+00  0.00000000000E+00  0.14303153238E+03  0.14303153238E+03  0.00000000000E+00 0.  1.
         21   -1    0    0  502  503 -0.00000000000E+00 -0.00000000000E+00 -0.22850450046E+03  0.22850450046E+03  0.00000000000E+00 0.  1.
          6    1    1    2  501    0 -0.34323001720E+02  0.29017442315E+02 -0.14892261035E+02  0.17936237020E+03  0.17300000000E+03 0.  1.
         -6    1    1    2    0  503  0.34323001720E+02 -0.29017442315E+02 -0.70580707044E+02  0.19217366264E+03  0.17300000000E+03 0.  1.
<mgrwt>
<rscale>  2 0.17874306E+03</rscale>
<asrwt>0</asrwt>
<pdfrwt beam="1">  1       21 0.22004851E-01 0.17874306E+03</pdfrwt>
<pdfrwt beam="2">  1       21 0.35154538E-01 0.17874306E+03</pdfrwt>
<totfact> 0.15119144E+05</totfact>
</mgrwt>
</event>
<event>
 4    1  0.3974123E+000  0.1895421E+03  0.7546771E-02  0.1158875E+00
         21   -1    0    0  503  502  0.00000000000E+00  0.00000000000E+00  0.23714733043E+03  0.23714733043E+03  0.00000000000E+00 0.  1.
         21   -1    0    0  501  503 -0.00000000000E+00 -0.00000000000E+00 -0.17591469607E+03  0.17591469607E+03  0.00000000000E+00 0. -1.
          6    1    1    2  501    0  0.29664908317E+02  0.71534644117E+02 -0.46335732507E+02  0.19512358187E+03  0.17300000000E+03 0. -1.
         -6    1    1    2    0  502 -0.29664908317E+02 -0.71534644117E+02  0.10756836687E+03  0.21793844463E+03  0.17300000000E+03 0.  1.
<mgrwt>
<rscale>  2 0.18954211E+03</rscale>
<asrwt>0</asrwt>
<pdfrwt beam="1">  1       21 0.36484205E-01 0.18954211E+03</pdfrwt>
<pdfrwt beam="2">  1       21 0.27063799E-01 0.18954211E+03</pdfrwt>
<totfact> 0.94373999E+04</totfact>
</mgrwt>
</event>
<event>
 4    1  0.3974123E+000  0.1776266E+03  0.7546771E-02  0.1170120E+00
         21   -1    0    0  501  502  0.00000000000E+00  0.00000000000E+00  0.28879229737E+02  0.28879229737E+02  0.00000000000E+00 0.  1.
         21   -1    0    0  502  503 -0.00000000000E+00 -0.00000000000E+00 -0.11622689787E+04  0.11622689787E+04  0.00000000000E+00 0.  1.
          6    1    1    2  501    0 -0.15519221932E+02 -0.37166459435E+02 -0.42079820267E+03  0.45675192318E+03  0.17300000000E+03 0. -1.
         -6    1    1    2    0  503  0.15519221932E+02  0.37166459435E+02 -0.71259154633E+03  0.73439628530E+03  0.17300000000E+03 0. -1.
<mgrwt>
<rscale>  2 0.17762655E+03</rscale>
<asrwt>0</asrwt>
<pdfrwt beam="1">  1       21 0.44429587E-02 0.17762655E+03</pdfrwt>
<pdfrwt beam="2">  1       21 0.17881060E+00 0.17762655E+03</pdfrwt>
<totfact> 0.61433292E+04</totfact>
</mgrwt>
</event>
<event>
 4    1  0.3974123E+000  0.2033988E+03  0.7546771E-02  0.1146903E+00
         21   -1    0    0  501  502  0.00000000000E+00  0.00000000000E+00  0.48787151752E+03  0.48787151752E+03  0.00000000000E+00 0.  1.
         21   -1    0    0  502  503 -0.00000000000E+00 -0.00000000000E+00 -0.13690012107E+03  0.13690012107E+03  0.00000000000E+00 0.  1.
          6    1    1    2  501    0 -0.62964102055E+02  0.86473091547E+02  0.36819933306E+03  0.42064453232E+03  0.17300000000E+03 0.  1.
         -6    1    1    2    0  503  0.62964102055E+02 -0.86473091547E+02 -0.17227936608E+02  0.20412710626E+03  0.17300000000E+03 0.  1.
<mgrwt>
<rscale>  2 0.20339880E+03</rscale>
<asrwt>0</asrwt>
<pdfrwt beam="1">  1       21 0.75057155E-01 0.20339880E+03</pdfrwt>
<pdfrwt beam="2">  1       21 0.21061557E-01 0.20339880E+03</pdfrwt>
<totfact> 0.33061675E+04</totfact>
</mgrwt>
</event>
<event>
 4    1  0.3974123E+000  0.1821056E+03  0.7546771E-02  0.1165781E+00
         21   -1    0    0  503  502  0.00000000000E+00  0.00000000000E+00  0.67207534491E+02  0.67207534491E+02  0.00000000000E+00 0. -1.
         21   -1    0    0  501  503 -0.00000000000E+00 -0.00000000000E+00 -0.97389023067E+03  0.97389023067E+03  0.00000000000E+00 0. -1.
          6    1    1    2  501    0  0.42890326144E+02  0.37334800023E+02 -0.81896436764E+03  0.83896668756E+03  0.17300000000E+03 0. -1.
         -6    1    1    2    0  502 -0.42890326144E+02 -0.37334800023E+02 -0.87718328534E+02  0.20213107760E+03  0.17300000000E+03 0. -1.
<mgrwt>
<rscale>  2 0.18210565E+03</rscale>
<asrwt>0</asrwt>
<pdfrwt beam="1">  1       21 0.10339621E-01 0.18210565E+03</pdfrwt>
<pdfrwt beam="2">  1       21 0.14982926E+00 0.18210565E+03</pdfrwt>
<totfact> 0.23091247E+04</totfact>
</mgrwt>
</event>
<event>
 4    1  0.3974123E+000  0.1731003E+03  0.7546771E-02  0.1174653E+00
         21   -1    0    0  503  502  0.00000000000E+00  0.00000000000E+00  0.32666552735E+03  0.32666552735E+03  0.00000000000E+00 0.  1.
         21   -1    0    0  501  503 -0.00000000000E+00 -0.00000000000E+00 -0.10337734757E+03  0.10337734757E+03  0.00000000000E+00 0.  1.
          6    1    1    2  501    0  0.26886450592E+01 -0.52437280779E+01  0.39457428377E+02  0.17754045779E+03  0.17300000000E+03 0.  1.
         -6    1    1    2    0  502 -0.26886450592E+01  0.52437280779E+01  0.18383075141E+03  0.25250241714E+03  0.17300000000E+03 0.  1.
<mgrwt>
<rscale>  2 0.17310033E+03</rscale>
<asrwt>0</asrwt>
<pdfrwt beam="1">  1       21 0.50256235E-01 0.17310033E+03</pdfrwt>
<pdfrwt beam="2">  1       21 0.15904207E-01 0.17310033E+03</pdfrwt>
<totfact> 0.13380654E+05</totfact>
</mgrwt>
</event>
<event>
 4    1  0.3974123E+000  0.2140281E+03  0.7546771E-02  0.1138415E+00
         21   -1    0    0  503  502  0.00000000000E+00  0.00000000000E+00  0.39534473937E+03  0.39534473937E+03  0.00000000000E+00 0.  1.
         21   -1    0    0  501  503 -0.00000000000E+00 -0.00000000000E+00 -0.15485155848E+03  0.15485155848E+03  0.00000000000E+00 0.  1.
          6    1    1    2  501    0 -0.10638860234E+03  0.67531538122E+02 -0.17781426646E+02  0.21476550580E+03  0.17300000000E+03 0.  1.
         -6    1    1    2    0  502  0.10638860234E+03 -0.67531538122E+02  0.25827460754E+03  0.33543079204E+03  0.17300000000E+03 0.  1.
<mgrwt>
<rscale>  2 0.21402814E+03</rscale>
<asrwt>0</asrwt>
<pdfrwt beam="1">  1       21 0.60822267E-01 0.21402814E+03</pdfrwt>
<pdfrwt beam="2">  1       21 0.23823317E-01 0.21402814E+03</pdfrwt>
<totfact> 0.41332964E+04</totfact>
</mgrwt>
</event>
<event>
 4    1  0.3974123E+000  0.1988124E+03  0.7546771E-02  0.1150745E+00
         21   -1    0    0  503  502  0.00000000000E+00  0.00000000000E+00  0.34096755759E+02  0.34096755759E+02  0.00000000000E+00 0.  1.
         21   -1    0    0  501  503 -0.00000000000E+00 -0.00000000000E+00 -0.11823037151E+04  0.11823037151E+04  0.00000000000E+00 0.  1.
          6    1    1    2  501    0  0.24781314926E+02  0.94779983168E+02 -0.48915866956E+03  0.52801757810E+03  0.17300000000E+03 0.  1.
         -6    1    1    2    0  502 -0.24781314926E+02 -0.94779983168E+02 -0.65904828981E+03  0.68838289278E+03  0.17300000000E+03 0.  1.
<mgrwt>
<rscale>  2 0.19881237E+03</rscale>
<asrwt>0</asrwt>
<pdfrwt beam="1">  1       21 0.52456544E-02 0.19881237E+03</pdfrwt>
<pdfrwt beam="2">  1       21 0.18189289E+00 0.19881237E+03</pdfrwt>
<totfact> 0.43632317E+04</totfact>
</mgrwt>
</event>
<event>
 4    1  0.3974123E+000  0.2594290E+03  0.7546771E-02  0.1107487E+00
         21   -1    0    0  503  502  0.00000000000E+00  0.00000000000E+00  0.24755110240E+03  0.24755110240E+03  0.00000000000E+00 0. -1.
         21   -1    0    0  501  503 -0.00000000000E+00 -0.00000000000E+00 -0.30677341336E+03  0.30677341336E+03  0.00000000000E+00 0. -1.
          6    1    1    2  501    0 -0.10748757441E+03  0.16068854400E+03 -0.12309084095E+03  0.28714933737E+03  0.17300000000E+03 0. -1.
         -6    1    1    2    0  502  0.10748757441E+03 -0.16068854400E+03  0.63868529995E+02  0.26717517839E+03  0.17300000000E+03 0. -1.
<mgrwt>
<rscale>  2 0.25942896E+03</rscale>
<asrwt>0</asrwt>
<pdfrwt beam="1">  1       21 0.38084785E-01 0.25942896E+03</pdfrwt>
<pdfrwt beam="2">  1       21 0.47195910E-01 0.25942896E+03</pdfrwt>
<totfact> 0.27624224E+04</totfact>
</mgrwt>
</event>
<event>
 4    1  0.3974123E+000  0.1881567E+03  0.7546771E-02  0.1160134E+00
         21   -1    0    0  501  502  0.00000000000E+00  0.00000000000E+00  0.70323408892E+02  0.70323408892E+02  0.00000000000E+00 0.  1.
         21   -1    0    0  502  503 -0.00000000000E+00 -0.00000000000E+00 -0.88235814994E+03  0.88235814994E+03  0.00000000000E+00 0.  1.
          6    1    1    2  501    0  0.21448521533E+02 -0.70809017972E+02 -0.93860138005E+02  0.21026811838E+03  0.17300000000E+03 0.  1.
         -6    1    1    2    0  503 -0.21448521533E+02  0.70809017972E+02 -0.71817460304E+03  0.74241344045E+03  0.17300000000E+03 0.  1.
<mgrwt>
<rscale>  2 0.18815673E+03</rscale>
<asrwt>0</asrwt>
<pdfrwt beam="1">  1       21 0.10818986E-01 0.18815673E+03</pdfrwt>
<pdfrwt beam="2">  1       21 0.13574741E+00 0.18815673E+03</pdfrwt>
<totfact> 0.27416286E+04</totfact>
</mgrwt>
</event>
<event>
 4    1  0.3974123E+000  0.1750907E+03  0.7546771E-02  0.1172641E+00
         21   -1    0    0  503  502  0.00000000000E+00  0.00000000000E+00  0.28760077903E+03  0.28760077903E+03  0.00000000000E+00 0. -1.
         21   -1    0    0  501  503 -0.00000000000E+00 -0.00000000000E+00 -0.10698473316E+03  0.10698473316E+03  0.00000000000E+00 0. -1.
          6    1    1    2  501    0  0.26907177166E+02 -0.19412985173E+01  0.78398021500E+02  0.19184111811E+03  0.17300000000E+03 0. -1.
         -6    1    1    2    0  502 -0.26907177166E+02  0.19412985173E+01  0.10221802437E+03  0.20274439407E+03  0.17300000000E+03 0. -1.
<mgrwt>
<rscale>  2 0.17509073E+03</rscale>
<asrwt>0</asrwt>
<pdfrwt beam="1">  1       21 0.44246273E-01 0.17509073E+03</pdfrwt>
<pdfrwt beam="2">  1       21 0.16459190E-01 0.17509073E+03</pdfrwt>
<totfact> 0.16331076E+05</totfact>
</mgrwt>
</event>
<event>
 4    1  0.3974123E+000  0.1969155E+03  0.7546771E-02  0.1152368E+00
         21   -1    0    0  503  502  0.00000000000E+00  0.00000000000E+00  0.87201008589E+03  0.87201008589E+03  0.00000000000E+00 0. -1.
         21   -1    0    0  501  503 -0.00000000000E+00 -0.00000000000E+00 -0.53869423764E+03  0.53869423764E+03  0.00000000000E+00 0. -1.
          6    1    1    2  501    0 -0.93960924635E+02  0.42476231923E+01 -0.50895533202E+03  0.54572083307E+03  0.17300000000E+03 0. -1.
         -6    1    1    2    0  502  0.93960924635E+02 -0.42476231923E+01  0.84227118026E+03  0.86498349046E+03  0.17300000000E+03 0. -1.
<mgrwt>
<rscale>  2 0.19691546E+03</rscale>
<asrwt>0</asrwt>
<pdfrwt beam="1">  1       21 0.13415540E+00 0.19691546E+03</pdfrwt>
<pdfrwt beam="2">  1       21 0.82876037E-01 0.19691546E+03</pdfrwt>
<totfact> 0.50431171E+02</totfact>
</mgrwt>
</event>
<event>
 4    1  0.3974123E+000  0.1925986E+03  0.7546771E-02  0.1156138E+00
         21   -1    0    0  503  502  0.00000000000E+00  0.00000000000E+00  0.13346082674E+03  0.13346082674E+03  0.00000000000E+00 0. -1.
         21   -1    0    0  501  503 -0.00000000000E+00 -0.00000000000E+00 -0.27907330781E+03  0.27907330781E+03  0.00000000000E+00 0. -1.
          6    1    1    2  501    0 -0.51031988645E+02 -0.67534976109E+02 -0.59667575353E+02  0.20162950283E+03  0.17300000000E+03 0. -1.
         -6    1    1    2    0  502  0.51031988645E+02  0.67534976109E+02 -0.85944905721E+02  0.21090463172E+03  0.17300000000E+03 0. -1.
<mgrwt>
<rscale>  2 0.19259864E+03</rscale>
<asrwt>0</asrwt>
<pdfrwt beam="1">  1       21 0.20532435E-01 0.19259864E+03</pdfrwt>
<pdfrwt beam="2">  1       21 0.42934355E-01 0.19259864E+03</pdfrwt>
<totfact> 0.11466121E+05</totfact>
</mgrwt>
</event>
<event>
 4    1  0.3974123E+000  0.1954491E+03  0.7546771E-02  0.1153636E+00
         21   -1    0    0  501  502  0.00000000000E+00  0.00000000000E+00  0.48384477682E+02  0.48384477682E+02  0.00000000000E+00 0. -1.
         21   -1    0    0  502  503 -0.00000000000E+00 -0.00000000000E+00 -0.80107192717E+03  0.80107192717E+03  0.00000000000E+00 0.  1.
          6    1    1    2  501    0 -0.76124129273E+02 -0.49764271312E+02 -0.32533321175E+03  0.37952873992E+03  0.17300000000E+03 0.  1.
         -6    1    1    2    0  503  0.76124129273E+02  0.49764271312E+02 -0.42735423773E+03  0.46992766493E+03  0.17300000000E+03 0.  1.
<mgrwt>
<rscale>  2 0.19544914E+03</rscale>
<asrwt>0</asrwt>
<pdfrwt beam="1">  1       21 0.74437667E-02 0.19544914E+03</pdfrwt>
<pdfrwt beam="2">  1       21 0.12324182E+00 0.19544914E+03</pdfrwt>
<totfact> 0.67122881E+04</totfact>
</mgrwt>
</event>
<event>
 4    1  0.3974123E+000  0.1961260E+03  0.7546771E-02  0.1153049E+00
         21   -1    0    0  501  502  0.00000000000E+00  0.00000000000E+00  0.82780457740E+03  0.82780457740E+03  0.00000000000E+00 0.  1.
         21   -1    0    0  502  503 -0.00000000000E+00 -0.00000000000E+00 -0.59449060165E+02  0.59449060165E+02  0.00000000000E+00 0.  1.
          6    1    1    2  501    0 -0.61237898314E+02  0.69183297368E+02  0.59148805518E+03  0.62315610263E+03  0.17300000000E+03 0. -1.
         -6    1    1    2    0  503  0.61237898314E+02 -0.69183297368E+02  0.17686746205E+03  0.26409753493E+03  0.17300000000E+03 0. -1.
<mgrwt>
<rscale>  2 0.19612600E+03</rscale>
<asrwt>0</asrwt>
<pdfrwt beam="1">  1       21 0.12735454E+00 0.19612600E+03</pdfrwt>
<pdfrwt beam="2">  1       21 0.91460099E-02 0.19612600E+03</pdfrwt>
<totfact> 0.43145436E+04</totfact>
</mgrwt>
</event>
<event>
 4    1  0.3974123E+000  0.1807540E+03  0.7546771E-02  0.1167075E+00
         21   -1    0    0  501  502  0.00000000000E+00  0.00000000000E+00  0.64910256122E+03  0.64910256122E+03  0.00000000000E+00 0.  1.
         21   -1    0    0  502  503 -0.00000000000E+00 -0.00000000000E+00 -0.78803247351E+02  0.78803247351E+02  0.00000000000E+00 0.  1.
          6    1    1    2  501    0 -0.43635220219E+02  0.28965034046E+02  0.50390577922E+03  0.53534385209E+03  0.17300000000E+03 0.  1.
         -6    1    1    2    0  503  0.43635220219E+02 -0.28965034046E+02  0.66393534652E+02  0.19256195648E+03  0.17300000000E+03 0.  1.
<mgrwt>
<rscale>  2 0.18075399E+03</rscale>
<asrwt>0</asrwt>
<pdfrwt beam="1">  1       21 0.99861929E-01 0.18075399E+03</pdfrwt>
<pdfrwt beam="2">  1       21 0.12123577E-01 0.18075399E+03</pdfrwt>
<totfact> 0.47741749E+04</totfact>
</mgrwt>
</event>
<event>
 4    1  0.3974123E+000  0.3130798E+03  0.7546771E-02  0.1078879E+00
         21   -1    0    0  501  502  0.00000000000E+00  0.00000000000E+00  0.22918487615E+03  0.22918487615E+03  0.00000000000E+00 0.  1.
         21   -1    0    0  502  503 -0.00000000000E+00 -0.00000000000E+00 -0.44124356540E+03  0.44124356540E+03  0.00000000000E+00 0. -1.
          6    1    1    2  501    0 -0.67217601893E+02 -0.25213434690E+03 -0.47268229008E+02  0.31662788943E+03  0.17300000000E+03 0.  1.
         -6    1    1    2    0  503  0.67217601893E+02  0.25213434690E+03 -0.16479046024E+03  0.35380055212E+03  0.17300000000E+03 0.  1.
<mgrwt>
<rscale>  2 0.31307976E+03</rscale>
<asrwt>0</asrwt>
<pdfrwt beam="1">  1       21 0.35259212E-01 0.31307976E+03</pdfrwt>
<pdfrwt beam="2">  1       21 0.67883625E-01 0.31307976E+03</pdfrwt>
<totfact> 0.14448982E+04</totfact>
</mgrwt>
</event>
<event>
 4    1  0.3974123E+000  0.2184835E+03  0.7546771E-02  0.1135019E+00
         21   -1    0    0  501  502  0.00000000000E+00  0.00000000000E+00  0.53094321138E+03  0.53094321138E+03  0.00000000000E+00 0.  1.
         21   -1    0    0  502  503 -0.00000000000E+00 -0.00000000000E+00 -0.91055478679E+02  0.91055478679E+02  0.00000000000E+00 0. -1.
          6    1    1    2  501    0  0.72817800949E+02  0.11181953730E+03  0.25488486374E+03  0.33571019469E+03  0.17300000000E+03 0. -1.
         -6    1    1    2    0  503 -0.72817800949E+02 -0.11181953730E+03  0.18500286896E+03  0.28628849537E+03  0.17300000000E+03 0.  1.
<mgrwt>
<rscale>  2 0.21848350E+03</rscale>
<asrwt>0</asrwt>
<pdfrwt beam="1">  1       21 0.81683569E-01 0.21848350E+03</pdfrwt>
<pdfrwt beam="2">  1       21 0.14008536E-01 0.21848350E+03</pdfrwt>
<totfact> 0.57566525E+04</totfact>
</mgrwt>
</event>
<event>
 4    1  0.3974123E+000  0.2139614E+03  0.7546771E-02  0.1138467E+00
         21   -1    0    0  501  502  0.00000000000E+00  0.00000000000E+00  0.15301691617E+03  0.15301691617E+03  0.00000000000E+00 0. -1.
         21   -1    0    0  502  503 -0.00000000000E+00 -0.00000000000E+00 -0.29918205112E+03  0.29918205112E+03  0.00000000000E+00 0. -1.
          6    1    1    2  501    0 -0.70233138800E+02  0.10448813083E+03 -0.72372461459E+02  0.22586995473E+03  0.17300000000E+03 0. -1.
         -6    1    1    2    0  503  0.70233138800E+02 -0.10448813083E+03 -0.73792673493E+02  0.22632901257E+03  0.17300000000E+03 0. -1.
<mgrwt>
<rscale>  2 0.21396136E+03</rscale>
<asrwt>0</asrwt>
<pdfrwt beam="1">  1       21 0.23541064E-01 0.21396136E+03</pdfrwt>
<pdfrwt beam="2">  1       21 0.46028008E-01 0.21396136E+03</pdfrwt>
<totfact> 0.76123415E+04</totfact>
</mgrwt>
</event>
<event>
 4    1  0.3974123E+000  0.3028468E+03  0.7546771E-02  0.1083826E+00
         21   -1    0    0  503  502  0.00000000000E+00  0.00000000000E+00  0.39567645976E+03  0.39567645976E+03  0.00000000000E+00 0. -1.
         21   -1    0    0  501  503 -0.00000000000E+00 -0.00000000000E+00 -0.23179703151E+03  0.23179703151E+03  0.00000000000E+00 0.  1.
          6    1    1    2  501    0 -0.24481465209E+03  0.43045962758E+02  0.82642352089E+02  0.31392025603E+03  0.17300000000E+03 0. -1.
         -6    1    1    2    0  502  0.24481465209E+03 -0.43045962758E+02  0.81237076163E+02  0.31355323524E+03  0.17300000000E+03 0.  1.
<mgrwt>
<rscale>  2 0.30284677E+03</rscale>
<asrwt>0</asrwt>
<pdfrwt beam="1">  1       21 0.60873302E-01 0.30284677E+03</pdfrwt>
<pdfrwt beam="2">  1       21 0.35661082E-01 0.30284677E+03</pdfrwt>
<totfact> 0.18021999E+04</totfact>
</mgrwt>
</event>
<event>
 4    1  0.3974123E+000  0.2454485E+03  0.7546771E-02  0.1116215E+00
         21   -1    0    0  501  502  0.00000000000E+00  0.00000000000E+00  0.58309709230E+03  0.58309709230E+03  0.00000000000E+00 0. -1.
         21   -1    0    0  502  503 -0.00000000000E+00 -0.00000000000E+00 -0.11322717449E+03  0.11322717449E+03  0.00000000000E+00 0. -1.
          6    1    1    2  501    0 -0.11272829554E+03 -0.13269631741E+03  0.33792709027E+03  0.41765978931E+03  0.17300000000E+03 0. -1.
         -6    1    1    2    0  503  0.11272829554E+03  0.13269631741E+03  0.13194282754E+03  0.27866447748E+03  0.17300000000E+03 0. -1.
<mgrwt>
<rscale>  2 0.24544853E+03</rscale>
<asrwt>0</asrwt>
<pdfrwt beam="1">  1       21 0.89707244E-01 0.24544853E+03</pdfrwt>
<pdfrwt beam="2">  1       21 0.17419566E-01 0.24544853E+03</pdfrwt>
<totfact> 0.30722975E+04</totfact>
</mgrwt>
</event>
<event>
 4    1  0.3974123E+000  0.1831842E+03  0.7546771E-02  0.1164756E+00
         21   -1    0    0  501  502  0.00000000000E+00  0.00000000000E+00  0.64802064903E+02  0.64802064903E+02  0.00000000000E+00 0. -1.
         21   -1    0    0  502  503 -0.00000000000E+00 -0.00000000000E+00 -0.54543196624E+03  0.54543196624E+03  0.00000000000E+00 0. -1.
          6    1    1    2  501    0  0.58204516609E+02  0.15482333552E+02 -0.17167700025E+03  0.25105668846E+03  0.17300000000E+03 0. -1.
         -6    1    1    2    0  503 -0.58204516609E+02 -0.15482333552E+02 -0.30895290109E+03  0.35917734268E+03  0.17300000000E+03 0. -1.
<mgrwt>
<rscale>  2 0.18318425E+03</rscale>
<asrwt>0</asrwt>
<pdfrwt beam="1">  1       21 0.99695485E-02 0.18318425E+03</pdfrwt>
<pdfrwt beam="2">  1       21 0.83912610E-01 0.18318425E+03</pdfrwt>
<totfact> 0.10105241E+05</totfact>
</mgrwt>
</event>
<event>
 4    1  0.3974123E+000  0.2106631E+03  0.7546771E-02  0.1141042E+00
         21   -1    0    0  501  502  0.00000000000E+00  0.00000000000E+00  0.70718481487E+03  0.70718481487E+03  0.00000000000E+00 0.  1.
         21   -1    0    0  502  503 -0.00000000000E+00 -0.00000000000E+00 -0.12734531319E+03  0.12734531319E+03  0.00000000000E+00 0. -1.
          6    1    1    2  501    0 -0.10361752328E+03  0.60937414515E+02  0.58709063043E+03  0.62374222877E+03  0.17300000000E+03 0.  1.
         -6    1    1    2    0  503  0.10361752328E+03 -0.60937414515E+02 -0.72511287446E+01  0.21078789929E+03  0.17300000000E+03 0. -1.
<mgrwt>
<rscale>  2 0.21066314E+03</rscale>
<asrwt>0</asrwt>
<pdfrwt beam="1">  1       21 0.10879766E+00 0.21066314E+03</pdfrwt>
<pdfrwt beam="2">  1       21 0.19591587E-01 0.21066314E+03</pdfrwt>
<totfact> 0.15902834E+04</totfact>
</mgrwt>
</event>
<event>
 4    1  0.3974123E+000  0.1912711E+03  0.7546771E-02  0.1157320E+00
         21   -1    0    0  501  502  0.00000000000E+00  0.00000000000E+00  0.29077841844E+03  0.29077841844E+03  0.00000000000E+00 0.  1.
         21   -1    0    0  502  503 -0.00000000000E+00 -0.00000000000E+00 -0.22124817483E+03  0.22124817483E+03  0.00000000000E+00 0.  1.
          6    1    1    2  501    0  0.47293085332E+02  0.66475682517E+02  0.20290452398E+03  0.27884565289E+03  0.17300000000E+03 0.  1.
         -6    1    1    2    0  503 -0.47293085332E+02 -0.66475682517E+02 -0.13337428037E+03  0.23318094037E+03  0.17300000000E+03 0.  1.
<mgrwt>
<rscale>  2 0.19127115E+03</rscale>
<asrwt>0</asrwt>
<pdfrwt beam="1">  1       21 0.44735141E-01 0.19127115E+03</pdfrwt>
<pdfrwt beam="2">  1       21 0.34038181E-01 0.19127115E+03</pdfrwt>
<totfact> 0.39916728E+04</totfact>
</mgrwt>
</event>
<event>
 4    1  0.3974123E+000  0.1854953E+03  0.7546771E-02  0.1162588E+00
         21   -1    0    0  503  502  0.00000000000E+00  0.00000000000E+00  0.92761282942E+02  0.92761282942E+02  0.00000000000E+00 0.  1.
         21   -1    0    0  501  503 -0.00000000000E+00 -0.00000000000E+00 -0.37226224901E+03  0.37226224901E+03  0.00000000000E+00 0.  1.
          6    1    1    2  501    0 -0.52247920879E+02  0.41828992050E+02 -0.15362808183E+03  0.24085285412E+03  0.17300000000E+03 0.  1.
         -6    1    1    2    0  502  0.52247920879E+02 -0.41828992050E+02 -0.12587288424E+03  0.22417067783E+03  0.17300000000E+03 0.  1.
<mgrwt>
<rscale>  2 0.18549531E+03</rscale>
<asrwt>0</asrwt>
<pdfrwt beam="1">  1       21 0.14270967E-01 0.18549531E+03</pdfrwt>
<pdfrwt beam="2">  1       21 0.57271115E-01 0.18549531E+03</pdfrwt>
<totfact> 0.12324290E+05</totfact>
</mgrwt>
</event>
<event>
 4    1  0.3974123E+000  0.2249548E+03  0.7546771E-02  0.1130242E+00
         21   -1    0    0  501  502  0.00000000000E+00  0.00000000000E+00  0.98401844249E+02  0.98401844249E+02  0.00000000000E+00 0. -1.
         21   -1    0    0  502  503 -0.00000000000E+00 -0.00000000000E+00 -0.58013712842E+03  0.58013712842E+03  0.00000000000E+00 0. -1.
          6    1    1    2  501    0 -0.13943265434E+03  0.35131313680E+02 -0.12654594879E+03  0.25810569822E+03  0.17300000000E+03 0. -1.
         -6    1    1    2    0  503  0.13943265434E+03 -0.35131313680E+02 -0.35518933538E+03  0.42043327445E+03  0.17300000000E+03 0. -1.
<mgrwt>
<rscale>  2 0.22495483E+03</rscale>
<asrwt>0</asrwt>
<pdfrwt beam="1">  1       21 0.15138745E-01 0.22495483E+03</pdfrwt>
<pdfrwt beam="2">  1       21 0.89251865E-01 0.22495483E+03</pdfrwt>
<totfact> 0.40643162E+04</totfact>
</mgrwt>
</event>
<event>
 4    1  0.3974123E+000  0.1925122E+03  0.7546771E-02  0.1156215E+00
         21   -1    0    0  503  502  0.00000000000E+00  0.00000000000E+00  0.25952990931E+03  0.25952990931E+03  0.00000000000E+00 0. -1.
         21   -1    0    0  501  503 -0.00000000000E+00 -0.00000000000E+00 -0.10636146327E+04  0.10636146327E+04  0.00000000000E+00 0. -1.
          6    1    1    2  501    0 -0.72564344274E+02 -0.43201358582E+02 -0.10176034861E+04  0.10356533186E+04  0.17300000000E+03 0. -1.
         -6    1    1    2    0  502  0.72564344274E+02  0.43201358582E+02  0.21351876276E+03  0.28749122333E+03  0.17300000000E+03 0. -1.
<mgrwt>
<rscale>  2 0.19251219E+03</rscale>
<asrwt>0</asrwt>
<pdfrwt beam="1">  1       21 0.39927679E-01 0.19251219E+03</pdfrwt>
<pdfrwt beam="2">  1       21 0.16363302E+00 0.19251219E+03</pdfrwt>
<totfact> 0.14321859E+03</totfact>
</mgrwt>
</event>
<event>
 4    1  0.3974123E+000  0.1842499E+03  0.7546771E-02  0.1163752E+00
         21   -1    0    0  503  502  0.00000000000E+00  0.00000000000E+00  0.17021766586E+03  0.17021766586E+03  0.00000000000E+00 0.  1.
         21   -1    0    0  501  503 -0.00000000000E+00 -0.00000000000E+00 -0.20186448565E+03  0.20186448565E+03  0.00000000000E+00 0.  1.
          6    1    1    2  501    0  0.61457243452E+02 -0.15557333868E+02 -0.36216710512E+02  0.18777559354E+03  0.17300000000E+03 0.  1.
         -6    1    1    2    0  502 -0.61457243452E+02  0.15557333868E+02  0.45698907195E+01  0.18430655797E+03  0.17300000000E+03 0.  1.
<mgrwt>
<rscale>  2 0.18424989E+03</rscale>
<asrwt>0</asrwt>
<pdfrwt beam="1">  1       21 0.26187333E-01 0.18424989E+03</pdfrwt>
<pdfrwt beam="2">  1       21 0.31056075E-01 0.18424989E+03</pdfrwt>
<totfact> 0.13842672E+05</totfact>
</mgrwt>
</event>
<event>
 4    1  0.3974123E+000  0.1992202E+03  0.7546771E-02  0.1150399E+00
         21   -1    0    0  501  502  0.00000000000E+00  0.00000000000E+00  0.41077072187E+03  0.41077072187E+03  0.00000000000E+00 0.  1.
         21   -1    0    0  502  503 -0.00000000000E+00 -0.00000000000E+00 -0.10400199191E+03  0.10400199191E+03  0.00000000000E+00 0.  1.
          6    1    1    2  501    0 -0.86994329383E+02 -0.46815124784E+02  0.22195707699E+03  0.29825092335E+03  0.17300000000E+03 0.  1.
         -6    1    1    2    0  503  0.86994329383E+02  0.46815124784E+02  0.84811652966E+02  0.21652179043E+03  0.17300000000E+03 0.  1.
<mgrwt>
<rscale>  2 0.19922015E+03</rscale>
<asrwt>0</asrwt>
<pdfrwt beam="1">  1       21 0.63195495E-01 0.19922015E+03</pdfrwt>
<pdfrwt beam="2">  1       21 0.16000307E-01 0.19922015E+03</pdfrwt>
<totfact> 0.80551990E+04</totfact>
</mgrwt>
</event>
<event>
 4    1  0.3974123E+000  0.2066798E+03  0.7546771E-02  0.1144223E+00
         21   -1    0    0  501  502  0.00000000000E+00  0.00000000000E+00  0.59194257119E+03  0.59194257119E+03  0.00000000000E+00 0. -1.
         21   -1    0    0  502  503 -0.00000000000E+00 -0.00000000000E+00 -0.83157933458E+02  0.83157933458E+02  0.00000000000E+00 0. -1.
          6    1    1    2  501    0 -0.15982622247E+02 -0.11194689943E+03  0.13165512274E+03  0.24505024761E+03  0.17300000000E+03 0.  1.
         -6    1    1    2    0  503  0.15982622247E+02  0.11194689943E+03  0.37712951499E+03  0.43005025704E+03  0.17300000000E+03 0.  1.
<mgrwt>
<rscale>  2 0.20667983E+03</rscale>
<asrwt>0</asrwt>
<pdfrwt beam="1">  1       21 0.91068085E-01 0.20667983E+03</pdfrwt>
<pdfrwt beam="2">  1       21 0.12793529E-01 0.20667983E+03</pdfrwt>
<totfact> 0.53108513E+04</totfact>
</mgrwt>
</event>
<event>
 4    1  0.3974123E+000  0.2053650E+03  0.7546771E-02  0.1145290E+00
         21   -1    0    0  503  502  0.00000000000E+00  0.00000000000E+00  0.96420525027E+03  0.96420525027E+03  0.00000000000E+00 0.  1.
         21   -1    0    0  501  503 -0.00000000000E+00 -0.00000000000E+00 -0.65344040952E+02  0.65344040952E+02  0.00000000000E+00 0.  1.
          6    1    1    2  501    0  0.61651947538E+02 -0.91895772568E+02  0.15344071580E+03  0.25635687804E+03  0.17300000000E+03 0.  1.
         -6    1    1    2    0  502 -0.61651947538E+02  0.91895772568E+02  0.74542049352E+03  0.77319241319E+03  0.17300000000E+03 0.  1.
<mgrwt>
<rscale>  2 0.20536503E+03</rscale>
<asrwt>0</asrwt>
<pdfrwt beam="1">  1       21 0.14833926E+00 0.20536503E+03</pdfrwt>
<pdfrwt beam="2">  1       21 0.10052930E-01 0.20536503E+03</pdfrwt>
<totfact> 0.24540467E+04</totfact>
</mgrwt>
</event>
<event>
 4    1  0.3974123E+000  0.2340447E+03  0.7546771E-02  0.1123825E+00
         21   -1    0    0  503  502  0.00000000000E+00  0.00000000000E+00  0.39774232979E+03  0.39774232979E+03  0.00000000000E+00 0. -1.
         21   -1    0    0  501  503 -0.00000000000E+00 -0.00000000000E+00 -0.13938392667E+03  0.13938392667E+03  0.00000000000E+00 0.  1.
          6    1    1    2  501    0  0.15471054016E+03 -0.30209042891E+02  0.99833006634E+02  0.25444757166E+03  0.17300000000E+03 0. -1.
         -6    1    1    2    0  502 -0.15471054016E+03  0.30209042891E+02  0.15852539649E+03  0.28267868480E+03  0.17300000000E+03 0. -1.
<mgrwt>
<rscale>  2 0.23404473E+03</rscale>
<asrwt>0</asrwt>
<pdfrwt beam="1">  1       21 0.61191127E-01 0.23404473E+03</pdfrwt>
<pdfrwt beam="2">  1       21 0.21443681E-01 0.23404473E+03</pdfrwt>
<totfact> 0.49356982E+04</totfact>
</mgrwt>
</event>
<event>
 4    1  0.3974123E+000  0.2134389E+03  0.7546771E-02  0.1138871E+00
         21   -1    0    0  501  502  0.00000000000E+00  0.00000000000E+00  0.14148402237E+03  0.14148402237E+03  0.00000000000E+00 0.  1.
         21   -1    0    0  502  503 -0.00000000000E+00 -0.00000000000E+00 -0.41874251433E+03  0.41874251433E+03  0.00000000000E+00 0. -1.
          6    1    1    2  501    0 -0.19319044411E+02  0.12350675023E+03 -0.39824565664E+01  0.21347600050E+03  0.17300000000E+03 0.  1.
         -6    1    1    2    0  503  0.19319044411E+02 -0.12350675023E+03 -0.27327603540E+03  0.34675053619E+03  0.17300000000E+03 0. -1.
<mgrwt>
<rscale>  2 0.21343885E+03</rscale>
<asrwt>0</asrwt>
<pdfrwt beam="1">  1       21 0.21766773E-01 0.21343885E+03</pdfrwt>
<pdfrwt beam="2">  1       21 0.64421926E-01 0.21343885E+03</pdfrwt>
<totfact> 0.43312399E+04</totfact>
</mgrwt>
</event>
<event>
 4    1  0.3974123E+000  0.1861618E+03  0.7546771E-02  0.1161969E+00
         21   -1    0    0  501  502  0.00000000000E+00  0.00000000000E+00  0.18747079319E+03  0.18747079319E+03  0.00000000000E+00 0.  1.
         21   -1    0    0  502  503 -0.00000000000E+00 -0.00000000000E+00 -0.32074216398E+03  0.32074216398E+03  0.00000000000E+00 0.  1.
          6    1    1    2  501    0 -0.19723099326E+02 -0.65865064973E+02  0.98756847327E+02  0.21073472026E+03  0.17300000000E+03 0.  1.
         -6    1    1    2    0  503  0.19723099326E+02  0.65865064973E+02 -0.23202821811E+03  0.29747823690E+03  0.17300000000E+03 0.  1.
<mgrwt>
<rscale>  2 0.18616178E+03</rscale>
<asrwt>0</asrwt>
<pdfrwt beam="1">  1       21 0.28841661E-01 0.18616178E+03</pdfrwt>
<pdfrwt beam="2">  1       21 0.49344948E-01 0.18616178E+03</pdfrwt>
<totfact> 0.45197996E+04</totfact>
</mgrwt>
</event>
<event>
 4    1  0.3974123E+000  0.2019224E+03  0.7546771E-02  0.1148127E+00
         21   -1    0    0  503  502  0.00000000000E+00  0.00000000000E+00  0.32902433778E+03  0.32902433778E+03  0.00000000000E+00 0. -1.
         21   -1    0    0  501  503 -0.00000000000E+00 -0.00000000000E+00 -0.12399286769E+03  0.12399286769E+03  0.00000000000E+00 0. -1.
          6    1    1    2  501    0  0.94375043993E+02  0.44011368358E+02  0.97019386219E+02  0.22402100521E+03  0.17300000000E+03 0. -1.
         -6    1    1    2    0  502 -0.94375043993E+02 -0.44011368358E+02  0.10801208387E+03  0.22899620026E+03  0.17300000000E+03 0. -1.
<mgrwt>
<rscale>  2 0.20192238E+03</rscale>
<asrwt>0</asrwt>
<pdfrwt beam="1">  1       21 0.50619129E-01 0.20192238E+03</pdfrwt>
<pdfrwt beam="2">  1       21 0.19075826E-01 0.20192238E+03</pdfrwt>
<totfact> 0.93269616E+04</totfact>
</mgrwt>
</event>
<event>
 4    1  0.3974123E+000  0.1794881E+03  0.7546771E-02  0.1168299E+00
         21   -1    0    0  503  502  0.00000000000E+00  0.00000000000E+00  0.46120203462E+03  0.46120203462E+03  0.00000000000E+00 0. -1.
         21   -1    0    0  501  503 -0.00000000000E+00 -0.00000000000E+00 -0.21047804988E+03  0.21047804988E+03  0.00000000000E+00 0. -1.
          6    1    1    2  501    0  0.55464287635E+01 -0.47499560094E+02 -0.14915021964E+03  0.23337043322E+03  0.17300000000E+03 0. -1.
         -6    1    1    2    0  502 -0.55464287635E+01  0.47499560094E+02  0.39987420438E+03  0.43830965128E+03  0.17300000000E+03 0. -1.
<mgrwt>
<rscale>  2 0.17948808E+03</rscale>
<asrwt>0</asrwt>
<pdfrwt beam="1">  1       21 0.70954159E-01 0.17948808E+03</pdfrwt>
<pdfrwt beam="2">  1       21 0.32381238E-01 0.17948808E+03</pdfrwt>
<totfact> 0.16638862E+04</totfact>
</mgrwt>
</event>
<event>
 4    1  0.3974123E+000  0.2049582E+03  0.7546771E-02  0.1145622E+00
         21   -1    0    0  503  502  0.00000000000E+00  0.00000000000E+00  0.59991235630E+03  0.59991235630E+03  0.00000000000E+00 0.  1.
         21   -1    0    0  501  503 -0.00000000000E+00 -0.00000000000E+00 -0.70044899214E+02  0.70044899214E+02  0.00000000000E+00 0. -1.
          6    1    1    2  501    0  0.60327003819E+02 -0.91866819588E+02  0.25905528709E+03  0.33032938365E+03  0.17300000000E+03 0.  1.
         -6    1    1    2    0  502 -0.60327003819E+02  0.91866819588E+02  0.27081216999E+03  0.33962787186E+03  0.17300000000E+03 0. -1.
<mgrwt>
<rscale>  2 0.20495819E+03</rscale>
<asrwt>0</asrwt>
<pdfrwt beam="1">  1       21 0.92294205E-01 0.20495819E+03</pdfrwt>
<pdfrwt beam="2">  1       21 0.10776139E-01 0.20495819E+03</pdfrwt>
<totfact> 0.70037744E+04</totfact>
</mgrwt>
</event>
<event>
 4    1  0.3974123E+000  0.1904282E+03  0.7546771E-02  0.1158076E+00
         21   -1    0    0  503  502  0.00000000000E+00  0.00000000000E+00  0.10595703069E+03  0.10595703069E+03  0.00000000000E+00 0. -1.
         21   -1    0    0  501  503 -0.00000000000E+00 -0.00000000000E+00 -0.56782268637E+03  0.56782268637E+03  0.00000000000E+00 0. -1.
          6    1    1    2  501    0  0.37075923011E+02 -0.70422170790E+02 -0.44327335284E+03  0.48244602967E+03  0.17300000000E+03 0. -1.
         -6    1    1    2    0  502 -0.37075923011E+02  0.70422170790E+02 -0.18592302835E+02  0.19133368739E+03  0.17300000000E+03 0. -1.
<mgrwt>
<rscale>  2 0.19042822E+03</rscale>
<asrwt>0</asrwt>
<pdfrwt beam="1">  1       21 0.16301081E-01 0.19042822E+03</pdfrwt>
<pdfrwt beam="2">  1       21 0.87357338E-01 0.19042822E+03</pdfrwt>
<totfact> 0.37967175E+04</totfact>
</mgrwt>
</event>
<event>
 4    1  0.3974123E+000  0.2400389E+03  0.7546771E-02  0.1119767E+00
         21   -1    0    0  501  502  0.00000000000E+00  0.00000000000E+00  0.23566594008E+03  0.23566594008E+03  0.00000000000E+00 0. -1.
         21   -1    0    0  502  503 -0.00000000000E+00 -0.00000000000E+00 -0.24458694396E+03  0.24458694396E+03  0.00000000000E+00 0. -1.
          6    1    1    2  501    0 -0.10823291267E+03  0.12639356431E+03 -0.91640356269E+01  0.24021381316E+03  0.17300000000E+03 0. -1.
         -6    1    1    2    0  503  0.10823291267E+03 -0.12639356431E+03  0.24303174189E+00  0.24003907088E+03  0.17300000000E+03 0. -1.
<mgrwt>
<rscale>  2 0.24003895E+03</rscale>
<asrwt>0</asrwt>
<pdfrwt beam="1">  1       21 0.36256299E-01 0.24003895E+03</pdfrwt>
<pdfrwt beam="2">  1       21 0.37628760E-01 0.24003895E+03</pdfrwt>
<totfact> 0.48902459E+04</totfact>
</mgrwt>
</event>
<event>
 4    1  0.3974123E+000  0.2103839E+03  0.7546771E-02  0.1141262E+00
         21   -1    0    0  501  502  0.00000000000E+00  0.00000000000E+00  0.10327016728E+04  0.10327016728E+04  0.00000000000E+00 0.  1.
         21   -1    0    0  502  503 -0.00000000000E+00 -0.00000000000E+00 -0.51449395170E+02  0.51449395170E+02  0.00000000000E+00 0.  1.
          6    1    1    2  501    0  0.70339762575E+02  0.96874774153E+02  0.71211689373E+03  0.74254419020E+03  0.17300000000E+03 0.  1.
         -6    1    1    2    0  503 -0.70339762575E+02 -0.96874774153E+02  0.26913538387E+03  0.34160687773E+03  0.17300000000E+03 0.  1.
<mgrwt>
<rscale>  2 0.21038394E+03</rscale>
<asrwt>0</asrwt>
<pdfrwt beam="1">  1       21 0.15887717E+00 0.21038394E+03</pdfrwt>
<pdfrwt beam="2">  1       21 0.79152923E-02 0.21038394E+03</pdfrwt>
<totfact> 0.31010671E+04</totfact>
</mgrwt>
</event>
<event>
 4    1  0.3974123E+000  0.2322735E+03  0.7546771E-02  0.1125050E+00
         21   -1    0    0  501  502  0.00000000000E+00  0.00000000000E+00  0.12160962492E+03  0.12160962492E+03  0.00000000000E+00 0. -1.
         21   -1    0    0  502  503 -0.00000000000E+00 -0.00000000000E+00 -0.44536601954E+03  0.44536601954E+03  0.00000000000E+00 0. -1.
          6    1    1    2  501    0 -0.60805051222E+02  0.14256487106E+03 -0.17952200989E+03  0.29356285315E+03  0.17300000000E+03 0. -1.
         -6    1    1    2    0  503  0.60805051222E+02 -0.14256487106E+03 -0.14423438473E+03  0.27341279131E+03  0.17300000000E+03 0. -1.
<mgrwt>
<rscale>  2 0.23227354E+03</rscale>
<asrwt>0</asrwt>
<pdfrwt beam="1">  1       21 0.18709173E-01 0.23227354E+03</pdfrwt>
<pdfrwt beam="2">  1       21 0.68517848E-01 0.23227354E+03</pdfrwt>
<totfact> 0.49830840E+04</totfact>
</mgrwt>
</event>
<event>
 4    1  0.3974123E+000  0.1928459E+03  0.7546771E-02  0.1155919E+00
         21   -1    0    0  501  502  0.00000000000E+00  0.00000000000E+00  0.44147498060E+02  0.44147498060E+02  0.00000000000E+00 0.  1.
         21   -1    0    0  502  503 -0.00000000000E+00 -0.00000000000E+00 -0.12804250932E+04  0.12804250932E+04  0.00000000000E+00 0.  1.
          6    1    1    2  501    0  0.39369929889E+02 -0.75568071964E+02 -0.23077248195E+03  0.30074152242E+03  0.17300000000E+03 0.  1.
         -6    1    1    2    0  503 -0.39369929889E+02  0.75568071964E+02 -0.10055051132E+04  0.10238310688E+04  0.17300000000E+03 0.  1.
<mgrwt>
<rscale>  2 0.19284586E+03</rscale>
<asrwt>0</asrwt>
<pdfrwt beam="1">  1       21 0.67919219E-02 0.19284586E+03</pdfrwt>
<pdfrwt beam="2">  1       21 0.19698850E+00 0.19284586E+03</pdfrwt>
<totfact> 0.22371487E+04</totfact>
</mgrwt>
</event>
<event>
 4    1  0.3974123E+000  0.1978222E+03  0.7546771E-02  0.1151590E+00
         21   -1    0    0  503  502  0.00000000000E+00  0.00000000000E+00  0.31201621569E+03  0.31201621569E+03  0.00000000000E+00 0.  1.
         21   -1    0    0  501  503 -0.00000000000E+00 -0.00000000000E+00 -0.12556570743E+03  0.12556570743E+03  0.00000000000E+00 0.  1.
          6    1    1    2  501    0 -0.31038641041E+02  0.90781238457E+02  0.85817966674E+02  0.21563476969E+03  0.17300000000E+03 0.  1.
         -6    1    1    2    0  502  0.31038641041E+02 -0.90781238457E+02  0.10063254159E+03  0.22194715344E+03  0.17300000000E+03 0.  1.
<mgrwt>
<rscale>  2 0.19782222E+03</rscale>
<asrwt>0</asrwt>
<pdfrwt beam="1">  1       21 0.48002495E-01 0.19782222E+03</pdfrwt>
<pdfrwt beam="2">  1       21 0.19317801E-01 0.19782222E+03</pdfrwt>
<totfact> 0.10192662E+05</totfact>
</mgrwt>
</event>
<event>
 4    1  0.3974123E+000  0.2026731E+03  0.7546771E-02  0.1147503E+00
         21   -1    0    0  503  502  0.00000000000E+00  0.00000000000E+00  0.79385193383E+03  0.79385193383E+03  0.00000000000E+00 0.  1.
         21   -1    0    0  501  503 -0.00000000000E+00 -0.00000000000E+00 -0.88792595025E+02  0.88792595025E+02  0.00000000000E+00 0.  1.
          6    1    1    2  501    0  0.19707361976E+02  0.10372568649E+03  0.67455197598E+02  0.21360384322E+03  0.17300000000E+03 0.  1.
         -6    1    1    2    0  502 -0.19707361976E+02 -0.10372568649E+03  0.63760414121E+03  0.66904068564E+03  0.17300000000E+03 0.  1.
<mgrwt>
<rscale>  2 0.20267313E+03</rscale>
<asrwt>0</asrwt>
<pdfrwt beam="1">  1       21 0.12213106E+00 0.20267313E+03</pdfrwt>
<pdfrwt beam="2">  1       21 0.13660400E-01 0.20267313E+03</pdfrwt>
<totfact> 0.23351290E+04</totfact>
</mgrwt>
</event>
<event>
 4    1  0.3974123E+000  0.1882586E+03  0.7546771E-02  0.1160041E+00
         21   -1    0    0  501  502  0.00000000000E+00  0.00000000000E+00  0.19977977954E+03  0.19977977954E+03  0.00000000000E+00 0. -1.
         21   -1    0    0  502  503 -0.00000000000E+00 -0.00000000000E+00 -0.17742724088E+03  0.17742724088E+03  0.00000000000E+00 0. -1.
          6    1    1    2  501    0  0.67664294257E+02  0.30559157691E+02  0.13428834117E+02  0.18873699272E+03  0.17300000000E+03 0. -1.
         -6    1    1    2    0  503 -0.67664294257E+02 -0.30559157691E+02  0.89237045478E+01  0.18847002769E+03  0.17300000000E+03 0. -1.
<mgrwt>
<rscale>  2 0.18825865E+03</rscale>
<asrwt>0</asrwt>
<pdfrwt beam="1">  1       21 0.30735351E-01 0.18825865E+03</pdfrwt>
<pdfrwt beam="2">  1       21 0.27296499E-01 0.18825865E+03</pdfrwt>
<totfact> 0.13026946E+05</totfact>
</mgrwt>
</event>
<event>
 4    1  0.3974123E+000  0.1918230E+03  0.7546771E-02  0.1156827E+00
         21   -1    0    0  503  502  0.00000000000E+00  0.00000000000E+00  0.43815764781E+02  0.43815764781E+02  0.00000000000E+00 0.  1.
         21   -1    0    0  501  503 -0.00000000000E+00 -0.00000000000E+00 -0.84225370066E+03  0.84225370066E+03  0.00000000000E+00 0.  1.
          6    1    1    2  501    0  0.90128840946E+01  0.82376125192E+02 -0.37525955737E+03  0.42144488783E+03  0.17300000000E+03 0.  1.
         -6    1    1    2    0  502 -0.90128840946E+01 -0.82376125192E+02 -0.42317837851E+03  0.46462457761E+03  0.17300000000E+03 0.  1.
<mgrwt>
<rscale>  2 0.19182299E+03</rscale>
<asrwt>0</asrwt>
<pdfrwt beam="1">  1       21 0.67408878E-02 0.19182299E+03</pdfrwt>
<pdfrwt beam="2">  1       21 0.12957748E+00 0.19182299E+03</pdfrwt>
<totfact> 0.70387938E+04</totfact>
</mgrwt>
</event>
<event>
 4    1  0.3974123E+000  0.1755347E+03  0.7546771E-02  0.1172196E+00
         21   -1    0    0  501  502  0.00000000000E+00  0.00000000000E+00  0.18740848956E+02  0.18740848956E+02  0.00000000000E+00 0.  1.
         21   -1    0    0  502  503 -0.00000000000E+00 -0.00000000000E+00 -0.18239004856E+04  0.18239004856E+04  0.00000000000E+00 0.  1.
          6    1    1    2  501    0 -0.22798324416E+02 -0.19070071676E+02 -0.61333411867E+03  0.63795859768E+03  0.17300000000E+03 0.  1.
         -6    1    1    2    0  503  0.22798324416E+02  0.19070071676E+02 -0.11918255179E+04  0.12046827368E+04  0.17300000000E+03 0.  1.
<mgrwt>
<rscale>  2 0.17553470E+03</rscale>
<asrwt>0</asrwt>
<pdfrwt beam="1">  1       21 0.28832062E-02 0.17553470E+03</pdfrwt>
<pdfrwt beam="2">  1       21 0.28060020E+00 0.17553470E+03</pdfrwt>
<totfact> 0.30312293E+04</totfact>
</mgrwt>
</event>
<event>
 4    1  0.3974123E+000  0.2079754E+03  0.7546771E-02  0.1143179E+00
         21   -1    0    0  503  502  0.00000000000E+00  0.00000000000E+00  0.13374101584E+03  0.13374101584E+03  0.00000000000E+00 0.  1.
         21   -1    0    0  501  503 -0.00000000000E+00 -0.00000000000E+00 -0.71155496368E+03  0.71155496368E+03  0.00000000000E+00 0.  1.
          6    1    1    2  501    0  0.74149223757E+02 -0.88468313283E+02 -0.60106117450E+03  0.63602538104E+03  0.17300000000E+03 0.  1.
         -6    1    1    2    0  502 -0.74149223757E+02  0.88468313283E+02  0.23247226655E+02  0.20927059847E+03  0.17300000000E+03 0.  1.
<mgrwt>
<rscale>  2 0.20797536E+03</rscale>
<asrwt>0</asrwt>
<pdfrwt beam="1">  1       21 0.20575541E-01 0.20797536E+03</pdfrwt>
<pdfrwt beam="2">  1       21 0.10947000E+00 0.20797536E+03</pdfrwt>
<totfact> 0.14318221E+04</totfact>
</mgrwt>
</event>
<event>
 4    1  0.3974123E+000  0.3816468E+03  0.7546771E-02  0.1050327E+00
         21   -1    0    0  503  502  0.00000000000E+00  0.00000000000E+00  0.21151634406E+03  0.21151634406E+03  0.00000000000E+00 0. -1.
         21   -1    0    0  501  503 -0.00000000000E+00 -0.00000000000E+00 -0.70881016746E+03  0.70881016746E+03  0.00000000000E+00 0. -1.
          6    1    1    2  501    0  0.16427512187E+02 -0.33978735493E+03 -0.32631108936E+03  0.50212870538E+03  0.17300000000E+03 0. -1.
         -6    1    1    2    0  502 -0.16427512187E+02  0.33978735493E+03 -0.17098273404E+03  0.41819780615E+03  0.17300000000E+03 0. -1.
<mgrwt>
<rscale>  2 0.38164684E+03</rscale>
<asrwt>0</asrwt>
<pdfrwt beam="1">  1       21 0.32540976E-01 0.38164684E+03</pdfrwt>
<pdfrwt beam="2">  1       21 0.10904772E+00 0.38164684E+03</pdfrwt>
<totfact> 0.54574742E+03</totfact>
</mgrwt>
</event>
<event>
 4    1  0.3974123E+000  0.2211914E+03  0.7546771E-02  0.1132998E+00
         21   -1    0    0  503  502  0.00000000000E+00  0.00000000000E+00  0.12791156531E+04  0.12791156531E+04  0.00000000000E+00 0.  1.
         21   -1    0    0  501  503 -0.00000000000E+00 -0.00000000000E+00 -0.59184675915E+02  0.59184675915E+02  0.00000000000E+00 0.  1.
          6    1    1    2  501    0 -0.13782781797E+03  0.32748565390E+00  0.21198974140E+03  0.30637438717E+03  0.17300000000E+03 0.  1.
         -6    1    1    2    0  502  0.13782781797E+03 -0.32748565390E+00  0.10079412358E+04  0.10319259418E+04  0.17300000000E+03 0.  1.
<mgrwt>
<rscale>  2 0.22119135E+03</rscale>
<asrwt>0</asrwt>
<pdfrwt beam="1">  1       21 0.19678700E+00 0.22119135E+03</pdfrwt>
<pdfrwt beam="2">  1       21 0.91053357E-02 0.22119135E+03</pdfrwt>
<totfact> 0.13185012E+04</totfact>
</mgrwt>
</event>
<event>
 4    1  0.3974123E+000  0.1936643E+03  0.7546771E-02  0.1155197E+00
         21   -1    0    0  503  502  0.00000000000E+00  0.00000000000E+00  0.12947255326E+03  0.12947255326E+03  0.00000000000E+00 0. -1.
         21   -1    0    0  501  503 -0.00000000000E+00 -0.00000000000E+00 -0.51304506821E+03  0.51304506821E+03  0.00000000000E+00 0. -1.
          6    1    1    2  501    0 -0.84450244662E+02  0.21095357884E+02 -0.40376047891E+03  0.44780395518E+03  0.17300000000E+03 0. -1.
         -6    1    1    2    0  502  0.84450244662E+02 -0.21095357884E+02  0.20187963959E+02  0.19471366628E+03  0.17300000000E+03 0. -1.
<mgrwt>
<rscale>  2 0.19366429E+03</rscale>
<asrwt>0</asrwt>
<pdfrwt beam="1">  1       21 0.19918854E-01 0.19366429E+03</pdfrwt>
<pdfrwt beam="2">  1       21 0.78930011E-01 0.19366429E+03</pdfrwt>
<totfact> 0.32960379E+04</totfact>
</mgrwt>
</event>
<event>
 4    1  0.3974123E+000  0.1738095E+03  0.7546771E-02  0.1173932E+00
         21   -1    0    0  503  502  0.00000000000E+00  0.00000000000E+00  0.14331868465E+03  0.14331868465E+03  0.00000000000E+00 0.  1.
         21   -1    0    0  501  503 -0.00000000000E+00 -0.00000000000E+00 -0.35333753634E+03  0.35333753634E+03  0.00000000000E+00 0.  1.
          6    1    1    2  501    0  0.36356097325E+01 -0.16355819535E+02 -0.26273977516E+03  0.31502685590E+03  0.17300000000E+03 0.  1.
         -6    1    1    2    0  502 -0.36356097325E+01  0.16355819535E+02  0.52720923465E+02  0.18162936509E+03  0.17300000000E+03 0.  1.
<mgrwt>
<rscale>  2 0.17380947E+03</rscale>
<asrwt>0</asrwt>
<pdfrwt beam="1">  1       21 0.22049029E-01 0.17380947E+03</pdfrwt>
<pdfrwt beam="2">  1       21 0.54359620E-01 0.17380947E+03</pdfrwt>
<totfact> 0.61983565E+04</totfact>
</mgrwt>
</event>
<event>
 4    1  0.3974123E+000  0.1798796E+03  0.7546771E-02  0.1167920E+00
         21   -1    0    0  501  502  0.00000000000E+00  0.00000000000E+00  0.15689621695E+03  0.15689621695E+03  0.00000000000E+00 0.  1.
         21   -1    0    0  502  503 -0.00000000000E+00 -0.00000000000E+00 -0.20642561069E+03  0.20642561069E+03  0.00000000000E+00 0. -1.
          6    1    1    2  501    0 -0.45805556651E+02 -0.18153174848E+02 -0.19170757224E+02  0.18089832700E+03  0.17300000000E+03 0.  1.
         -6    1    1    2    0  503  0.45805556651E+02  0.18153174848E+02 -0.30358636511E+02  0.18242350065E+03  0.17300000000E+03 0.  1.
<mgrwt>
<rscale>  2 0.17987965E+03</rscale>
<asrwt>0</asrwt>
<pdfrwt beam="1">  1       21 0.24137880E-01 0.17987965E+03</pdfrwt>
<pdfrwt beam="2">  1       21 0.31757786E-01 0.17987965E+03</pdfrwt>
<totfact> 0.15501243E+05</totfact>
</mgrwt>
</event>
<event>
 4    1  0.3974123E+000  0.2059136E+03  0.7546771E-02  0.1144843E+00
         21   -1    0    0  503  502  0.00000000000E+00  0.00000000000E+00  0.18866338135E+03  0.18866338135E+03  0.00000000000E+00 0.  1.
         21   -1    0    0  501  503 -0.00000000000E+00 -0.00000000000E+00 -0.23606788600E+03  0.23606788600E+03  0.00000000000E+00 0.  1.
          6    1    1    2  501    0 -0.11163555126E+03  0.29845264109E+01 -0.70220180612E+02  0.21755752680E+03  0.17300000000E+03 0.  1.
         -6    1    1    2    0  502  0.11163555126E+03 -0.29845264109E+01  0.22815675955E+02  0.20717374055E+03  0.17300000000E+03 0.  1.
<mgrwt>
<rscale>  2 0.20591358E+03</rscale>
<asrwt>0</asrwt>
<pdfrwt beam="1">  1       21 0.29025136E-01 0.20591358E+03</pdfrwt>
<pdfrwt beam="2">  1       21 0.36318136E-01 0.20591358E+03</pdfrwt>
<totfact> 0.82616307E+04</totfact>
</mgrwt>
</event>
<event>
 4    1  0.3974123E+000  0.1817026E+03  0.7546771E-02  0.1166165E+00
         21   -1    0    0  501  502  0.00000000000E+00  0.00000000000E+00  0.62790078205E+02  0.62790078205E+02  0.00000000000E+00 0. -1.
         21   -1    0    0  502  503 -0.00000000000E+00 -0.00000000000E+00 -0.55490450054E+03  0.55490450054E+03  0.00000000000E+00 0. -1.
          6    1    1    2  501    0 -0.45973111101E+02 -0.31198081368E+02 -0.17534135552E+03  0.25250829329E+03  0.17300000000E+03 0. -1.
         -6    1    1    2    0  503  0.45973111101E+02  0.31198081368E+02 -0.31677306682E+03  0.36518628546E+03  0.17300000000E+03 0. -1.
<mgrwt>
<rscale>  2 0.18170263E+03</rscale>
<asrwt>0</asrwt>
<pdfrwt beam="1">  1       21 0.96600121E-02 0.18170263E+03</pdfrwt>
<pdfrwt beam="2">  1       21 0.85369922E-01 0.18170263E+03</pdfrwt>
<totfact> 0.10277208E+05</totfact>
</mgrwt>
</event>
<event>
 4    1  0.3974123E+000  0.2036606E+03  0.7546771E-02  0.1146687E+00
         21   -1    0    0  501  502  0.00000000000E+00  0.00000000000E+00  0.10654046778E+03  0.10654046778E+03  0.00000000000E+00 0.  1.
         21   -1    0    0  502  503 -0.00000000000E+00 -0.00000000000E+00 -0.42254571778E+03  0.42254571778E+03  0.00000000000E+00 0.  1.
          6    1    1    2  501    0 -0.79870499154E+02 -0.71898056119E+02 -0.83813512657E+02  0.22023244995E+03  0.17300000000E+03 0.  1.
         -6    1    1    2    0  503  0.79870499154E+02  0.71898056119E+02 -0.23219173734E+03  0.30885373560E+03  0.17300000000E+03 0.  1.
<mgrwt>
<rscale>  2 0.20366057E+03</rscale>
<asrwt>0</asrwt>
<pdfrwt beam="1">  1       21 0.16390841E-01 0.20366057E+03</pdfrwt>
<pdfrwt beam="2">  1       21 0.65007035E-01 0.20366057E+03</pdfrwt>
<totfact> 0.72332110E+04</totfact>
</mgrwt>
</event>
<event>
 4    1  0.3974123E+000  0.2011205E+03  0.7546771E-02  0.1148797E+00
         21   -1    0    0  503  502  0.00000000000E+00  0.00000000000E+00  0.22430509390E+02  0.22430509390E+02  0.00000000000E+00 0.  1.
         21   -1    0    0  501  503 -0.00000000000E+00 -0.00000000000E+00 -0.18702621191E+04  0.18702621191E+04  0.00000000000E+00 0.  1.
          6    1    1    2  501    0 -0.48934602181E+02 -0.90143464918E+02 -0.74487959853E+03  0.77155366363E+03  0.17300000000E+03 0. -1.
         -6    1    1    2    0  502  0.48934602181E+02  0.90143464918E+02 -0.11029520112E+04  0.11211389649E+04  0.17300000000E+03 0. -1.
<mgrwt>
<rscale>  2 0.20112046E+03</rscale>
<asrwt>0</asrwt>
<pdfrwt beam="1">  1       21 0.34508470E-02 0.20112046E+03</pdfrwt>
<pdfrwt beam="2">  1       21 0.28773268E+00 0.20112046E+03</pdfrwt>
<totfact> 0.19979566E+04</totfact>
</mgrwt>
</event>
<event>
 4    1  0.3974123E+000  0.1878481E+03  0.7546771E-02  0.1160417E+00
         21   -1    0    0  503  502  0.00000000000E+00  0.00000000000E+00  0.21272907328E+02  0.21272907328E+02  0.00000000000E+00 0. -1.
         21   -1    0    0  501  503 -0.00000000000E+00 -0.00000000000E+00 -0.19080163952E+04  0.19080163952E+04  0.00000000000E+00 0. -1.
          6    1    1    2  501    0  0.73119896726E+02  0.33748601698E+01 -0.12920210191E+04  0.13056053089E+04  0.17300000000E+03 0. -1.
         -6    1    1    2    0  502 -0.73119896726E+02 -0.33748601698E+01 -0.59472246883E+03  0.62368399363E+03  0.17300000000E+03 0. -1.
<mgrwt>
<rscale>  2 0.18784810E+03</rscale>
<asrwt>0</asrwt>
<pdfrwt beam="1">  1       21 0.32727543E-02 0.18784810E+03</pdfrwt>
<pdfrwt beam="2">  1       21 0.29354105E+00 0.18784810E+03</pdfrwt>
<totfact> 0.20464562E+04</totfact>
</mgrwt>
</event>
<event>
 4    1  0.3974123E+000  0.2947817E+03  0.7546771E-02  0.1087879E+00
         21   -1    0    0  501  502  0.00000000000E+00  0.00000000000E+00  0.13046150184E+03  0.13046150184E+03  0.00000000000E+00 0.  1.
         21   -1    0    0  502  503 -0.00000000000E+00 -0.00000000000E+00 -0.68630466918E+03  0.68630466918E+03  0.00000000000E+00 0. -1.
          6    1    1    2  501    0 -0.98068718861E+02 -0.21760006067E+03 -0.20779600656E+03  0.36065972934E+03  0.17300000000E+03 0.  1.
         -6    1    1    2    0  503  0.98068718861E+02  0.21760006067E+03 -0.34804716077E+03  0.45610644168E+03  0.17300000000E+03 0. -1.
<mgrwt>
<rscale>  2 0.29478172E+03</rscale>
<asrwt>0</asrwt>
<pdfrwt beam="1">  1       21 0.20071001E-01 0.29478172E+03</pdfrwt>
<pdfrwt beam="2">  1       21 0.10558533E+00 0.29478172E+03</pdfrwt>
<totfact> 0.15640618E+04</totfact>
</mgrwt>
</event>
<event>
 4    1  0.3974123E+000  0.1814259E+03  0.7546771E-02  0.1166430E+00
         21   -1    0    0  501  502  0.00000000000E+00  0.00000000000E+00  0.16055262503E+03  0.16055262503E+03  0.00000000000E+00 0.  1.
         21   -1    0    0  502  503 -0.00000000000E+00 -0.00000000000E+00 -0.20617961118E+03  0.20617961118E+03  0.00000000000E+00 0.  1.
          6    1    1    2  501    0  0.34782551800E+02  0.42148920939E+02 -0.90198172428E+01  0.18164997811E+03  0.17300000000E+03 0.  1.
         -6    1    1    2    0  503 -0.34782551800E+02 -0.42148920939E+02 -0.36607168912E+02  0.18508225810E+03  0.17300000000E+03 0.  1.
<mgrwt>
<rscale>  2 0.18142590E+03</rscale>
<asrwt>0</asrwt>
<pdfrwt beam="1">  1       21 0.24700404E-01 0.18142590E+03</pdfrwt>
<pdfrwt beam="2">  1       21 0.31719940E-01 0.18142590E+03</pdfrwt>
<totfact> 0.14864131E+05</totfact>
</mgrwt>
</event>
<event>
 4    1  0.3974123E+000  0.4459793E+03  0.7546771E-02  0.1028928E+00
         21   -1    0    0  503  502  0.00000000000E+00  0.00000000000E+00  0.12670948979E+04  0.12670948979E+04  0.00000000000E+00 0. -1.
         21   -1    0    0  501  503 -0.00000000000E+00 -0.00000000000E+00 -0.16920394712E+03  0.16920394712E+03  0.00000000000E+00 0.  1.
          6    1    1    2  501    0 -0.35409336516E+03 -0.20877366588E+03  0.35585115767E+03  0.57055026179E+03  0.17300000000E+03 0. -1.
         -6    1    1    2    0  502  0.35409336516E+03  0.20877366588E+03  0.74203979316E+03  0.86574858328E+03  0.17300000000E+03 0.  1.
<mgrwt>
<rscale>  2 0.44597932E+03</rscale>
<asrwt>0</asrwt>
<pdfrwt beam="1">  1       21 0.19493767E+00 0.44597932E+03</pdfrwt>
<pdfrwt beam="2">  1       21 0.26031377E-01 0.44597932E+03</pdfrwt>
<totfact> 0.17166778E+03</totfact>
</mgrwt>
</event>
<event>
 4    1  0.3974123E+000  0.1960168E+03  0.7546771E-02  0.1153144E+00
         21   -1    0    0  501  502  0.00000000000E+00  0.00000000000E+00  0.60525004645E+03  0.60525004645E+03  0.00000000000E+00 0. -1.
         21   -1    0    0  502  503 -0.00000000000E+00 -0.00000000000E+00 -0.91227792226E+02  0.91227792226E+02  0.00000000000E+00 0. -1.
          6    1    1    2  501    0 -0.91358324103E+02 -0.12133621967E+02  0.44905974829E+03  0.48997676036E+03  0.17300000000E+03 0. -1.
         -6    1    1    2    0  503  0.91358324103E+02  0.12133621967E+02  0.64962505932E+02  0.20650107831E+03  0.17300000000E+03 0. -1.
<mgrwt>
<rscale>  2 0.19601675E+03</rscale>
<asrwt>0</asrwt>
<pdfrwt beam="1">  1       21 0.93115390E-01 0.19601675E+03</pdfrwt>
<pdfrwt beam="2">  1       21 0.14035045E-01 0.19601675E+03</pdfrwt>
<totfact> 0.42893163E+04</totfact>
</mgrwt>
</event>
<event>
 4    1  0.3974123E+000  0.2529351E+03  0.7546771E-02  0.1111464E+00
         21   -1    0    0  503  502  0.00000000000E+00  0.00000000000E+00  0.11756394339E+04  0.11756394339E+04  0.00000000000E+00 0. -1.
         21   -1    0    0  501  503 -0.00000000000E+00 -0.00000000000E+00 -0.62108894413E+02  0.62108894413E+02  0.00000000000E+00 0.  1.
          6    1    1    2  501    0 -0.15167346050E+03 -0.10508244836E+03  0.33898989689E+03  0.42295426439E+03  0.17300000000E+03 0. -1.
         -6    1    1    2    0  502  0.15167346050E+03  0.10508244836E+03  0.77454064263E+03  0.81479406396E+03  0.17300000000E+03 0.  1.
<mgrwt>
<rscale>  2 0.25293509E+03</rscale>
<asrwt>0</asrwt>
<pdfrwt beam="1">  1       21 0.18086759E+00 0.25293509E+03</pdfrwt>
<pdfrwt beam="2">  1       21 0.95552154E-02 0.25293509E+03</pdfrwt>
<totfact> 0.15150737E+04</totfact>
</mgrwt>
</event>
<event>
 4    1  0.3974123E+000  0.2107315E+03  0.7546771E-02  0.1140988E+00
         21   -1    0    0  501  502  0.00000000000E+00  0.00000000000E+00  0.68499002634E+03  0.68499002634E+03  0.00000000000E+00 0.  1.
         21   -1    0    0  502  503 -0.00000000000E+00 -0.00000000000E+00 -0.11281372696E+03  0.11281372696E+03  0.00000000000E+00 0.  1.
          6    1    1    2  501    0 -0.11226997917E+03  0.43292044273E+02  0.54624371002E+03  0.58548265564E+03  0.17300000000E+03 0.  1.
         -6    1    1    2    0  503  0.11226997917E+03 -0.43292044273E+02  0.25932589358E+02  0.21232109766E+03  0.17300000000E+03 0.  1.
<mgrwt>
<rscale>  2 0.21073146E+03</rscale>
<asrwt>0</asrwt>
<pdfrwt beam="1">  1       21 0.10538308E+00 0.21073146E+03</pdfrwt>
<pdfrwt beam="2">  1       21 0.17355958E-01 0.21073146E+03</pdfrwt>
<totfact> 0.21510234E+04</totfact>
</mgrwt>
</event>
<event>
 4    1  0.3974123E+000  0.1972600E+03  0.7546771E-02  0.1152072E+00
         21   -1    0    0  501  502  0.00000000000E+00  0.00000000000E+00  0.65581654605E+03  0.65581654605E+03  0.00000000000E+00 0. -1.
         21   -1    0    0  502  503 -0.00000000000E+00 -0.00000000000E+00 -0.67713975600E+02  0.67713975600E+02  0.00000000000E+00 0. -1.
          6    1    1    2  501    0  0.94023664380E+02 -0.11919629070E+02  0.42132432558E+03  0.46521577182E+03  0.17300000000E+03 0. -1.
         -6    1    1    2    0  503 -0.94023664380E+02  0.11919629070E+02  0.16677824487E+03  0.25831474984E+03  0.17300000000E+03 0. -1.
<mgrwt>
<rscale>  2 0.19726005E+03</rscale>
<asrwt>0</asrwt>
<pdfrwt beam="1">  1       21 0.10089485E+00 0.19726005E+03</pdfrwt>
<pdfrwt beam="2">  1       21 0.10417535E-01 0.19726005E+03</pdfrwt>
<totfact> 0.60530530E+04</totfact>
</mgrwt>
</event>
<event>
 4    1  0.3974123E+000  0.2348125E+03  0.7546771E-02  0.1123298E+00
         21   -1    0    0  501  502  0.00000000000E+00  0.00000000000E+00  0.21604903734E+03  0.21604903734E+03  0.00000000000E+00 0. -1.
         21   -1    0    0  502  503 -0.00000000000E+00 -0.00000000000E+00 -0.26617864126E+03  0.26617864126E+03  0.00000000000E+00 0. -1.
          6    1    1    2  501    0  0.11147709940E+03 -0.11305199210E+03  0.23890707030E+02  0.23602470737E+03  0.17300000000E+03 0. -1.
         -6    1    1    2    0  503 -0.11147709940E+03  0.11305199210E+03 -0.74020310945E+02  0.24620297123E+03  0.17300000000E+03 0. -1.
<mgrwt>
<rscale>  2 0.23481247E+03</rscale>
<asrwt>0</asrwt>
<pdfrwt beam="1">  1       21 0.33238313E-01 0.23481247E+03</pdfrwt>
<pdfrwt beam="2">  1       21 0.40950560E-01 0.23481247E+03</pdfrwt>
<totfact> 0.49101498E+04</totfact>
</mgrwt>
</event>
<event>
 4    1  0.3974123E+000  0.3331405E+03  0.7546771E-02  0.1069756E+00
         21   -1    0    0  503  502  0.00000000000E+00  0.00000000000E+00  0.68159968026E+03  0.68159968026E+03  0.00000000000E+00 0.  1.
         21   -1    0    0  501  503 -0.00000000000E+00 -0.00000000000E+00 -0.23970835867E+03  0.23970835867E+03  0.00000000000E+00 0. -1.
          6    1    1    2  501    0  0.95200453762E+02  0.26831034004E+03 -0.39936812820E+02  0.33552572776E+03  0.17300000000E+03 0.  1.
         -6    1    1    2    0  502 -0.95200453762E+02 -0.26831034004E+03  0.48182813441E+03  0.58578231117E+03  0.17300000000E+03 0. -1.
<mgrwt>
<rscale>  2 0.33314046E+03</rscale>
<asrwt>0</asrwt>
<pdfrwt beam="1">  1       21 0.10486149E+00 0.33314046E+03</pdfrwt>
<pdfrwt beam="2">  1       21 0.36878209E-01 0.33314046E+03</pdfrwt>
<totfact> 0.47690998E+03</totfact>
</mgrwt>
</event>
<event>
 4    1  0.3974123E+000  0.2560291E+03  0.7546771E-02  0.1109553E+00
         21   -1    0    0  503  502  0.00000000000E+00  0.00000000000E+00  0.18696586213E+03  0.18696586213E+03  0.00000000000E+00 0.  1.
         21   -1    0    0  501  503 -0.00000000000E+00 -0.00000000000E+00 -0.52705093720E+03  0.52705093720E+03  0.00000000000E+00 0.  1.
          6    1    1    2  501    0  0.18864755510E+03  0.58302269087E+01 -0.37660898358E+03  0.45539567203E+03  0.17300000000E+03 0.  1.
         -6    1    1    2    0  502 -0.18864755510E+03 -0.58302269087E+01  0.36523908510E+02  0.25862112730E+03  0.17300000000E+03 0.  1.
<mgrwt>
<rscale>  2 0.25602908E+03</rscale>
<asrwt>0</asrwt>
<pdfrwt beam="1">  1       21 0.28763979E-01 0.25602908E+03</pdfrwt>
<pdfrwt beam="2">  1       21 0.81084758E-01 0.25602908E+03</pdfrwt>
<totfact> 0.14873636E+04</totfact>
</mgrwt>
</event>
<event>
 4    1  0.3974123E+000  0.1860959E+03  0.7546771E-02  0.1162030E+00
         21   -1    0    0  501  502  0.00000000000E+00  0.00000000000E+00  0.11686662467E+03  0.11686662467E+03  0.00000000000E+00 0. -1.
         21   -1    0    0  502  503 -0.00000000000E+00 -0.00000000000E+00 -0.77348087839E+03  0.77348087839E+03  0.00000000000E+00 0. -1.
          6    1    1    2  501    0 -0.46494825369E+02 -0.50407316278E+02  0.21340323726E+02  0.18731544447E+03  0.17300000000E+03 0. -1.
         -6    1    1    2    0  503  0.46494825369E+02  0.50407316278E+02 -0.67795457745E+03  0.70303205859E+03  0.17300000000E+03 0. -1.
<mgrwt>
<rscale>  2 0.18609585E+03</rscale>
<asrwt>0</asrwt>
<pdfrwt beam="1">  1       21 0.17979480E-01 0.18609585E+03</pdfrwt>
<pdfrwt beam="2">  1       21 0.11899706E+00 0.18609585E+03</pdfrwt>
<totfact> 0.15236767E+04</totfact>
</mgrwt>
</event>
<event>
 4    1  0.3974123E+000  0.1946955E+03  0.7546771E-02  0.1154293E+00
         21   -1    0    0  501  502  0.00000000000E+00  0.00000000000E+00  0.88014017063E+02  0.88014017063E+02  0.00000000000E+00 0.  1.
         21   -1    0    0  502  503 -0.00000000000E+00 -0.00000000000E+00 -0.44342039500E+03  0.44342039500E+03  0.00000000000E+00 0.  1.
          6    1    1    2  501    0  0.14380021166E+02 -0.88150663287E+02 -0.13267166961E+03  0.23560156274E+03  0.17300000000E+03 0. -1.
         -6    1    1    2    0  503 -0.14380021166E+02  0.88150663287E+02 -0.22273470833E+03  0.29583284933E+03  0.17300000000E+03 0. -1.
<mgrwt>
<rscale>  2 0.19469547E+03</rscale>
<asrwt>0</asrwt>
<pdfrwt beam="1">  1       21 0.13540618E-01 0.19469547E+03</pdfrwt>
<pdfrwt beam="2">  1       21 0.68218522E-01 0.19469547E+03</pdfrwt>
<totfact> 0.92543746E+04</totfact>
</mgrwt>
</event>
