<event>
 5    1  0.4023633E+001  0.9154502E+02  0.7546771E-02  0.1299153E+00
         -2   -1    0    0    0  501 -0.00000000000E+00  0.00000000000E+00  0.17128522693E+02  0.17128522693E+02  0.00000000000E+00 0. -1.
          2   -1    0    0  501    0  0.00000000000E+00 -0.00000000000E+00 -0.12231775940E+03  0.12231775940E+03  0.00000000000E+00 0.  1.
         23    2    1    2    0    0  0.00000000000E+00  0.00000000000E+00 -0.10518923671E+03  0.13944628209E+03  0.91545016633E+02 0.  0.
          2    1    3    3  502    0  0.28873063943E+02  0.33072401512E+02 -0.32869515327E+02  0.54843801847E+02  0.00000000000E+00 0. -1.
         -2    1    3    3    0  502 -0.28873063943E+02 -0.33072401512E+02 -0.72319721378E+02  0.84602480244E+02  0.00000000000E+00 0.  1.
<mgrwt>
<rscale>  0 0.91545017E+02</rscale>
<asrwt>0</asrwt>
<pdfrwt beam="2">  1        2 0.18818116E-01 0.91545017E+02</pdfrwt>
<pdfrwt beam="1">  1       -2 0.26351574E-02 0.91545017E+02</pdfrwt>
<totfact> 0.12923225E+05</totfact>
</mgrwt>
</event>
<event>
 5    1  0.4023633E+001  0.9291524E+02  0.7546771E-02  0.1295942E+00
         -2   -1    0    0    0  501 -0.00000000000E+00  0.00000000000E+00  0.12272507186E+03  0.12272507186E+03  0.00000000000E+00 0.  1.
          2   -1    0    0  501    0  0.00000000000E+00 -0.00000000000E+00 -0.17586548776E+02  0.17586548776E+02  0.00000000000E+00 0. -1.
         23    2    1    2    0    0  0.00000000000E+00  0.00000000000E+00  0.10513852308E+03  0.14031162063E+03  0.92915240135E+02 0.  0.
          2    1    3    3  502    0  0.35629266097E+02 -0.22565681834E+02  0.23145259447E+02  0.48107771036E+02  0.00000000000E+00 0. -1.
         -2    1    3    3    0  502 -0.35629266097E+02  0.22565681834E+02  0.81993263635E+02  0.92203849598E+02  0.00000000000E+00 0.  1.
<mgrwt>
<rscale>  0 0.92915240E+02</rscale>
<asrwt>0</asrwt>
<pdfrwt beam="2">  1        2 0.27056230E-02 0.92915240E+02</pdfrwt>
<pdfrwt beam="1">  1       -2 0.18880780E-01 0.92915240E+02</pdfrwt>
<totfact> 0.71395573E+04</totfact>
</mgrwt>
</event>
<event>
 5    1  0.4023633E+001  0.7393060E+02  0.7546771E-02  0.1347215E+00
          1   -1    0    0  501    0  0.00000000000E+00  0.00000000000E+00  0.56360612187E+03  0.56360612187E+03  0.00000000000E+00 0. -1.
         -1   -1    0    0    0  501 -0.00000000000E+00 -0.00000000000E+00 -0.24244474510E+01  0.24244474510E+01  0.00000000000E+00 0.  1.
         23    2    1    2    0    0  0.00000000000E+00  0.00000000000E+00  0.56118167442E+03  0.56603056932E+03  0.73930600580E+02 0.  0.
          2    1    3    3  502    0  0.35837287340E+02  0.89554051052E+01  0.29120786993E+03  0.29354136668E+03  0.00000000000E+00 0. -1.
         -2    1    3    3    0  502 -0.35837287340E+02 -0.89554051052E+01  0.26997380449E+03  0.27248920264E+03  0.00000000000E+00 0.  1.
<mgrwt>
<rscale>  0 0.73930601E+02</rscale>
<asrwt>0</asrwt>
<pdfrwt beam="1">  1        1 0.86708530E-01 0.73930601E+02</pdfrwt>
<pdfrwt beam="2">  1       -1 0.37299236E-03 0.73930601E+02</pdfrwt>
<totfact> 0.24415962E+05</totfact>
</mgrwt>
</event>
<event>
 5    1  0.4023633E+001  0.9060231E+02  0.7546771E-02  0.1301400E+00
         -2   -1    0    0    0  501 -0.00000000000E+00  0.00000000000E+00  0.63072725236E+01  0.63072725236E+01  0.00000000000E+00 0.  1.
          2   -1    0    0  501    0  0.00000000000E+00 -0.00000000000E+00 -0.32536959430E+03  0.32536959430E+03  0.00000000000E+00 0. -1.
         23    2    1    2    0    0  0.00000000000E+00  0.00000000000E+00 -0.31906232177E+03  0.33167686682E+03  0.90602311275E+02 0.  0.
          2    1    3    3  502    0  0.14936268249E+02 -0.38244712642E+02 -0.89453428913E+02  0.98425942204E+02  0.00000000000E+00 0. -1.
         -2    1    3    3    0  502 -0.14936268249E+02  0.38244712642E+02 -0.22960889286E+03  0.23325092462E+03  0.00000000000E+00 0.  1.
<mgrwt>
<rscale>  0 0.90602311E+02</rscale>
<asrwt>0</asrwt>
<pdfrwt beam="2">  1        2 0.50056861E-01 0.90602311E+02</pdfrwt>
<pdfrwt beam="1">  1       -2 0.97034961E-03 0.90602311E+02</pdfrwt>
<totfact> 0.18829958E+05</totfact>
</mgrwt>
</event>
<event>
 5    1  0.4023633E+001  0.9205522E+02  0.7546771E-02  0.1297950E+00
          1   -1    0    0  501    0  0.00000000000E+00  0.00000000000E+00  0.28930616677E+02  0.28930616677E+02  0.00000000000E+00 0. -1.
         -1   -1    0    0    0  501 -0.00000000000E+00 -0.00000000000E+00 -0.73228340269E+02  0.73228340269E+02  0.00000000000E+00 0.  1.
         23    2    1    2    0    0  0.00000000000E+00  0.00000000000E+00 -0.44297723592E+02  0.10215895695E+03  0.92055223475E+02 0.  0.
          2    1    3    3  502    0 -0.73296869737E+01  0.38715038271E+02  0.42522282287E+01  0.39631552384E+02  0.00000000000E+00 0. -1.
         -2    1    3    3    0  502  0.73296869737E+01 -0.38715038271E+02 -0.48549951821E+02  0.62527404562E+02  0.00000000000E+00 0.  1.
<mgrwt>
<rscale>  0 0.92055223E+02</rscale>
<asrwt>0</asrwt>
<pdfrwt beam="1">  1        1 0.44508641E-02 0.92055223E+02</pdfrwt>
<pdfrwt beam="2">  1       -1 0.11265898E-01 0.92055223E+02</pdfrwt>
<totfact> 0.83826552E+04</totfact>
</mgrwt>
</event>
<event>
 5    1  0.4023633E+001  0.9124530E+02  0.7546771E-02  0.1299864E+00
          3   -1    0    0  501    0  0.00000000000E+00  0.00000000000E+00  0.57861633092E+03  0.57861633092E+03  0.00000000000E+00 0. -1.
         -3   -1    0    0    0  501 -0.00000000000E+00 -0.00000000000E+00 -0.35972477268E+01  0.35972477268E+01  0.00000000000E+00 0.  1.
         23    2    1    2    0    0  0.00000000000E+00  0.00000000000E+00  0.57501908320E+03  0.58221357865E+03  0.91245301930E+02 0.  0.
          2    1    3    3  502    0  0.43036405486E+01 -0.39333038150E+02  0.43242665412E+03  0.43423314061E+03  0.00000000000E+00 0. -1.
         -2    1    3    3    0  502 -0.43036405486E+01  0.39333038150E+02  0.14259242908E+03  0.14798043804E+03  0.00000000000E+00 0.  1.
<mgrwt>
<rscale>  0 0.91245302E+02</rscale>
<asrwt>0</asrwt>
<pdfrwt beam="1">  1        3 0.89017823E-01 0.91245302E+02</pdfrwt>
<pdfrwt beam="2">  1       -3 0.55342319E-03 0.91245302E+02</pdfrwt>
<totfact> 0.16052161E+04</totfact>
</mgrwt>
</event>
<event>
 5    1  0.4023633E+001  0.8880948E+02  0.7546771E-02  0.1305761E+00
         -1   -1    0    0    0  501 -0.00000000000E+00  0.00000000000E+00  0.92698784240E+02  0.92698784240E+02  0.00000000000E+00 0.  1.
          1   -1    0    0  501    0  0.00000000000E+00 -0.00000000000E+00 -0.21270838599E+02  0.21270838599E+02  0.00000000000E+00 0. -1.
         23    2    1    2    0    0  0.00000000000E+00  0.00000000000E+00  0.71427945640E+02  0.11396962284E+03  0.88809478726E+02 0.  0.
          2    1    3    3  502    0 -0.21145395243E+02 -0.37374202319E+02  0.21205128177E+02  0.47891713270E+02  0.00000000000E+00 0. -1.
         -2    1    3    3    0  502  0.21145395243E+02  0.37374202319E+02  0.50222817464E+02  0.66077909569E+02  0.00000000000E+00 0.  1.
<mgrwt>
<rscale>  0 0.88809479E+02</rscale>
<asrwt>0</asrwt>
<pdfrwt beam="2">  1        1 0.32724368E-02 0.88809479E+02</pdfrwt>
<pdfrwt beam="1">  1       -1 0.14261351E-01 0.88809479E+02</pdfrwt>
<totfact> 0.88270081E+04</totfact>
</mgrwt>
</event>
<event>
 5    1  0.4023633E+001  0.9216817E+02  0.7546771E-02  0.1297684E+00
          4   -1    0    0  501    0  0.00000000000E+00  0.00000000000E+00  0.27321300480E+02  0.27321300480E+02  0.00000000000E+00 0. -1.
         -4   -1    0    0    0  501 -0.00000000000E+00 -0.00000000000E+00 -0.77732134644E+02  0.77732134644E+02  0.00000000000E+00 0.  1.
         23    2    1    2    0    0  0.00000000000E+00  0.00000000000E+00 -0.50410834164E+02  0.10505343512E+03  0.92168172546E+02 0.  0.
          2    1    3    3  502    0 -0.29850514168E+02 -0.35093075070E+02 -0.23974698541E+02  0.51936146219E+02  0.00000000000E+00 0. -1.
         -2    1    3    3    0  502  0.29850514168E+02  0.35093075070E+02 -0.26436135623E+02  0.53117288906E+02  0.00000000000E+00 0.  1.
<mgrwt>
<rscale>  0 0.92168173E+02</rscale>
<asrwt>0</asrwt>
<pdfrwt beam="1">  1        4 0.42032771E-02 0.92168173E+02</pdfrwt>
<pdfrwt beam="2">  1       -4 0.11958790E-01 0.92168173E+02</pdfrwt>
<totfact> 0.25392481E+04</totfact>
</mgrwt>
</event>
<event>
 5    1  0.4023633E+001  0.1100518E+03  0.7546771E-02  0.1260474E+00
         -3   -1    0    0    0  501 -0.00000000000E+00  0.00000000000E+00  0.35014826724E+03  0.35014826724E+03  0.00000000000E+00 0.  1.
          3   -1    0    0  501    0  0.00000000000E+00 -0.00000000000E+00 -0.86473295658E+01  0.86473295658E+01  0.00000000000E+00 0. -1.
         23    2    1    2    0    0  0.00000000000E+00  0.00000000000E+00  0.34150093768E+03  0.35879559681E+03  0.11005175989E+03 0.  0.
          2    1    3    3  502    0  0.92560234623E+01  0.29984544736E+02  0.23385252757E+02  0.39135877911E+02  0.00000000000E+00 0. -1.
         -2    1    3    3    0  502 -0.92560234623E+01 -0.29984544736E+02  0.31811568492E+03  0.31965971890E+03  0.00000000000E+00 0.  1.
<mgrwt>
<rscale>  0 0.11005176E+03</rscale>
<asrwt>0</asrwt>
<pdfrwt beam="2">  1        3 0.13303587E-02 0.11005176E+03</pdfrwt>
<pdfrwt beam="1">  1       -3 0.53868953E-01 0.11005176E+03</pdfrwt>
<totfact> 0.13162296E+04</totfact>
</mgrwt>
</event>
<event>
 5    1  0.4023633E+001  0.9560150E+02  0.7546771E-02  0.1289827E+00
          2   -1    0    0  501    0  0.00000000000E+00  0.00000000000E+00  0.14177967436E+04  0.14177967436E+04  0.00000000000E+00 0. -1.
         -2   -1    0    0    0  501 -0.00000000000E+00 -0.00000000000E+00 -0.16115932465E+01  0.16115932465E+01  0.00000000000E+00 0.  1.
         23    2    1    2    0    0  0.00000000000E+00  0.00000000000E+00  0.14161851503E+04  0.14194083368E+04  0.95601499087E+02 0.  0.
          2    1    3    3  502    0  0.31928805282E+02 -0.25330572233E+02  0.10789219192E+04  0.10796914347E+04  0.00000000000E+00 0. -1.
         -2    1    3    3    0  502 -0.31928805282E+02  0.25330572233E+02  0.33726323115E+03  0.33971690211E+03  0.00000000000E+00 0.  1.
<mgrwt>
<rscale>  0 0.95601499E+02</rscale>
<asrwt>0</asrwt>
<pdfrwt beam="1">  1        2 0.21812158E+00 0.95601499E+02</pdfrwt>
<pdfrwt beam="2">  1       -2 0.24793856E-03 0.95601499E+02</pdfrwt>
<totfact> 0.21223079E+05</totfact>
</mgrwt>
</event>
<event>
 5    1  0.4023633E+001  0.9361736E+02  0.7546771E-02  0.1294321E+00
          2   -1    0    0  501    0  0.00000000000E+00  0.00000000000E+00  0.53264926951E+01  0.53264926951E+01  0.00000000000E+00 0. -1.
         -2   -1    0    0    0  501 -0.00000000000E+00 -0.00000000000E+00 -0.41134996583E+03  0.41134996583E+03  0.00000000000E+00 0.  1.
         23    2    1    2    0    0  0.00000000000E+00  0.00000000000E+00 -0.40602347314E+03  0.41667645853E+03  0.93617361384E+02 0.  0.
          2    1    3    3  502    0  0.25610558351E+02  0.31022653335E+02 -0.96493509350E+02  0.10454330713E+03  0.00000000000E+00 0. -1.
         -2    1    3    3    0  502 -0.25610558351E+02 -0.31022653335E+02 -0.30952996379E+03  0.31213315140E+03  0.00000000000E+00 0.  1.
<mgrwt>
<rscale>  0 0.93617361E+02</rscale>
<asrwt>0</asrwt>
<pdfrwt beam="1">  1        2 0.81946042E-03 0.93617361E+02</pdfrwt>
<pdfrwt beam="2">  1       -2 0.63284610E-01 0.93617361E+02</pdfrwt>
<totfact> 0.39116010E+04</totfact>
</mgrwt>
</event>
<event>
 5    1  0.4023633E+001  0.9105123E+02  0.7546771E-02  0.1300326E+00
         -1   -1    0    0    0  501 -0.00000000000E+00  0.00000000000E+00  0.16653366445E+02  0.16653366445E+02  0.00000000000E+00 0.  1.
          1   -1    0    0  501    0  0.00000000000E+00 -0.00000000000E+00 -0.12445422470E+03  0.12445422470E+03  0.00000000000E+00 0. -1.
         23    2    1    2    0    0  0.00000000000E+00  0.00000000000E+00 -0.10780085825E+03  0.14110759114E+03  0.91051234139E+02 0.  0.
          2    1    3    3  502    0  0.68752789619E+01 -0.20925007152E+02 -0.11564737021E+03  0.11772612123E+03  0.00000000000E+00 0. -1.
         -2    1    3    3    0  502 -0.68752789619E+01  0.20925007152E+02  0.78465119563E+01  0.23381469907E+02  0.00000000000E+00 0.  1.
<mgrwt>
<rscale>  0 0.91051234E+02</rscale>
<asrwt>0</asrwt>
<pdfrwt beam="2">  1        1 0.19146803E-01 0.91051234E+02</pdfrwt>
<pdfrwt beam="1">  1       -1 0.25620565E-02 0.91051234E+02</pdfrwt>
<totfact> 0.10883382E+05</totfact>
</mgrwt>
</event>
<event>
 5    1  0.4023633E+001  0.7795643E+02  0.7546771E-02  0.1334953E+00
          1   -1    0    0  501    0  0.00000000000E+00  0.00000000000E+00  0.22927328061E+03  0.22927328061E+03  0.00000000000E+00 0. -1.
         -1   -1    0    0    0  501 -0.00000000000E+00 -0.00000000000E+00 -0.66265957409E+01  0.66265957409E+01  0.00000000000E+00 0.  1.
         23    2    1    2    0    0  0.00000000000E+00  0.00000000000E+00  0.22264668487E+03  0.23589987635E+03  0.77956432571E+02 0.  0.
          2    1    3    3  502    0 -0.23628805014E+02 -0.25710319078E+02  0.16373256612E+03  0.16741473693E+03  0.00000000000E+00 0. -1.
         -2    1    3    3    0  502  0.23628805014E+02  0.25710319078E+02  0.58914118754E+02  0.68485139424E+02  0.00000000000E+00 0.  1.
<mgrwt>
<rscale>  0 0.77956433E+02</rscale>
<asrwt>0</asrwt>
<pdfrwt beam="1">  1        1 0.35272806E-01 0.77956433E+02</pdfrwt>
<pdfrwt beam="2">  1       -1 0.10194764E-02 0.77956433E+02</pdfrwt>
<totfact> 0.18422741E+05</totfact>
</mgrwt>
</event>
<event>
 5    1  0.4023633E+001  0.8720599E+02  0.7546771E-02  0.1309762E+00
         -1   -1    0    0    0  501 -0.00000000000E+00  0.00000000000E+00  0.10393475779E+03  0.10393475779E+03  0.00000000000E+00 0.  1.
          1   -1    0    0  501    0  0.00000000000E+00 -0.00000000000E+00 -0.18292449948E+02  0.18292449948E+02  0.00000000000E+00 0. -1.
         23    2    1    2    0    0  0.00000000000E+00  0.00000000000E+00  0.85642307843E+02  0.12222720774E+03  0.87205994169E+02 0.  0.
          2    1    3    3  502    0  0.24793942729E+02 -0.21784268258E+02  0.28837200967E+01  0.33130194403E+02  0.00000000000E+00 0. -1.
         -2    1    3    3    0  502 -0.24793942729E+02  0.21784268258E+02  0.82758587747E+02  0.89097013336E+02  0.00000000000E+00 0.  1.
<mgrwt>
<rscale>  0 0.87205994E+02</rscale>
<asrwt>0</asrwt>
<pdfrwt beam="2">  1        1 0.28142231E-02 0.87205994E+02</pdfrwt>
<pdfrwt beam="1">  1       -1 0.15989962E-01 0.87205994E+02</pdfrwt>
<totfact> 0.90590194E+04</totfact>
</mgrwt>
</event>
<event>
 5    1  0.4023633E+001  0.9011669E+02  0.7546771E-02  0.1302569E+00
          1   -1    0    0  501    0  0.00000000000E+00  0.00000000000E+00  0.12375907104E+02  0.12375907104E+02  0.00000000000E+00 0. -1.
         -1   -1    0    0    0  501 -0.00000000000E+00 -0.00000000000E+00 -0.16404895264E+03  0.16404895264E+03  0.00000000000E+00 0.  1.
         23    2    1    2    0    0  0.00000000000E+00  0.00000000000E+00 -0.15167304554E+03  0.17642485975E+03  0.90116693202E+02 0.  0.
          2    1    3    3  502    0  0.27896647550E+02  0.14044075533E+01 -0.14505464929E+03  0.14771948614E+03  0.00000000000E+00 0.  1.
         -2    1    3    3    0  502 -0.27896647550E+02 -0.14044075533E+01 -0.66183962523E+01  0.28705373609E+02  0.00000000000E+00 0. -1.
<mgrwt>
<rscale>  0 0.90116693E+02</rscale>
<asrwt>0</asrwt>
<pdfrwt beam="1">  1        1 0.19039858E-02 0.90116693E+02</pdfrwt>
<pdfrwt beam="2">  1       -1 0.25238299E-01 0.90116693E+02</pdfrwt>
<totfact> 0.75447617E+04</totfact>
</mgrwt>
</event>
<event>
 5    1  0.4023633E+001  0.8857923E+02  0.7546771E-02  0.1306329E+00
         -1   -1    0    0    0  501 -0.00000000000E+00  0.00000000000E+00  0.52263787560E+02  0.52263787560E+02  0.00000000000E+00 0.  1.
          1   -1    0    0  501    0  0.00000000000E+00 -0.00000000000E+00 -0.37532104829E+02  0.37532104829E+02  0.00000000000E+00 0. -1.
         23    2    1    2    0    0  0.00000000000E+00  0.00000000000E+00  0.14731682731E+02  0.89795892390E+02  0.88579229021E+02 0.  0.
          2    1    3    3  502    0 -0.37281219385E+02 -0.23908573751E+02  0.76156728004E+01  0.44938932896E+02  0.00000000000E+00 0. -1.
         -2    1    3    3    0  502  0.37281219385E+02  0.23908573751E+02  0.71160099303E+01  0.44856959493E+02  0.00000000000E+00 0.  1.
<mgrwt>
<rscale>  0 0.88579229E+02</rscale>
<asrwt>0</asrwt>
<pdfrwt beam="2">  1        1 0.57741700E-02 0.88579229E+02</pdfrwt>
<pdfrwt beam="1">  1       -1 0.80405827E-02 0.88579229E+02</pdfrwt>
<totfact> 0.97424149E+04</totfact>
</mgrwt>
</event>
<event>
 5    1  0.4023633E+001  0.9224173E+02  0.7546771E-02  0.1297512E+00
          1   -1    0    0  501    0  0.00000000000E+00  0.00000000000E+00  0.74226335722E+02  0.74226335722E+02  0.00000000000E+00 0. -1.
         -1   -1    0    0    0  501 -0.00000000000E+00 -0.00000000000E+00 -0.28657407983E+02  0.28657407983E+02  0.00000000000E+00 0.  1.
         23    2    1    2    0    0  0.00000000000E+00  0.00000000000E+00  0.45568927739E+02  0.10288374371E+03  0.92241734283E+02 0.  0.
          2    1    3    3  502    0 -0.71807098752E+01  0.42546273029E+02  0.40954620281E+02  0.59489737479E+02  0.00000000000E+00 0. -1.
         -2    1    3    3    0  502  0.71807098752E+01 -0.42546273029E+02  0.46143074586E+01  0.43394006226E+02  0.00000000000E+00 0.  1.
<mgrwt>
<rscale>  0 0.92241734E+02</rscale>
<asrwt>0</asrwt>
<pdfrwt beam="1">  1        1 0.11419436E-01 0.92241734E+02</pdfrwt>
<pdfrwt beam="2">  1       -1 0.44088320E-02 0.92241734E+02</pdfrwt>
<totfact> 0.96430922E+04</totfact>
</mgrwt>
</event>
<event>
 5    1  0.4023633E+001  0.9141246E+02  0.7546771E-02  0.1299467E+00
         -1   -1    0    0    0  501 -0.00000000000E+00  0.00000000000E+00  0.68595928334E+01  0.68595928334E+01  0.00000000000E+00 0.  1.
          1   -1    0    0  501    0  0.00000000000E+00 -0.00000000000E+00 -0.30454568592E+03  0.30454568592E+03  0.00000000000E+00 0. -1.
         23    2    1    2    0    0  0.00000000000E+00  0.00000000000E+00 -0.29768609309E+03  0.31140527876E+03  0.91412458770E+02 0.  0.
          2    1    3    3  502    0 -0.35225975085E+02 -0.25262055653E+02 -0.19821149611E+03  0.20289612605E+03  0.00000000000E+00 0. -1.
         -2    1    3    3    0  502  0.35225975085E+02  0.25262055653E+02 -0.99474596981E+02  0.10850915271E+03  0.00000000000E+00 0.  1.
<mgrwt>
<rscale>  0 0.91412459E+02</rscale>
<asrwt>0</asrwt>
<pdfrwt beam="2">  1        1 0.46853172E-01 0.91412459E+02</pdfrwt>
<pdfrwt beam="1">  1       -1 0.10553222E-02 0.91412459E+02</pdfrwt>
<totfact> 0.12760784E+05</totfact>
</mgrwt>
</event>
<event>
 5    1  0.4023633E+001  0.8846409E+02  0.7546771E-02  0.1306614E+00
         -2   -1    0    0    0  501 -0.00000000000E+00  0.00000000000E+00  0.57848627082E+02  0.57848627082E+02  0.00000000000E+00 0.  1.
          2   -1    0    0  501    0  0.00000000000E+00 -0.00000000000E+00 -0.33820572704E+02  0.33820572704E+02  0.00000000000E+00 0. -1.
         23    2    1    2    0    0  0.00000000000E+00  0.00000000000E+00  0.24028054378E+02  0.91669199786E+02  0.88464087585E+02 0.  0.
          2    1    3    3  502    0 -0.29506207548E+02  0.22618776407E+02 -0.12817665363E+02  0.39325791478E+02  0.00000000000E+00 0. -1.
         -2    1    3    3    0  502  0.29506207548E+02 -0.22618776407E+02  0.36845719741E+02  0.52343408308E+02  0.00000000000E+00 0.  1.
<mgrwt>
<rscale>  0 0.88464088E+02</rscale>
<asrwt>0</asrwt>
<pdfrwt beam="2">  1        2 0.52031650E-02 0.88464088E+02</pdfrwt>
<pdfrwt beam="1">  1       -2 0.88997888E-02 0.88464088E+02</pdfrwt>
<totfact> 0.99745811E+04</totfact>
</mgrwt>
</event>
<event>
 5    1  0.4023633E+001  0.8982498E+02  0.7546771E-02  0.1303276E+00
         -2   -1    0    0    0  501 -0.00000000000E+00  0.00000000000E+00  0.32423795369E+01  0.32423795369E+01  0.00000000000E+00 0.  1.
          2   -1    0    0  501    0  0.00000000000E+00 -0.00000000000E+00 -0.62211463407E+03  0.62211463407E+03  0.00000000000E+00 0. -1.
         23    2    1    2    0    0  0.00000000000E+00  0.00000000000E+00 -0.61887225454E+03  0.62535701361E+03  0.89824980025E+02 0.  0.
          2    1    3    3  502    0 -0.23734535461E+02 -0.23893474719E+02 -0.51630159280E+03  0.51739884135E+03  0.00000000000E+00 0. -1.
         -2    1    3    3    0  502  0.23734535461E+02  0.23893474719E+02 -0.10257066174E+03  0.10795817226E+03  0.00000000000E+00 0.  1.
<mgrwt>
<rscale>  0 0.89824980E+02</rscale>
<asrwt>0</asrwt>
<pdfrwt beam="2">  1        2 0.95709862E-01 0.89824980E+02</pdfrwt>
<pdfrwt beam="1">  1       -2 0.49882804E-03 0.89824980E+02</pdfrwt>
<totfact> 0.23940472E+05</totfact>
</mgrwt>
</event>
<event>
 5    1  0.4023633E+001  0.9129398E+02  0.7546771E-02  0.1299748E+00
         -1   -1    0    0    0  501 -0.00000000000E+00  0.00000000000E+00  0.40789472811E+02  0.40789472811E+02  0.00000000000E+00 0.  1.
          1   -1    0    0  501    0  0.00000000000E+00 -0.00000000000E+00 -0.51082972822E+02  0.51082972822E+02  0.00000000000E+00 0. -1.
         23    2    1    2    0    0  0.00000000000E+00  0.00000000000E+00 -0.10293500011E+02  0.91872445633E+02  0.91293976384E+02 0.  0.
          2    1    3    3  502    0 -0.19104732087E+02  0.23915307198E+02  0.28930996450E+02  0.42118110856E+02  0.00000000000E+00 0.  1.
         -2    1    3    3    0  502  0.19104732087E+02 -0.23915307198E+02 -0.39224496461E+02  0.49754334777E+02  0.00000000000E+00 0. -1.
<mgrwt>
<rscale>  0 0.91293976E+02</rscale>
<asrwt>0</asrwt>
<pdfrwt beam="2">  1        1 0.78589188E-02 0.91293976E+02</pdfrwt>
<pdfrwt beam="1">  1       -1 0.62753036E-02 0.91293976E+02</pdfrwt>
<totfact> 0.93728924E+04</totfact>
</mgrwt>
</event>
<event>
 5    1  0.4023633E+001  0.8996799E+02  0.7546771E-02  0.1302929E+00
         -1   -1    0    0    0  501 -0.00000000000E+00  0.00000000000E+00  0.65343339855E+01  0.65343339855E+01  0.00000000000E+00 0.  1.
          1   -1    0    0  501    0  0.00000000000E+00 -0.00000000000E+00 -0.30968110647E+03  0.30968110647E+03  0.00000000000E+00 0. -1.
         23    2    1    2    0    0  0.00000000000E+00  0.00000000000E+00 -0.30314677248E+03  0.31621544045E+03  0.89967989388E+02 0.  0.
          2    1    3    3  502    0  0.12151085415E+02 -0.32099407739E+02 -0.25377596640E+03  0.25608643458E+03  0.00000000000E+00 0. -1.
         -2    1    3    3    0  502 -0.12151085415E+02  0.32099407739E+02 -0.49370806080E+02  0.60129005871E+02  0.00000000000E+00 0.  1.
<mgrwt>
<rscale>  0 0.89967989E+02</rscale>
<asrwt>0</asrwt>
<pdfrwt beam="2">  1        1 0.47643252E-01 0.89967989E+02</pdfrwt>
<pdfrwt beam="1">  1       -1 0.10052820E-02 0.89967989E+02</pdfrwt>
<totfact> 0.13355518E+05</totfact>
</mgrwt>
</event>
<event>
 5    1  0.4023633E+001  0.8446610E+02  0.7546771E-02  0.1316835E+00
         -2   -1    0    0    0  501 -0.00000000000E+00  0.00000000000E+00  0.94034904378E+00  0.94034904378E+00  0.00000000000E+00 0. -1.
          2   -1    0    0  501    0  0.00000000000E+00 -0.00000000000E+00 -0.18967748667E+04  0.18967748667E+04  0.00000000000E+00 0.  1.
         23    2    1    2    0    0  0.00000000000E+00  0.00000000000E+00 -0.18958345176E+04  0.18977152157E+04  0.84466098102E+02 0.  0.
          2    1    3    3  502    0  0.41856876338E+02 -0.33121255781E+01 -0.10500432919E+04  0.10508824306E+04  0.00000000000E+00 0. -1.
         -2    1    3    3    0  502 -0.41856876338E+02  0.33121255781E+01 -0.84579122577E+03  0.84683278507E+03  0.00000000000E+00 0.  1.
<mgrwt>
<rscale>  0 0.84466098E+02</rscale>
<asrwt>0</asrwt>
<pdfrwt beam="2">  1        2 0.29180829E+00 0.84466098E+02</pdfrwt>
<pdfrwt beam="1">  1       -2 0.14467068E-03 0.84466098E+02</pdfrwt>
<totfact> 0.25202987E+05</totfact>
</mgrwt>
</event>
<event>
 5    1  0.4023633E+001  0.9076147E+02  0.7546771E-02  0.1301018E+00
          2   -1    0    0  501    0  0.00000000000E+00  0.00000000000E+00  0.65482644269E+03  0.65482644269E+03  0.00000000000E+00 0. -1.
         -2   -1    0    0    0  501 -0.00000000000E+00 -0.00000000000E+00 -0.31449725851E+01  0.31449725851E+01  0.00000000000E+00 0.  1.
         23    2    1    2    0    0  0.00000000000E+00  0.00000000000E+00  0.65168147010E+03  0.65797141527E+03  0.90761472228E+02 0.  0.
          2    1    3    3  502    0  0.15335986163E+02  0.42702671129E+02  0.33190873905E+03  0.33499570393E+03  0.00000000000E+00 0. -1.
         -2    1    3    3    0  502 -0.15335986163E+02 -0.42702671129E+02  0.31977273105E+03  0.32297571134E+03  0.00000000000E+00 0.  1.
<mgrwt>
<rscale>  0 0.90761472E+02</rscale>
<asrwt>0</asrwt>
<pdfrwt beam="1">  1        2 0.10074242E+00 0.90761472E+02</pdfrwt>
<pdfrwt beam="2">  1       -2 0.48384246E-03 0.90761472E+02</pdfrwt>
<totfact> 0.23612680E+05</totfact>
</mgrwt>
</event>
<event>
 5    1  0.4023633E+001  0.8994816E+02  0.7546771E-02  0.1302977E+00
          1   -1    0    0  501    0  0.00000000000E+00  0.00000000000E+00  0.10327751121E+04  0.10327751121E+04  0.00000000000E+00 0. -1.
         -1   -1    0    0    0  501 -0.00000000000E+00 -0.00000000000E+00 -0.19584783821E+01  0.19584783821E+01  0.00000000000E+00 0.  1.
         23    2    1    2    0    0  0.00000000000E+00  0.00000000000E+00  0.10308166337E+04  0.10347335905E+04  0.89948156860E+02 0.  0.
          2    1    3    3  502    0 -0.29193233731E+02 -0.73434040389E+01  0.89979214570E+03  0.90029554921E+03  0.00000000000E+00 0. -1.
         -2    1    3    3    0  502  0.29193233731E+02  0.73434040389E+01  0.13102448801E+03  0.13443804126E+03  0.00000000000E+00 0.  1.
<mgrwt>
<rscale>  0 0.89948157E+02</rscale>
<asrwt>0</asrwt>
<pdfrwt beam="1">  1        1 0.15888804E+00 0.89948157E+02</pdfrwt>
<pdfrwt beam="2">  1       -1 0.30130519E-03 0.89948157E+02</pdfrwt>
<totfact> 0.13970437E+05</totfact>
</mgrwt>
</event>
<event>
 5    1  0.4023633E+001  0.8324702E+02  0.7546771E-02  0.1320081E+00
         -1   -1    0    0    0  501 -0.00000000000E+00  0.00000000000E+00  0.22701809253E+03  0.22701809253E+03  0.00000000000E+00 0.  1.
          1   -1    0    0  501    0  0.00000000000E+00 -0.00000000000E+00 -0.76316230847E+01  0.76316230847E+01  0.00000000000E+00 0. -1.
         23    2    1    2    0    0  0.00000000000E+00  0.00000000000E+00  0.21938646945E+03  0.23464971562E+03  0.83247018340E+02 0.  0.
          2    1    3    3  502    0 -0.39504396423E+02  0.21738561062E+01  0.73246294325E+02  0.83248679386E+02  0.00000000000E+00 0. -1.
         -2    1    3    3    0  502  0.39504396423E+02 -0.21738561062E+01  0.14614017512E+03  0.15140103623E+03  0.00000000000E+00 0.  1.
<mgrwt>
<rscale>  0 0.83247018E+02</rscale>
<asrwt>0</asrwt>
<pdfrwt beam="2">  1        1 0.11740960E-02 0.83247018E+02</pdfrwt>
<pdfrwt beam="1">  1       -1 0.34925855E-01 0.83247018E+02</pdfrwt>
<totfact> 0.84673111E+04</totfact>
</mgrwt>
</event>
<event>
 5    1  0.4023633E+001  0.9161774E+02  0.7546771E-02  0.1298981E+00
          1   -1    0    0  501    0  0.00000000000E+00  0.00000000000E+00  0.13205538811E+03  0.13205538811E+03  0.00000000000E+00 0. -1.
         -1   -1    0    0    0  501 -0.00000000000E+00 -0.00000000000E+00 -0.15890700837E+02  0.15890700837E+02  0.00000000000E+00 0.  1.
         23    2    1    2    0    0  0.00000000000E+00  0.00000000000E+00  0.11616468728E+03  0.14794608895E+03  0.91617742088E+02 0.  0.
          2    1    3    3  502    0 -0.25906765076E+02  0.25314814773E+02  0.12796745370E+02  0.38415582981E+02  0.00000000000E+00 0.  1.
         -2    1    3    3    0  502  0.25906765076E+02 -0.25314814773E+02  0.10336794191E+03  0.10953050597E+03  0.00000000000E+00 0. -1.
<mgrwt>
<rscale>  0 0.91617742E+02</rscale>
<asrwt>0</asrwt>
<pdfrwt beam="1">  1        1 0.20316213E-01 0.91617742E+02</pdfrwt>
<pdfrwt beam="2">  1       -1 0.24447233E-02 0.91617742E+02</pdfrwt>
<totfact> 0.10815044E+05</totfact>
</mgrwt>
</event>
<event>
 5    1  0.4023633E+001  0.8534589E+02  0.7546771E-02  0.1314530E+00
         -1   -1    0    0    0  501 -0.00000000000E+00  0.00000000000E+00  0.19185695428E+01  0.19185695428E+01  0.00000000000E+00 0. -1.
          1   -1    0    0  501    0  0.00000000000E+00 -0.00000000000E+00 -0.94913434500E+03  0.94913434500E+03  0.00000000000E+00 0.  1.
         23    2    1    2    0    0  0.00000000000E+00  0.00000000000E+00 -0.94721577545E+03  0.95105291454E+03  0.85345890266E+02 0.  0.
          2    1    3    3  502    0  0.14451080950E+02 -0.31334348360E+02 -0.75337553124E+03  0.75416534407E+03  0.00000000000E+00 0.  1.
         -2    1    3    3    0  502 -0.14451080950E+02  0.31334348360E+02 -0.19384024421E+03  0.19688757047E+03  0.00000000000E+00 0. -1.
<mgrwt>
<rscale>  0 0.85345890E+02</rscale>
<asrwt>0</asrwt>
<pdfrwt beam="2">  1        1 0.14602035E+00 0.85345890E+02</pdfrwt>
<pdfrwt beam="1">  1       -1 0.29516518E-03 0.85345890E+02</pdfrwt>
<totfact> 0.16394366E+05</totfact>
</mgrwt>
</event>
<event>
 5    1  0.4023633E+001  0.8889790E+02  0.7546771E-02  0.1305543E+00
          2   -1    0    0  501    0  0.00000000000E+00  0.00000000000E+00  0.95860354571E+03  0.95860354571E+03  0.00000000000E+00 0. -1.
         -2   -1    0    0    0  501 -0.00000000000E+00 -0.00000000000E+00 -0.20610282012E+01  0.20610282012E+01  0.00000000000E+00 0.  1.
         23    2    1    2    0    0  0.00000000000E+00  0.00000000000E+00  0.95654251751E+03  0.96066457391E+03  0.88897895171E+02 0.  0.
          2    1    3    3  502    0  0.29853423706E+02  0.93625238351E+01  0.81945615525E+03  0.82005321421E+03  0.00000000000E+00 0. -1.
         -2    1    3    3    0  502 -0.29853423706E+02 -0.93625238351E+01  0.13708636226E+03  0.14061135970E+03  0.00000000000E+00 0.  1.
<mgrwt>
<rscale>  0 0.88897895E+02</rscale>
<asrwt>0</asrwt>
<pdfrwt beam="1">  1        2 0.14747711E+00 0.88897895E+02</pdfrwt>
<pdfrwt beam="2">  1       -2 0.31708203E-03 0.88897895E+02</pdfrwt>
<totfact> 0.26656626E+05</totfact>
</mgrwt>
</event>
<event>
 5    1  0.4023633E+001  0.9028289E+02  0.7546771E-02  0.1302168E+00
          1   -1    0    0  501    0  0.00000000000E+00  0.00000000000E+00  0.55104056425E+01  0.55104056425E+01  0.00000000000E+00 0. -1.
         -1   -1    0    0    0  501 -0.00000000000E+00 -0.00000000000E+00 -0.36980036724E+03  0.36980036724E+03  0.00000000000E+00 0.  1.
         23    2    1    2    0    0  0.00000000000E+00  0.00000000000E+00 -0.36428996160E+03  0.37531077289E+03  0.90282889415E+02 0.  0.
          2    1    3    3  502    0  0.17194348569E+02 -0.33394630539E+02 -0.78060549139E+02  0.86627341547E+02  0.00000000000E+00 0. -1.
         -2    1    3    3    0  502 -0.17194348569E+02  0.33394630539E+02 -0.28622941246E+03  0.28868343134E+03  0.00000000000E+00 0.  1.
<mgrwt>
<rscale>  0 0.90282889E+02</rscale>
<asrwt>0</asrwt>
<pdfrwt beam="1">  1        1 0.84775447E-03 0.90282889E+02</pdfrwt>
<pdfrwt beam="2">  1       -1 0.56892381E-01 0.90282889E+02</pdfrwt>
<totfact> 0.56817263E+04</totfact>
</mgrwt>
</event>
<event>
 5    1  0.4023633E+001  0.9513386E+02  0.7546771E-02  0.1290875E+00
         -4   -1    0    0    0  501 -0.00000000000E+00  0.00000000000E+00  0.29983310436E+02  0.29983310436E+02  0.00000000000E+00 0.  1.
          4   -1    0    0  501    0  0.00000000000E+00 -0.00000000000E+00 -0.75462407591E+02  0.75462407591E+02  0.00000000000E+00 0. -1.
         23    2    1    2    0    0  0.00000000000E+00  0.00000000000E+00 -0.45479097155E+02  0.10544571803E+03  0.95133859231E+02 0.  0.
          2    1    3    3  502    0 -0.13905704505E+02 -0.39242557427E+02  0.27598991720E+01  0.41724860391E+02  0.00000000000E+00 0.  1.
         -2    1    3    3    0  502  0.13905704505E+02  0.39242557427E+02 -0.48238996327E+02  0.63720857636E+02  0.00000000000E+00 0. -1.
<mgrwt>
<rscale>  0 0.95133859E+02</rscale>
<asrwt>0</asrwt>
<pdfrwt beam="2">  1        4 0.11609601E-01 0.95133859E+02</pdfrwt>
<pdfrwt beam="1">  1       -4 0.46128170E-02 0.95133859E+02</pdfrwt>
<totfact> 0.23273606E+04</totfact>
</mgrwt>
</event>
<event>
 5    1  0.4023633E+001  0.8871482E+02  0.7546771E-02  0.1305994E+00
         -4   -1    0    0    0  501 -0.00000000000E+00  0.00000000000E+00  0.10113939517E+03  0.10113939517E+03  0.00000000000E+00 0.  1.
          4   -1    0    0  501    0  0.00000000000E+00 -0.00000000000E+00 -0.19454137443E+02  0.19454137443E+02  0.00000000000E+00 0. -1.
         23    2    1    2    0    0  0.00000000000E+00  0.00000000000E+00  0.81685257727E+02  0.12059353261E+03  0.88714817128E+02 0.  0.
          2    1    3    3  502    0  0.36003227528E+01 -0.31777524334E+02 -0.94033565090E+00  0.31994649675E+02  0.00000000000E+00 0. -1.
         -2    1    3    3    0  502 -0.36003227528E+01  0.31777524334E+02  0.82625593378E+02  0.88598882938E+02  0.00000000000E+00 0.  1.
<mgrwt>
<rscale>  0 0.88714817E+02</rscale>
<asrwt>0</asrwt>
<pdfrwt beam="2">  1        4 0.29929443E-02 0.88714817E+02</pdfrwt>
<pdfrwt beam="1">  1       -4 0.15559907E-01 0.88714817E+02</pdfrwt>
<totfact> 0.27168999E+04</totfact>
</mgrwt>
</event>
<event>
 5    1  0.4023633E+001  0.9156619E+02  0.7546771E-02  0.1299103E+00
         -3   -1    0    0    0  501 -0.00000000000E+00  0.00000000000E+00  0.88019676940E+03  0.88019676940E+03  0.00000000000E+00 0.  1.
          3   -1    0    0  501    0  0.00000000000E+00 -0.00000000000E+00 -0.23813898884E+01  0.23813898884E+01  0.00000000000E+00 0. -1.
         23    2    1    2    0    0  0.00000000000E+00  0.00000000000E+00  0.87781537951E+03  0.88257815929E+03  0.91566187787E+02 0.  0.
          2    1    3    3  502    0  0.27312546465E+02  0.23823699189E+02  0.16927441050E+03  0.17311086011E+03  0.00000000000E+00 0. -1.
         -2    1    3    3    0  502 -0.27312546465E+02 -0.23823699189E+02  0.70854096901E+03  0.70946729918E+03  0.00000000000E+00 0.  1.
<mgrwt>
<rscale>  0 0.91566188E+02</rscale>
<asrwt>0</asrwt>
<pdfrwt beam="2">  1        3 0.36636838E-03 0.91566188E+02</pdfrwt>
<pdfrwt beam="1">  1       -3 0.13541463E+00 0.91566188E+02</pdfrwt>
<totfact> 0.11172554E+04</totfact>
</mgrwt>
</event>
<event>
 5    1  0.4023633E+001  0.9119247E+02  0.7546771E-02  0.1299989E+00
          1   -1    0    0  501    0  0.00000000000E+00  0.00000000000E+00  0.34954039941E+01  0.34954039941E+01  0.00000000000E+00 0. -1.
         -1   -1    0    0    0  501 -0.00000000000E+00 -0.00000000000E+00 -0.59478583169E+03  0.59478583169E+03  0.00000000000E+00 0.  1.
         23    2    1    2    0    0  0.00000000000E+00  0.00000000000E+00 -0.59129042770E+03  0.59828123569E+03  0.91192472753E+02 0.  0.
          2    1    3    3  502    0  0.27473887748E+02  0.95123744418E+01 -0.65207178562E+02  0.71395209304E+02  0.00000000000E+00 0.  1.
         -2    1    3    3    0  502 -0.27473887748E+02 -0.95123744418E+01 -0.52608324914E+03  0.52688602638E+03  0.00000000000E+00 0. -1.
<mgrwt>
<rscale>  0 0.91192473E+02</rscale>
<asrwt>0</asrwt>
<pdfrwt beam="1">  1        1 0.53775477E-03 0.91192473E+02</pdfrwt>
<pdfrwt beam="2">  1       -1 0.91505459E-01 0.91192473E+02</pdfrwt>
<totfact> 0.41862273E+04</totfact>
</mgrwt>
</event>
<event>
 5    1  0.4023633E+001  0.7681071E+02  0.7546771E-02  0.1338354E+00
         -3   -1    0    0    0  501 -0.00000000000E+00  0.00000000000E+00  0.84567889501E+02  0.84567889501E+02  0.00000000000E+00 0.  1.
          3   -1    0    0  501    0  0.00000000000E+00 -0.00000000000E+00 -0.17441267884E+02  0.17441267884E+02  0.00000000000E+00 0. -1.
         23    2    1    2    0    0  0.00000000000E+00  0.00000000000E+00  0.67126621617E+02  0.10200915738E+03  0.76810707981E+02 0.  0.
          2    1    3    3  502    0 -0.20711482616E+02  0.98449556514E+01 -0.73504485643E+01  0.24081481641E+02  0.00000000000E+00 0. -1.
         -2    1    3    3    0  502  0.20711482616E+02 -0.98449556514E+01  0.74477070181E+02  0.77927675743E+02  0.00000000000E+00 0.  1.
<mgrwt>
<rscale>  0 0.76810708E+02</rscale>
<asrwt>0</asrwt>
<pdfrwt beam="2">  1        3 0.26832720E-02 0.76810708E+02</pdfrwt>
<pdfrwt beam="1">  1       -3 0.13010444E-01 0.76810708E+02</pdfrwt>
<totfact> 0.54765643E+04</totfact>
</mgrwt>
</event>
<event>
 5    1  0.4023633E+001  0.9399959E+02  0.7546771E-02  0.1293445E+00
          2   -1    0    0  501    0  0.00000000000E+00  0.00000000000E+00  0.86013354780E+03  0.86013354780E+03  0.00000000000E+00 0. -1.
         -2   -1    0    0    0  501 -0.00000000000E+00 -0.00000000000E+00 -0.25681832496E+01  0.25681832496E+01  0.00000000000E+00 0.  1.
         23    2    1    2    0    0  0.00000000000E+00  0.00000000000E+00  0.85756536455E+03  0.86270173105E+03  0.93999586593E+02 0.  0.
          2    1    3    3  502    0 -0.34183293513E+02 -0.21416388097E+02  0.65015817828E+03  0.65140833279E+03  0.00000000000E+00 0. -1.
         -2    1    3    3    0  502  0.34183293513E+02  0.21416388097E+02  0.20740718626E+03  0.21129339826E+03  0.00000000000E+00 0.  1.
<mgrwt>
<rscale>  0 0.93999587E+02</rscale>
<asrwt>0</asrwt>
<pdfrwt beam="1">  1        2 0.13232801E+00 0.93999587E+02</pdfrwt>
<pdfrwt beam="2">  1       -2 0.39510580E-03 0.93999587E+02</pdfrwt>
<totfact> 0.22747830E+05</totfact>
</mgrwt>
</event>
<event>
 5    1  0.4023633E+001  0.9217344E+02  0.7546771E-02  0.1297672E+00
          1   -1    0    0  501    0  0.00000000000E+00  0.00000000000E+00  0.15561544721E+02  0.15561544721E+02  0.00000000000E+00 0. -1.
         -1   -1    0    0    0  501 -0.00000000000E+00 -0.00000000000E+00 -0.13648939158E+03  0.13648939158E+03  0.00000000000E+00 0.  1.
         23    2    1    2    0    0  0.00000000000E+00  0.00000000000E+00 -0.12092784686E+03  0.15205093630E+03  0.92173440231E+02 0.  0.
          2    1    3    3  502    0  0.23586965835E+02 -0.13024366377E+01  0.48147741183E+01  0.24108574166E+02  0.00000000000E+00 0. -1.
         -2    1    3    3    0  502 -0.23586965835E+02  0.13024366377E+01 -0.12574262097E+03  0.12794236213E+03  0.00000000000E+00 0.  1.
<mgrwt>
<rscale>  0 0.92173440E+02</rscale>
<asrwt>0</asrwt>
<pdfrwt beam="1">  1        1 0.23940838E-02 0.92173440E+02</pdfrwt>
<pdfrwt beam="2">  1       -1 0.20998368E-01 0.92173440E+02</pdfrwt>
<totfact> 0.74285536E+04</totfact>
</mgrwt>
</event>
<event>
 5    1  0.4023633E+001  0.8926865E+02  0.7546771E-02  0.1304632E+00
         -1   -1    0    0    0  501 -0.00000000000E+00  0.00000000000E+00  0.43309602990E+01  0.43309602990E+01  0.00000000000E+00 0.  1.
          1   -1    0    0  501    0  0.00000000000E+00 -0.00000000000E+00 -0.45999569707E+03  0.45999569707E+03  0.00000000000E+00 0. -1.
         23    2    1    2    0    0  0.00000000000E+00  0.00000000000E+00 -0.45566473677E+03  0.46432665736E+03  0.89268652991E+02 0.  0.
          2    1    3    3  502    0 -0.24860037289E+02  0.28348439616E+02 -0.35207716126E+03  0.35409035989E+03  0.00000000000E+00 0. -1.
         -2    1    3    3    0  502  0.24860037289E+02 -0.28348439616E+02 -0.10358757550E+03  0.11023629748E+03  0.00000000000E+00 0.  1.
<mgrwt>
<rscale>  0 0.89268653E+02</rscale>
<asrwt>0</asrwt>
<pdfrwt beam="2">  1        1 0.70768547E-01 0.89268653E+02</pdfrwt>
<pdfrwt beam="1">  1       -1 0.66630179E-03 0.89268653E+02</pdfrwt>
<totfact> 0.14571926E+05</totfact>
</mgrwt>
</event>
<event>
 5    1  0.4023633E+001  0.9121862E+02  0.7546771E-02  0.1299927E+00
         -1   -1    0    0    0  501 -0.00000000000E+00  0.00000000000E+00  0.62154186525E+02  0.62154186525E+02  0.00000000000E+00 0.  1.
          1   -1    0    0  501    0  0.00000000000E+00 -0.00000000000E+00 -0.33468526943E+02  0.33468526943E+02  0.00000000000E+00 0. -1.
         23    2    1    2    0    0  0.00000000000E+00  0.00000000000E+00  0.28685659582E+02  0.95622713468E+02  0.91218617975E+02 0.  0.
          2    1    3    3  502    0 -0.20291151673E+02 -0.29766018119E+02 -0.14980231812E+02  0.39014792272E+02  0.00000000000E+00 0. -1.
         -2    1    3    3    0  502  0.20291151673E+02  0.29766018119E+02  0.43665891394E+02  0.56607921196E+02  0.00000000000E+00 0.  1.
<mgrwt>
<rscale>  0 0.91218618E+02</rscale>
<asrwt>0</asrwt>
<pdfrwt beam="2">  1        1 0.51490042E-02 0.91218618E+02</pdfrwt>
<pdfrwt beam="1">  1       -1 0.95621825E-02 0.91218618E+02</pdfrwt>
<totfact> 0.88090266E+04</totfact>
</mgrwt>
</event>
<event>
 5    1  0.4023633E+001  0.9105662E+02  0.7546771E-02  0.1300313E+00
          1   -1    0    0  501    0  0.00000000000E+00  0.00000000000E+00  0.27574467457E+03  0.27574467457E+03  0.00000000000E+00 0. -1.
         -1   -1    0    0    0  501 -0.00000000000E+00 -0.00000000000E+00 -0.75171962292E+01  0.75171962292E+01  0.00000000000E+00 0.  1.
         23    2    1    2    0    0  0.00000000000E+00  0.00000000000E+00  0.26822747834E+03  0.28326187080E+03  0.91056615969E+02 0.  0.
          2    1    3    3  502    0 -0.12332015750E+02  0.35149274382E+02  0.21554845852E+03  0.21874342979E+03  0.00000000000E+00 0. -1.
         -2    1    3    3    0  502  0.12332015750E+02 -0.35149274382E+02  0.52679019818E+02  0.64518441015E+02  0.00000000000E+00 0.  1.
<mgrwt>
<rscale>  0 0.91056616E+02</rscale>
<asrwt>0</asrwt>
<pdfrwt beam="1">  1        1 0.42422250E-01 0.91056616E+02</pdfrwt>
<pdfrwt beam="2">  1       -1 0.11564919E-02 0.91056616E+02</pdfrwt>
<totfact> 0.12650264E+05</totfact>
</mgrwt>
</event>
<event>
 5    1  0.4023633E+001  0.9378478E+02  0.7546771E-02  0.1293937E+00
         -2   -1    0    0    0  501 -0.00000000000E+00  0.00000000000E+00  0.51505718161E+03  0.51505718161E+03  0.00000000000E+00 0.  1.
          2   -1    0    0  501    0  0.00000000000E+00 -0.00000000000E+00 -0.42692272525E+01  0.42692272525E+01  0.00000000000E+00 0. -1.
         23    2    1    2    0    0  0.00000000000E+00  0.00000000000E+00  0.51078795435E+03  0.51932640886E+03  0.93784778217E+02 0.  0.
          2    1    3    3  502    0  0.22007047624E+02 -0.17575701484E+02  0.47782481290E+02  0.55465132706E+02  0.00000000000E+00 0. -1.
         -2    1    3    3    0  502 -0.22007047624E+02  0.17575701484E+02  0.46300547306E+03  0.46386127615E+03  0.00000000000E+00 0.  1.
<mgrwt>
<rscale>  0 0.93784778E+02</rscale>
<asrwt>0</asrwt>
<pdfrwt beam="2">  1        2 0.65680460E-03 0.93784778E+02</pdfrwt>
<pdfrwt beam="1">  1       -2 0.79239517E-01 0.93784778E+02</pdfrwt>
<totfact> 0.32966619E+04</totfact>
</mgrwt>
</event>
<event>
 5    1  0.4023633E+001  0.1053699E+03  0.7546771E-02  0.1269392E+00
         -3   -1    0    0    0  501 -0.00000000000E+00  0.00000000000E+00  0.19629527531E+02  0.19629527531E+02  0.00000000000E+00 0.  1.
          3   -1    0    0  501    0  0.00000000000E+00 -0.00000000000E+00 -0.14140463556E+03  0.14140463556E+03  0.00000000000E+00 0. -1.
         23    2    1    2    0    0  0.00000000000E+00  0.00000000000E+00 -0.12177510803E+03  0.16103416309E+03  0.10536994233E+03 0.  0.
          2    1    3    3  502    0  0.23776325832E+02 -0.19557106541E+02 -0.12622752422E+03  0.12992760275E+03  0.00000000000E+00 0. -1.
         -2    1    3    3    0  502 -0.23776325832E+02  0.19557106541E+02  0.44524161883E+01  0.31106560341E+02  0.00000000000E+00 0.  1.
<mgrwt>
<rscale>  0 0.10536994E+03</rscale>
<asrwt>0</asrwt>
<pdfrwt beam="2">  1        3 0.21754559E-01 0.10536994E+03</pdfrwt>
<pdfrwt beam="1">  1       -3 0.30199273E-02 0.10536994E+03</pdfrwt>
<totfact> 0.20642909E+04</totfact>
</mgrwt>
</event>
<event>
 5    1  0.4023633E+001  0.8741228E+02  0.7546771E-02  0.1309242E+00
         -2   -1    0    0    0  501 -0.00000000000E+00  0.00000000000E+00  0.18253991095E+02  0.18253991095E+02  0.00000000000E+00 0.  1.
          2   -1    0    0  501    0  0.00000000000E+00 -0.00000000000E+00 -0.10464706618E+03  0.10464706618E+03  0.00000000000E+00 0. -1.
         23    2    1    2    0    0  0.00000000000E+00  0.00000000000E+00 -0.86393075085E+02  0.12290105727E+03  0.87412278637E+02 0.  0.
          2    1    3    3  502    0 -0.29172652822E+02  0.27357865699E+02 -0.18412340224E+02  0.44028522128E+02  0.00000000000E+00 0.  1.
         -2    1    3    3    0  502  0.29172652822E+02 -0.27357865699E+02 -0.67980734861E+02  0.78872535147E+02  0.00000000000E+00 0. -1.
<mgrwt>
<rscale>  0 0.87412279E+02</rscale>
<asrwt>0</asrwt>
<pdfrwt beam="2">  1        2 0.16099549E-01 0.87412279E+02</pdfrwt>
<pdfrwt beam="1">  1       -2 0.28083063E-02 0.87412279E+02</pdfrwt>
<totfact> 0.13961581E+05</totfact>
</mgrwt>
</event>
<event>
 5    1  0.4023633E+001  0.9253430E+02  0.7546771E-02  0.1296828E+00
          3   -1    0    0  501    0  0.00000000000E+00  0.00000000000E+00  0.63868203343E+02  0.63868203343E+02  0.00000000000E+00 0. -1.
         -3   -1    0    0    0  501 -0.00000000000E+00 -0.00000000000E+00 -0.33516662179E+02  0.33516662179E+02  0.00000000000E+00 0.  1.
         23    2    1    2    0    0  0.00000000000E+00  0.00000000000E+00  0.30351541164E+02  0.97384865522E+02  0.92534296245E+02 0.  0.
          2    1    3    3  502    0  0.98256997537E+01  0.29949735250E+02  0.50820291807E+02  0.59801614331E+02  0.00000000000E+00 0. -1.
         -2    1    3    3    0  502 -0.98256997537E+01 -0.29949735250E+02 -0.20468750643E+02  0.37583251191E+02  0.00000000000E+00 0.  1.
<mgrwt>
<rscale>  0 0.92534296E+02</rscale>
<asrwt>0</asrwt>
<pdfrwt beam="1">  1        3 0.98258774E-02 0.92534296E+02</pdfrwt>
<pdfrwt beam="2">  1       -3 0.51564096E-02 0.92534296E+02</pdfrwt>
<totfact> 0.33487855E+04</totfact>
</mgrwt>
</event>
<event>
 5    1  0.4023633E+001  0.9111239E+02  0.7546771E-02  0.1300180E+00
          1   -1    0    0  501    0  0.00000000000E+00  0.00000000000E+00  0.91330881906E+03  0.91330881906E+03  0.00000000000E+00 0. -1.
         -1   -1    0    0    0  501 -0.00000000000E+00 -0.00000000000E+00 -0.22723603879E+01  0.22723603879E+01  0.00000000000E+00 0.  1.
         23    2    1    2    0    0  0.00000000000E+00  0.00000000000E+00  0.91103645867E+03  0.91558117945E+03  0.91112387354E+02 0.  0.
          2    1    3    3  502    0 -0.44880751811E+02 -0.11201644669E+01  0.53324657179E+03  0.53513310772E+03  0.00000000000E+00 0. -1.
         -2    1    3    3    0  502  0.44880751811E+02  0.11201644669E+01  0.37778988688E+03  0.38044807173E+03  0.00000000000E+00 0.  1.
<mgrwt>
<rscale>  0 0.91112387E+02</rscale>
<asrwt>0</asrwt>
<pdfrwt beam="1">  1        1 0.14050876E+00 0.91112387E+02</pdfrwt>
<pdfrwt beam="2">  1       -1 0.34959463E-03 0.91112387E+02</pdfrwt>
<totfact> 0.13907061E+05</totfact>
</mgrwt>
</event>
<event>
 5    1  0.4023633E+001  0.1021042E+03  0.7546771E-02  0.1275932E+00
         -2   -1    0    0    0  501 -0.00000000000E+00  0.00000000000E+00  0.10857607855E+02  0.10857607855E+02  0.00000000000E+00 0.  1.
          2   -1    0    0  501    0  0.00000000000E+00 -0.00000000000E+00 -0.24004522451E+03  0.24004522451E+03  0.00000000000E+00 0. -1.
         23    2    1    2    0    0  0.00000000000E+00  0.00000000000E+00 -0.22918761665E+03  0.25090283236E+03  0.10210420001E+03 0.  0.
          2    1    3    3  502    0 -0.46215730185E+02  0.14630237133E+02 -0.75247545698E+02  0.89510506024E+02  0.00000000000E+00 0. -1.
         -2    1    3    3    0  502  0.46215730185E+02 -0.14630237133E+02 -0.15394007095E+03  0.16139232634E+03  0.00000000000E+00 0.  1.
<mgrwt>
<rscale>  0 0.10210420E+03</rscale>
<asrwt>0</asrwt>
<pdfrwt beam="2">  1        2 0.36930033E-01 0.10210420E+03</pdfrwt>
<pdfrwt beam="1">  1       -2 0.16704013E-02 0.10210420E+03</pdfrwt>
<totfact> 0.12181922E+05</totfact>
</mgrwt>
</event>
<event>
 5    1  0.4023633E+001  0.9213097E+02  0.7546771E-02  0.1297772E+00
          1   -1    0    0  501    0  0.00000000000E+00  0.00000000000E+00  0.21326027153E+02  0.21326027153E+02  0.00000000000E+00 0. -1.
         -1   -1    0    0    0  501 -0.00000000000E+00 -0.00000000000E+00 -0.99504184968E+02  0.99504184968E+02  0.00000000000E+00 0.  1.
         23    2    1    2    0    0  0.00000000000E+00  0.00000000000E+00 -0.78178157816E+02  0.12083021212E+03  0.92130970915E+02 0.  0.
          2    1    3    3  502    0 -0.32036887317E+02 -0.32193309590E+02 -0.49184907980E+02  0.66947191907E+02  0.00000000000E+00 0. -1.
         -2    1    3    3    0  502  0.32036887317E+02  0.32193309590E+02 -0.28993249836E+02  0.53883020214E+02  0.00000000000E+00 0.  1.
<mgrwt>
<rscale>  0 0.92130971E+02</rscale>
<asrwt>0</asrwt>
<pdfrwt beam="1">  1        1 0.32809273E-02 0.92130971E+02</pdfrwt>
<pdfrwt beam="2">  1       -1 0.15308336E-01 0.92130971E+02</pdfrwt>
<totfact> 0.79289093E+04</totfact>
</mgrwt>
</event>
<event>
 5    1  0.4023633E+001  0.9491716E+02  0.7546771E-02  0.1291363E+00
          1   -1    0    0  501    0  0.00000000000E+00  0.00000000000E+00  0.27449366980E+02  0.27449366980E+02  0.00000000000E+00 0. -1.
         -1   -1    0    0    0  501 -0.00000000000E+00 -0.00000000000E+00 -0.82053501730E+02  0.82053501730E+02  0.00000000000E+00 0.  1.
         23    2    1    2    0    0  0.00000000000E+00  0.00000000000E+00 -0.54604134749E+02  0.10950286871E+03  0.94917157164E+02 0.  0.
          2    1    3    3  502    0 -0.56424366741E+01  0.47101940521E+02 -0.25717384391E+02  0.53961224526E+02  0.00000000000E+00 0. -1.
         -2    1    3    3    0  502  0.56424366741E+01 -0.47101940521E+02 -0.28886750358E+02  0.55541644184E+02  0.00000000000E+00 0.  1.
<mgrwt>
<rscale>  0 0.94917157E+02</rscale>
<asrwt>0</asrwt>
<pdfrwt beam="1">  1        1 0.42229796E-02 0.94917157E+02</pdfrwt>
<pdfrwt beam="2">  1       -1 0.12623616E-01 0.94917157E+02</pdfrwt>
<totfact> 0.76027837E+04</totfact>
</mgrwt>
</event>
<event>
 5    1  0.4023633E+001  0.9051805E+02  0.7546771E-02  0.1301602E+00
         -1   -1    0    0    0  501 -0.00000000000E+00  0.00000000000E+00  0.21966433621E+01  0.21966433621E+01  0.00000000000E+00 0.  1.
          1   -1    0    0  501    0  0.00000000000E+00 -0.00000000000E+00 -0.93250424996E+03  0.93250424996E+03  0.00000000000E+00 0. -1.
         23    2    1    2    0    0  0.00000000000E+00  0.00000000000E+00 -0.93030760660E+03  0.93470089332E+03  0.90518048383E+02 0.  0.
          2    1    3    3  502    0 -0.10953242352E+02  0.39070666541E+02 -0.67216336735E+03  0.67338702313E+03  0.00000000000E+00 0. -1.
         -2    1    3    3    0  502  0.10953242352E+02 -0.39070666541E+02 -0.25814423924E+03  0.26131387020E+03  0.00000000000E+00 0.  1.
<mgrwt>
<rscale>  0 0.90518048E+02</rscale>
<asrwt>0</asrwt>
<pdfrwt beam="2">  1        1 0.14346255E+00 0.90518048E+02</pdfrwt>
<pdfrwt beam="1">  1       -1 0.33794428E-03 0.90518048E+02</pdfrwt>
<totfact> 0.14092752E+05</totfact>
</mgrwt>
</event>
<event>
 5    1  0.4023633E+001  0.8831821E+02  0.7546771E-02  0.1306976E+00
          2   -1    0    0  501    0  0.00000000000E+00  0.00000000000E+00  0.58554716570E+03  0.58554716570E+03  0.00000000000E+00 0. -1.
         -2   -1    0    0    0  501 -0.00000000000E+00 -0.00000000000E+00 -0.33302637890E+01  0.33302637890E+01  0.00000000000E+00 0.  1.
         23    2    1    2    0    0  0.00000000000E+00  0.00000000000E+00  0.58221690191E+03  0.58887742949E+03  0.88318209281E+02 0.  0.
          2    1    3    3  502    0 -0.14931830692E+02  0.29239759215E+02  0.48801431631E+03  0.48911746647E+03  0.00000000000E+00 0. -1.
         -2    1    3    3    0  502  0.14931830692E+02 -0.29239759215E+02  0.94202585601E+02  0.99759963015E+02  0.00000000000E+00 0.  1.
<mgrwt>
<rscale>  0 0.88318209E+02</rscale>
<asrwt>0</asrwt>
<pdfrwt beam="1">  1        2 0.90084098E-01 0.88318209E+02</pdfrwt>
<pdfrwt beam="2">  1       -2 0.51234874E-03 0.88318209E+02</pdfrwt>
<totfact> 0.24608800E+05</totfact>
</mgrwt>
</event>
<event>
 5    1  0.4023633E+001  0.9118061E+02  0.7546771E-02  0.1300018E+00
          1   -1    0    0  501    0  0.00000000000E+00  0.00000000000E+00  0.53320028605E+03  0.53320028605E+03  0.00000000000E+00 0. -1.
         -1   -1    0    0    0  501 -0.00000000000E+00 -0.00000000000E+00 -0.38981144728E+01  0.38981144728E+01  0.00000000000E+00 0.  1.
         23    2    1    2    0    0  0.00000000000E+00  0.00000000000E+00  0.52930217158E+03  0.53709840053E+03  0.91180606534E+02 0.  0.
          2    1    3    3  502    0 -0.30446935203E+02 -0.30026978421E+02  0.17154399352E+03  0.17679360002E+03  0.00000000000E+00 0.  1.
         -2    1    3    3    0  502  0.30446935203E+02  0.30026978421E+02  0.35775817806E+03  0.36030480050E+03  0.00000000000E+00 0. -1.
<mgrwt>
<rscale>  0 0.91180607E+02</rscale>
<asrwt>0</asrwt>
<pdfrwt beam="1">  1        1 0.82030755E-01 0.91180607E+02</pdfrwt>
<pdfrwt beam="2">  1       -1 0.59971034E-03 0.91180607E+02</pdfrwt>
<totfact> 0.14023057E+05</totfact>
</mgrwt>
</event>
<event>
 5    1  0.4023633E+001  0.9197576E+02  0.7546771E-02  0.1298136E+00
         -2   -1    0    0    0  501 -0.00000000000E+00  0.00000000000E+00  0.11266661610E+04  0.11266661610E+04  0.00000000000E+00 0.  1.
          2   -1    0    0  501    0  0.00000000000E+00 -0.00000000000E+00 -0.18771178864E+01  0.18771178864E+01  0.00000000000E+00 0. -1.
         23    2    1    2    0    0  0.00000000000E+00  0.00000000000E+00  0.11247890431E+04  0.11285432789E+04  0.91975762087E+02 0.  0.
          2    1    3    3  502    0 -0.13905148759E+02  0.43019771270E+02  0.45912848862E+03  0.46134913346E+03  0.00000000000E+00 0. -1.
         -2    1    3    3    0  502  0.13905148759E+02 -0.43019771270E+02  0.66566055452E+03  0.66719414545E+03  0.00000000000E+00 0.  1.
<mgrwt>
<rscale>  0 0.91975762E+02</rscale>
<asrwt>0</asrwt>
<pdfrwt beam="2">  1        2 0.28878827E-03 0.91975762E+02</pdfrwt>
<pdfrwt beam="1">  1       -2 0.17333272E+00 0.91975762E+02</pdfrwt>
<totfact> 0.15781791E+04</totfact>
</mgrwt>
</event>
<event>
 5    1  0.4023633E+001  0.9174506E+02  0.7546771E-02  0.1298680E+00
          1   -1    0    0  501    0  0.00000000000E+00  0.00000000000E+00  0.30986551328E+03  0.30986551328E+03  0.00000000000E+00 0. -1.
         -1   -1    0    0    0  501 -0.00000000000E+00 -0.00000000000E+00 -0.67909755872E+01  0.67909755872E+01  0.00000000000E+00 0.  1.
         23    2    1    2    0    0  0.00000000000E+00  0.00000000000E+00  0.30307453769E+03  0.31665648887E+03  0.91745062777E+02 0.  0.
          2    1    3    3  502    0 -0.34644669128E+02  0.23178179922E+02  0.21764086654E+03  0.22159654310E+03  0.00000000000E+00 0.  1.
         -2    1    3    3    0  502  0.34644669128E+02 -0.23178179922E+02  0.85433671151E+02  0.95059945770E+02  0.00000000000E+00 0. -1.
<mgrwt>
<rscale>  0 0.91745063E+02</rscale>
<asrwt>0</asrwt>
<pdfrwt beam="1">  1        1 0.47671606E-01 0.91745063E+02</pdfrwt>
<pdfrwt beam="2">  1       -1 0.10447657E-02 0.91745063E+02</pdfrwt>
<totfact> 0.12679314E+05</totfact>
</mgrwt>
</event>
<event>
 5    1  0.4023633E+001  0.9124603E+02  0.7546771E-02  0.1299862E+00
         -1   -1    0    0    0  501 -0.00000000000E+00  0.00000000000E+00  0.18757506465E+03  0.18757506465E+03  0.00000000000E+00 0.  1.
          1   -1    0    0  501    0  0.00000000000E+00 -0.00000000000E+00 -0.11096675934E+02  0.11096675934E+02  0.00000000000E+00 0. -1.
         23    2    1    2    0    0  0.00000000000E+00  0.00000000000E+00  0.17647838872E+03  0.19867174058E+03  0.91246034559E+02 0.  0.
          2    1    3    3  502    0  0.20038572358E+02  0.25520272748E+02  0.18407608986E+02  0.37305077026E+02  0.00000000000E+00 0. -1.
         -2    1    3    3    0  502 -0.20038572358E+02 -0.25520272748E+02  0.15807077973E+03  0.16136666356E+03  0.00000000000E+00 0.  1.
<mgrwt>
<rscale>  0 0.91246035E+02</rscale>
<asrwt>0</asrwt>
<pdfrwt beam="2">  1        1 0.17071810E-02 0.91246035E+02</pdfrwt>
<pdfrwt beam="1">  1       -1 0.28857700E-01 0.91246035E+02</pdfrwt>
<totfact> 0.70540974E+04</totfact>
</mgrwt>
</event>
<event>
 5    1  0.4023633E+001  0.9382212E+02  0.7546771E-02  0.1293851E+00
          1   -1    0    0  501    0  0.00000000000E+00  0.00000000000E+00  0.56265518524E+03  0.56265518524E+03  0.00000000000E+00 0. -1.
         -1   -1    0    0    0  501 -0.00000000000E+00 -0.00000000000E+00 -0.39111832301E+01  0.39111832301E+01  0.00000000000E+00 0.  1.
         23    2    1    2    0    0  0.00000000000E+00  0.00000000000E+00  0.55874400201E+03  0.56656636847E+03  0.93822119456E+02 0.  0.
          2    1    3    3  502    0  0.36752034521E+02 -0.80585116793E+01  0.44856377276E+03  0.45013898952E+03  0.00000000000E+00 0. -1.
         -2    1    3    3    0  502 -0.36752034521E+02  0.80585116793E+01  0.11018022924E+03  0.11642737894E+03  0.00000000000E+00 0.  1.
<mgrwt>
<rscale>  0 0.93822119E+02</rscale>
<asrwt>0</asrwt>
<pdfrwt beam="1">  1        1 0.86562272E-01 0.93822119E+02</pdfrwt>
<pdfrwt beam="2">  1       -1 0.60172094E-03 0.93822119E+02</pdfrwt>
<totfact> 0.13064292E+05</totfact>
</mgrwt>
</event>
<event>
 5    1  0.4023633E+001  0.9185022E+02  0.7546771E-02  0.1298432E+00
         -1   -1    0    0    0  501 -0.00000000000E+00  0.00000000000E+00  0.82228735446E+02  0.82228735446E+02  0.00000000000E+00 0.  1.
          1   -1    0    0  501    0  0.00000000000E+00 -0.00000000000E+00 -0.25649378255E+02  0.25649378255E+02  0.00000000000E+00 0. -1.
         23    2    1    2    0    0  0.00000000000E+00  0.00000000000E+00  0.56579357191E+02  0.10787811370E+03  0.91850224581E+02 0.  0.
          2    1    3    3  502    0 -0.18762010252E+02  0.76569299599E+01 -0.20114473368E+02  0.28552296650E+02  0.00000000000E+00 0. -1.
         -2    1    3    3    0  502  0.18762010252E+02 -0.76569299599E+01  0.76693830559E+02  0.79325817051E+02  0.00000000000E+00 0.  1.
<mgrwt>
<rscale>  0 0.91850225E+02</rscale>
<asrwt>0</asrwt>
<pdfrwt beam="2">  1        1 0.39460582E-02 0.91850225E+02</pdfrwt>
<pdfrwt beam="1">  1       -1 0.12650575E-01 0.91850225E+02</pdfrwt>
<totfact> 0.82681018E+04</totfact>
</mgrwt>
</event>
<event>
 5    1  0.4023633E+001  0.8943311E+02  0.7546771E-02  0.1304230E+00
          3   -1    0    0  501    0  0.00000000000E+00  0.00000000000E+00  0.11412657594E+03  0.11412657594E+03  0.00000000000E+00 0. -1.
         -3   -1    0    0    0  501 -0.00000000000E+00 -0.00000000000E+00 -0.17520637948E+02  0.17520637948E+02  0.00000000000E+00 0.  1.
         23    2    1    2    0    0  0.00000000000E+00  0.00000000000E+00  0.96605937997E+02  0.13164721389E+03  0.89433112824E+02 0.  0.
          2    1    3    3  502    0  0.28219571847E+02  0.34362282563E+02  0.41326824207E+02  0.60704341667E+02  0.00000000000E+00 0. -1.
         -2    1    3    3    0  502 -0.28219571847E+02 -0.34362282563E+02  0.55279113790E+02  0.70942872225E+02  0.00000000000E+00 0.  1.
<mgrwt>
<rscale>  0 0.89433113E+02</rscale>
<asrwt>0</asrwt>
<pdfrwt beam="1">  1        3 0.17557934E-01 0.89433113E+02</pdfrwt>
<pdfrwt beam="2">  1       -3 0.26954828E-02 0.89433113E+02</pdfrwt>
<totfact> 0.34209046E+04</totfact>
</mgrwt>
</event>
<event>
 5    1  0.4023633E+001  0.8692454E+02  0.7546771E-02  0.1310475E+00
          2   -1    0    0  501    0  0.00000000000E+00  0.00000000000E+00  0.27945007034E+03  0.27945007034E+03  0.00000000000E+00 0. -1.
         -2   -1    0    0    0  501 -0.00000000000E+00 -0.00000000000E+00 -0.67595929176E+01  0.67595929176E+01  0.00000000000E+00 0.  1.
         23    2    1    2    0    0  0.00000000000E+00  0.00000000000E+00  0.27269047742E+03  0.28620966325E+03  0.86924535461E+02 0.  0.
          2    1    3    3  502    0 -0.15632830486E+02 -0.18921615916E+02  0.25444695912E+03  0.25562798741E+03  0.00000000000E+00 0. -1.
         -2    1    3    3    0  502  0.15632830486E+02  0.18921615916E+02  0.18243518295E+02  0.30581675848E+02  0.00000000000E+00 0.  1.
<mgrwt>
<rscale>  0 0.86924535E+02</rscale>
<asrwt>0</asrwt>
<pdfrwt beam="1">  1        2 0.42992309E-01 0.86924535E+02</pdfrwt>
<pdfrwt beam="2">  1       -2 0.10399376E-02 0.86924535E+02</pdfrwt>
<totfact> 0.19870206E+05</totfact>
</mgrwt>
</event>
<event>
 5    1  0.4023633E+001  0.9003124E+02  0.7546771E-02  0.1302776E+00
         -1   -1    0    0    0  501 -0.00000000000E+00  0.00000000000E+00  0.96912711850E+00  0.96912711850E+00  0.00000000000E+00 0.  1.
          1   -1    0    0  501    0  0.00000000000E+00 -0.00000000000E+00 -0.20909598314E+04  0.20909598314E+04  0.00000000000E+00 0. -1.
         23    2    1    2    0    0  0.00000000000E+00  0.00000000000E+00 -0.20899907043E+04  0.20919289585E+04  0.90031236275E+02 0.  0.
          2    1    3    3  502    0 -0.24224258269E+02 -0.23633205826E+02 -0.17346904564E+04  0.17350205540E+04  0.00000000000E+00 0. -1.
         -2    1    3    3    0  502  0.24224258269E+02  0.23633205826E+02 -0.35530024783E+03  0.35690840452E+03  0.00000000000E+00 0.  1.
<mgrwt>
<rscale>  0 0.90031236E+02</rscale>
<asrwt>0</asrwt>
<pdfrwt beam="2">  1        1 0.32168197E+00 0.90031236E+02</pdfrwt>
<pdfrwt beam="1">  1       -1 0.14909841E-03 0.90031236E+02</pdfrwt>
<totfact> 0.76890253E+04</totfact>
</mgrwt>
</event>
<event>
 5    1  0.4023633E+001  0.9056207E+02  0.7546771E-02  0.1301496E+00
          4   -1    0    0  501    0  0.00000000000E+00  0.00000000000E+00  0.15499187941E+03  0.15499187941E+03  0.00000000000E+00 0. -1.
         -4   -1    0    0    0  501 -0.00000000000E+00 -0.00000000000E+00 -0.13228901786E+02  0.13228901786E+02  0.00000000000E+00 0.  1.
         23    2    1    2    0    0  0.00000000000E+00  0.00000000000E+00  0.14176297763E+03  0.16822078120E+03  0.90562074851E+02 0.  0.
          2    1    3    3  502    0  0.24358375555E+02 -0.16626037942E+02  0.13470603746E+03  0.13789659940E+03  0.00000000000E+00 0. -1.
         -2    1    3    3    0  502 -0.24358375555E+02  0.16626037942E+02  0.70569401666E+01  0.30324181800E+02  0.00000000000E+00 0.  1.
<mgrwt>
<rscale>  0 0.90562075E+02</rscale>
<asrwt>0</asrwt>
<pdfrwt beam="1">  1        4 0.23844903E-01 0.90562075E+02</pdfrwt>
<pdfrwt beam="2">  1       -4 0.20352158E-02 0.90562075E+02</pdfrwt>
<totfact> 0.23207696E+04</totfact>
</mgrwt>
</event>
<event>
 5    1  0.4023633E+001  0.8993467E+02  0.7546771E-02  0.1303010E+00
         -4   -1    0    0    0  501 -0.00000000000E+00  0.00000000000E+00  0.36596671554E+02  0.36596671554E+02  0.00000000000E+00 0.  1.
          4   -1    0    0  501    0  0.00000000000E+00 -0.00000000000E+00 -0.55252602843E+02  0.55252602843E+02  0.00000000000E+00 0. -1.
         23    2    1    2    0    0  0.00000000000E+00  0.00000000000E+00 -0.18655931289E+02  0.91849274397E+02  0.89934673152E+02 0.  0.
          2    1    3    3  502    0 -0.14402364518E+02 -0.29389201501E+02 -0.40821241718E+02  0.52321382283E+02  0.00000000000E+00 0. -1.
         -2    1    3    3    0  502  0.14402364518E+02  0.29389201501E+02  0.22165310429E+02  0.39527892114E+02  0.00000000000E+00 0.  1.
<mgrwt>
<rscale>  0 0.89934673E+02</rscale>
<asrwt>0</asrwt>
<pdfrwt beam="2">  1        4 0.85004004E-02 0.89934673E+02</pdfrwt>
<pdfrwt beam="1">  1       -4 0.56302572E-02 0.89934673E+02</pdfrwt>
<totfact> 0.27993649E+04</totfact>
</mgrwt>
</event>
<event>
 5    1  0.4023633E+001  0.9279866E+02  0.7546771E-02  0.1296212E+00
         -2   -1    0    0    0  501 -0.00000000000E+00  0.00000000000E+00  0.15658204457E+02  0.15658204457E+02  0.00000000000E+00 0.  1.
          2   -1    0    0  501    0  0.00000000000E+00 -0.00000000000E+00 -0.13749328092E+03  0.13749328092E+03  0.00000000000E+00 0. -1.
         23    2    1    2    0    0  0.00000000000E+00  0.00000000000E+00 -0.12183507647E+03  0.15315148538E+03  0.92798661718E+02 0.  0.
          2    1    3    3  502    0 -0.23039053724E+02  0.38670289216E+02 -0.79494839082E+02  0.91354357889E+02  0.00000000000E+00 0. -1.
         -2    1    3    3    0  502  0.23039053724E+02 -0.38670289216E+02 -0.42340237385E+02  0.61797127493E+02  0.00000000000E+00 0.  1.
<mgrwt>
<rscale>  0 0.92798662E+02</rscale>
<asrwt>0</asrwt>
<pdfrwt beam="2">  1        2 0.21152812E-01 0.92798662E+02</pdfrwt>
<pdfrwt beam="1">  1       -2 0.24089545E-02 0.92798662E+02</pdfrwt>
<totfact> 0.12939873E+05</totfact>
</mgrwt>
</event>
<event>
 5    1  0.4023633E+001  0.9008944E+02  0.7546771E-02  0.1302635E+00
          2   -1    0    0  501    0  0.00000000000E+00  0.00000000000E+00  0.19970729448E+03  0.19970729448E+03  0.00000000000E+00 0. -1.
         -2   -1    0    0    0  501 -0.00000000000E+00 -0.00000000000E+00 -0.10160003081E+02  0.10160003081E+02  0.00000000000E+00 0.  1.
         23    2    1    2    0    0  0.00000000000E+00  0.00000000000E+00  0.18954729140E+03  0.20986729757E+03  0.90089438388E+02 0.  0.
          2    1    3    3  502    0 -0.49912840134E+01  0.31878179769E+02  0.16799308296E+03  0.17106375181E+03  0.00000000000E+00 0. -1.
         -2    1    3    3    0  502  0.49912840134E+01 -0.31878179769E+02  0.21554208445E+02  0.38803545755E+02  0.00000000000E+00 0.  1.
<mgrwt>
<rscale>  0 0.90089438E+02</rscale>
<asrwt>0</asrwt>
<pdfrwt beam="1">  1        2 0.30724196E-01 0.90089438E+02</pdfrwt>
<pdfrwt beam="2">  1       -2 0.15630775E-02 0.90089438E+02</pdfrwt>
<totfact> 0.15966671E+05</totfact>
</mgrwt>
</event>
<event>
 5    1  0.4023633E+001  0.9350464E+02  0.7546771E-02  0.1294580E+00
         -1   -1    0    0    0  501 -0.00000000000E+00  0.00000000000E+00  0.76398908069E+03  0.76398908069E+03  0.00000000000E+00 0.  1.
          1   -1    0    0  501    0  0.00000000000E+00 -0.00000000000E+00 -0.28610087999E+01  0.28610087999E+01  0.00000000000E+00 0. -1.
         23    2    1    2    0    0  0.00000000000E+00  0.00000000000E+00  0.76112807189E+03  0.76685008949E+03  0.93504641230E+02 0.  0.
          2    1    3    3  502    0  0.42348264279E+02 -0.18318454726E+02  0.44239378842E+03  0.44479344117E+03  0.00000000000E+00 0. -1.
         -2    1    3    3    0  502 -0.42348264279E+02  0.18318454726E+02  0.31873428347E+03  0.32205664832E+03  0.00000000000E+00 0.  1.
<mgrwt>
<rscale>  0 0.93504641E+02</rscale>
<asrwt>0</asrwt>
<pdfrwt beam="2">  1        1 0.44015581E-03 0.93504641E+02</pdfrwt>
<pdfrwt beam="1">  1       -1 0.11753662E+00 0.93504641E+02</pdfrwt>
<totfact> 0.31918313E+04</totfact>
</mgrwt>
</event>
<event>
 5    1  0.4023633E+001  0.9057347E+02  0.7546771E-02  0.1301469E+00
         -3   -1    0    0    0  501 -0.00000000000E+00  0.00000000000E+00  0.23540659153E+02  0.23540659153E+02  0.00000000000E+00 0.  1.
          3   -1    0    0  501    0  0.00000000000E+00 -0.00000000000E+00 -0.87121116639E+02  0.87121116639E+02  0.00000000000E+00 0. -1.
         23    2    1    2    0    0  0.00000000000E+00  0.00000000000E+00 -0.63580457486E+02  0.11066177579E+03  0.90573473200E+02 0.  0.
          2    1    3    3  502    0  0.31703097913E+02  0.46665470658E+01 -0.70887998499E+02  0.77794417602E+02  0.00000000000E+00 0. -1.
         -2    1    3    3    0  502 -0.31703097913E+02 -0.46665470658E+01  0.73075410128E+01  0.32867358191E+02  0.00000000000E+00 0.  1.
<mgrwt>
<rscale>  0 0.90573473E+02</rscale>
<asrwt>0</asrwt>
<pdfrwt beam="2">  1        3 0.13403249E-01 0.90573473E+02</pdfrwt>
<pdfrwt beam="1">  1       -3 0.36216399E-02 0.90573473E+02</pdfrwt>
<totfact> 0.34514049E+04</totfact>
</mgrwt>
</event>
<event>
 5    1  0.4023633E+001  0.9223391E+02  0.7546771E-02  0.1297530E+00
          1   -1    0    0  501    0  0.00000000000E+00  0.00000000000E+00  0.48834131938E+02  0.48834131938E+02  0.00000000000E+00 0. -1.
         -1   -1    0    0    0  501 -0.00000000000E+00 -0.00000000000E+00 -0.43550965092E+02  0.43550965092E+02  0.00000000000E+00 0.  1.
         23    2    1    2    0    0  0.00000000000E+00  0.00000000000E+00  0.52831668467E+01  0.92385097030E+02  0.92233910799E+02 0.  0.
          2    1    3    3  502    0  0.16481164014E+02  0.39044762991E+02 -0.15572042269E+02  0.45150977672E+02  0.00000000000E+00 0. -1.
         -2    1    3    3    0  502 -0.16481164014E+02 -0.39044762991E+02  0.20855209115E+02  0.47234119358E+02  0.00000000000E+00 0.  1.
<mgrwt>
<rscale>  0 0.92233911E+02</rscale>
<asrwt>0</asrwt>
<pdfrwt beam="1">  1        1 0.75129434E-02 0.92233911E+02</pdfrwt>
<pdfrwt beam="2">  1       -1 0.67001485E-02 0.92233911E+02</pdfrwt>
<totfact> 0.90461395E+04</totfact>
</mgrwt>
</event>
<event>
 5    1  0.4023633E+001  0.1115541E+03  0.7546771E-02  0.1257719E+00
          4   -1    0    0  501    0  0.00000000000E+00  0.00000000000E+00  0.41187291509E+02  0.41187291509E+02  0.00000000000E+00 0. -1.
         -4   -1    0    0    0  501 -0.00000000000E+00 -0.00000000000E+00 -0.75534950076E+02  0.75534950076E+02  0.00000000000E+00 0.  1.
         23    2    1    2    0    0  0.00000000000E+00  0.00000000000E+00 -0.34347658567E+02  0.11672224159E+03  0.11155411257E+03 0.  0.
          2    1    3    3  502    0  0.13316188117E+02  0.53538017326E+02 -0.85811953902E+01  0.55832580806E+02  0.00000000000E+00 0. -1.
         -2    1    3    3    0  502 -0.13316188117E+02 -0.53538017326E+02 -0.25766463177E+02  0.60889660779E+02  0.00000000000E+00 0.  1.
<mgrwt>
<rscale>  0 0.11155411E+03</rscale>
<asrwt>0</asrwt>
<pdfrwt beam="1">  1        4 0.63365064E-02 0.11155411E+03</pdfrwt>
<pdfrwt beam="2">  1       -4 0.11620762E-01 0.11155411E+03</pdfrwt>
<totfact> 0.14640272E+04</totfact>
</mgrwt>
</event>
<event>
 5    1  0.4023633E+001  0.8334464E+02  0.7546771E-02  0.1319819E+00
         -1   -1    0    0    0  501 -0.00000000000E+00  0.00000000000E+00  0.72558033492E+01  0.72558033492E+01  0.00000000000E+00 0.  1.
          1   -1    0    0  501    0  0.00000000000E+00 -0.00000000000E+00 -0.23933702576E+03  0.23933702576E+03  0.00000000000E+00 0. -1.
         23    2    1    2    0    0  0.00000000000E+00  0.00000000000E+00 -0.23208122241E+03  0.24659282911E+03  0.83344643334E+02 0.  0.
          2    1    3    3  502    0  0.17366139644E+02 -0.21092369680E+02 -0.20913956689E+03  0.21091664065E+03  0.00000000000E+00 0. -1.
         -2    1    3    3    0  502 -0.17366139644E+02  0.21092369680E+02 -0.22941655522E+02  0.35676188459E+02  0.00000000000E+00 0.  1.
<mgrwt>
<rscale>  0 0.83344643E+02</rscale>
<asrwt>0</asrwt>
<pdfrwt beam="2">  1        1 0.36821080E-01 0.83344643E+02</pdfrwt>
<pdfrwt beam="1">  1       -1 0.11162775E-02 0.83344643E+02</pdfrwt>
<totfact> 0.15570545E+05</totfact>
</mgrwt>
</event>
<event>
 5    1  0.4023633E+001  0.8645109E+02  0.7546771E-02  0.1311681E+00
         -3   -1    0    0    0  501 -0.00000000000E+00  0.00000000000E+00  0.18035532421E+01  0.18035532421E+01  0.00000000000E+00 0.  1.
          3   -1    0    0  501    0  0.00000000000E+00 -0.00000000000E+00 -0.10359814323E+04  0.10359814323E+04  0.00000000000E+00 0. -1.
         23    2    1    2    0    0  0.00000000000E+00  0.00000000000E+00 -0.10341778790E+04  0.10377849855E+04  0.86451088388E+02 0.  0.
          2    1    3    3  502    0 -0.37634095496E+02  0.20479104500E+02 -0.58576446618E+03  0.58732931878E+03  0.00000000000E+00 0. -1.
         -2    1    3    3    0  502  0.37634095496E+02 -0.20479104500E+02 -0.44841341284E+03  0.45045566672E+03  0.00000000000E+00 0.  1.
<mgrwt>
<rscale>  0 0.86451088E+02</rscale>
<asrwt>0</asrwt>
<pdfrwt beam="2">  1        3 0.15938189E+00 0.86451088E+02</pdfrwt>
<pdfrwt beam="1">  1       -3 0.27746950E-03 0.86451088E+02</pdfrwt>
<totfact> 0.11097829E+04</totfact>
</mgrwt>
</event>
<event>
 5    1  0.4023633E+001  0.9036129E+02  0.7546771E-02  0.1301979E+00
          2   -1    0    0  501    0  0.00000000000E+00  0.00000000000E+00  0.77483938087E+02  0.77483938087E+02  0.00000000000E+00 0. -1.
         -2   -1    0    0    0  501 -0.00000000000E+00 -0.00000000000E+00 -0.26344694102E+02  0.26344694102E+02  0.00000000000E+00 0.  1.
         23    2    1    2    0    0  0.00000000000E+00  0.00000000000E+00  0.51139243984E+02  0.10382863219E+03  0.90361289206E+02 0.  0.
          2    1    3    3  502    0 -0.32448471809E+01  0.43179457639E+02  0.40387147486E+02  0.59212467245E+02  0.00000000000E+00 0. -1.
         -2    1    3    3    0  502  0.32448471809E+01 -0.43179457639E+02  0.10752096499E+02  0.44616164944E+02  0.00000000000E+00 0.  1.
<mgrwt>
<rscale>  0 0.90361289E+02</rscale>
<asrwt>0</asrwt>
<pdfrwt beam="1">  1        2 0.11920606E-01 0.90361289E+02</pdfrwt>
<pdfrwt beam="2">  1       -2 0.40530299E-02 0.90361289E+02</pdfrwt>
<totfact> 0.11669318E+05</totfact>
</mgrwt>
</event>
<event>
 5    1  0.4023633E+001  0.9511021E+02  0.7546771E-02  0.1290928E+00
         -3   -1    0    0    0  501 -0.00000000000E+00  0.00000000000E+00  0.28255911138E+03  0.28255911138E+03  0.00000000000E+00 0.  1.
          3   -1    0    0  501    0  0.00000000000E+00 -0.00000000000E+00 -0.80035932161E+01  0.80035932161E+01  0.00000000000E+00 0. -1.
         23    2    1    2    0    0  0.00000000000E+00  0.00000000000E+00  0.27455551817E+03  0.29056270460E+03  0.95110213689E+02 0.  0.
          2    1    3    3  502    0  0.36736376216E+02 -0.57880119065E+01  0.22782292009E+03  0.23083835327E+03  0.00000000000E+00 0.  1.
         -2    1    3    3    0  502 -0.36736376216E+02  0.57880119065E+01  0.46732598073E+02  0.59724351331E+02  0.00000000000E+00 0. -1.
<mgrwt>
<rscale>  0 0.95110214E+02</rscale>
<asrwt>0</asrwt>
<pdfrwt beam="2">  1        3 0.12313223E-02 0.95110214E+02</pdfrwt>
<pdfrwt beam="1">  1       -3 0.43470625E-01 0.95110214E+02</pdfrwt>
<totfact> 0.21769639E+04</totfact>
</mgrwt>
</event>
<event>
 5    1  0.4023633E+001  0.9321445E+02  0.7546771E-02  0.1295249E+00
          3   -1    0    0  501    0  0.00000000000E+00  0.00000000000E+00  0.64690076496E+03  0.64690076496E+03  0.00000000000E+00 0. -1.
         -3   -1    0    0    0  501 -0.00000000000E+00 -0.00000000000E+00 -0.33579082697E+01  0.33579082697E+01  0.00000000000E+00 0.  1.
         23    2    1    2    0    0  0.00000000000E+00  0.00000000000E+00  0.64354285669E+03  0.65025867323E+03  0.93214450132E+02 0.  0.
          2    1    3    3  502    0 -0.31010901908E+02  0.50253385829E+01  0.56194082658E+03  0.56281828563E+03  0.00000000000E+00 0. -1.
         -2    1    3    3    0  502  0.31010901908E+02 -0.50253385829E+01  0.81602030111E+02  0.87440387598E+02  0.00000000000E+00 0.  1.
<mgrwt>
<rscale>  0 0.93214450E+02</rscale>
<asrwt>0</asrwt>
<pdfrwt beam="1">  1        3 0.99523096E-01 0.93214450E+02</pdfrwt>
<pdfrwt beam="2">  1       -3 0.51660178E-03 0.93214450E+02</pdfrwt>
<totfact> 0.13934162E+04</totfact>
</mgrwt>
</event>
<event>
 5    1  0.4023633E+001  0.9016185E+02  0.7546771E-02  0.1302460E+00
         -1   -1    0    0    0  501 -0.00000000000E+00  0.00000000000E+00  0.34969101205E+02  0.34969101205E+02  0.00000000000E+00 0.  1.
          1   -1    0    0  501    0  0.00000000000E+00 -0.00000000000E+00 -0.58116726606E+02  0.58116726606E+02  0.00000000000E+00 0. -1.
         23    2    1    2    0    0  0.00000000000E+00  0.00000000000E+00 -0.23147625400E+02  0.93085827811E+02  0.90161847683E+02 0.  0.
          2    1    3    3  502    0  0.15299400392E+02  0.31267616575E+02 -0.41148107484E+02  0.53897145084E+02  0.00000000000E+00 0. -1.
         -2    1    3    3    0  502 -0.15299400392E+02 -0.31267616575E+02  0.18000482083E+02  0.39188682727E+02  0.00000000000E+00 0.  1.
<mgrwt>
<rscale>  0 0.90161848E+02</rscale>
<asrwt>0</asrwt>
<pdfrwt beam="2">  1        1 0.89410348E-02 0.90161848E+02</pdfrwt>
<pdfrwt beam="1">  1       -1 0.53798618E-02 0.90161848E+02</pdfrwt>
<totfact> 0.98931733E+04</totfact>
</mgrwt>
</event>
<event>
 5    1  0.4023633E+001  0.8996521E+02  0.7546771E-02  0.1302936E+00
          2   -1    0    0  501    0  0.00000000000E+00  0.00000000000E+00  0.23446782932E+03  0.23446782932E+03  0.00000000000E+00 0. -1.
         -2   -1    0    0    0  501 -0.00000000000E+00 -0.00000000000E+00 -0.86299027032E+01  0.86299027032E+01  0.00000000000E+00 0.  1.
         23    2    1    2    0    0  0.00000000000E+00  0.00000000000E+00  0.22583792662E+03  0.24309773202E+03  0.89965205586E+02 0.  0.
          2    1    3    3  502    0 -0.30570912057E+02  0.88664626312E+01  0.19880420706E+03  0.20133630464E+03  0.00000000000E+00 0. -1.
         -2    1    3    3    0  502  0.30570912057E+02 -0.88664626312E+01  0.27033719558E+02  0.41761427378E+02  0.00000000000E+00 0.  1.
<mgrwt>
<rscale>  0 0.89965206E+02</rscale>
<asrwt>0</asrwt>
<pdfrwt beam="1">  1        2 0.36071969E-01 0.89965206E+02</pdfrwt>
<pdfrwt beam="2">  1       -2 0.13276775E-02 0.89965206E+02</pdfrwt>
<totfact> 0.16991135E+05</totfact>
</mgrwt>
</event>
<event>
 5    1  0.4023633E+001  0.9213785E+02  0.7546771E-02  0.1297756E+00
         -3   -1    0    0    0  501 -0.00000000000E+00  0.00000000000E+00  0.19169337270E+02  0.19169337270E+02  0.00000000000E+00 0.  1.
          3   -1    0    0  501    0  0.00000000000E+00 -0.00000000000E+00 -0.11071565868E+03  0.11071565868E+03  0.00000000000E+00 0. -1.
         23    2    1    2    0    0  0.00000000000E+00  0.00000000000E+00 -0.91546321407E+02  0.12988499595E+03  0.92137848949E+02 0.  0.
          2    1    3    3  502    0  0.22438582170E+01 -0.38156041361E+02 -0.82027668254E+02  0.90495617304E+02  0.00000000000E+00 0. -1.
         -2    1    3    3    0  502 -0.22438582170E+01  0.38156041361E+02 -0.95186531535E+01  0.39389378643E+02  0.00000000000E+00 0.  1.
<mgrwt>
<rscale>  0 0.92137849E+02</rscale>
<asrwt>0</asrwt>
<pdfrwt beam="2">  1        3 0.17033178E-01 0.92137849E+02</pdfrwt>
<pdfrwt beam="1">  1       -3 0.29491288E-02 0.92137849E+02</pdfrwt>
<totfact> 0.31667612E+04</totfact>
</mgrwt>
</event>
<event>
 5    1  0.4023633E+001  0.8992604E+02  0.7546771E-02  0.1303031E+00
          2   -1    0    0  501    0  0.00000000000E+00  0.00000000000E+00  0.43956922232E+03  0.43956922232E+03  0.00000000000E+00 0. -1.
         -2   -1    0    0    0  501 -0.00000000000E+00 -0.00000000000E+00 -0.45992149986E+01  0.45992149986E+01  0.00000000000E+00 0.  1.
         23    2    1    2    0    0  0.00000000000E+00  0.00000000000E+00  0.43497000732E+03  0.44416843732E+03  0.89926044286E+02 0.  0.
          2    1    3    3  502    0  0.28826156261E+02 -0.34340004491E+02  0.23422769900E+03  0.23848018402E+03  0.00000000000E+00 0. -1.
         -2    1    3    3    0  502 -0.28826156261E+02  0.34340004491E+02  0.20074230833E+03  0.20568825330E+03  0.00000000000E+00 0.  1.
<mgrwt>
<rscale>  0 0.89926044E+02</rscale>
<asrwt>0</asrwt>
<pdfrwt beam="1">  1        2 0.67626001E-01 0.89926044E+02</pdfrwt>
<pdfrwt beam="2">  1       -2 0.70757189E-03 0.89926044E+02</pdfrwt>
<totfact> 0.21405518E+05</totfact>
</mgrwt>
</event>
<event>
 5    1  0.4023633E+001  0.9191836E+02  0.7546771E-02  0.1298272E+00
         -1   -1    0    0    0  501 -0.00000000000E+00  0.00000000000E+00  0.51142510067E+02  0.51142510067E+02  0.00000000000E+00 0.  1.
          1   -1    0    0  501    0  0.00000000000E+00 -0.00000000000E+00 -0.41301183616E+02  0.41301183616E+02  0.00000000000E+00 0. -1.
         23    2    1    2    0    0  0.00000000000E+00  0.00000000000E+00  0.98413264507E+01  0.92443693684E+02  0.91918359404E+02 0.  0.
          2    1    3    3  502    0  0.17523747159E+02  0.24409706962E+02 -0.30053518543E+02  0.42498582156E+02  0.00000000000E+00 0. -1.
         -2    1    3    3    0  502 -0.17523747159E+02 -0.24409706962E+02  0.39894844993E+02  0.49945111528E+02  0.00000000000E+00 0.  1.
<mgrwt>
<rscale>  0 0.91918359E+02</rscale>
<asrwt>0</asrwt>
<pdfrwt beam="2">  1        1 0.63540283E-02 0.91918359E+02</pdfrwt>
<pdfrwt beam="1">  1       -1 0.78680785E-02 0.91918359E+02</pdfrwt>
<totfact> 0.89044049E+04</totfact>
</mgrwt>
</event>
<event>
 5    1  0.4023633E+001  0.9130400E+02  0.7546771E-02  0.1299724E+00
         -1   -1    0    0    0  501 -0.00000000000E+00  0.00000000000E+00  0.33439148424E+03  0.33439148424E+03  0.00000000000E+00 0.  1.
          1   -1    0    0  501    0  0.00000000000E+00 -0.00000000000E+00 -0.62325302867E+01  0.62325302867E+01  0.00000000000E+00 0. -1.
         23    2    1    2    0    0  0.00000000000E+00  0.00000000000E+00  0.32815895395E+03  0.34062401453E+03  0.91303998886E+02 0.  0.
          2    1    3    3  502    0  0.24394614802E+02 -0.38093048803E+02  0.18705483636E+03  0.19244658844E+03  0.00000000000E+00 0.  1.
         -2    1    3    3    0  502 -0.24394614802E+02  0.38093048803E+02  0.14110411760E+03  0.14817742608E+03  0.00000000000E+00 0. -1.
<mgrwt>
<rscale>  0 0.91303999E+02</rscale>
<asrwt>0</asrwt>
<pdfrwt beam="2">  1        1 0.95885107E-03 0.91303999E+02</pdfrwt>
<pdfrwt beam="1">  1       -1 0.51444830E-01 0.91303999E+02</pdfrwt>
<totfact> 0.57726087E+04</totfact>
</mgrwt>
</event>
<event>
 5    1  0.4023633E+001  0.9613185E+02  0.7546771E-02  0.1288647E+00
          2   -1    0    0  501    0  0.00000000000E+00  0.00000000000E+00  0.55089695421E+03  0.55089695421E+03  0.00000000000E+00 0. -1.
         -2   -1    0    0    0  501 -0.00000000000E+00 -0.00000000000E+00 -0.41937664401E+01  0.41937664401E+01  0.00000000000E+00 0.  1.
         23    2    1    2    0    0  0.00000000000E+00  0.00000000000E+00  0.54670318777E+03  0.55509072065E+03  0.96131850259E+02 0.  0.
          2    1    3    3  502    0  0.86484459399E+01 -0.39273474763E+02  0.12133025486E+03  0.12782109443E+03  0.00000000000E+00 0.  1.
         -2    1    3    3    0  502 -0.86484459399E+01  0.39273474763E+02  0.42537293291E+03  0.42726962622E+03  0.00000000000E+00 0. -1.
<mgrwt>
<rscale>  0 0.96131850E+02</rscale>
<asrwt>0</asrwt>
<pdfrwt beam="1">  1        2 0.84753320E-01 0.96131850E+02</pdfrwt>
<pdfrwt beam="2">  1       -2 0.64519527E-03 0.96131850E+02</pdfrwt>
<totfact> 0.19309676E+05</totfact>
</mgrwt>
</event>
<event>
 5    1  0.4023633E+001  0.8901264E+02  0.7546771E-02  0.1305260E+00
          2   -1    0    0  501    0  0.00000000000E+00  0.00000000000E+00  0.89733918611E+02  0.89733918611E+02  0.00000000000E+00 0.  1.
         -2   -1    0    0    0  501 -0.00000000000E+00 -0.00000000000E+00 -0.22074291129E+02  0.22074291129E+02  0.00000000000E+00 0. -1.
         23    2    1    2    0    0  0.00000000000E+00  0.00000000000E+00  0.67659627482E+02  0.11180820974E+03  0.89012642777E+02 0.  0.
          2    1    3    3  502    0  0.30477692173E+02 -0.29873179766E+02  0.17965393807E+02  0.46303908735E+02  0.00000000000E+00 0. -1.
         -2    1    3    3    0  502 -0.30477692173E+02  0.29873179766E+02  0.49694233675E+02  0.65504301004E+02  0.00000000000E+00 0.  1.
<mgrwt>
<rscale>  0 0.89012643E+02</rscale>
<asrwt>0</asrwt>
<pdfrwt beam="1">  1        2 0.13805218E-01 0.89012643E+02</pdfrwt>
<pdfrwt beam="2">  1       -2 0.33960448E-02 0.89012643E+02</pdfrwt>
<totfact> 0.12688872E+05</totfact>
</mgrwt>
</event>
<event>
 5    1  0.4023633E+001  0.9295602E+02  0.7546771E-02  0.1295847E+00
         -2   -1    0    0    0  501 -0.00000000000E+00  0.00000000000E+00  0.40117974950E+03  0.40117974950E+03  0.00000000000E+00 0.  1.
          2   -1    0    0  501    0  0.00000000000E+00 -0.00000000000E+00 -0.53846325758E+01  0.53846325758E+01  0.00000000000E+00 0. -1.
         23    2    1    2    0    0  0.00000000000E+00  0.00000000000E+00  0.39579511692E+03  0.40656438207E+03  0.92956022890E+02 0.  0.
          2    1    3    3  502    0 -0.94306990956E+01 -0.43929559741E+02  0.14587753664E+03  0.15264009958E+03  0.00000000000E+00 0. -1.
         -2    1    3    3    0  502  0.94306990956E+01  0.43929559741E+02  0.24991758029E+03  0.25392428250E+03  0.00000000000E+00 0.  1.
<mgrwt>
<rscale>  0 0.92956023E+02</rscale>
<asrwt>0</asrwt>
<pdfrwt beam="2">  1        2 0.82840533E-03 0.92956023E+02</pdfrwt>
<pdfrwt beam="1">  1       -2 0.61719938E-01 0.92956023E+02</pdfrwt>
<totfact> 0.40528791E+04</totfact>
</mgrwt>
</event>
<event>
 5    1  0.4023633E+001  0.9331007E+02  0.7546771E-02  0.1295028E+00
          2   -1    0    0  501    0  0.00000000000E+00  0.00000000000E+00  0.29597262034E+03  0.29597262034E+03  0.00000000000E+00 0. -1.
         -2   -1    0    0    0  501 -0.00000000000E+00 -0.00000000000E+00 -0.73543704949E+01  0.73543704949E+01  0.00000000000E+00 0.  1.
         23    2    1    2    0    0  0.00000000000E+00  0.00000000000E+00  0.28861824984E+03  0.30332699083E+03  0.93310070331E+02 0.  0.
          2    1    3    3  502    0 -0.35535304326E+02  0.85072675589E+01  0.23861208002E+03  0.24139357114E+03  0.00000000000E+00 0. -1.
         -2    1    3    3    0  502  0.35535304326E+02 -0.85072675589E+01  0.50006169823E+02  0.61933419696E+02  0.00000000000E+00 0.  1.
<mgrwt>
<rscale>  0 0.93310070E+02</rscale>
<asrwt>0</asrwt>
<pdfrwt beam="1">  1        2 0.45534240E-01 0.93310070E+02</pdfrwt>
<pdfrwt beam="2">  1       -2 0.11314418E-02 0.93310070E+02</pdfrwt>
<totfact> 0.16803824E+05</totfact>
</mgrwt>
</event>
<event>
 5    1  0.4023633E+001  0.8957333E+02  0.7546771E-02  0.1303888E+00
         -1   -1    0    0    0  501 -0.00000000000E+00  0.00000000000E+00  0.21992741739E+01  0.21992741739E+01  0.00000000000E+00 0.  1.
          1   -1    0    0  501    0  0.00000000000E+00 -0.00000000000E+00 -0.91204879141E+03  0.91204879141E+03  0.00000000000E+00 0. -1.
         23    2    1    2    0    0  0.00000000000E+00  0.00000000000E+00 -0.90984951724E+03  0.91424806558E+03  0.89573329787E+02 0.  0.
          2    1    3    3  502    0  0.33559140476E+02 -0.26005418878E+02 -0.60047230570E+03  0.60197133456E+03  0.00000000000E+00 0. -1.
         -2    1    3    3    0  502 -0.33559140476E+02  0.26005418878E+02 -0.30937721154E+03  0.31227673103E+03  0.00000000000E+00 0.  1.
<mgrwt>
<rscale>  0 0.89573330E+02</rscale>
<asrwt>0</asrwt>
<pdfrwt beam="2">  1        1 0.14031530E+00 0.89573330E+02</pdfrwt>
<pdfrwt beam="1">  1       -1 0.33834964E-03 0.89573330E+02</pdfrwt>
<totfact> 0.14550810E+05</totfact>
</mgrwt>
</event>
<event>
 5    1  0.4023633E+001  0.8849153E+02  0.7546771E-02  0.1306546E+00
          4   -1    0    0  501    0  0.00000000000E+00  0.00000000000E+00  0.28561901277E+03  0.28561901277E+03  0.00000000000E+00 0. -1.
         -4   -1    0    0    0  501 -0.00000000000E+00 -0.00000000000E+00 -0.68541925039E+01  0.68541925039E+01  0.00000000000E+00 0.  1.
         23    2    1    2    0    0  0.00000000000E+00  0.00000000000E+00  0.27876482027E+03  0.29247320528E+03  0.88491529455E+02 0.  0.
          2    1    3    3  502    0 -0.30893571164E+02  0.20907615875E+01  0.34923332113E+02  0.46673580848E+02  0.00000000000E+00 0.  1.
         -2    1    3    3    0  502  0.30893571164E+02 -0.20907615875E+01  0.24384148815E+03  0.24579962443E+03  0.00000000000E+00 0. -1.
<mgrwt>
<rscale>  0 0.88491529E+02</rscale>
<asrwt>0</asrwt>
<pdfrwt beam="1">  1        4 0.43941377E-01 0.88491529E+02</pdfrwt>
<pdfrwt beam="2">  1       -4 0.10544914E-02 0.88491529E+02</pdfrwt>
<totfact> 0.19540341E+04</totfact>
</mgrwt>
</event>
<event>
 5    1  0.4023633E+001  0.9054241E+02  0.7546771E-02  0.1301543E+00
         -1   -1    0    0    0  501 -0.00000000000E+00  0.00000000000E+00  0.13707530700E+02  0.13707530700E+02  0.00000000000E+00 0.  1.
          1   -1    0    0  501    0  0.00000000000E+00 -0.00000000000E+00 -0.14951503942E+03  0.14951503942E+03  0.00000000000E+00 0. -1.
         23    2    1    2    0    0  0.00000000000E+00  0.00000000000E+00 -0.13580750872E+03  0.16322257012E+03  0.90542409797E+02 0.  0.
          2    1    3    3  502    0 -0.24226348384E+02  0.10865015738E+02 -0.13400526546E+03  0.13661030596E+03  0.00000000000E+00 0. -1.
         -2    1    3    3    0  502  0.24226348384E+02 -0.10865015738E+02 -0.18022432596E+01  0.26612264161E+02  0.00000000000E+00 0.  1.
<mgrwt>
<rscale>  0 0.90542410E+02</rscale>
<asrwt>0</asrwt>
<pdfrwt beam="2">  1        1 0.23002313E-01 0.90542410E+02</pdfrwt>
<pdfrwt beam="1">  1       -1 0.21088510E-02 0.90542410E+02</pdfrwt>
<totfact> 0.11419527E+05</totfact>
</mgrwt>
</event>
<event>
 5    1  0.4023633E+001  0.9003526E+02  0.7546771E-02  0.1302766E+00
          1   -1    0    0  501    0  0.00000000000E+00  0.00000000000E+00  0.67623332084E+02  0.67623332084E+02  0.00000000000E+00 0. -1.
         -1   -1    0    0    0  501 -0.00000000000E+00 -0.00000000000E+00 -0.29968756648E+02  0.29968756648E+02  0.00000000000E+00 0.  1.
         23    2    1    2    0    0  0.00000000000E+00  0.00000000000E+00  0.37654575435E+02  0.97592088732E+02  0.90035263824E+02 0.  0.
          2    1    3    3  502    0  0.11633275356E+01  0.20737166995E+02  0.62119527338E+02  0.65499764142E+02  0.00000000000E+00 0. -1.
         -2    1    3    3    0  502 -0.11633275356E+01 -0.20737166995E+02 -0.24464951903E+02  0.32092324590E+02  0.00000000000E+00 0.  1.
<mgrwt>
<rscale>  0 0.90035264E+02</rscale>
<asrwt>0</asrwt>
<pdfrwt beam="1">  1        1 0.10403590E-01 0.90035264E+02</pdfrwt>
<pdfrwt beam="2">  1       -1 0.46105780E-02 0.90035264E+02</pdfrwt>
<totfact> 0.10161247E+05</totfact>
</mgrwt>
</event>
<event>
 5    1  0.4023633E+001  0.9239152E+02  0.7546771E-02  0.1297161E+00
          1   -1    0    0  501    0  0.00000000000E+00  0.00000000000E+00  0.25075411767E+03  0.25075411767E+03  0.00000000000E+00 0. -1.
         -1   -1    0    0    0  501 -0.00000000000E+00 -0.00000000000E+00 -0.85105211476E+01  0.85105211476E+01  0.00000000000E+00 0.  1.
         23    2    1    2    0    0  0.00000000000E+00  0.00000000000E+00  0.24224359652E+03  0.25926463882E+03  0.92391519552E+02 0.  0.
          2    1    3    3  502    0  0.27438157900E+02  0.81029312523E+01  0.22290190732E+03  0.22473043917E+03  0.00000000000E+00 0. -1.
         -2    1    3    3    0  502 -0.27438157900E+02 -0.81029312523E+01  0.19341689199E+02  0.34534199642E+02  0.00000000000E+00 0.  1.
<mgrwt>
<rscale>  0 0.92391520E+02</rscale>
<asrwt>0</asrwt>
<pdfrwt beam="1">  1        1 0.38577551E-01 0.92391520E+02</pdfrwt>
<pdfrwt beam="2">  1       -1 0.13093111E-02 0.92391520E+02</pdfrwt>
<totfact> 0.11943834E+05</totfact>
</mgrwt>
</event>
<event>
 5    1  0.4023633E+001  0.9230516E+02  0.7546771E-02  0.1297364E+00
          1   -1    0    0  501    0  0.00000000000E+00  0.00000000000E+00  0.55056321558E+02  0.55056321558E+02  0.00000000000E+00 0. -1.
         -1   -1    0    0    0  501 -0.00000000000E+00 -0.00000000000E+00 -0.38688756750E+02  0.38688756750E+02  0.00000000000E+00 0.  1.
         23    2    1    2    0    0  0.00000000000E+00  0.00000000000E+00  0.16367564807E+02  0.93745078308E+02  0.92305159819E+02 0.  0.
          2    1    3    3  502    0  0.40673162350E+01 -0.25642249004E+02  0.46936493171E+02  0.53638627747E+02  0.00000000000E+00 0. -1.
         -2    1    3    3    0  502 -0.40673162350E+01  0.25642249004E+02 -0.30568928364E+02  0.40106450562E+02  0.00000000000E+00 0.  1.
<mgrwt>
<rscale>  0 0.92305160E+02</rscale>
<asrwt>0</asrwt>
<pdfrwt beam="1">  1        1 0.84702034E-02 0.92305160E+02</pdfrwt>
<pdfrwt beam="2">  1       -1 0.59521164E-02 0.92305160E+02</pdfrwt>
<totfact> 0.91922258E+04</totfact>
</mgrwt>
</event>
<event>
 5    1  0.4023633E+001  0.9308611E+02  0.7546771E-02  0.1295546E+00
          2   -1    0    0  501    0  0.00000000000E+00  0.00000000000E+00  0.15053488831E+02  0.15053488831E+02  0.00000000000E+00 0. -1.
         -2   -1    0    0    0  501 -0.00000000000E+00 -0.00000000000E+00 -0.14390392618E+03  0.14390392618E+03  0.00000000000E+00 0.  1.
         23    2    1    2    0    0  0.00000000000E+00  0.00000000000E+00 -0.12885043735E+03  0.15895741501E+03  0.93086113797E+02 0.  0.
          2    1    3    3  502    0 -0.42656399928E+02 -0.15714737731E+02 -0.47371501596E+02  0.65655011996E+02  0.00000000000E+00 0.  1.
         -2    1    3    3    0  502  0.42656399928E+02  0.15714737731E+02 -0.81478935751E+02  0.93302403012E+02  0.00000000000E+00 0. -1.
<mgrwt>
<rscale>  0 0.93086114E+02</rscale>
<asrwt>0</asrwt>
<pdfrwt beam="1">  1        2 0.23159213E-02 0.93086114E+02</pdfrwt>
<pdfrwt beam="2">  1       -2 0.22139066E-01 0.93086114E+02</pdfrwt>
<totfact> 0.67284951E+04</totfact>
</mgrwt>
</event>
<event>
 5    1  0.4023633E+001  0.8742040E+02  0.7546771E-02  0.1309222E+00
          1   -1    0    0  501    0  0.00000000000E+00  0.00000000000E+00  0.42380866612E+03  0.42380866612E+03  0.00000000000E+00 0. -1.
         -1   -1    0    0    0  501 -0.00000000000E+00 -0.00000000000E+00 -0.45081233665E+01  0.45081233665E+01  0.00000000000E+00 0.  1.
         23    2    1    2    0    0  0.00000000000E+00  0.00000000000E+00  0.41930054275E+03  0.42831678948E+03  0.87420403811E+02 0.  0.
          2    1    3    3  502    0  0.15259244792E+00 -0.43352817126E+02  0.23696988912E+03  0.24090292316E+03  0.00000000000E+00 0. -1.
         -2    1    3    3    0  502 -0.15259244792E+00  0.43352817126E+02  0.18233065363E+03  0.18741386632E+03  0.00000000000E+00 0.  1.
<mgrwt>
<rscale>  0 0.87420404E+02</rscale>
<asrwt>0</asrwt>
<pdfrwt beam="1">  1        1 0.65201302E-01 0.87420404E+02</pdfrwt>
<pdfrwt beam="2">  1       -1 0.69355777E-03 0.87420404E+02</pdfrwt>
<totfact> 0.15217747E+05</totfact>
</mgrwt>
</event>
<event>
 5    1  0.4023633E+001  0.9064937E+02  0.7546771E-02  0.1301287E+00
         -4   -1    0    0    0  501 -0.00000000000E+00  0.00000000000E+00  0.10613739070E+03  0.10613739070E+03  0.00000000000E+00 0.  1.
          4   -1    0    0  501    0  0.00000000000E+00 -0.00000000000E+00 -0.19355358830E+02  0.19355358830E+02  0.00000000000E+00 0. -1.
         23    2    1    2    0    0  0.00000000000E+00  0.00000000000E+00  0.86782031868E+02  0.12549274953E+03  0.90649374674E+02 0.  0.
          2    1    3    3  502    0 -0.19562353717E+01  0.45267642469E+02  0.41787905424E+02  0.61637775359E+02  0.00000000000E+00 0. -1.
         -2    1    3    3    0  502  0.19562353717E+01 -0.45267642469E+02  0.44994126444E+02  0.63854974168E+02  0.00000000000E+00 0.  1.
<mgrwt>
<rscale>  0 0.90649375E+02</rscale>
<asrwt>0</asrwt>
<pdfrwt beam="2">  1        4 0.29777476E-02 0.90649375E+02</pdfrwt>
<pdfrwt beam="1">  1       -4 0.16328829E-01 0.90649375E+02</pdfrwt>
<totfact> 0.25358584E+04</totfact>
</mgrwt>
</event>
<event>
 5    1  0.4023633E+001  0.8930866E+02  0.7546771E-02  0.1304535E+00
          2   -1    0    0  501    0  0.00000000000E+00  0.00000000000E+00  0.34320168155E+02  0.34320168155E+02  0.00000000000E+00 0. -1.
         -2   -1    0    0    0  501 -0.00000000000E+00 -0.00000000000E+00 -0.58100211871E+02  0.58100211871E+02  0.00000000000E+00 0.  1.
         23    2    1    2    0    0  0.00000000000E+00  0.00000000000E+00 -0.23780043716E+02  0.92420380026E+02  0.89308656719E+02 0.  0.
          2    1    3    3  502    0 -0.20060819191E+02  0.27798080729E+02  0.17722372694E+02  0.38590831201E+02  0.00000000000E+00 0. -1.
         -2    1    3    3    0  502  0.20060819191E+02 -0.27798080729E+02 -0.41502416410E+02  0.53829548825E+02  0.00000000000E+00 0.  1.
<mgrwt>
<rscale>  0 0.89308657E+02</rscale>
<asrwt>0</asrwt>
<pdfrwt beam="1">  1        2 0.52800259E-02 0.89308657E+02</pdfrwt>
<pdfrwt beam="2">  1       -2 0.89384941E-02 0.89308657E+02</pdfrwt>
<totfact> 0.97385731E+04</totfact>
</mgrwt>
</event>
<event>
 5    1  0.4023633E+001  0.8754642E+02  0.7546771E-02  0.1308905E+00
         -1   -1    0    0    0  501 -0.00000000000E+00  0.00000000000E+00  0.17289951353E+03  0.17289951353E+03  0.00000000000E+00 0.  1.
          1   -1    0    0  501    0  0.00000000000E+00 -0.00000000000E+00 -0.11082124458E+02  0.11082124458E+02  0.00000000000E+00 0. -1.
         23    2    1    2    0    0  0.00000000000E+00  0.00000000000E+00  0.16181738908E+03  0.18398163799E+03  0.87546420321E+02 0.  0.
          2    1    3    3  502    0 -0.42860868541E+02 -0.85970218858E+01  0.76148322255E+02  0.87803928270E+02  0.00000000000E+00 0. -1.
         -2    1    3    3    0  502  0.42860868541E+02  0.85970218858E+01  0.85669066821E+02  0.96177709723E+02  0.00000000000E+00 0.  1.
<mgrwt>
<rscale>  0 0.87546420E+02</rscale>
<asrwt>0</asrwt>
<pdfrwt beam="2">  1        1 0.17049424E-02 0.87546420E+02</pdfrwt>
<pdfrwt beam="1">  1       -1 0.26599923E-01 0.87546420E+02</pdfrwt>
<totfact> 0.80258963E+04</totfact>
</mgrwt>
</event>
<event>
 5    1  0.4023633E+001  0.9522228E+02  0.7546771E-02  0.1290676E+00
         -1   -1    0    0    0  501 -0.00000000000E+00  0.00000000000E+00  0.25934614117E+01  0.25934614117E+01  0.00000000000E+00 0.  1.
          1   -1    0    0  501    0  0.00000000000E+00 -0.00000000000E+00 -0.87405216604E+03  0.87405216604E+03  0.00000000000E+00 0. -1.
         23    2    1    2    0    0  0.00000000000E+00  0.00000000000E+00 -0.87145870462E+03  0.87664562745E+03  0.95222278159E+02 0.  0.
          2    1    3    3  502    0  0.13317379966E+02 -0.39728493962E+02 -0.64386415178E+03  0.64522612454E+03  0.00000000000E+00 0. -1.
         -2    1    3    3    0  502 -0.13317379966E+02  0.39728493962E+02 -0.22759455284E+03  0.23141950291E+03  0.00000000000E+00 0.  1.
<mgrwt>
<rscale>  0 0.95222278E+02</rscale>
<asrwt>0</asrwt>
<pdfrwt beam="2">  1        1 0.13446966E+00 0.95222278E+02</pdfrwt>
<pdfrwt beam="1">  1       -1 0.39899378E-03 0.95222278E+02</pdfrwt>
<totfact> 0.12464337E+05</totfact>
</mgrwt>
</event>
<event>
 5    1  0.4023633E+001  0.9215671E+02  0.7546771E-02  0.1297711E+00
          2   -1    0    0  501    0  0.00000000000E+00  0.00000000000E+00  0.30563761504E+04  0.30563761504E+04  0.00000000000E+00 0. -1.
         -2   -1    0    0    0  501 -0.00000000000E+00 -0.00000000000E+00 -0.69468366045E+00  0.69468366045E+00  0.00000000000E+00 0.  1.
         23    2    1    2    0    0  0.00000000000E+00  0.00000000000E+00  0.30556814667E+04  0.30570708340E+04  0.92156705059E+02 0.  0.
          2    1    3    3  502    0 -0.34440537443E+02 -0.18312883724E+02  0.23415502174E+04  0.23418750891E+04  0.00000000000E+00 0. -1.
         -2    1    3    3    0  502  0.34440537443E+02  0.18312883724E+02  0.71413124926E+03  0.71519574489E+03  0.00000000000E+00 0.  1.
<mgrwt>
<rscale>  0 0.92156705E+02</rscale>
<asrwt>0</asrwt>
<pdfrwt beam="1">  1        2 0.47020095E+00 0.92156705E+02</pdfrwt>
<pdfrwt beam="2">  1       -2 0.10687686E-03 0.92156705E+02</pdfrwt>
<totfact> 0.94342422E+04</totfact>
</mgrwt>
</event>
<event>
 5    1  0.4023633E+001  0.8594397E+02  0.7546771E-02  0.1312982E+00
          1   -1    0    0  501    0  0.00000000000E+00  0.00000000000E+00  0.54315722180E+03  0.54315722180E+03  0.00000000000E+00 0. -1.
         -1   -1    0    0    0  501 -0.00000000000E+00 -0.00000000000E+00 -0.33997369417E+01  0.33997369417E+01  0.00000000000E+00 0.  1.
         23    2    1    2    0    0  0.00000000000E+00  0.00000000000E+00  0.53975748486E+03  0.54655695874E+03  0.85943974125E+02 0.  0.
          2    1    3    3  502    0  0.34494066719E+02  0.24954357665E+02  0.30697736440E+03  0.30991557376E+03  0.00000000000E+00 0. -1.
         -2    1    3    3    0  502 -0.34494066719E+02 -0.24954357665E+02  0.23278012046E+03  0.23664138498E+03  0.00000000000E+00 0.  1.
<mgrwt>
<rscale>  0 0.85943974E+02</rscale>
<asrwt>0</asrwt>
<pdfrwt beam="1">  1        1 0.83562580E-01 0.85943974E+02</pdfrwt>
<pdfrwt beam="2">  1       -1 0.52303689E-03 0.85943974E+02</pdfrwt>
<totfact> 0.16422416E+05</totfact>
</mgrwt>
</event>
<event>
 5    1  0.4023633E+001  0.9073200E+02  0.7546771E-02  0.1301089E+00
          4   -1    0    0  501    0  0.00000000000E+00  0.00000000000E+00  0.32077172531E+03  0.32077172531E+03  0.00000000000E+00 0.  1.
         -4   -1    0    0    0  501 -0.00000000000E+00 -0.00000000000E+00 -0.64160081789E+01  0.64160081789E+01  0.00000000000E+00 0. -1.
         23    2    1    2    0    0  0.00000000000E+00  0.00000000000E+00  0.31435571713E+03  0.32718773349E+03  0.90732001260E+02 0.  0.
          2    1    3    3  502    0  0.17822226936E+01 -0.26979978392E+02  0.25816249354E+02  0.37384144801E+02  0.00000000000E+00 0. -1.
         -2    1    3    3    0  502 -0.17822226936E+01  0.26979978392E+02  0.28853946778E+03  0.28980358869E+03  0.00000000000E+00 0.  1.
<mgrwt>
<rscale>  0 0.90732001E+02</rscale>
<asrwt>0</asrwt>
<pdfrwt beam="1">  1        4 0.49349484E-01 0.90732001E+02</pdfrwt>
<pdfrwt beam="2">  1       -4 0.98707843E-03 0.90732001E+02</pdfrwt>
<totfact> 0.17244020E+04</totfact>
</mgrwt>
</event>
<event>
 5    1  0.4023633E+001  0.9158253E+02  0.7546771E-02  0.1299064E+00
          2   -1    0    0  501    0  0.00000000000E+00  0.00000000000E+00  0.50557064086E+03  0.50557064086E+03  0.00000000000E+00 0.  1.
         -2   -1    0    0    0  501 -0.00000000000E+00 -0.00000000000E+00 -0.41474715800E+01  0.41474715800E+01  0.00000000000E+00 0. -1.
         23    2    1    2    0    0  0.00000000000E+00  0.00000000000E+00  0.50142316928E+03  0.50971811244E+03  0.91582528129E+02 0.  0.
          2    1    3    3  502    0 -0.44397798420E+02  0.10449557564E+02  0.22811598868E+03  0.23263117170E+03  0.00000000000E+00 0.  1.
         -2    1    3    3    0  502  0.44397798420E+02 -0.10449557564E+02  0.27330718060E+03  0.27708694074E+03  0.00000000000E+00 0. -1.
<mgrwt>
<rscale>  0 0.91582528E+02</rscale>
<asrwt>0</asrwt>
<pdfrwt beam="1">  1        2 0.77780050E-01 0.91582528E+02</pdfrwt>
<pdfrwt beam="2">  1       -2 0.63807295E-03 0.91582528E+02</pdfrwt>
<totfact> 0.21374395E+05</totfact>
</mgrwt>
</event>
<event>
 5    1  0.4023633E+001  0.9211473E+02  0.7546771E-02  0.1297810E+00
         -4   -1    0    0    0  501 -0.00000000000E+00  0.00000000000E+00  0.99422238326E+03  0.99422238326E+03  0.00000000000E+00 0.  1.
          4   -1    0    0  501    0  0.00000000000E+00 -0.00000000000E+00 -0.21336082032E+01  0.21336082032E+01  0.00000000000E+00 0. -1.
         23    2    1    2    0    0  0.00000000000E+00  0.00000000000E+00  0.99208877506E+03  0.99635599146E+03  0.92114733518E+02 0.  0.
          2    1    3    3  502    0  0.21315101758E+02  0.32835643981E+00  0.54441048743E+02  0.58465965904E+02  0.00000000000E+00 0. -1.
         -2    1    3    3    0  502 -0.21315101758E+02 -0.32835643981E+00  0.93764772631E+03  0.93789002556E+03  0.00000000000E+00 0.  1.
<mgrwt>
<rscale>  0 0.92114734E+02</rscale>
<asrwt>0</asrwt>
<pdfrwt beam="2">  1        4 0.32824821E-03 0.92114734E+02</pdfrwt>
<pdfrwt beam="1">  1       -4 0.15295692E+00 0.92114734E+02</pdfrwt>
<totfact> 0.69564164E+03</totfact>
</mgrwt>
</event>
<event>
 5    1  0.4023633E+001  0.9104136E+02  0.7546771E-02  0.1300349E+00
          4   -1    0    0  501    0  0.00000000000E+00  0.00000000000E+00  0.22432237684E+02  0.22432237684E+02  0.00000000000E+00 0. -1.
         -4   -1    0    0    0  501 -0.00000000000E+00 -0.00000000000E+00 -0.92372973200E+02  0.92372973200E+02  0.00000000000E+00 0.  1.
         23    2    1    2    0    0  0.00000000000E+00  0.00000000000E+00 -0.69940735516E+02  0.11480521088E+03  0.91041364014E+02 0.  0.
          2    1    3    3  502    0 -0.28890894268E+02  0.30086539103E+02 -0.11984833112E+02  0.43399537227E+02  0.00000000000E+00 0. -1.
         -2    1    3    3    0  502  0.28890894268E+02 -0.30086539103E+02 -0.57955902404E+02  0.71405673656E+02  0.00000000000E+00 0.  1.
<mgrwt>
<rscale>  0 0.91041364E+02</rscale>
<asrwt>0</asrwt>
<pdfrwt beam="1">  1        4 0.34511135E-02 0.91041364E+02</pdfrwt>
<pdfrwt beam="2">  1       -4 0.14211227E-01 0.91041364E+02</pdfrwt>
<totfact> 0.25673914E+04</totfact>
</mgrwt>
</event>
<event>
 5    1  0.4023633E+001  0.9066359E+02  0.7546771E-02  0.1301253E+00
         -1   -1    0    0    0  501 -0.00000000000E+00  0.00000000000E+00  0.30955417162E+03  0.30955417162E+03  0.00000000000E+00 0.  1.
          1   -1    0    0  501    0  0.00000000000E+00 -0.00000000000E+00 -0.66384873639E+01  0.66384873639E+01  0.00000000000E+00 0. -1.
         23    2    1    2    0    0  0.00000000000E+00  0.00000000000E+00  0.30291568426E+03  0.31619265899E+03  0.90663586004E+02 0.  0.
          2    1    3    3  502    0  0.34056498991E+02 -0.28763660121E+02  0.12274581388E+03  0.13058992339E+03  0.00000000000E+00 0.  1.
         -2    1    3    3    0  502 -0.34056498991E+02  0.28763660121E+02  0.18016987038E+03  0.18560273559E+03  0.00000000000E+00 0. -1.
<mgrwt>
<rscale>  0 0.90663586E+02</rscale>
<asrwt>0</asrwt>
<pdfrwt beam="2">  1        1 0.10213060E-02 0.90663586E+02</pdfrwt>
<pdfrwt beam="1">  1       -1 0.47623707E-01 0.90663586E+02</pdfrwt>
<totfact> 0.60723193E+04</totfact>
</mgrwt>
</event>
<event>
 5    1  0.4023633E+001  0.8899667E+02  0.7546771E-02  0.1305300E+00
         -2   -1    0    0    0  501 -0.00000000000E+00  0.00000000000E+00  0.35927078751E+01  0.35927078751E+01  0.00000000000E+00 0.  1.
          2   -1    0    0  501    0  0.00000000000E+00 -0.00000000000E+00 -0.55114462275E+03  0.55114462275E+03  0.00000000000E+00 0. -1.
         23    2    1    2    0    0  0.00000000000E+00  0.00000000000E+00 -0.54755191488E+03  0.55473733063E+03  0.88996665701E+02 0.  0.
          2    1    3    3  502    0 -0.15991631041E+02  0.20084228613E+02 -0.50032588883E+03  0.50098413502E+03  0.00000000000E+00 0. -1.
         -2    1    3    3    0  502  0.15991631041E+02 -0.20084228613E+02 -0.47226026041E+02  0.53753195607E+02  0.00000000000E+00 0.  1.
<mgrwt>
<rscale>  0 0.88996666E+02</rscale>
<asrwt>0</asrwt>
<pdfrwt beam="2">  1        2 0.84791481E-01 0.88996666E+02</pdfrwt>
<pdfrwt beam="1">  1       -2 0.55272429E-03 0.88996666E+02</pdfrwt>
<totfact> 0.23687499E+05</totfact>
</mgrwt>
</event>
<event>
 5    1  0.4023633E+001  0.9632454E+02  0.7546771E-02  0.1288220E+00
         -3   -1    0    0    0  501 -0.00000000000E+00  0.00000000000E+00  0.72437579576E+01  0.72437579576E+01  0.00000000000E+00 0.  1.
          3   -1    0    0  501    0  0.00000000000E+00 -0.00000000000E+00 -0.32022113336E+03  0.32022113336E+03  0.00000000000E+00 0. -1.
         23    2    1    2    0    0  0.00000000000E+00  0.00000000000E+00 -0.31297737540E+03  0.32746489132E+03  0.96324542728E+02 0.  0.
          2    1    3    3  502    0  0.63222705317E+01  0.43246068031E+02 -0.22527586326E+03  0.22947637802E+03  0.00000000000E+00 0. -1.
         -2    1    3    3    0  502 -0.63222705317E+01 -0.43246068031E+02 -0.87701512144E+02  0.97988513292E+02  0.00000000000E+00 0.  1.
<mgrwt>
<rscale>  0 0.96324543E+02</rscale>
<asrwt>0</asrwt>
<pdfrwt beam="2">  1        3 0.49264786E-01 0.96324543E+02</pdfrwt>
<pdfrwt beam="1">  1       -3 0.11144244E-02 0.96324543E+02</pdfrwt>
<totfact> 0.19843535E+04</totfact>
</mgrwt>
</event>
<event>
 5    1  0.4023633E+001  0.9008173E+02  0.7546771E-02  0.1302654E+00
          1   -1    0    0  501    0  0.00000000000E+00  0.00000000000E+00  0.21314905702E+04  0.21314905702E+04  0.00000000000E+00 0. -1.
         -1   -1    0    0    0  501 -0.00000000000E+00 -0.00000000000E+00 -0.95176555213E+00  0.95176555213E+00  0.00000000000E+00 0.  1.
         23    2    1    2    0    0  0.00000000000E+00  0.00000000000E+00  0.21305388046E+04  0.21324423357E+04  0.90081725102E+02 0.  0.
          2    1    3    3  502    0  0.11824632357E+02 -0.28345698706E+02  0.28538316644E+03  0.28703109980E+03  0.00000000000E+00 0.  1.
         -2    1    3    3    0  502 -0.11824632357E+02  0.28345698706E+02  0.18451556382E+04  0.18454112359E+04  0.00000000000E+00 0. -1.
<mgrwt>
<rscale>  0 0.90081725E+02</rscale>
<asrwt>0</asrwt>
<pdfrwt beam="1">  1        1 0.32791781E+00 0.90081725E+02</pdfrwt>
<pdfrwt beam="2">  1       -1 0.14642718E-03 0.90081725E+02</pdfrwt>
<totfact> 0.74345788E+04</totfact>
</mgrwt>
</event>
<event>
 5    1  0.4023633E+001  0.8742458E+02  0.7546771E-02  0.1309211E+00
         -1   -1    0    0    0  501 -0.00000000000E+00  0.00000000000E+00  0.49671502340E+01  0.49671502340E+01  0.00000000000E+00 0.  1.
          1   -1    0    0  501    0  0.00000000000E+00 -0.00000000000E+00 -0.38468023164E+03  0.38468023164E+03  0.00000000000E+00 0. -1.
         23    2    1    2    0    0  0.00000000000E+00  0.00000000000E+00 -0.37971308141E+03  0.38964738188E+03  0.87424584703E+02 0.  0.
          2    1    3    3  502    0 -0.21231946913E+02 -0.27561219478E+02 -0.71907295460E+02  0.79881634492E+02  0.00000000000E+00 0.  1.
         -2    1    3    3    0  502  0.21231946913E+02  0.27561219478E+02 -0.30780578595E+03  0.30976574739E+03  0.00000000000E+00 0. -1.
<mgrwt>
<rscale>  0 0.87424585E+02</rscale>
<asrwt>0</asrwt>
<pdfrwt beam="2">  1        1 0.59181588E-01 0.87424585E+02</pdfrwt>
<pdfrwt beam="1">  1       -1 0.76417678E-03 0.87424585E+02</pdfrwt>
<totfact> 0.14980225E+05</totfact>
</mgrwt>
</event>
<event>
 5    1  0.4023633E+001  0.9073831E+02  0.7546771E-02  0.1301074E+00
         -3   -1    0    0    0  501 -0.00000000000E+00  0.00000000000E+00  0.69510433861E+01  0.69510433861E+01  0.00000000000E+00 0.  1.
          3   -1    0    0  501    0  0.00000000000E+00 -0.00000000000E+00 -0.29612249471E+03  0.29612249471E+03  0.00000000000E+00 0. -1.
         23    2    1    2    0    0  0.00000000000E+00  0.00000000000E+00 -0.28917145132E+03  0.30307353809E+03  0.90738311827E+02 0.  0.
          2    1    3    3  502    0 -0.39774697055E+02 -0.12530947305E+02 -0.84901027695E+02  0.94589828574E+02  0.00000000000E+00 0.  1.
         -2    1    3    3    0  502  0.39774697055E+02  0.12530947305E+02 -0.20427042363E+03  0.20848370952E+03  0.00000000000E+00 0. -1.
<mgrwt>
<rscale>  0 0.90738312E+02</rscale>
<asrwt>0</asrwt>
<pdfrwt beam="2">  1        3 0.45557302E-01 0.90738312E+02</pdfrwt>
<pdfrwt beam="1">  1       -3 0.10693914E-02 0.90738312E+02</pdfrwt>
<totfact> 0.24223957E+04</totfact>
</mgrwt>
</event>
<event>
 5    1  0.4023633E+001  0.9238489E+02  0.7546771E-02  0.1297177E+00
         -4   -1    0    0    0  501 -0.00000000000E+00  0.00000000000E+00  0.24995259066E+03  0.24995259066E+03  0.00000000000E+00 0.  1.
          4   -1    0    0  501    0  0.00000000000E+00 -0.00000000000E+00 -0.85365866365E+01  0.85365866365E+01  0.00000000000E+00 0. -1.
         23    2    1    2    0    0  0.00000000000E+00  0.00000000000E+00  0.24141600402E+03  0.25848917729E+03  0.92384889352E+02 0.  0.
          2    1    3    3  502    0  0.39287096336E+02 -0.85753995582E+01  0.18431027570E+03  0.18864594123E+03  0.00000000000E+00 0.  1.
         -2    1    3    3    0  502 -0.39287096336E+02  0.85753995582E+01  0.57105728325E+02  0.69843236062E+02  0.00000000000E+00 0. -1.
<mgrwt>
<rscale>  0 0.92384889E+02</rscale>
<asrwt>0</asrwt>
<pdfrwt beam="2">  1        4 0.13133212E-02 0.92384889E+02</pdfrwt>
<pdfrwt beam="1">  1       -4 0.38454239E-01 0.92384889E+02</pdfrwt>
<totfact> 0.18504580E+04</totfact>
</mgrwt>
</event>
<event>
 5    1  0.4023633E+001  0.9798093E+02  0.7546771E-02  0.1284600E+00
          4   -1    0    0  501    0  0.00000000000E+00  0.00000000000E+00  0.33417896244E+01  0.33417896244E+01  0.00000000000E+00 0. -1.
         -4   -1    0    0    0  501 -0.00000000000E+00 -0.00000000000E+00 -0.71819766334E+03  0.71819766334E+03  0.00000000000E+00 0.  1.
         23    2    1    2    0    0  0.00000000000E+00  0.00000000000E+00 -0.71485587371E+03  0.72153945296E+03  0.97980926707E+02 0.  0.
          2    1    3    3  502    0 -0.37973251376E+02 -0.25237633058E+02 -0.48939907597E+03  0.49151842438E+03  0.00000000000E+00 0. -1.
         -2    1    3    3    0  502  0.37973251376E+02  0.25237633058E+02 -0.22545679774E+03  0.23002102858E+03  0.00000000000E+00 0.  1.
<mgrwt>
<rscale>  0 0.97980927E+02</rscale>
<asrwt>0</asrwt>
<pdfrwt beam="1">  1        4 0.51412136E-03 0.97980927E+02</pdfrwt>
<pdfrwt beam="2">  1       -4 0.11049197E+00 0.97980927E+02</pdfrwt>
<totfact> 0.80874909E+03</totfact>
</mgrwt>
</event>
<event>
 5    1  0.4023633E+001  0.9017537E+02  0.7546771E-02  0.1302428E+00
          2   -1    0    0  501    0  0.00000000000E+00  0.00000000000E+00  0.68032082233E+03  0.68032082233E+03  0.00000000000E+00 0. -1.
         -2   -1    0    0    0  501 -0.00000000000E+00 -0.00000000000E+00 -0.29881482291E+01  0.29881482291E+01  0.00000000000E+00 0.  1.
         23    2    1    2    0    0  0.00000000000E+00  0.00000000000E+00  0.67733267410E+03  0.68330897056E+03  0.90175372702E+02 0.  0.
          2    1    3    3  502    0  0.30531279921E+02 -0.31394188525E+02  0.41997790723E+03  0.42225489540E+03  0.00000000000E+00 0. -1.
         -2    1    3    3    0  502 -0.30531279921E+02  0.31394188525E+02  0.25735476687E+03  0.26105407516E+03  0.00000000000E+00 0.  1.
<mgrwt>
<rscale>  0 0.90175373E+02</rscale>
<asrwt>0</asrwt>
<pdfrwt beam="1">  1        2 0.10466462E+00 0.90175373E+02</pdfrwt>
<pdfrwt beam="2">  1       -2 0.45971565E-03 0.90175373E+02</pdfrwt>
<totfact> 0.24249693E+05</totfact>
</mgrwt>
</event>
<event>
 5    1  0.4023633E+001  0.7816130E+02  0.7546771E-02  0.1334352E+00
         -2   -1    0    0    0  501 -0.00000000000E+00  0.00000000000E+00  0.95456948813E+01  0.95456948813E+01  0.00000000000E+00 0.  1.
          2   -1    0    0  501    0  0.00000000000E+00 -0.00000000000E+00 -0.15999855295E+03  0.15999855295E+03  0.00000000000E+00 0. -1.
         23    2    1    2    0    0  0.00000000000E+00  0.00000000000E+00 -0.15045285807E+03  0.16954424783E+03  0.78161304183E+02 0.  0.
          2    1    3    3  502    0 -0.23597617838E+02  0.30802798376E+02 -0.65136364944E+02  0.75818243144E+02  0.00000000000E+00 0.  1.
         -2    1    3    3    0  502  0.23597617838E+02 -0.30802798376E+02 -0.85316493124E+02  0.93726004686E+02  0.00000000000E+00 0. -1.
<mgrwt>
<rscale>  0 0.78161304E+02</rscale>
<asrwt>0</asrwt>
<pdfrwt beam="2">  1        2 0.24615160E-01 0.78161304E+02</pdfrwt>
<pdfrwt beam="1">  1       -2 0.14685686E-02 0.78161304E+02</pdfrwt>
<totfact> 0.21603308E+05</totfact>
</mgrwt>
</event>
<event>
 5    1  0.4023633E+001  0.8922117E+02  0.7546771E-02  0.1304749E+00
         -1   -1    0    0    0  501 -0.00000000000E+00  0.00000000000E+00  0.33832132129E+03  0.33832132129E+03  0.00000000000E+00 0.  1.
          1   -1    0    0  501    0  0.00000000000E+00 -0.00000000000E+00 -0.58822906183E+01  0.58822906183E+01  0.00000000000E+00 0. -1.
         23    2    1    2    0    0  0.00000000000E+00  0.00000000000E+00  0.33243903067E+03  0.34420361191E+03  0.89221170899E+02 0.  0.
          2    1    3    3  502    0 -0.46120271090E+01 -0.40448106811E+02  0.95842823022E+02  0.10413052801E+03  0.00000000000E+00 0. -1.
         -2    1    3    3    0  502  0.46120271090E+01  0.40448106811E+02  0.23659620765E+03  0.24007308390E+03  0.00000000000E+00 0.  1.
<mgrwt>
<rscale>  0 0.89221171E+02</rscale>
<asrwt>0</asrwt>
<pdfrwt beam="2">  1        1 0.90496805E-03 0.89221171E+02</pdfrwt>
<pdfrwt beam="1">  1       -1 0.52049419E-01 0.89221171E+02</pdfrwt>
<totfact> 0.61006076E+04</totfact>
</mgrwt>
</event>
<event>
 5    1  0.4023633E+001  0.9137993E+02  0.7546771E-02  0.1299544E+00
         -1   -1    0    0    0  501 -0.00000000000E+00  0.00000000000E+00  0.68322283595E+00  0.68322283595E+00  0.00000000000E+00 0.  1.
          1   -1    0    0  501    0  0.00000000000E+00 -0.00000000000E+00 -0.30554791459E+04  0.30554791459E+04  0.00000000000E+00 0. -1.
         23    2    1    2    0    0  0.00000000000E+00  0.00000000000E+00 -0.30547959231E+04  0.30561623688E+04  0.91379934937E+02 0.  0.
          2    1    3    3  502    0  0.42576913813E+02 -0.35275147315E+01 -0.20690927686E+04  0.20695337934E+04  0.00000000000E+00 0. -1.
         -2    1    3    3    0  502 -0.42576913813E+02  0.35275147315E+01 -0.98570315452E+03  0.98662857539E+03  0.00000000000E+00 0.  1.
<mgrwt>
<rscale>  0 0.91379935E+02</rscale>
<asrwt>0</asrwt>
<pdfrwt beam="2">  1        1 0.47008028E+00 0.91379935E+02</pdfrwt>
<pdfrwt beam="1">  1       -1 0.10510974E-03 0.91379935E+02</pdfrwt>
<totfact> 0.29377188E+04</totfact>
</mgrwt>
</event>
<event>
 5    1  0.4023633E+001  0.8711381E+02  0.7546771E-02  0.1309995E+00
         -1   -1    0    0    0  501 -0.00000000000E+00  0.00000000000E+00  0.30043776375E+02  0.30043776375E+02  0.00000000000E+00 0.  1.
          1   -1    0    0  501    0  0.00000000000E+00 -0.00000000000E+00 -0.63147981822E+02  0.63147981822E+02  0.00000000000E+00 0. -1.
         23    2    1    2    0    0  0.00000000000E+00  0.00000000000E+00 -0.33104205447E+02  0.93191758197E+02  0.87113807043E+02 0.  0.
          2    1    3    3  502    0  0.25805755790E+02  0.29562407626E+02 -0.36774180611E+02  0.53779302117E+02  0.00000000000E+00 0. -1.
         -2    1    3    3    0  502 -0.25805755790E+02 -0.29562407626E+02  0.36699751638E+01  0.39412456080E+02  0.00000000000E+00 0.  1.
<mgrwt>
<rscale>  0 0.87113807E+02</rscale>
<asrwt>0</asrwt>
<pdfrwt beam="2">  1        1 0.97150739E-02 0.87113807E+02</pdfrwt>
<pdfrwt beam="1">  1       -1 0.46221196E-02 0.87113807E+02</pdfrwt>
<totfact> 0.11012744E+05</totfact>
</mgrwt>
</event>
<event>
 5    1  0.4023633E+001  0.8462509E+02  0.7546771E-02  0.1316416E+00
         -3   -1    0    0    0  501 -0.00000000000E+00  0.00000000000E+00  0.35109844587E+02  0.35109844587E+02  0.00000000000E+00 0.  1.
          3   -1    0    0  501    0  0.00000000000E+00 -0.00000000000E+00 -0.50992861236E+02  0.50992861236E+02  0.00000000000E+00 0. -1.
         23    2    1    2    0    0  0.00000000000E+00  0.00000000000E+00 -0.15883016649E+02  0.86102705823E+02  0.84625089259E+02 0.  0.
          2    1    3    3  502    0  0.22848208038E+02  0.35607575330E+02 -0.72889029674E+01  0.42930969450E+02  0.00000000000E+00 0.  1.
         -2    1    3    3    0  502 -0.22848208038E+02 -0.35607575330E+02 -0.85941136811E+01  0.43171736373E+02  0.00000000000E+00 0. -1.
<mgrwt>
<rscale>  0 0.84625089E+02</rscale>
<asrwt>0</asrwt>
<pdfrwt beam="2">  1        3 0.78450556E-02 0.84625089E+02</pdfrwt>
<pdfrwt beam="1">  1       -3 0.54015145E-02 0.84625089E+02</pdfrwt>
<totfact> 0.43737518E+04</totfact>
</mgrwt>
</event>
<event>
 5    1  0.4023633E+001  0.9267317E+02  0.7546771E-02  0.1296504E+00
         -2   -1    0    0    0  501 -0.00000000000E+00  0.00000000000E+00  0.33864967052E+03  0.33864967052E+03  0.00000000000E+00 0.  1.
          2   -1    0    0  501    0  0.00000000000E+00 -0.00000000000E+00 -0.63401181426E+01  0.63401181426E+01  0.00000000000E+00 0. -1.
         23    2    1    2    0    0  0.00000000000E+00  0.00000000000E+00  0.33230955238E+03  0.34498978866E+03  0.92673165913E+02 0.  0.
          2    1    3    3  502    0 -0.25122553606E+02 -0.32871617213E+02  0.88477683351E+02  0.97672853798E+02  0.00000000000E+00 0. -1.
         -2    1    3    3    0  502  0.25122553606E+02  0.32871617213E+02  0.24383186903E+03  0.24731693487E+03  0.00000000000E+00 0.  1.
<mgrwt>
<rscale>  0 0.92673166E+02</rscale>
<asrwt>0</asrwt>
<pdfrwt beam="2">  1        2 0.97540305E-03 0.92673166E+02</pdfrwt>
<pdfrwt beam="1">  1       -2 0.52099935E-01 0.92673166E+02</pdfrwt>
<totfact> 0.45554048E+04</totfact>
</mgrwt>
</event>
<event>
 5    1  0.4023633E+001  0.9595184E+02  0.7546771E-02  0.1289047E+00
         -4   -1    0    0    0  501 -0.00000000000E+00  0.00000000000E+00  0.28647846003E+02  0.28647846003E+02  0.00000000000E+00 0. -1.
          4   -1    0    0  501    0  0.00000000000E+00 -0.00000000000E+00 -0.80344228088E+02  0.80344228088E+02  0.00000000000E+00 0.  1.
         23    2    1    2    0    0  0.00000000000E+00  0.00000000000E+00 -0.51696382085E+02  0.10899207409E+03  0.95951843620E+02 0.  0.
          2    1    3    3  502    0 -0.37162785941E+02  0.30272126838E+02 -0.23516196269E+02  0.53389941086E+02  0.00000000000E+00 0. -1.
         -2    1    3    3    0  502  0.37162785941E+02 -0.30272126838E+02 -0.28180185816E+02  0.55602133006E+02  0.00000000000E+00 0.  1.
<mgrwt>
<rscale>  0 0.95951844E+02</rscale>
<asrwt>0</asrwt>
<pdfrwt beam="2">  1        4 0.12360650E-01 0.95951844E+02</pdfrwt>
<pdfrwt beam="1">  1       -4 0.44073609E-02 0.95951844E+02</pdfrwt>
<totfact> 0.22553210E+04</totfact>
</mgrwt>
</event>
<event>
 5    1  0.4023633E+001  0.9148897E+02  0.7546771E-02  0.1299285E+00
         -2   -1    0    0    0  501 -0.00000000000E+00  0.00000000000E+00  0.11672813850E+02  0.11672813850E+02  0.00000000000E+00 0.  1.
          2   -1    0    0  501    0  0.00000000000E+00 -0.00000000000E+00 -0.17926765111E+03  0.17926765111E+03  0.00000000000E+00 0. -1.
         23    2    1    2    0    0  0.00000000000E+00  0.00000000000E+00 -0.16759483725E+03  0.19094046496E+03  0.91488970280E+02 0.  0.
          2    1    3    3  502    0  0.24196030198E+02 -0.30591312082E+02 -0.13368062722E+03  0.13925439435E+03  0.00000000000E+00 0.  1.
         -2    1    3    3    0  502 -0.24196030198E+02  0.30591312082E+02 -0.33914210036E+02  0.51686070605E+02  0.00000000000E+00 0. -1.
<mgrwt>
<rscale>  0 0.91488970E+02</rscale>
<asrwt>0</asrwt>
<pdfrwt beam="2">  1        2 0.27579640E-01 0.91488970E+02</pdfrwt>
<pdfrwt beam="1">  1       -2 0.17958174E-02 0.91488970E+02</pdfrwt>
<totfact> 0.14736366E+05</totfact>
</mgrwt>
</event>
<event>
 5    1  0.4023633E+001  0.9119505E+02  0.7546771E-02  0.1299983E+00
          1   -1    0    0  501    0  0.00000000000E+00  0.00000000000E+00  0.54387392838E+03  0.54387392838E+03  0.00000000000E+00 0. -1.
         -1   -1    0    0    0  501 -0.00000000000E+00 -0.00000000000E+00 -0.38228240808E+01  0.38228240808E+01  0.00000000000E+00 0.  1.
         23    2    1    2    0    0  0.00000000000E+00  0.00000000000E+00  0.54005110430E+03  0.54769675246E+03  0.91195051407E+02 0.  0.
          2    1    3    3  502    0  0.23476968375E+02 -0.11513764306E+02  0.45679629601E+02  0.52634241450E+02  0.00000000000E+00 0.  1.
         -2    1    3    3    0  502 -0.23476968375E+02  0.11513764306E+02  0.49437147469E+03  0.49506251101E+03  0.00000000000E+00 0. -1.
<mgrwt>
<rscale>  0 0.91195051E+02</rscale>
<asrwt>0</asrwt>
<pdfrwt beam="1">  1        1 0.83672851E-01 0.91195051E+02</pdfrwt>
<pdfrwt beam="2">  1       -1 0.58812721E-03 0.91195051E+02</pdfrwt>
<totfact> 0.14044121E+05</totfact>
</mgrwt>
</event>
<event>
 5    1  0.4023633E+001  0.9238310E+02  0.7546771E-02  0.1297181E+00
          1   -1    0    0  501    0  0.00000000000E+00  0.00000000000E+00  0.27498607105E+04  0.27498607105E+04  0.00000000000E+00 0. -1.
         -1   -1    0    0    0  501 -0.00000000000E+00 -0.00000000000E+00 -0.77591537541E+00  0.77591537541E+00  0.00000000000E+00 0.  1.
         23    2    1    2    0    0  0.00000000000E+00  0.00000000000E+00  0.27490847951E+04  0.27506366258E+04  0.92383098140E+02 0.  0.
          2    1    3    3  502    0 -0.40252170572E+02 -0.21835512648E+02  0.11943347857E+04  0.11952123691E+04  0.00000000000E+00 0. -1.
         -2    1    3    3    0  502  0.40252170572E+02  0.21835512648E+02  0.15547500094E+04  0.15554242567E+04  0.00000000000E+00 0.  1.
<mgrwt>
<rscale>  0 0.92383098E+02</rscale>
<asrwt>0</asrwt>
<pdfrwt beam="1">  1        1 0.42304769E+00 0.92383098E+02</pdfrwt>
<pdfrwt beam="2">  1       -1 0.11937380E-03 0.92383098E+02</pdfrwt>
<totfact> 0.39589349E+04</totfact>
</mgrwt>
</event>
<event>
 5    1  0.4023633E+001  0.9058435E+02  0.7546771E-02  0.1301443E+00
         -1   -1    0    0    0  501 -0.00000000000E+00  0.00000000000E+00  0.26046577867E+02  0.26046577867E+02  0.00000000000E+00 0.  1.
          1   -1    0    0  501    0  0.00000000000E+00 -0.00000000000E+00 -0.78758178289E+02  0.78758178289E+02  0.00000000000E+00 0. -1.
         23    2    1    2    0    0  0.00000000000E+00  0.00000000000E+00 -0.52711600422E+02  0.10480475616E+03  0.90584347952E+02 0.  0.
          2    1    3    3  502    0 -0.73526876914E+01 -0.31432866784E+02 -0.63112511920E+02  0.70889183176E+02  0.00000000000E+00 0. -1.
         -2    1    3    3    0  502  0.73526876914E+01  0.31432866784E+02  0.10400911498E+02  0.33915572980E+02  0.00000000000E+00 0.  1.
<mgrwt>
<rscale>  0 0.90584348E+02</rscale>
<asrwt>0</asrwt>
<pdfrwt beam="2">  1        1 0.12116643E-01 0.90584348E+02</pdfrwt>
<pdfrwt beam="1">  1       -1 0.40071659E-02 0.90584348E+02</pdfrwt>
<totfact> 0.10230978E+05</totfact>
</mgrwt>
</event>
<event>
 5    1  0.4023633E+001  0.9234586E+02  0.7546771E-02  0.1297268E+00
         -1   -1    0    0    0  501 -0.00000000000E+00  0.00000000000E+00  0.54082212000E+01  0.54082212000E+01  0.00000000000E+00 0.  1.
          1   -1    0    0  501    0  0.00000000000E+00 -0.00000000000E+00 -0.39420346349E+03  0.39420346349E+03  0.00000000000E+00 0. -1.
         23    2    1    2    0    0  0.00000000000E+00  0.00000000000E+00 -0.38879524229E+03  0.39961168469E+03  0.92345861377E+02 0.  0.
          2    1    3    3  502    0  0.28363512198E+02 -0.31608337360E+02 -0.27281247207E+03  0.27609820849E+03  0.00000000000E+00 0. -1.
         -2    1    3    3    0  502 -0.28363512198E+02  0.31608337360E+02 -0.11598277022E+03  0.12351347620E+03  0.00000000000E+00 0.  1.
<mgrwt>
<rscale>  0 0.92345861E+02</rscale>
<asrwt>0</asrwt>
<pdfrwt beam="2">  1        1 0.60646708E-01 0.92345861E+02</pdfrwt>
<pdfrwt beam="1">  1       -1 0.83203374E-03 0.92345861E+02</pdfrwt>
<totfact> 0.13008563E+05</totfact>
</mgrwt>
</event>
<event>
 5    1  0.4023633E+001  0.9032347E+02  0.7546771E-02  0.1302070E+00
         -1   -1    0    0    0  501 -0.00000000000E+00  0.00000000000E+00  0.52143556105E+01  0.52143556105E+01  0.00000000000E+00 0.  1.
          1   -1    0    0  501    0  0.00000000000E+00 -0.00000000000E+00 -0.39114757074E+03  0.39114757074E+03  0.00000000000E+00 0. -1.
         23    2    1    2    0    0  0.00000000000E+00  0.00000000000E+00 -0.38593321513E+03  0.39636192635E+03  0.90323474911E+02 0.  0.
          2    1    3    3  502    0 -0.17607156739E+02 -0.38011559162E+02 -0.26700873225E+03  0.27027495944E+03  0.00000000000E+00 0. -1.
         -2    1    3    3    0  502  0.17607156739E+02  0.38011559162E+02 -0.11892448287E+03  0.12608696691E+03  0.00000000000E+00 0.  1.
<mgrwt>
<rscale>  0 0.90323475E+02</rscale>
<asrwt>0</asrwt>
<pdfrwt beam="2">  1        1 0.60176570E-01 0.90323475E+02</pdfrwt>
<pdfrwt beam="1">  1       -1 0.80220829E-03 0.90323475E+02</pdfrwt>
<totfact> 0.13778909E+05</totfact>
</mgrwt>
</event>
<event>
 5    1  0.4023633E+001  0.9310457E+02  0.7546771E-02  0.1295503E+00
         -1   -1    0    0    0  501 -0.00000000000E+00  0.00000000000E+00  0.15254924435E+02  0.15254924435E+02  0.00000000000E+00 0.  1.
          1   -1    0    0  501    0  0.00000000000E+00 -0.00000000000E+00 -0.14206003144E+03  0.14206003144E+03  0.00000000000E+00 0. -1.
         23    2    1    2    0    0  0.00000000000E+00  0.00000000000E+00 -0.12680510701E+03  0.15731495588E+03  0.93104565838E+02 0.  0.
          2    1    3    3  502    0 -0.37053342895E+01 -0.29182715704E+02 -0.24399365349E+01  0.29518023111E+02  0.00000000000E+00 0.  1.
         -2    1    3    3    0  502  0.37053342895E+01  0.29182715704E+02 -0.12436517047E+03  0.12779693277E+03  0.00000000000E+00 0. -1.
<mgrwt>
<rscale>  0 0.93104566E+02</rscale>
<asrwt>0</asrwt>
<pdfrwt beam="2">  1        1 0.21855388E-01 0.93104566E+02</pdfrwt>
<pdfrwt beam="1">  1       -1 0.23469116E-02 0.93104566E+02</pdfrwt>
<totfact> 0.10491110E+05</totfact>
</mgrwt>
</event>
<event>
 5    1  0.4023633E+001  0.9143470E+02  0.7546771E-02  0.1299414E+00
          4   -1    0    0  501    0  0.00000000000E+00  0.00000000000E+00  0.13906789757E+02  0.13906789757E+02  0.00000000000E+00 0.  1.
         -4   -1    0    0    0  501 -0.00000000000E+00 -0.00000000000E+00 -0.15029177943E+03  0.15029177943E+03  0.00000000000E+00 0. -1.
         23    2    1    2    0    0  0.00000000000E+00  0.00000000000E+00 -0.13638498967E+03  0.16419856919E+03  0.91434701919E+02 0.  0.
          2    1    3    3  502    0 -0.29409699160E+02 -0.25543195546E+01 -0.13088168855E+03  0.13416956194E+03  0.00000000000E+00 0. -1.
         -2    1    3    3    0  502  0.29409699160E+02  0.25543195546E+01 -0.55033011223E+01  0.30029007248E+02  0.00000000000E+00 0.  1.
<mgrwt>
<rscale>  0 0.91434702E+02</rscale>
<asrwt>0</asrwt>
<pdfrwt beam="1">  1        4 0.21395062E-02 0.91434702E+02</pdfrwt>
<pdfrwt beam="2">  1       -4 0.23121811E-01 0.91434702E+02</pdfrwt>
<totfact> 0.22805961E+04</totfact>
</mgrwt>
</event>
<event>
 5    1  0.4023633E+001  0.9040487E+02  0.7546771E-02  0.1301874E+00
         -2   -1    0    0    0  501 -0.00000000000E+00  0.00000000000E+00  0.15462024569E+01  0.15462024569E+01  0.00000000000E+00 0.  1.
          2   -1    0    0  501    0  0.00000000000E+00 -0.00000000000E+00 -0.13214700043E+04  0.13214700043E+04  0.00000000000E+00 0. -1.
         23    2    1    2    0    0  0.00000000000E+00  0.00000000000E+00 -0.13199238018E+04  0.13230162068E+04  0.90404870830E+02 0.  0.
          2    1    3    3  502    0  0.34984523628E+02  0.13223657479E+02 -0.28844597506E+03  0.29086055514E+03  0.00000000000E+00 0.  1.
         -2    1    3    3    0  502 -0.34984523628E+02 -0.13223657479E+02 -0.10314778268E+04  0.10321556516E+04  0.00000000000E+00 0. -1.
<mgrwt>
<rscale>  0 0.90404871E+02</rscale>
<asrwt>0</asrwt>
<pdfrwt beam="2">  1        2 0.20330277E+00 0.90404871E+02</pdfrwt>
<pdfrwt beam="1">  1       -2 0.23787766E-03 0.90404871E+02</pdfrwt>
<totfact> 0.25041970E+05</totfact>
</mgrwt>
</event>
<event>
 5    1  0.4023633E+001  0.9237663E+02  0.7546771E-02  0.1297196E+00
          3   -1    0    0  501    0  0.00000000000E+00  0.00000000000E+00  0.15366785772E+03  0.15366785772E+03  0.00000000000E+00 0. -1.
         -3   -1    0    0    0  501 -0.00000000000E+00 -0.00000000000E+00 -0.13882931815E+02  0.13882931815E+02  0.00000000000E+00 0.  1.
         23    2    1    2    0    0  0.00000000000E+00  0.00000000000E+00  0.13978492590E+03  0.16755078953E+03  0.92376628882E+02 0.  0.
          2    1    3    3  502    0 -0.21086455444E+02 -0.21044999725E+02  0.13391217585E+03  0.13718601043E+03  0.00000000000E+00 0. -1.
         -2    1    3    3    0  502  0.21086455444E+02  0.21044999725E+02  0.58727500479E+01  0.30364779099E+02  0.00000000000E+00 0.  1.
<mgrwt>
<rscale>  0 0.92376629E+02</rscale>
<asrwt>0</asrwt>
<pdfrwt beam="1">  1        3 0.23641208E-01 0.92376629E+02</pdfrwt>
<pdfrwt beam="2">  1       -3 0.21358358E-02 0.92376629E+02</pdfrwt>
<totfact> 0.29212903E+04</totfact>
</mgrwt>
</event>
<event>
 5    1  0.4023633E+001  0.9081902E+02  0.7546771E-02  0.1300880E+00
         -2   -1    0    0    0  501 -0.00000000000E+00  0.00000000000E+00  0.37663832784E+03  0.37663832784E+03  0.00000000000E+00 0.  1.
          2   -1    0    0  501    0  0.00000000000E+00 -0.00000000000E+00 -0.54748110083E+01  0.54748110083E+01  0.00000000000E+00 0. -1.
         23    2    1    2    0    0  0.00000000000E+00  0.00000000000E+00  0.37116351684E+03  0.38211313885E+03  0.90819021431E+02 0.  0.
          2    1    3    3  502    0 -0.57074257657E+01  0.30404529194E+02  0.45720008907E+02  0.55202620580E+02  0.00000000000E+00 0. -1.
         -2    1    3    3    0  502  0.57074257657E+01 -0.30404529194E+02  0.32544350793E+03  0.32691051827E+03  0.00000000000E+00 0.  1.
<mgrwt>
<rscale>  0 0.90819021E+02</rscale>
<asrwt>0</asrwt>
<pdfrwt beam="2">  1        2 0.84227891E-03 0.90819021E+02</pdfrwt>
<pdfrwt beam="1">  1       -2 0.57944338E-01 0.90819021E+02</pdfrwt>
<totfact> 0.44885363E+04</totfact>
</mgrwt>
</event>
<event>
 5    1  0.4023633E+001  0.9120244E+02  0.7546771E-02  0.1299966E+00
          2   -1    0    0  501    0  0.00000000000E+00  0.00000000000E+00  0.67617189628E+02  0.67617189628E+02  0.00000000000E+00 0. -1.
         -2   -1    0    0    0  501 -0.00000000000E+00 -0.00000000000E+00 -0.30753591342E+02  0.30753591342E+02  0.00000000000E+00 0.  1.
         23    2    1    2    0    0  0.00000000000E+00  0.00000000000E+00  0.36863598286E+02  0.98370780970E+02  0.91202443334E+02 0.  0.
          2    1    3    3  502    0 -0.40676874962E+02  0.15553880540E+02  0.33020413890E+02  0.54652347525E+02  0.00000000000E+00 0. -1.
         -2    1    3    3    0  502  0.40676874962E+02 -0.15553880540E+02  0.38431843952E+01  0.43718433444E+02  0.00000000000E+00 0.  1.
<mgrwt>
<rscale>  0 0.91202443E+02</rscale>
<asrwt>0</asrwt>
<pdfrwt beam="1">  1        2 0.10402645E-01 0.91202443E+02</pdfrwt>
<pdfrwt beam="2">  1       -2 0.47313218E-02 0.91202443E+02</pdfrwt>
<totfact> 0.10948108E+05</totfact>
</mgrwt>
</event>
<event>
 5    1  0.4023633E+001  0.8672472E+02  0.7546771E-02  0.1310983E+00
          2   -1    0    0  501    0  0.00000000000E+00  0.00000000000E+00  0.82048654286E+02  0.82048654286E+02  0.00000000000E+00 0. -1.
         -2   -1    0    0    0  501 -0.00000000000E+00 -0.00000000000E+00 -0.22916818573E+02  0.22916818573E+02  0.00000000000E+00 0.  1.
         23    2    1    2    0    0  0.00000000000E+00  0.00000000000E+00  0.59131835714E+02  0.10496547286E+03  0.86724716763E+02 0.  0.
          2    1    3    3  502    0  0.39087620079E+02 -0.34206157274E+01  0.51907938299E+02  0.65069015006E+02  0.00000000000E+00 0. -1.
         -2    1    3    3    0  502 -0.39087620079E+02  0.34206157274E+01  0.72238974151E+01  0.39896457853E+02  0.00000000000E+00 0.  1.
<mgrwt>
<rscale>  0 0.86724717E+02</rscale>
<asrwt>0</asrwt>
<pdfrwt beam="1">  1        2 0.12622870E-01 0.86724717E+02</pdfrwt>
<pdfrwt beam="2">  1       -2 0.35256644E-02 0.86724717E+02</pdfrwt>
<totfact> 0.13285446E+05</totfact>
</mgrwt>
</event>
<event>
 5    1  0.4023633E+001  0.9008850E+02  0.7546771E-02  0.1302638E+00
         -2   -1    0    0    0  501 -0.00000000000E+00  0.00000000000E+00  0.22398357320E+01  0.22398357320E+01  0.00000000000E+00 0. -1.
          2   -1    0    0  501    0  0.00000000000E+00 -0.00000000000E+00 -0.90586304762E+03  0.90586304762E+03  0.00000000000E+00 0.  1.
         23    2    1    2    0    0  0.00000000000E+00  0.00000000000E+00 -0.90362321189E+03  0.90810288335E+03  0.90088499206E+02 0.  0.
          2    1    3    3  502    0  0.33885301958E+02 -0.27724654584E+01 -0.15396424300E+03  0.15767335976E+03  0.00000000000E+00 0. -1.
         -2    1    3    3    0  502 -0.33885301958E+02  0.27724654584E+01 -0.74965896888E+03  0.75042952359E+03  0.00000000000E+00 0.  1.
<mgrwt>
<rscale>  0 0.90088499E+02</rscale>
<asrwt>0</asrwt>
<pdfrwt beam="2">  1        2 0.13936379E+00 0.90088499E+02</pdfrwt>
<pdfrwt beam="1">  1       -2 0.34458950E-03 0.90088499E+02</pdfrwt>
<totfact> 0.25608700E+05</totfact>
</mgrwt>
</event>
<event>
 5    1  0.4023633E+001  0.9611015E+02  0.7546771E-02  0.1288695E+00
          1   -1    0    0  501    0  0.00000000000E+00  0.00000000000E+00  0.32299817000E+03  0.32299817000E+03  0.00000000000E+00 0. -1.
         -1   -1    0    0    0  501 -0.00000000000E+00 -0.00000000000E+00 -0.71495455018E+01  0.71495455018E+01  0.00000000000E+00 0.  1.
         23    2    1    2    0    0  0.00000000000E+00  0.00000000000E+00  0.31584862449E+03  0.33014771550E+03  0.96110147506E+02 0.  0.
          2    1    3    3  502    0  0.93263775461E+01  0.35553973263E+02  0.26425840377E+03  0.26680249305E+03  0.00000000000E+00 0. -1.
         -2    1    3    3    0  502 -0.93263775461E+01 -0.35553973263E+02  0.51590220720E+02  0.63345222447E+02  0.00000000000E+00 0.  1.
<mgrwt>
<rscale>  0 0.96110148E+02</rscale>
<asrwt>0</asrwt>
<pdfrwt beam="1">  1        1 0.49692015E-01 0.96110148E+02</pdfrwt>
<pdfrwt beam="2">  1       -1 0.10999303E-02 0.96110148E+02</pdfrwt>
<totfact> 0.11286284E+05</totfact>
</mgrwt>
</event>
<event>
 5    1  0.4023633E+001  0.9077765E+02  0.7546771E-02  0.1300979E+00
         -1   -1    0    0    0  501 -0.00000000000E+00  0.00000000000E+00  0.20867868584E+02  0.20867868584E+02  0.00000000000E+00 0.  1.
          1   -1    0    0  501    0  0.00000000000E+00 -0.00000000000E+00 -0.98723334939E+02  0.98723334939E+02  0.00000000000E+00 0. -1.
         23    2    1    2    0    0  0.00000000000E+00  0.00000000000E+00 -0.77855466354E+02  0.11959120352E+03  0.90777653191E+02 0.  0.
          2    1    3    3  502    0  0.77392114150E+01 -0.41493738192E+02 -0.60913842493E+02  0.74108851764E+02  0.00000000000E+00 0. -1.
         -2    1    3    3    0  502 -0.77392114150E+01  0.41493738192E+02 -0.16941623861E+02  0.45482351759E+02  0.00000000000E+00 0.  1.
<mgrwt>
<rscale>  0 0.90777653E+02</rscale>
<asrwt>0</asrwt>
<pdfrwt beam="2">  1        1 0.15188206E-01 0.90777653E+02</pdfrwt>
<pdfrwt beam="1">  1       -1 0.32104413E-02 0.90777653E+02</pdfrwt>
<totfact> 0.10548315E+05</totfact>
</mgrwt>
</event>
<event>
 5    1  0.4023633E+001  0.9069378E+02  0.7546771E-02  0.1301180E+00
          1   -1    0    0  501    0  0.00000000000E+00  0.00000000000E+00  0.51328825361E+03  0.51328825361E+03  0.00000000000E+00 0. -1.
         -1   -1    0    0    0  501 -0.00000000000E+00 -0.00000000000E+00 -0.40062097002E+01  0.40062097002E+01  0.00000000000E+00 0.  1.
         23    2    1    2    0    0  0.00000000000E+00  0.00000000000E+00  0.50928204391E+03  0.51729446331E+03  0.90693778851E+02 0.  0.
          2    1    3    3  502    0  0.40384506905E+02 -0.45863054795E+01  0.36934136490E+03  0.37157097091E+03  0.00000000000E+00 0. -1.
         -2    1    3    3    0  502 -0.40384506905E+02  0.45863054795E+01  0.13994067900E+03  0.14572349240E+03  0.00000000000E+00 0.  1.
<mgrwt>
<rscale>  0 0.90693779E+02</rscale>
<asrwt>0</asrwt>
<pdfrwt beam="1">  1        1 0.78967372E-01 0.90693779E+02</pdfrwt>
<pdfrwt beam="2">  1       -1 0.61634036E-03 0.90693779E+02</pdfrwt>
<totfact> 0.14166295E+05</totfact>
</mgrwt>
</event>
<event>
 5    1  0.4023633E+001  0.9220915E+02  0.7546771E-02  0.1297588E+00
          2   -1    0    0  501    0  0.00000000000E+00  0.00000000000E+00  0.46613638494E+02  0.46613638494E+02  0.00000000000E+00 0.  1.
         -2   -1    0    0    0  501 -0.00000000000E+00 -0.00000000000E+00 -0.45601075379E+02  0.45601075379E+02  0.00000000000E+00 0. -1.
         23    2    1    2    0    0  0.00000000000E+00  0.00000000000E+00  0.10125631142E+01  0.92214713873E+02  0.92209154484E+02 0.  0.
          2    1    3    3  502    0  0.31825956943E+02  0.17015970906E+02 -0.28186862351E+02  0.45792292041E+02  0.00000000000E+00 0. -1.
         -2    1    3    3    0  502 -0.31825956943E+02 -0.17015970906E+02  0.29199425465E+02  0.46422421832E+02  0.00000000000E+00 0.  1.
<mgrwt>
<rscale>  0 0.92209154E+02</rscale>
<asrwt>0</asrwt>
<pdfrwt beam="1">  1        2 0.71713290E-02 0.92209154E+02</pdfrwt>
<pdfrwt beam="2">  1       -2 0.70155501E-02 0.92209154E+02</pdfrwt>
<totfact> 0.96089108E+04</totfact>
</mgrwt>
</event>
<event>
 5    1  0.4023633E+001  0.9058907E+02  0.7546771E-02  0.1301431E+00
         -2   -1    0    0    0  501 -0.00000000000E+00  0.00000000000E+00  0.25479319696E+01  0.25479319696E+01  0.00000000000E+00 0. -1.
          2   -1    0    0  501    0  0.00000000000E+00 -0.00000000000E+00 -0.80519999791E+03  0.80519999791E+03  0.00000000000E+00 0.  1.
         23    2    1    2    0    0  0.00000000000E+00  0.00000000000E+00 -0.80265206594E+03  0.80774792988E+03  0.90589068139E+02 0.  0.
          2    1    3    3  502    0 -0.49500024179E+01  0.39741158897E+02 -0.58999888365E+03  0.59135652947E+03  0.00000000000E+00 0. -1.
         -2    1    3    3    0  502  0.49500024179E+01 -0.39741158897E+02 -0.21265318229E+03  0.21639140041E+03  0.00000000000E+00 0.  1.
<mgrwt>
<rscale>  0 0.90589068E+02</rscale>
<asrwt>0</asrwt>
<pdfrwt beam="2">  1        2 0.12387688E+00 0.90589068E+02</pdfrwt>
<pdfrwt beam="1">  1       -2 0.39198966E-03 0.90589068E+02</pdfrwt>
<totfact> 0.24820716E+05</totfact>
</mgrwt>
</event>
<event>
 5    1  0.4023633E+001  0.9128834E+02  0.7546771E-02  0.1299761E+00
          2   -1    0    0  501    0  0.00000000000E+00  0.00000000000E+00  0.10150444550E+04  0.10150444550E+04  0.00000000000E+00 0. -1.
         -2   -1    0    0    0  501 -0.00000000000E+00 -0.00000000000E+00 -0.20525112734E+01  0.20525112734E+01  0.00000000000E+00 0.  1.
         23    2    1    2    0    0  0.00000000000E+00  0.00000000000E+00  0.10129919437E+04  0.10170969662E+04  0.91288338508E+02 0.  0.
          2    1    3    3  502    0 -0.35252689195E+02  0.52164420062E+01  0.82426114793E+03  0.82503115296E+03  0.00000000000E+00 0. -1.
         -2    1    3    3    0  502  0.35252689195E+02 -0.52164420062E+01  0.18873079577E+03  0.19206581329E+03  0.00000000000E+00 0.  1.
<mgrwt>
<rscale>  0 0.91288339E+02</rscale>
<asrwt>0</asrwt>
<pdfrwt beam="1">  1        2 0.15616028E+00 0.91288339E+02</pdfrwt>
<pdfrwt beam="2">  1       -2 0.31577178E-03 0.91288339E+02</pdfrwt>
<totfact> 0.24935247E+05</totfact>
</mgrwt>
</event>
<event>
 5    1  0.4023633E+001  0.9093412E+02  0.7546771E-02  0.1300605E+00
         -2   -1    0    0    0  501 -0.00000000000E+00  0.00000000000E+00  0.43577037682E+02  0.43577037682E+02  0.00000000000E+00 0.  1.
          2   -1    0    0  501    0  0.00000000000E+00 -0.00000000000E+00 -0.47439058013E+02  0.47439058013E+02  0.00000000000E+00 0. -1.
         23    2    1    2    0    0  0.00000000000E+00  0.00000000000E+00 -0.38620203309E+01  0.91016095694E+02  0.90934121618E+02 0.  0.
          2    1    3    3  502    0 -0.39378444818E+02  0.22728559510E+02 -0.19965280548E+01  0.45510827920E+02  0.00000000000E+00 0. -1.
         -2    1    3    3    0  502  0.39378444818E+02 -0.22728559510E+02 -0.18654922761E+01  0.45505267774E+02  0.00000000000E+00 0.  1.
<mgrwt>
<rscale>  0 0.90934122E+02</rscale>
<asrwt>0</asrwt>
<pdfrwt beam="2">  1        2 0.72983166E-02 0.90934122E+02</pdfrwt>
<pdfrwt beam="1">  1       -2 0.67041597E-02 0.90934122E+02</pdfrwt>
<totfact> 0.10046387E+05</totfact>
</mgrwt>
</event>
<event>
 5    1  0.4023633E+001  0.9103887E+02  0.7546771E-02  0.1300355E+00
         -3   -1    0    0    0  501 -0.00000000000E+00  0.00000000000E+00  0.19429985703E+01  0.19429985703E+01  0.00000000000E+00 0.  1.
          3   -1    0    0  501    0  0.00000000000E+00 -0.00000000000E+00 -0.10664027910E+04  0.10664027910E+04  0.00000000000E+00 0. -1.
         23    2    1    2    0    0  0.00000000000E+00  0.00000000000E+00 -0.10644597924E+04  0.10683457896E+04  0.91038872979E+02 0.  0.
          2    1    3    3  502    0  0.12894086446E+01 -0.25616717428E+02 -0.97352714646E+03  0.97386497200E+03  0.00000000000E+00 0. -1.
         -2    1    3    3    0  502 -0.12894086446E+01  0.25616717428E+02 -0.90932645971E+02  0.94480817576E+02  0.00000000000E+00 0.  1.
<mgrwt>
<rscale>  0 0.91038873E+02</rscale>
<asrwt>0</asrwt>
<pdfrwt beam="2">  1        3 0.16406146E+00 0.91038873E+02</pdfrwt>
<pdfrwt beam="1">  1       -3 0.29892379E-03 0.91038873E+02</pdfrwt>
<totfact> 0.93818748E+03</totfact>
</mgrwt>
</event>
<event>
 5    1  0.4023633E+001  0.9133551E+02  0.7546771E-02  0.1299649E+00
          2   -1    0    0  501    0  0.00000000000E+00  0.00000000000E+00  0.45699752860E+01  0.45699752860E+01  0.00000000000E+00 0. -1.
         -2   -1    0    0    0  501 -0.00000000000E+00 -0.00000000000E+00 -0.45635784195E+03  0.45635784195E+03  0.00000000000E+00 0.  1.
         23    2    1    2    0    0  0.00000000000E+00  0.00000000000E+00 -0.45178786667E+03  0.46092781724E+03  0.91335514655E+02 0.  0.
          2    1    3    3  502    0 -0.43928607971E+02 -0.11548230428E+02 -0.20197749414E+03  0.20702171955E+03  0.00000000000E+00 0. -1.
         -2    1    3    3    0  502  0.43928607971E+02  0.11548230428E+02 -0.24981037252E+03  0.25390609769E+03  0.00000000000E+00 0.  1.
<mgrwt>
<rscale>  0 0.91335515E+02</rscale>
<asrwt>0</asrwt>
<pdfrwt beam="1">  1        2 0.70307288E-03 0.91335515E+02</pdfrwt>
<pdfrwt beam="2">  1       -2 0.70208923E-01 0.91335515E+02</pdfrwt>
<totfact> 0.38726472E+04</totfact>
</mgrwt>
</event>
<event>
 5    1  0.4023633E+001  0.9202034E+02  0.7546771E-02  0.1298032E+00
          2   -1    0    0  501    0  0.00000000000E+00  0.00000000000E+00  0.23891042828E+04  0.23891042828E+04  0.00000000000E+00 0. -1.
         -2   -1    0    0    0  501 -0.00000000000E+00 -0.00000000000E+00 -0.88607930137E+00  0.88607930137E+00  0.00000000000E+00 0.  1.
         23    2    1    2    0    0  0.00000000000E+00  0.00000000000E+00  0.23882182035E+04  0.23899903621E+04  0.92020342399E+02 0.  0.
          2    1    3    3  502    0 -0.50620135047E+01  0.36142577120E+02  0.19218123659E+04  0.19221588591E+04  0.00000000000E+00 0. -1.
         -2    1    3    3    0  502  0.50620135047E+01 -0.36142577120E+02  0.46640583766E+03  0.46783150307E+03  0.00000000000E+00 0.  1.
<mgrwt>
<rscale>  0 0.92020342E+02</rscale>
<asrwt>0</asrwt>
<pdfrwt beam="1">  1        2 0.36754935E+00 0.92020342E+02</pdfrwt>
<pdfrwt beam="2">  1       -2 0.13632180E-03 0.92020342E+02</pdfrwt>
<totfact> 0.15557174E+05</totfact>
</mgrwt>
</event>
<event>
 5    1  0.4023633E+001  0.8926689E+02  0.7546771E-02  0.1304637E+00
         -2   -1    0    0    0  501 -0.00000000000E+00  0.00000000000E+00  0.45653950457E+01  0.45653950457E+01  0.00000000000E+00 0.  1.
          2   -1    0    0  501    0  0.00000000000E+00 -0.00000000000E+00 -0.43635754147E+03  0.43635754147E+03  0.00000000000E+00 0. -1.
         23    2    1    2    0    0  0.00000000000E+00  0.00000000000E+00 -0.43179214643E+03  0.44092293652E+03  0.89266893259E+02 0.  0.
          2    1    3    3  502    0  0.14412894032E+02  0.38901445660E+02 -0.29722208507E+03  0.30010335194E+03  0.00000000000E+00 0. -1.
         -2    1    3    3    0  502 -0.14412894032E+02 -0.38901445660E+02 -0.13457006136E+03  0.14081958458E+03  0.00000000000E+00 0.  1.
<mgrwt>
<rscale>  0 0.89266893E+02</rscale>
<asrwt>0</asrwt>
<pdfrwt beam="2">  1        2 0.67131940E-01 0.89266893E+02</pdfrwt>
<pdfrwt beam="1">  1       -2 0.70236836E-03 0.89266893E+02</pdfrwt>
<totfact> 0.21770867E+05</totfact>
</mgrwt>
</event>
<event>
 5    1  0.4023633E+001  0.8991857E+02  0.7546771E-02  0.1303049E+00
         -2   -1    0    0    0  501 -0.00000000000E+00  0.00000000000E+00  0.18708881693E+01  0.18708881693E+01  0.00000000000E+00 0.  1.
          2   -1    0    0  501    0  0.00000000000E+00 -0.00000000000E+00 -0.10804158057E+04  0.10804158057E+04  0.00000000000E+00 0. -1.
         23    2    1    2    0    0  0.00000000000E+00  0.00000000000E+00 -0.10785449175E+04  0.10822866939E+04  0.89918566465E+02 0.  0.
          2    1    3    3  502    0  0.14268213260E+01  0.28962484460E+02 -0.12572867878E+03  0.12902930672E+03  0.00000000000E+00 0. -1.
         -2    1    3    3    0  502 -0.14268213260E+01 -0.28962484460E+02 -0.95281623875E+03  0.95325738714E+03  0.00000000000E+00 0.  1.
<mgrwt>
<rscale>  0 0.89918566E+02</rscale>
<asrwt>0</asrwt>
<pdfrwt beam="2">  1        2 0.16621821E+00 0.89918566E+02</pdfrwt>
<pdfrwt beam="1">  1       -2 0.28782826E-03 0.89918566E+02</pdfrwt>
<totfact> 0.25961474E+05</totfact>
</mgrwt>
</event>
<event>
 5    1  0.4023633E+001  0.9115141E+02  0.7546771E-02  0.1300087E+00
         -2   -1    0    0    0  501 -0.00000000000E+00  0.00000000000E+00  0.21961737177E+01  0.21961737177E+01  0.00000000000E+00 0. -1.
          2   -1    0    0  501    0  0.00000000000E+00 -0.00000000000E+00 -0.94580163557E+03  0.94580163557E+03  0.00000000000E+00 0.  1.
         23    2    1    2    0    0  0.00000000000E+00  0.00000000000E+00 -0.94360546185E+03  0.94799780929E+03  0.91151405785E+02 0.  0.
          2    1    3    3  502    0 -0.32219968607E+01  0.36096646512E+02 -0.18437244818E+03  0.18790036935E+03  0.00000000000E+00 0. -1.
         -2    1    3    3    0  502  0.32219968607E+01 -0.36096646512E+02 -0.75923301367E+03  0.76009743993E+03  0.00000000000E+00 0.  1.
<mgrwt>
<rscale>  0 0.91151406E+02</rscale>
<asrwt>0</asrwt>
<pdfrwt beam="2">  1        2 0.14550836E+00 0.91151406E+02</pdfrwt>
<pdfrwt beam="1">  1       -2 0.33787191E-03 0.91151406E+02</pdfrwt>
<totfact> 0.24932370E+05</totfact>
</mgrwt>
</event>
<event>
 5    1  0.4023633E+001  0.9110884E+02  0.7546771E-02  0.1300188E+00
         -1   -1    0    0    0  501 -0.00000000000E+00  0.00000000000E+00  0.26204246652E+01  0.26204246652E+01  0.00000000000E+00 0.  1.
          1   -1    0    0  501    0  0.00000000000E+00 -0.00000000000E+00 -0.79193464002E+03  0.79193464002E+03  0.00000000000E+00 0. -1.
         23    2    1    2    0    0  0.00000000000E+00  0.00000000000E+00 -0.78931421536E+03  0.79455506469E+03  0.91108837418E+02 0.  0.
          2    1    3    3  502    0 -0.15714214440E+02  0.31019438230E+02 -0.65130531376E+03  0.65223289845E+03  0.00000000000E+00 0. -1.
         -2    1    3    3    0  502  0.15714214440E+02 -0.31019438230E+02 -0.13800890159E+03  0.14232216624E+03  0.00000000000E+00 0.  1.
<mgrwt>
<rscale>  0 0.91108837E+02</rscale>
<asrwt>0</asrwt>
<pdfrwt beam="2">  1        1 0.12183618E+00 0.91108837E+02</pdfrwt>
<pdfrwt beam="1">  1       -1 0.40314200E-03 0.91108837E+02</pdfrwt>
<totfact> 0.14169823E+05</totfact>
</mgrwt>
</event>
<event>
 5    1  0.4023633E+001  0.9334703E+02  0.7546771E-02  0.1294943E+00
          1   -1    0    0  501    0  0.00000000000E+00  0.00000000000E+00  0.36790843103E+01  0.36790843103E+01  0.00000000000E+00 0. -1.
         -1   -1    0    0    0  501 -0.00000000000E+00 -0.00000000000E+00 -0.59210847276E+03  0.59210847276E+03  0.00000000000E+00 0.  1.
         23    2    1    2    0    0  0.00000000000E+00  0.00000000000E+00 -0.58842938845E+03  0.59578755707E+03  0.93347029779E+02 0.  0.
          2    1    3    3  502    0 -0.29922741468E+02  0.73530116764E+01 -0.70464567748E+02  0.76907038335E+02  0.00000000000E+00 0. -1.
         -2    1    3    3    0  502  0.29922741468E+02 -0.73530116764E+01 -0.51796482070E+03  0.51888051873E+03  0.00000000000E+00 0.  1.
<mgrwt>
<rscale>  0 0.93347030E+02</rscale>
<asrwt>0</asrwt>
<pdfrwt beam="1">  1        1 0.56601304E-03 0.93347030E+02</pdfrwt>
<pdfrwt beam="2">  1       -1 0.91093600E-01 0.93347030E+02</pdfrwt>
<totfact> 0.39499077E+04</totfact>
</mgrwt>
</event>
<event>
 5    1  0.4023633E+001  0.8760069E+02  0.7546771E-02  0.1308768E+00
          2   -1    0    0  501    0  0.00000000000E+00  0.00000000000E+00  0.26767506851E+03  0.26767506851E+03  0.00000000000E+00 0. -1.
         -2   -1    0    0    0  501 -0.00000000000E+00 -0.00000000000E+00 -0.71671599839E+01  0.71671599839E+01  0.00000000000E+00 0.  1.
         23    2    1    2    0    0  0.00000000000E+00  0.00000000000E+00  0.26050790853E+03  0.27484222850E+03  0.87600685836E+02 0.  0.
          2    1    3    3  502    0  0.26306738665E+02  0.26330939170E+01  0.23981735310E+03  0.24127026450E+03  0.00000000000E+00 0. -1.
         -2    1    3    3    0  502 -0.26306738665E+02 -0.26330939170E+01  0.20690555427E+02  0.33571963997E+02  0.00000000000E+00 0.  1.
<mgrwt>
<rscale>  0 0.87600686E+02</rscale>
<asrwt>0</asrwt>
<pdfrwt beam="1">  1        2 0.41180772E-01 0.87600686E+02</pdfrwt>
<pdfrwt beam="2">  1       -2 0.11026402E-02 0.87600686E+02</pdfrwt>
<totfact> 0.19156717E+05</totfact>
</mgrwt>
</event>
<event>
 5    1  0.4023633E+001  0.9089345E+02  0.7546771E-02  0.1300702E+00
         -2   -1    0    0    0  501 -0.00000000000E+00  0.00000000000E+00  0.17952864118E+01  0.17952864118E+01  0.00000000000E+00 0.  1.
          2   -1    0    0  501    0  0.00000000000E+00 -0.00000000000E+00 -0.11504597659E+04  0.11504597659E+04  0.00000000000E+00 0. -1.
         23    2    1    2    0    0  0.00000000000E+00  0.00000000000E+00 -0.11486644795E+04  0.11522550523E+04  0.90893449380E+02 0.  0.
          2    1    3    3  502    0  0.28036809387E+01  0.40203708467E+02 -0.84061112667E+03  0.84157665431E+03  0.00000000000E+00 0. -1.
         -2    1    3    3    0  502 -0.28036809387E+01 -0.40203708467E+02 -0.30805335282E+03  0.31067839801E+03  0.00000000000E+00 0.  1.
<mgrwt>
<rscale>  0 0.90893449E+02</rscale>
<asrwt>0</asrwt>
<pdfrwt beam="2">  1        2 0.17699430E+00 0.90893449E+02</pdfrwt>
<pdfrwt beam="1">  1       -2 0.27619714E-03 0.90893449E+02</pdfrwt>
<totfact> 0.25168130E+05</totfact>
</mgrwt>
</event>
<event>
 5    1  0.4023633E+001  0.7837730E+02  0.7546771E-02  0.1333721E+00
          2   -1    0    0  501    0  0.00000000000E+00  0.00000000000E+00  0.23338210812E+03  0.23338210812E+03  0.00000000000E+00 0. -1.
         -2   -1    0    0    0  501 -0.00000000000E+00 -0.00000000000E+00 -0.65804111169E+01  0.65804111169E+01  0.00000000000E+00 0.  1.
         23    2    1    2    0    0  0.00000000000E+00  0.00000000000E+00  0.22680169701E+03  0.23996251924E+03  0.78377298213E+02 0.  0.
          2    1    3    3  502    0  0.56808816419E+01  0.38548569133E+02  0.12620331495E+03  0.13208157064E+03  0.00000000000E+00 0. -1.
         -2    1    3    3    0  502 -0.56808816419E+01 -0.38548569133E+02  0.10059838206E+03  0.10788094860E+03  0.00000000000E+00 0.  1.
<mgrwt>
<rscale>  0 0.78377298E+02</rscale>
<asrwt>0</asrwt>
<pdfrwt beam="1">  1        2 0.35904933E-01 0.78377298E+02</pdfrwt>
<pdfrwt beam="2">  1       -2 0.10123711E-02 0.78377298E+02</pdfrwt>
<totfact> 0.24464446E+05</totfact>
</mgrwt>
</event>
<event>
 5    1  0.4023633E+001  0.8994654E+02  0.7546771E-02  0.1302981E+00
          1   -1    0    0  501    0  0.00000000000E+00  0.00000000000E+00  0.42881834349E+03  0.42881834349E+03  0.00000000000E+00 0. -1.
         -1   -1    0    0    0  501 -0.00000000000E+00 -0.00000000000E+00 -0.47166710508E+01  0.47166710508E+01  0.00000000000E+00 0.  1.
         23    2    1    2    0    0  0.00000000000E+00  0.00000000000E+00  0.42410167244E+03  0.43353501454E+03  0.89946541163E+02 0.  0.
          2    1    3    3  502    0  0.35539202150E+02 -0.13054254446E+02  0.95060118263E+02  0.10232240484E+03  0.00000000000E+00 0.  1.
         -2    1    3    3    0  502 -0.35539202150E+02  0.13054254446E+02  0.32904155417E+03  0.33121260969E+03  0.00000000000E+00 0. -1.
<mgrwt>
<rscale>  0 0.89946541E+02</rscale>
<asrwt>0</asrwt>
<pdfrwt beam="1">  1        1 0.65972022E-01 0.89946541E+02</pdfrwt>
<pdfrwt beam="2">  1       -1 0.72564204E-03 0.89946541E+02</pdfrwt>
<totfact> 0.14138463E+05</totfact>
</mgrwt>
</event>
<event>
 5    1  0.4023633E+001  0.9242343E+02  0.7546771E-02  0.1297087E+00
         -1   -1    0    0    0  501 -0.00000000000E+00  0.00000000000E+00  0.39045618874E+03  0.39045618874E+03  0.00000000000E+00 0.  1.
          1   -1    0    0  501    0  0.00000000000E+00 -0.00000000000E+00 -0.54693014836E+01  0.54693014836E+01  0.00000000000E+00 0. -1.
         23    2    1    2    0    0  0.00000000000E+00  0.00000000000E+00  0.38498688726E+03  0.39592549022E+03  0.92423430197E+02 0.  0.
          2    1    3    3  502    0 -0.45082880010E+02 -0.11505985273E+01  0.14928569955E+03  0.15594874170E+03  0.00000000000E+00 0. -1.
         -2    1    3    3    0  502  0.45082880010E+02  0.11505985273E+01  0.23570118770E+03  0.23997674852E+03  0.00000000000E+00 0.  1.
<mgrwt>
<rscale>  0 0.92423430E+02</rscale>
<asrwt>0</asrwt>
<pdfrwt beam="2">  1        1 0.84143130E-03 0.92423430E+02</pdfrwt>
<pdfrwt beam="1">  1       -1 0.60070161E-01 0.92423430E+02</pdfrwt>
<totfact> 0.52050043E+04</totfact>
</mgrwt>
</event>
<event>
 5    1  0.4023633E+001  0.1058273E+03  0.7546771E-02  0.1268498E+00
         -1   -1    0    0    0  501 -0.00000000000E+00  0.00000000000E+00  0.25952143322E+03  0.25952143322E+03  0.00000000000E+00 0.  1.
          1   -1    0    0  501    0  0.00000000000E+00 -0.00000000000E+00 -0.10788529052E+02  0.10788529052E+02  0.00000000000E+00 0. -1.
         23    2    1    2    0    0  0.00000000000E+00  0.00000000000E+00  0.24873290417E+03  0.27030996227E+03  0.10582730313E+03 0.  0.
          2    1    3    3  502    0  0.15977780371E+02  0.25413082771E+02  0.13065954747E+02  0.32738867039E+02  0.00000000000E+00 0. -1.
         -2    1    3    3    0  502 -0.15977780371E+02 -0.25413082771E+02  0.23566694942E+03  0.23757109524E+03  0.00000000000E+00 0.  1.
<mgrwt>
<rscale>  0 0.10582730E+03</rscale>
<asrwt>0</asrwt>
<pdfrwt beam="2">  1        1 0.16597739E-02 0.10582730E+03</pdfrwt>
<pdfrwt beam="1">  1       -1 0.39926370E-01 0.10582730E+03</pdfrwt>
<totfact> 0.43238980E+04</totfact>
</mgrwt>
</event>
<event>
 4    1  0.4023633E+001  0.1800723E+03  0.7546771E-02  0.1167733E+00
         -2   -1    0    0    0  501 -0.00000000000E+00  0.00000000000E+00  0.28059485406E+01  0.28059485406E+01  0.00000000000E+00 0.  1.
          2   -1    0    0  501    0  0.00000000000E+00 -0.00000000000E+00 -0.28890440736E+04  0.28890440736E+04  0.00000000000E+00 0. -1.
          2    1    1    2  502    0 -0.79465850056E+02  0.38777369824E+02 -0.17156573623E+04  0.17179344256E+04  0.00000000000E+00 0. -1.
         -2    1    1    2    0  502  0.79465850056E+02 -0.38777369824E+02 -0.11705807628E+04  0.11739155966E+04  0.00000000000E+00 0.  1.
<mgrwt>
<rscale>  0 0.18007231E+03</rscale>
<asrwt>0</asrwt>
<pdfrwt beam="2">  1        2 0.44446801E+00 0.18007231E+03</pdfrwt>
<pdfrwt beam="1">  1       -2 0.43168469E-03 0.18007231E+03</pdfrwt>
<totfact> 0.17245067E+04</totfact>
</mgrwt>
</event>
<event>
 5    1  0.4023633E+001  0.9009174E+02  0.7546771E-02  0.1302630E+00
          2   -1    0    0  501    0  0.00000000000E+00  0.00000000000E+00  0.10662516977E+04  0.10662516977E+04  0.00000000000E+00 0. -1.
         -2   -1    0    0    0  501 -0.00000000000E+00 -0.00000000000E+00 -0.19030499831E+01  0.19030499831E+01  0.00000000000E+00 0.  1.
         23    2    1    2    0    0  0.00000000000E+00  0.00000000000E+00  0.10643486477E+04  0.10681547477E+04  0.90091737141E+02 0.  0.
          2    1    3    3  502    0 -0.29902302784E+02  0.32735187120E+02  0.62657169291E+03  0.62813838169E+03  0.00000000000E+00 0. -1.
         -2    1    3    3    0  502  0.29902302784E+02 -0.32735187120E+02  0.43777695478E+03  0.44001636597E+03  0.00000000000E+00 0.  1.
<mgrwt>
<rscale>  0 0.90091737E+02</rscale>
<asrwt>0</asrwt>
<pdfrwt beam="1">  1        2 0.16403824E+00 0.90091737E+02</pdfrwt>
<pdfrwt beam="2">  1       -2 0.29277777E-03 0.90091737E+02</pdfrwt>
<totfact> 0.25834034E+05</totfact>
</mgrwt>
</event>
<event>
 5    1  0.4023633E+001  0.9091221E+02  0.7546771E-02  0.1300658E+00
         -3   -1    0    0    0  501 -0.00000000000E+00  0.00000000000E+00  0.10420157788E+02  0.10420157788E+02  0.00000000000E+00 0.  1.
          3   -1    0    0  501    0  0.00000000000E+00 -0.00000000000E+00 -0.19829425796E+03  0.19829425796E+03  0.00000000000E+00 0. -1.
         23    2    1    2    0    0  0.00000000000E+00  0.00000000000E+00 -0.18787410017E+03  0.20871441575E+03  0.90912209443E+02 0.  0.
          2    1    3    3  502    0  0.40097441539E+02  0.19409761586E+02 -0.11468990838E+03  0.12303787526E+03  0.00000000000E+00 0. -1.
         -2    1    3    3    0  502 -0.40097441539E+02 -0.19409761586E+02 -0.73184191790E+02  0.85676540493E+02  0.00000000000E+00 0.  1.
<mgrwt>
<rscale>  0 0.90912209E+02</rscale>
<asrwt>0</asrwt>
<pdfrwt beam="2">  1        3 0.30506808E-01 0.90912209E+02</pdfrwt>
<pdfrwt beam="1">  1       -3 0.16031013E-02 0.90912209E+02</pdfrwt>
<totfact> 0.28274945E+04</totfact>
</mgrwt>
</event>
<event>
 5    1  0.4023633E+001  0.9050835E+02  0.7546771E-02  0.1301625E+00
          2   -1    0    0  501    0  0.00000000000E+00  0.00000000000E+00  0.13911229900E+04  0.13911229900E+04  0.00000000000E+00 0. -1.
         -2   -1    0    0    0  501 -0.00000000000E+00 -0.00000000000E+00 -0.14721489554E+01  0.14721489554E+01  0.00000000000E+00 0.  1.
         23    2    1    2    0    0  0.00000000000E+00  0.00000000000E+00  0.13896508411E+04  0.13925951390E+04  0.90508347826E+02 0.  0.
          2    1    3    3  502    0 -0.78339882515E+01  0.33781347319E+02  0.11421931482E+04  0.11427194487E+04  0.00000000000E+00 0. -1.
         -2    1    3    3    0  502  0.78339882515E+01 -0.33781347319E+02  0.24745769288E+03  0.24987569022E+03  0.00000000000E+00 0.  1.
<mgrwt>
<rscale>  0 0.90508348E+02</rscale>
<asrwt>0</asrwt>
<pdfrwt beam="1">  1        2 0.21401787E+00 0.90508348E+02</pdfrwt>
<pdfrwt beam="2">  1       -2 0.22648557E-03 0.90508348E+02</pdfrwt>
<totfact> 0.24656115E+05</totfact>
</mgrwt>
</event>
<event>
 5    1  0.4023633E+001  0.9092932E+02  0.7546771E-02  0.1300617E+00
          3   -1    0    0  501    0  0.00000000000E+00  0.00000000000E+00  0.84554864015E+01  0.84554864015E+01  0.00000000000E+00 0. -1.
         -3   -1    0    0    0  501 -0.00000000000E+00 -0.00000000000E+00 -0.24446082673E+03  0.24446082673E+03  0.00000000000E+00 0.  1.
         23    2    1    2    0    0  0.00000000000E+00  0.00000000000E+00 -0.23600534033E+03  0.25291631313E+03  0.90929317519E+02 0.  0.
          2    1    3    3  502    0 -0.10224518819E+02  0.24606006032E+02 -0.15539201017E+02  0.30845795276E+02  0.00000000000E+00 0. -1.
         -2    1    3    3    0  502  0.10224518819E+02 -0.24606006032E+02 -0.22046613931E+03  0.22207051786E+03  0.00000000000E+00 0.  1.
<mgrwt>
<rscale>  0 0.90929318E+02</rscale>
<asrwt>0</asrwt>
<pdfrwt beam="1">  1        3 0.13008442E-02 0.90929318E+02</pdfrwt>
<pdfrwt beam="2">  1       -3 0.37609355E-01 0.90929318E+02</pdfrwt>
<totfact> 0.26160903E+04</totfact>
</mgrwt>
</event>
<event>
 5    1  0.4023633E+001  0.8962635E+02  0.7546771E-02  0.1303759E+00
          2   -1    0    0  501    0  0.00000000000E+00  0.00000000000E+00  0.24006752326E+04  0.24006752326E+04  0.00000000000E+00 0. -1.
         -2   -1    0    0    0  501 -0.00000000000E+00 -0.00000000000E+00 -0.83652322121E+00  0.83652322121E+00  0.00000000000E+00 0.  1.
         23    2    1    2    0    0  0.00000000000E+00  0.00000000000E+00  0.23998387094E+04  0.24015117558E+04  0.89626348328E+02 0.  0.
          2    1    3    3  502    0 -0.26841766852E+02 -0.12816400313E+02  0.20980338177E+04  0.20982446570E+04  0.00000000000E+00 0. -1.
         -2    1    3    3    0  502  0.26841766852E+02  0.12816400313E+02  0.30180489167E+03  0.30326709877E+03  0.00000000000E+00 0.  1.
<mgrwt>
<rscale>  0 0.89626348E+02</rscale>
<asrwt>0</asrwt>
<pdfrwt beam="1">  1        2 0.36932913E+00 0.89626348E+02</pdfrwt>
<pdfrwt beam="2">  1       -2 0.12869780E-03 0.89626348E+02</pdfrwt>
<totfact> 0.16564786E+05</totfact>
</mgrwt>
</event>
<event>
 5    1  0.4023633E+001  0.9333493E+02  0.7546771E-02  0.1294971E+00
         -1   -1    0    0    0  501 -0.00000000000E+00  0.00000000000E+00  0.16415151127E+03  0.16415151127E+03  0.00000000000E+00 0.  1.
          1   -1    0    0  501    0  0.00000000000E+00 -0.00000000000E+00 -0.13267329237E+02  0.13267329237E+02  0.00000000000E+00 0. -1.
         23    2    1    2    0    0  0.00000000000E+00  0.00000000000E+00  0.15088418203E+03  0.17741884051E+03  0.93334926898E+02 0.  0.
          2    1    3    3  502    0 -0.35711350298E+02 -0.30026159217E+02  0.73558999860E+02  0.87107963114E+02  0.00000000000E+00 0. -1.
         -2    1    3    3    0  502  0.35711350298E+02  0.30026159217E+02  0.77325182175E+02  0.90310877395E+02  0.00000000000E+00 0.  1.
<mgrwt>
<rscale>  0 0.93334927E+02</rscale>
<asrwt>0</asrwt>
<pdfrwt beam="2">  1        1 0.20411277E-02 0.93334927E+02</pdfrwt>
<pdfrwt beam="1">  1       -1 0.25254077E-01 0.93334927E+02</pdfrwt>
<totfact> 0.68857258E+04</totfact>
</mgrwt>
</event>
<event>
 5    1  0.4023633E+001  0.9343909E+02  0.7546771E-02  0.1294731E+00
          2   -1    0    0  501    0  0.00000000000E+00  0.00000000000E+00  0.43658913257E+02  0.43658913257E+02  0.00000000000E+00 0.  1.
         -2   -1    0    0    0  501 -0.00000000000E+00 -0.00000000000E+00 -0.49994733823E+02  0.49994733823E+02  0.00000000000E+00 0. -1.
         23    2    1    2    0    0  0.00000000000E+00  0.00000000000E+00 -0.63358205656E+01  0.93653647080E+02  0.93439087052E+02 0.  0.
          2    1    3    3  502    0  0.26785365749E+02 -0.26620446423E+02  0.24401828539E+02  0.44961686157E+02  0.00000000000E+00 0.  1.
         -2    1    3    3    0  502 -0.26785365749E+02  0.26620446423E+02 -0.30737649104E+02  0.48691960923E+02  0.00000000000E+00 0. -1.
<mgrwt>
<rscale>  0 0.93439087E+02</rscale>
<asrwt>0</asrwt>
<pdfrwt beam="1">  1        2 0.67167559E-02 0.93439087E+02</pdfrwt>
<pdfrwt beam="2">  1       -2 0.76914975E-02 0.93439087E+02</pdfrwt>
<totfact> 0.90905798E+04</totfact>
</mgrwt>
</event>
<event>
 5    1  0.4023633E+001  0.9506715E+02  0.7546771E-02  0.1291025E+00
          2   -1    0    0  501    0  0.00000000000E+00  0.00000000000E+00  0.10834894414E+04  0.10834894414E+04  0.00000000000E+00 0. -1.
         -2   -1    0    0    0  501 -0.00000000000E+00 -0.00000000000E+00 -0.20853371113E+01  0.20853371113E+01  0.00000000000E+00 0.  1.
         23    2    1    2    0    0  0.00000000000E+00  0.00000000000E+00  0.10814041043E+04  0.10855747785E+04  0.95067149779E+02 0.  0.
          2    1    3    3  502    0 -0.35889189214E+02 -0.23576000004E+02  0.77348764650E+03  0.77467864368E+03  0.00000000000E+00 0. -1.
         -2    1    3    3    0  502  0.35889189214E+02  0.23576000004E+02  0.30791645777E+03  0.31089613481E+03  0.00000000000E+00 0.  1.
<mgrwt>
<rscale>  0 0.95067150E+02</rscale>
<asrwt>0</asrwt>
<pdfrwt beam="1">  1        2 0.16669023E+00 0.95067150E+02</pdfrwt>
<pdfrwt beam="2">  1       -2 0.32082196E-03 0.95067150E+02</pdfrwt>
<totfact> 0.22416134E+05</totfact>
</mgrwt>
</event>
<event>
 5    1  0.4023633E+001  0.9345054E+02  0.7546771E-02  0.1294704E+00
          2   -1    0    0  501    0  0.00000000000E+00  0.00000000000E+00  0.23270106242E+03  0.23270106242E+03  0.00000000000E+00 0. -1.
         -2   -1    0    0    0  501 -0.00000000000E+00 -0.00000000000E+00 -0.93822129019E+01  0.93822129019E+01  0.00000000000E+00 0.  1.
         23    2    1    2    0    0  0.00000000000E+00  0.00000000000E+00  0.22331884952E+03  0.24208327532E+03  0.93450541146E+02 0.  0.
          2    1    3    3  502    0 -0.22225726283E+01 -0.46360417522E+02  0.12561514910E+03  0.13391562203E+03  0.00000000000E+00 0. -1.
         -2    1    3    3    0  502  0.22225726283E+01  0.46360417522E+02  0.97703700419E+02  0.10816765329E+03  0.00000000000E+00 0.  1.
<mgrwt>
<rscale>  0 0.93450541E+02</rscale>
<asrwt>0</asrwt>
<pdfrwt beam="1">  1        2 0.35800159E-01 0.93450541E+02</pdfrwt>
<pdfrwt beam="2">  1       -2 0.14434175E-02 0.93450541E+02</pdfrwt>
<totfact> 0.15300124E+05</totfact>
</mgrwt>
</event>
<event>
 5    1  0.4023633E+001  0.9070993E+02  0.7546771E-02  0.1301142E+00
         -3   -1    0    0    0  501 -0.00000000000E+00  0.00000000000E+00  0.59047161739E+03  0.59047161739E+03  0.00000000000E+00 0.  1.
          3   -1    0    0  501    0  0.00000000000E+00 -0.00000000000E+00 -0.34837797686E+01  0.34837797686E+01  0.00000000000E+00 0. -1.
         23    2    1    2    0    0  0.00000000000E+00  0.00000000000E+00  0.58698783762E+03  0.59395539716E+03  0.90709934949E+02 0.  0.
          2    1    3    3  502    0 -0.54444897003E+01  0.29817785934E+02  0.72574894887E+02  0.78650226916E+02  0.00000000000E+00 0. -1.
         -2    1    3    3    0  502  0.54444897003E+01 -0.29817785934E+02  0.51441294273E+03  0.51530517024E+03  0.00000000000E+00 0.  1.
<mgrwt>
<rscale>  0 0.90709935E+02</rscale>
<asrwt>0</asrwt>
<pdfrwt beam="2">  1        3 0.53596659E-03 0.90709935E+02</pdfrwt>
<pdfrwt beam="1">  1       -3 0.90841708E-01 0.90709935E+02</pdfrwt>
<totfact> 0.16038685E+04</totfact>
</mgrwt>
</event>
<event>
 5    1  0.4023633E+001  0.9040426E+02  0.7546771E-02  0.1301876E+00
          2   -1    0    0  501    0  0.00000000000E+00  0.00000000000E+00  0.24513654847E+03  0.24513654847E+03  0.00000000000E+00 0. -1.
         -2   -1    0    0    0  501 -0.00000000000E+00 -0.00000000000E+00 -0.83350787440E+01  0.83350787440E+01  0.00000000000E+00 0.  1.
         23    2    1    2    0    0  0.00000000000E+00  0.00000000000E+00  0.23680146973E+03  0.25347162722E+03  0.90404257301E+02 0.  0.
          2    1    3    3  502    0  0.18746824852E+02 -0.21172203266E+02  0.19529935553E+02  0.34367484864E+02  0.00000000000E+00 0.  1.
         -2    1    3    3    0  502 -0.18746824852E+02  0.21172203266E+02  0.21727153418E+03  0.21910414235E+03  0.00000000000E+00 0. -1.
<mgrwt>
<rscale>  0 0.90404257E+02</rscale>
<asrwt>0</asrwt>
<pdfrwt beam="1">  1        2 0.37713310E-01 0.90404257E+02</pdfrwt>
<pdfrwt beam="2">  1       -2 0.12823200E-02 0.90404257E+02</pdfrwt>
<totfact> 0.17048443E+05</totfact>
</mgrwt>
</event>
<event>
 5    1  0.4023633E+001  0.9161596E+02  0.7546771E-02  0.1298985E+00
          1   -1    0    0  501    0  0.00000000000E+00  0.00000000000E+00  0.14883376164E+03  0.14883376164E+03  0.00000000000E+00 0. -1.
         -1   -1    0    0    0  501 -0.00000000000E+00 -0.00000000000E+00 -0.14098756957E+02  0.14098756957E+02  0.00000000000E+00 0.  1.
         23    2    1    2    0    0  0.00000000000E+00  0.00000000000E+00  0.13473500468E+03  0.16293251859E+03  0.91615960014E+02 0.  0.
          2    1    3    3  502    0 -0.14997250622E+02  0.19120390886E+02 -0.16910934268E+01  0.24359118843E+02  0.00000000000E+00 0.  1.
         -2    1    3    3    0  502  0.14997250622E+02 -0.19120390886E+02  0.13642609811E+03  0.13857339975E+03  0.00000000000E+00 0. -1.
<mgrwt>
<rscale>  0 0.91615960E+02</rscale>
<asrwt>0</asrwt>
<pdfrwt beam="1">  1        1 0.22897501E-01 0.91615960E+02</pdfrwt>
<pdfrwt beam="2">  1       -1 0.21690396E-02 0.91615960E+02</pdfrwt>
<totfact> 0.11052816E+05</totfact>
</mgrwt>
</event>
<event>
 5    1  0.4023633E+001  0.1011171E+03  0.7546771E-02  0.1277964E+00
         -1   -1    0    0    0  501 -0.00000000000E+00  0.00000000000E+00  0.61256086871E+01  0.61256086871E+01  0.00000000000E+00 0.  1.
          1   -1    0    0  501    0  0.00000000000E+00 -0.00000000000E+00 -0.41729159981E+03  0.41729159981E+03  0.00000000000E+00 0. -1.
         23    2    1    2    0    0  0.00000000000E+00  0.00000000000E+00 -0.41116599113E+03  0.42341720850E+03  0.10111706184E+03 0.  0.
          2    1    3    3  502    0  0.22711237259E+02  0.15377879234E+02 -0.38343081977E+03  0.38441055269E+03  0.00000000000E+00 0. -1.
         -2    1    3    3    0  502 -0.22711237259E+02 -0.15377879234E+02 -0.27735171354E+02  0.39006655811E+02  0.00000000000E+00 0.  1.
<mgrwt>
<rscale>  0 0.10111706E+03</rscale>
<asrwt>0</asrwt>
<pdfrwt beam="2">  1        1 0.64198717E-01 0.10111706E+03</pdfrwt>
<pdfrwt beam="1">  1       -1 0.94240120E-03 0.10111706E+03</pdfrwt>
<totfact> 0.10303927E+05</totfact>
</mgrwt>
</event>
<event>
 5    1  0.4023633E+001  0.9044926E+02  0.7546771E-02  0.1301767E+00
          3   -1    0    0  501    0  0.00000000000E+00  0.00000000000E+00  0.62575110891E+01  0.62575110891E+01  0.00000000000E+00 0. -1.
         -3   -1    0    0    0  501 -0.00000000000E+00 -0.00000000000E+00 -0.32684996219E+03  0.32684996219E+03  0.00000000000E+00 0.  1.
         23    2    1    2    0    0  0.00000000000E+00  0.00000000000E+00 -0.32059245110E+03  0.33310747328E+03  0.90449262304E+02 0.  0.
          2    1    3    3  502    0 -0.39344870232E+02 -0.16452473905E+02 -0.21573011196E+03  0.21990494292E+03  0.00000000000E+00 0. -1.
         -2    1    3    3    0  502  0.39344870232E+02  0.16452473905E+02 -0.10486233913E+03  0.11320253036E+03  0.00000000000E+00 0.  1.
<mgrwt>
<rscale>  0 0.90449262E+02</rscale>
<asrwt>0</asrwt>
<pdfrwt beam="1">  1        3 0.96269375E-03 0.90449262E+02</pdfrwt>
<pdfrwt beam="2">  1       -3 0.50284623E-01 0.90449262E+02</pdfrwt>
<totfact> 0.23288576E+04</totfact>
</mgrwt>
</event>
<event>
 5    1  0.4023633E+001  0.9411867E+02  0.7546771E-02  0.1293173E+00
          2   -1    0    0  501    0  0.00000000000E+00  0.00000000000E+00  0.15780536025E+03  0.15780536025E+03  0.00000000000E+00 0. -1.
         -2   -1    0    0    0  501 -0.00000000000E+00 -0.00000000000E+00 -0.14033622935E+02  0.14033622935E+02  0.00000000000E+00 0.  1.
         23    2    1    2    0    0  0.00000000000E+00  0.00000000000E+00  0.14377173731E+03  0.17183898319E+03  0.94118668136E+02 0.  0.
          2    1    3    3  502    0  0.34136446387E+02 -0.14015231388E+02  0.12520512599E+03  0.13052987113E+03  0.00000000000E+00 0. -1.
         -2    1    3    3    0  502 -0.34136446387E+02  0.14015231388E+02  0.18566611325E+02  0.41309112056E+02  0.00000000000E+00 0.  1.
<mgrwt>
<rscale>  0 0.94118668E+02</rscale>
<asrwt>0</asrwt>
<pdfrwt beam="1">  1        2 0.24277747E-01 0.94118668E+02</pdfrwt>
<pdfrwt beam="2">  1       -2 0.21590190E-02 0.94118668E+02</pdfrwt>
<totfact> 0.13049542E+05</totfact>
</mgrwt>
</event>
<event>
 5    1  0.4023633E+001  0.9139762E+02  0.7546771E-02  0.1299502E+00
         -2   -1    0    0    0  501 -0.00000000000E+00  0.00000000000E+00  0.19274751641E+02  0.19274751641E+02  0.00000000000E+00 0.  1.
          2   -1    0    0  501    0  0.00000000000E+00 -0.00000000000E+00 -0.10834801729E+03  0.10834801729E+03  0.00000000000E+00 0. -1.
         23    2    1    2    0    0  0.00000000000E+00  0.00000000000E+00 -0.89073265650E+02  0.12762276893E+03  0.91397617562E+02 0.  0.
          2    1    3    3  502    0 -0.43108198234E+02 -0.14397820424E+02 -0.51199290341E+02  0.68461531675E+02  0.00000000000E+00 0. -1.
         -2    1    3    3    0  502  0.43108198234E+02  0.14397820424E+02 -0.37873975309E+02  0.59161237256E+02  0.00000000000E+00 0.  1.
<mgrwt>
<rscale>  0 0.91397618E+02</rscale>
<asrwt>0</asrwt>
<pdfrwt beam="2">  1        2 0.16668926E-01 0.91397618E+02</pdfrwt>
<pdfrwt beam="1">  1       -2 0.29653464E-02 0.91397618E+02</pdfrwt>
<totfact> 0.12491011E+05</totfact>
</mgrwt>
</event>
<event>
 5    1  0.4023633E+001  0.8994460E+02  0.7546771E-02  0.1302986E+00
         -4   -1    0    0    0  501 -0.00000000000E+00  0.00000000000E+00  0.27391912326E+02  0.27391912326E+02  0.00000000000E+00 0.  1.
          4   -1    0    0  501    0  0.00000000000E+00 -0.00000000000E+00 -0.73835953097E+02  0.73835953097E+02  0.00000000000E+00 0. -1.
         23    2    1    2    0    0  0.00000000000E+00  0.00000000000E+00 -0.46444040771E+02  0.10122786542E+03  0.89944604146E+02 0.  0.
          2    1    3    3  502    0  0.27623581461E+02 -0.74732109392E+01 -0.62267025132E+02  0.68528049390E+02  0.00000000000E+00 0. -1.
         -2    1    3    3    0  502 -0.27623581461E+02  0.74732109392E+01  0.15822984361E+02  0.32699816033E+02  0.00000000000E+00 0.  1.
<mgrwt>
<rscale>  0 0.89944604E+02</rscale>
<asrwt>0</asrwt>
<pdfrwt beam="2">  1        4 0.11359377E-01 0.89944604E+02</pdfrwt>
<pdfrwt beam="1">  1       -4 0.42141404E-02 0.89944604E+02</pdfrwt>
<totfact> 0.27370898E+04</totfact>
</mgrwt>
</event>
<event>
 5    1  0.4023633E+001  0.9095912E+02  0.7546771E-02  0.1300546E+00
         -1   -1    0    0    0  501 -0.00000000000E+00  0.00000000000E+00  0.14520838394E+01  0.14520838394E+01  0.00000000000E+00 0.  1.
          1   -1    0    0  501    0  0.00000000000E+00 -0.00000000000E+00 -0.14244291759E+04  0.14244291759E+04  0.00000000000E+00 0. -1.
         23    2    1    2    0    0  0.00000000000E+00  0.00000000000E+00 -0.14229770921E+04  0.14258812597E+04  0.90959124593E+02 0.  0.
          2    1    3    3  502    0  0.35345569742E+02 -0.27504340916E+02 -0.83551042233E+03  0.83670990427E+03  0.00000000000E+00 0. -1.
         -2    1    3    3    0  502 -0.35345569742E+02  0.27504340916E+02 -0.58746666973E+03  0.58917135547E+03  0.00000000000E+00 0.  1.
<mgrwt>
<rscale>  0 0.90959125E+02</rscale>
<asrwt>0</asrwt>
<pdfrwt beam="2">  1        1 0.21914302E+00 0.90959125E+02</pdfrwt>
<pdfrwt beam="1">  1       -1 0.22339745E-03 0.90959125E+02</pdfrwt>
<totfact> 0.11573782E+05</totfact>
</mgrwt>
</event>
<event>
 5    1  0.4023633E+001  0.9708077E+02  0.7546771E-02  0.1286557E+00
         -2   -1    0    0    0  501 -0.00000000000E+00  0.00000000000E+00  0.90781347930E+00  0.90781347930E+00  0.00000000000E+00 0.  1.
          2   -1    0    0  501    0  0.00000000000E+00 -0.00000000000E+00 -0.25954326868E+04  0.25954326868E+04  0.00000000000E+00 0. -1.
         23    2    1    2    0    0  0.00000000000E+00  0.00000000000E+00 -0.25945248733E+04  0.25963405003E+04  0.97080765916E+02 0.  0.
          2    1    3    3  502    0 -0.19487288541E+02 -0.24153309791E+02 -0.22954427465E+04  0.22956525302E+04  0.00000000000E+00 0. -1.
         -2    1    3    3    0  502  0.19487288541E+02  0.24153309791E+02 -0.29908212683E+03  0.30068797013E+03  0.00000000000E+00 0.  1.
<mgrwt>
<rscale>  0 0.97080766E+02</rscale>
<asrwt>0</asrwt>
<pdfrwt beam="2">  1        2 0.39930042E+00 0.97080766E+02</pdfrwt>
<pdfrwt beam="1">  1       -2 0.13966253E-03 0.97080766E+02</pdfrwt>
<totfact> 0.11784372E+05</totfact>
</mgrwt>
</event>
<event>
 5    1  0.4023633E+001  0.9181781E+02  0.7546771E-02  0.1298508E+00
          2   -1    0    0  501    0  0.00000000000E+00  0.00000000000E+00  0.16472418132E+04  0.16472418132E+04  0.00000000000E+00 0. -1.
         -2   -1    0    0    0  501 -0.00000000000E+00 -0.00000000000E+00 -0.12794888364E+01  0.12794888364E+01  0.00000000000E+00 0.  1.
         23    2    1    2    0    0  0.00000000000E+00  0.00000000000E+00  0.16459623244E+04  0.16485213021E+04  0.91817808968E+02 0.  0.
          2    1    3    3  502    0  0.40207736247E+02 -0.21376575957E+01  0.12189514331E+04  0.12196162626E+04  0.00000000000E+00 0. -1.
         -2    1    3    3    0  502 -0.40207736247E+02  0.21376575957E+01  0.42701089124E+03  0.42890503945E+03  0.00000000000E+00 0.  1.
<mgrwt>
<rscale>  0 0.91817809E+02</rscale>
<asrwt>0</asrwt>
<pdfrwt beam="1">  1        2 0.25342012E+00 0.91817809E+02</pdfrwt>
<pdfrwt beam="2">  1       -2 0.19684575E-03 0.91817809E+02</pdfrwt>
<totfact> 0.22207436E+05</totfact>
</mgrwt>
</event>
<event>
 5    1  0.4023633E+001  0.8808999E+02  0.7546771E-02  0.1307544E+00
         -2   -1    0    0    0  501 -0.00000000000E+00  0.00000000000E+00  0.63374215127E+00  0.63374215127E+00  0.00000000000E+00 0.  1.
          2   -1    0    0  501    0  0.00000000000E+00 -0.00000000000E+00 -0.30611211510E+04  0.30611211510E+04  0.00000000000E+00 0. -1.
         23    2    1    2    0    0  0.00000000000E+00  0.00000000000E+00 -0.30604874088E+04  0.30617548931E+04  0.88089988160E+02 0.  0.
          2    1    3    3  502    0 -0.73721783060E+01  0.43103839347E+02 -0.13474082528E+04  0.13481176839E+04  0.00000000000E+00 0. -1.
         -2    1    3    3    0  502  0.73721783060E+01 -0.43103839347E+02 -0.17130791560E+04  0.17136372092E+04  0.00000000000E+00 0.  1.
<mgrwt>
<rscale>  0 0.88089988E+02</rscale>
<asrwt>0</asrwt>
<pdfrwt beam="2">  1        2 0.47095570E+00 0.88089988E+02</pdfrwt>
<pdfrwt beam="1">  1       -2 0.97495897E-04 0.88089988E+02</pdfrwt>
<totfact> 0.10597200E+05</totfact>
</mgrwt>
</event>
<event>
 5    1  0.4023633E+001  0.9046210E+02  0.7546771E-02  0.1301736E+00
          2   -1    0    0  501    0  0.00000000000E+00  0.00000000000E+00  0.14478690676E+03  0.14478690676E+03  0.00000000000E+00 0. -1.
         -2   -1    0    0    0  501 -0.00000000000E+00 -0.00000000000E+00 -0.14130061672E+02  0.14130061672E+02  0.00000000000E+00 0.  1.
         23    2    1    2    0    0  0.00000000000E+00  0.00000000000E+00  0.13065684509E+03  0.15891696843E+03  0.90462100835E+02 0.  0.
          2    1    3    3  502    0  0.97600767289E+00 -0.44792752321E+02  0.54427573949E+02  0.70496127960E+02  0.00000000000E+00 0. -1.
         -2    1    3    3    0  502 -0.97600767289E+00  0.44792752321E+02  0.76229271140E+02  0.88420840473E+02  0.00000000000E+00 0.  1.
<mgrwt>
<rscale>  0 0.90462101E+02</rscale>
<asrwt>0</asrwt>
<pdfrwt beam="1">  1        2 0.22274908E-01 0.90462101E+02</pdfrwt>
<pdfrwt beam="2">  1       -2 0.21738557E-02 0.90462101E+02</pdfrwt>
<totfact> 0.14112728E+05</totfact>
</mgrwt>
</event>
<event>
 5    1  0.4023633E+001  0.9015357E+02  0.7546771E-02  0.1302480E+00
         -4   -1    0    0    0  501 -0.00000000000E+00  0.00000000000E+00  0.16460022061E+03  0.16460022061E+03  0.00000000000E+00 0.  1.
          4   -1    0    0  501    0  0.00000000000E+00 -0.00000000000E+00 -0.12344555064E+02  0.12344555064E+02  0.00000000000E+00 0. -1.
         23    2    1    2    0    0  0.00000000000E+00  0.00000000000E+00  0.15225566554E+03  0.17694477567E+03  0.90153568688E+02 0.  0.
          2    1    3    3  502    0 -0.27995930949E+02 -0.33522023749E+02  0.54235255815E+02  0.69634482832E+02  0.00000000000E+00 0. -1.
         -2    1    3    3    0  502  0.27995930949E+02  0.33522023749E+02  0.98020409729E+02  0.10731029284E+03  0.00000000000E+00 0.  1.
<mgrwt>
<rscale>  0 0.90153569E+02</rscale>
<asrwt>0</asrwt>
<pdfrwt beam="2">  1        4 0.18991624E-02 0.90153569E+02</pdfrwt>
<pdfrwt beam="1">  1       -4 0.25323109E-01 0.90153569E+02</pdfrwt>
<totfact> 0.23075639E+04</totfact>
</mgrwt>
</event>
<event>
 5    1  0.4023633E+001  0.9335443E+02  0.7546771E-02  0.1294926E+00
          2   -1    0    0  501    0  0.00000000000E+00  0.00000000000E+00  0.64744742389E+02  0.64744742389E+02  0.00000000000E+00 0. -1.
         -2   -1    0    0    0  501 -0.00000000000E+00 -0.00000000000E+00 -0.33651571266E+02  0.33651571266E+02  0.00000000000E+00 0.  1.
         23    2    1    2    0    0  0.00000000000E+00  0.00000000000E+00  0.31093171123E+02  0.98396313656E+02  0.93354428125E+02 0.  0.
          2    1    3    3  502    0  0.39887869789E+01 -0.42539972831E+02  0.35355280004E+02  0.55457691389E+02  0.00000000000E+00 0. -1.
         -2    1    3    3    0  502 -0.39887869789E+01  0.42539972831E+02 -0.42621088806E+01  0.42938622267E+02  0.00000000000E+00 0.  1.
<mgrwt>
<rscale>  0 0.93354428E+02</rscale>
<asrwt>0</asrwt>
<pdfrwt beam="1">  1        2 0.99607296E-02 0.93354428E+02</pdfrwt>
<pdfrwt beam="2">  1       -2 0.51771648E-02 0.93354428E+02</pdfrwt>
<totfact> 0.10130810E+05</totfact>
</mgrwt>
</event>
<event>
 5    1  0.4023633E+001  0.9127852E+02  0.7546771E-02  0.1299785E+00
          2   -1    0    0  501    0  0.00000000000E+00  0.00000000000E+00  0.80404287721E+01  0.80404287721E+01  0.00000000000E+00 0. -1.
         -2   -1    0    0    0  501 -0.00000000000E+00 -0.00000000000E+00 -0.25905856996E+03  0.25905856996E+03  0.00000000000E+00 0.  1.
         23    2    1    2    0    0  0.00000000000E+00  0.00000000000E+00 -0.25101814119E+03  0.26709899873E+03  0.91278518383E+02 0.  0.
          2    1    3    3  502    0  0.38384636932E+02 -0.15528009071E+02 -0.69341120476E+02  0.80763174820E+02  0.00000000000E+00 0. -1.
         -2    1    3    3    0  502 -0.38384636932E+02  0.15528009071E+02 -0.18167702071E+03  0.18633582391E+03  0.00000000000E+00 0.  1.
<mgrwt>
<rscale>  0 0.91278518E+02</rscale>
<asrwt>0</asrwt>
<pdfrwt beam="1">  1        2 0.12369890E-02 0.91278518E+02</pdfrwt>
<pdfrwt beam="2">  1       -2 0.39855166E-01 0.91278518E+02</pdfrwt>
<totfact> 0.55018531E+04</totfact>
</mgrwt>
</event>
<event>
 5    1  0.4023633E+001  0.9086411E+02  0.7546771E-02  0.1300773E+00
         -3   -1    0    0    0  501 -0.00000000000E+00  0.00000000000E+00  0.38111570759E+02  0.38111570759E+02  0.00000000000E+00 0.  1.
          3   -1    0    0  501    0  0.00000000000E+00 -0.00000000000E+00 -0.54158656574E+02  0.54158656574E+02  0.00000000000E+00 0. -1.
         23    2    1    2    0    0  0.00000000000E+00  0.00000000000E+00 -0.16047085815E+02  0.92270227333E+02  0.90864106714E+02 0.  0.
          2    1    3    3  502    0  0.26518958965E+02 -0.36824071012E+02 -0.10249282867E+02  0.46522201042E+02  0.00000000000E+00 0. -1.
         -2    1    3    3    0  502 -0.26518958965E+02  0.36824071012E+02 -0.57978029484E+01  0.45748026291E+02  0.00000000000E+00 0.  1.
<mgrwt>
<rscale>  0 0.90864107E+02</rscale>
<asrwt>0</asrwt>
<pdfrwt beam="2">  1        3 0.83321010E-02 0.90864107E+02</pdfrwt>
<pdfrwt beam="1">  1       -3 0.58633186E-02 0.90864107E+02</pdfrwt>
<totfact> 0.35586284E+04</totfact>
</mgrwt>
</event>
<event>
 5    1  0.4023633E+001  0.9065383E+02  0.7546771E-02  0.1301276E+00
          3   -1    0    0  501    0  0.00000000000E+00  0.00000000000E+00  0.60782989337E+01  0.60782989337E+01  0.00000000000E+00 0. -1.
         -3   -1    0    0    0  501 -0.00000000000E+00 -0.00000000000E+00 -0.33801056185E+03  0.33801056185E+03  0.00000000000E+00 0.  1.
         23    2    1    2    0    0  0.00000000000E+00  0.00000000000E+00 -0.33193226291E+03  0.34408886078E+03  0.90653830314E+02 0.  0.
          2    1    3    3  502    0  0.28299675475E+01 -0.41087747720E+02 -0.94117505071E+02  0.10273420312E+03  0.00000000000E+00 0. -1.
         -2    1    3    3    0  502 -0.28299675475E+01  0.41087747720E+02 -0.23781475784E+03  0.24135465767E+03  0.00000000000E+00 0.  1.
<mgrwt>
<rscale>  0 0.90653830E+02</rscale>
<asrwt>0</asrwt>
<pdfrwt beam="1">  1        3 0.93512271E-03 0.90653830E+02</pdfrwt>
<pdfrwt beam="2">  1       -3 0.52001636E-01 0.90653830E+02</pdfrwt>
<totfact> 0.22756892E+04</totfact>
</mgrwt>
</event>
<event>
 5    1  0.4023633E+001  0.9337889E+02  0.7546771E-02  0.1294870E+00
         -1   -1    0    0    0  501 -0.00000000000E+00  0.00000000000E+00  0.23069856795E+02  0.23069856795E+02  0.00000000000E+00 0.  1.
          1   -1    0    0  501    0  0.00000000000E+00 -0.00000000000E+00 -0.94491445825E+02  0.94491445825E+02  0.00000000000E+00 0. -1.
         23    2    1    2    0    0  0.00000000000E+00  0.00000000000E+00 -0.71421589030E+02  0.11756130262E+03  0.93378886769E+02 0.  0.
          2    1    3    3  502    0 -0.19032367896E+02 -0.27091899545E+02 -0.77155651934E+02  0.83959494246E+02  0.00000000000E+00 0. -1.
         -2    1    3    3    0  502  0.19032367896E+02  0.27091899545E+02  0.57340629038E+01  0.33601808375E+02  0.00000000000E+00 0.  1.
<mgrwt>
<rscale>  0 0.93378887E+02</rscale>
<asrwt>0</asrwt>
<pdfrwt beam="2">  1        1 0.14537146E-01 0.93378887E+02</pdfrwt>
<pdfrwt beam="1">  1       -1 0.35492087E-02 0.93378887E+02</pdfrwt>
<totfact> 0.96935356E+04</totfact>
</mgrwt>
</event>
<event>
 5    1  0.4023633E+001  0.9208592E+02  0.7546771E-02  0.1297878E+00
          2   -1    0    0  501    0  0.00000000000E+00  0.00000000000E+00  0.32361390875E+02  0.32361390875E+02  0.00000000000E+00 0. -1.
         -2   -1    0    0    0  501 -0.00000000000E+00 -0.00000000000E+00 -0.65508750459E+02  0.65508750459E+02  0.00000000000E+00 0.  1.
         23    2    1    2    0    0  0.00000000000E+00  0.00000000000E+00 -0.33147359584E+02  0.97870141335E+02  0.92085922472E+02 0.  0.
          2    1    3    3  502    0 -0.29516357366E+01  0.39858567568E+02 -0.40868594503E+02  0.57163446176E+02  0.00000000000E+00 0.  1.
         -2    1    3    3    0  502  0.29516357366E+01 -0.39858567568E+02  0.77212349188E+01  0.40706695159E+02  0.00000000000E+00 0. -1.
<mgrwt>
<rscale>  0 0.92085922E+02</rscale>
<asrwt>0</asrwt>
<pdfrwt beam="1">  1        2 0.49786756E-02 0.92085922E+02</pdfrwt>
<pdfrwt beam="2">  1       -2 0.10078269E-01 0.92085922E+02</pdfrwt>
<totfact> 0.87655191E+04</totfact>
</mgrwt>
</event>
<event>
 5    1  0.4023633E+001  0.9083870E+02  0.7546771E-02  0.1300833E+00
          2   -1    0    0  501    0  0.00000000000E+00  0.00000000000E+00  0.11999105615E+02  0.11999105615E+02  0.00000000000E+00 0. -1.
         -2   -1    0    0    0  501 -0.00000000000E+00 -0.00000000000E+00 -0.17192260119E+03  0.17192260119E+03  0.00000000000E+00 0.  1.
         23    2    1    2    0    0  0.00000000000E+00  0.00000000000E+00 -0.15992349557E+03  0.18392170680E+03  0.90838702089E+02 0.  0.
          2    1    3    3  502    0  0.25210241609E+01  0.40338905859E+02 -0.12191445518E+03  0.12843954715E+03  0.00000000000E+00 0. -1.
         -2    1    3    3    0  502 -0.25210241609E+01 -0.40338905859E+02 -0.38009040388E+02  0.55482159655E+02  0.00000000000E+00 0.  1.
<mgrwt>
<rscale>  0 0.90838702E+02</rscale>
<asrwt>0</asrwt>
<pdfrwt beam="1">  1        2 0.18460164E-02 0.90838702E+02</pdfrwt>
<pdfrwt beam="2">  1       -2 0.26449628E-01 0.90838702E+02</pdfrwt>
<totfact> 0.66969658E+04</totfact>
</mgrwt>
</event>
<event>
 5    1  0.4023633E+001  0.1089255E+03  0.7546771E-02  0.1262573E+00
          1   -1    0    0  501    0  0.00000000000E+00  0.00000000000E+00  0.66692025849E+02  0.66692025849E+02  0.00000000000E+00 0. -1.
         -1   -1    0    0    0  501 -0.00000000000E+00 -0.00000000000E+00 -0.44475915540E+02  0.44475915540E+02  0.00000000000E+00 0.  1.
         23    2    1    2    0    0  0.00000000000E+00  0.00000000000E+00  0.22216110309E+02  0.11116794139E+03  0.10892545908E+03 0.  0.
          2    1    3    3  502    0  0.43826235540E+02  0.19057190966E+02 -0.15550057767E+02  0.50256539333E+02  0.00000000000E+00 0.  1.
         -2    1    3    3    0  502 -0.43826235540E+02 -0.19057190966E+02  0.37766168076E+02  0.60911402055E+02  0.00000000000E+00 0. -1.
<mgrwt>
<rscale>  0 0.10892546E+03</rscale>
<asrwt>0</asrwt>
<pdfrwt beam="1">  1        1 0.10260312E-01 0.10892546E+03</pdfrwt>
<pdfrwt beam="2">  1       -1 0.68424486E-02 0.10892546E+03</pdfrwt>
<totfact> 0.59509794E+04</totfact>
</mgrwt>
</event>
<event>
 5    1  0.4023633E+001  0.8917675E+02  0.7546771E-02  0.1304858E+00
          1   -1    0    0  501    0  0.00000000000E+00  0.00000000000E+00  0.51933462598E+03  0.51933462598E+03  0.00000000000E+00 0. -1.
         -1   -1    0    0    0  501 -0.00000000000E+00 -0.00000000000E+00 -0.38282118520E+01  0.38282118520E+01  0.00000000000E+00 0.  1.
         23    2    1    2    0    0  0.00000000000E+00  0.00000000000E+00  0.51550641413E+03  0.52316283783E+03  0.89176745182E+02 0.  0.
          2    1    3    3  502    0 -0.17892344237E+01 -0.42556475964E+02  0.33510939395E+03  0.33780550753E+03  0.00000000000E+00 0. -1.
         -2    1    3    3    0  502  0.17892344237E+01  0.42556475964E+02  0.18039702018E+03  0.18535733030E+03  0.00000000000E+00 0.  1.
<mgrwt>
<rscale>  0 0.89176745E+02</rscale>
<asrwt>0</asrwt>
<pdfrwt beam="1">  1        1 0.79897579E-01 0.89176745E+02</pdfrwt>
<pdfrwt beam="2">  1       -1 0.58895608E-03 0.89176745E+02</pdfrwt>
<totfact> 0.14831532E+05</totfact>
</mgrwt>
</event>
<event>
 5    1  0.4023633E+001  0.9505034E+02  0.7546771E-02  0.1291063E+00
         -4   -1    0    0    0  501 -0.00000000000E+00  0.00000000000E+00  0.42479842567E+02  0.42479842567E+02  0.00000000000E+00 0.  1.
          4   -1    0    0  501    0  0.00000000000E+00 -0.00000000000E+00 -0.53169730093E+02  0.53169730093E+02  0.00000000000E+00 0. -1.
         23    2    1    2    0    0  0.00000000000E+00  0.00000000000E+00 -0.10689887525E+02  0.95649572660E+02  0.95050339582E+02 0.  0.
          2    1    3    3  502    0  0.30857791226E+02 -0.34088903635E+02 -0.17436733880E+02  0.49176176334E+02  0.00000000000E+00 0.  1.
         -2    1    3    3    0  502 -0.30857791226E+02  0.34088903635E+02  0.67468463546E+01  0.46473396326E+02  0.00000000000E+00 0. -1.
<mgrwt>
<rscale>  0 0.95050340E+02</rscale>
<asrwt>0</asrwt>
<pdfrwt beam="2">  1        4 0.81799585E-02 0.95050340E+02</pdfrwt>
<pdfrwt beam="1">  1       -4 0.65353604E-02 0.95050340E+02</pdfrwt>
<totfact> 0.23865785E+04</totfact>
</mgrwt>
</event>
<event>
 5    1  0.4023633E+001  0.8967709E+02  0.7546771E-02  0.1303636E+00
          2   -1    0    0  501    0  0.00000000000E+00  0.00000000000E+00  0.17369465872E+03  0.17369465872E+03  0.00000000000E+00 0. -1.
         -2   -1    0    0    0  501 -0.00000000000E+00 -0.00000000000E+00 -0.11574880553E+02  0.11574880553E+02  0.00000000000E+00 0.  1.
         23    2    1    2    0    0  0.00000000000E+00  0.00000000000E+00  0.16211977817E+03  0.18526953927E+03  0.89677085757E+02 0.  0.
          2    1    3    3  502    0  0.13188596167E+02 -0.42296220419E+02  0.66808398321E+02  0.80164028197E+02  0.00000000000E+00 0. -1.
         -2    1    3    3    0  502 -0.13188596167E+02  0.42296220419E+02  0.95311379845E+02  0.10510551108E+03  0.00000000000E+00 0.  1.
<mgrwt>
<rscale>  0 0.89677086E+02</rscale>
<asrwt>0</asrwt>
<pdfrwt beam="1">  1        2 0.26722253E-01 0.89677086E+02</pdfrwt>
<pdfrwt beam="2">  1       -2 0.17807510E-02 0.89677086E+02</pdfrwt>
<totfact> 0.15381307E+05</totfact>
</mgrwt>
</event>
<event>
 5    1  0.4023633E+001  0.9247432E+02  0.7546771E-02  0.1296968E+00
          1   -1    0    0  501    0  0.00000000000E+00  0.00000000000E+00  0.11767722132E+03  0.11767722132E+03  0.00000000000E+00 0. -1.
         -1   -1    0    0    0  501 -0.00000000000E+00 -0.00000000000E+00 -0.18167277995E+02  0.18167277995E+02  0.00000000000E+00 0.  1.
         23    2    1    2    0    0  0.00000000000E+00  0.00000000000E+00  0.99509943329E+02  0.13584449932E+03  0.92474316292E+02 0.  0.
          2    1    3    3  502    0  0.31768636871E+02  0.12975888620E+02  0.95276221348E+02  0.10126785437E+03  0.00000000000E+00 0. -1.
         -2    1    3    3    0  502 -0.31768636871E+02 -0.12975888620E+02  0.42337219810E+01  0.34576644949E+02  0.00000000000E+00 0.  1.
<mgrwt>
<rscale>  0 0.92474316E+02</rscale>
<asrwt>0</asrwt>
<pdfrwt beam="1">  1        1 0.18104187E-01 0.92474316E+02</pdfrwt>
<pdfrwt beam="2">  1       -1 0.27949659E-02 0.92474316E+02</pdfrwt>
<totfact> 0.10332840E+05</totfact>
</mgrwt>
</event>
<event>
 5    1  0.4023633E+001  0.9113254E+02  0.7546771E-02  0.1300132E+00
         -1   -1    0    0    0  501 -0.00000000000E+00  0.00000000000E+00  0.15183788582E+01  0.15183788582E+01  0.00000000000E+00 0.  1.
          1   -1    0    0  501    0  0.00000000000E+00 -0.00000000000E+00 -0.13674352368E+04  0.13674352368E+04  0.00000000000E+00 0. -1.
         23    2    1    2    0    0  0.00000000000E+00  0.00000000000E+00 -0.13659168579E+04  0.13689536157E+04  0.91132535431E+02 0.  0.
          2    1    3    3  502    0  0.20168055107E+02 -0.82013965830E+01 -0.12842475143E+04  0.12844320501E+04  0.00000000000E+00 0. -1.
         -2    1    3    3    0  502 -0.20168055107E+02  0.82013965830E+01 -0.81669343666E+02  0.84521565576E+02  0.00000000000E+00 0.  1.
<mgrwt>
<rscale>  0 0.91132535E+02</rscale>
<asrwt>0</asrwt>
<pdfrwt beam="2">  1        1 0.21037486E+00 0.91132535E+02</pdfrwt>
<pdfrwt beam="1">  1       -1 0.23359652E-03 0.91132535E+02</pdfrwt>
<totfact> 0.11845622E+05</totfact>
</mgrwt>
</event>
<event>
 5    1  0.4023633E+001  0.9162386E+02  0.7546771E-02  0.1298966E+00
          2   -1    0    0  501    0  0.00000000000E+00  0.00000000000E+00  0.34298026460E+03  0.34298026460E+03  0.00000000000E+00 0. -1.
         -2   -1    0    0    0  501 -0.00000000000E+00 -0.00000000000E+00 -0.61191066740E+01  0.61191066740E+01  0.00000000000E+00 0.  1.
         23    2    1    2    0    0  0.00000000000E+00  0.00000000000E+00  0.33686115793E+03  0.34909937128E+03  0.91623857727E+02 0.  0.
          2    1    3    3  502    0 -0.94072468010E+01 -0.41008549526E+02  0.23749137486E+03  0.24118944952E+03  0.00000000000E+00 0. -1.
         -2    1    3    3    0  502  0.94072468010E+01  0.41008549526E+02  0.99369783071E+02  0.10790992176E+03  0.00000000000E+00 0.  1.
<mgrwt>
<rscale>  0 0.91623858E+02</rscale>
<asrwt>0</asrwt>
<pdfrwt beam="1">  1        2 0.52766180E-01 0.91623858E+02</pdfrwt>
<pdfrwt beam="2">  1       -2 0.94140129E-03 0.91623858E+02</pdfrwt>
<totfact> 0.18634585E+05</totfact>
</mgrwt>
</event>
<event>
 5    1  0.4023633E+001  0.9073958E+02  0.7546771E-02  0.1301071E+00
         -2   -1    0    0    0  501 -0.00000000000E+00  0.00000000000E+00  0.10014016157E+02  0.10014016157E+02  0.00000000000E+00 0. -1.
          2   -1    0    0  501    0  0.00000000000E+00 -0.00000000000E+00 -0.20555366105E+03  0.20555366105E+03  0.00000000000E+00 0.  1.
         23    2    1    2    0    0  0.00000000000E+00  0.00000000000E+00 -0.19553964489E+03  0.21556767721E+03  0.90739576437E+02 0.  0.
          2    1    3    3  502    0  0.32959412804E+02 -0.17356375335E+02 -0.36237977281E+02  0.51968814250E+02  0.00000000000E+00 0. -1.
         -2    1    3    3    0  502 -0.32959412804E+02  0.17356375335E+02 -0.15930166761E+03  0.16359886296E+03  0.00000000000E+00 0.  1.
<mgrwt>
<rscale>  0 0.90739576E+02</rscale>
<asrwt>0</asrwt>
<pdfrwt beam="2">  1        2 0.31623637E-01 0.90739576E+02</pdfrwt>
<pdfrwt beam="1">  1       -2 0.15406180E-02 0.90739576E+02</pdfrwt>
<totfact> 0.15825500E+05</totfact>
</mgrwt>
</event>
<event>
 5    1  0.4023633E+001  0.9267414E+02  0.7546771E-02  0.1296502E+00
          1   -1    0    0  501    0  0.00000000000E+00  0.00000000000E+00  0.11645897557E+02  0.11645897557E+02  0.00000000000E+00 0. -1.
         -1   -1    0    0    0  501 -0.00000000000E+00 -0.00000000000E+00 -0.18436742482E+03  0.18436742482E+03  0.00000000000E+00 0.  1.
         23    2    1    2    0    0  0.00000000000E+00  0.00000000000E+00 -0.17272152726E+03  0.19601332238E+03  0.92674141858E+02 0.  0.
          2    1    3    3  502    0  0.11743062926E+02  0.39060583015E+02 -0.39853239365E+02  0.57025514993E+02  0.00000000000E+00 0. -1.
         -2    1    3    3    0  502 -0.11743062926E+02 -0.39060583015E+02 -0.13286828790E+03  0.13898780738E+03  0.00000000000E+00 0.  1.
<mgrwt>
<rscale>  0 0.92674142E+02</rscale>
<asrwt>0</asrwt>
<pdfrwt beam="1">  1        1 0.17916764E-02 0.92674142E+02</pdfrwt>
<pdfrwt beam="2">  1       -1 0.28364221E-01 0.92674142E+02</pdfrwt>
<totfact> 0.68060848E+04</totfact>
</mgrwt>
</event>
<event>
 5    1  0.4023633E+001  0.9055015E+02  0.7546771E-02  0.1301525E+00
          2   -1    0    0  501    0  0.00000000000E+00  0.00000000000E+00  0.30694444674E+04  0.30694444674E+04  0.00000000000E+00 0. -1.
         -2   -1    0    0    0  501 -0.00000000000E+00 -0.00000000000E+00 -0.66781872471E+00  0.66781872471E+00  0.00000000000E+00 0.  1.
         23    2    1    2    0    0  0.00000000000E+00  0.00000000000E+00  0.30687766487E+04  0.30701122862E+04  0.90550151624E+02 0.  0.
          2    1    3    3  502    0  0.12329634181E+02  0.40964753361E+02  0.10318355434E+04  0.10327219953E+04  0.00000000000E+00 0. -1.
         -2    1    3    3    0  502 -0.12329634181E+02 -0.40964753361E+02  0.20369411053E+04  0.20373902909E+04  0.00000000000E+00 0.  1.
<mgrwt>
<rscale>  0 0.90550152E+02</rscale>
<asrwt>0</asrwt>
<pdfrwt beam="1">  1        2 0.47221093E+00 0.90550152E+02</pdfrwt>
<pdfrwt beam="2">  1       -2 0.10274380E-03 0.90550152E+02</pdfrwt>
<totfact> 0.97751349E+04</totfact>
</mgrwt>
</event>
<event>
 4    1  0.4023633E+001  0.4852844E+02  0.7546771E-02  0.1453444E+00
         -2   -1    0    0    0  501 -0.00000000000E+00  0.00000000000E+00  0.31406849322E+00  0.31406849322E+00  0.00000000000E+00 0.  1.
          2   -1    0    0  501    0  0.00000000000E+00 -0.00000000000E+00 -0.18745984065E+04  0.18745984065E+04  0.00000000000E+00 0. -1.
          2    1    1    2  502    0 -0.15282480529E+02  0.16936232046E+02 -0.12565845163E+04  0.12567915646E+04  0.00000000000E+00 0. -1.
         -2    1    1    2    0  502  0.15282480529E+02 -0.16936232046E+02 -0.61769982171E+03  0.61812091042E+03  0.00000000000E+00 0.  1.
<mgrwt>
<rscale>  0 0.48528437E+02</rscale>
<asrwt>0</asrwt>
<pdfrwt beam="2">  1        2 0.28839658E+00 0.48528437E+02</pdfrwt>
<pdfrwt beam="1">  1       -2 0.48318761E-04 0.48528437E+02</pdfrwt>
<totfact> 0.10459231E+06</totfact>
</mgrwt>
</event>
<event>
 5    1  0.4023633E+001  0.9337801E+02  0.7546771E-02  0.1294872E+00
          3   -1    0    0  501    0  0.00000000000E+00  0.00000000000E+00  0.53291335181E+02  0.53291335181E+02  0.00000000000E+00 0. -1.
         -3   -1    0    0    0  501 -0.00000000000E+00 -0.00000000000E+00 -0.40904643176E+02  0.40904643176E+02  0.00000000000E+00 0.  1.
         23    2    1    2    0    0  0.00000000000E+00  0.00000000000E+00  0.12386692004E+02  0.94195978357E+02  0.93378007045E+02 0.  0.
          2    1    3    3  502    0 -0.26302264882E+02 -0.10902131458E+02  0.43520149471E+02  0.52006432470E+02  0.00000000000E+00 0. -1.
         -2    1    3    3    0  502  0.26302264882E+02  0.10902131458E+02 -0.31133457467E+02  0.42189545886E+02  0.00000000000E+00 0.  1.
<mgrwt>
<rscale>  0 0.93378007E+02</rscale>
<asrwt>0</asrwt>
<pdfrwt beam="1">  1        3 0.81986670E-02 0.93378007E+02</pdfrwt>
<pdfrwt beam="2">  1       -3 0.62930220E-02 0.93378007E+02</pdfrwt>
<totfact> 0.32893059E+04</totfact>
</mgrwt>
</event>
<event>
 5    1  0.4023633E+001  0.9104592E+02  0.7546771E-02  0.1300338E+00
          3   -1    0    0  501    0  0.00000000000E+00  0.00000000000E+00  0.75480726856E+02  0.75480726856E+02  0.00000000000E+00 0. -1.
         -3   -1    0    0    0  501 -0.00000000000E+00 -0.00000000000E+00 -0.27455217310E+02  0.27455217310E+02  0.00000000000E+00 0.  1.
         23    2    1    2    0    0  0.00000000000E+00  0.00000000000E+00  0.48025509546E+02  0.10293594417E+03  0.91045917175E+02 0.  0.
          2    1    3    3  502    0 -0.40553390992E+02 -0.19487566870E+02  0.16180018372E+02  0.47813552242E+02  0.00000000000E+00 0.  1.
         -2    1    3    3    0  502  0.40553390992E+02  0.19487566870E+02  0.31845491174E+02  0.55122391925E+02  0.00000000000E+00 0. -1.
<mgrwt>
<rscale>  0 0.91045917E+02</rscale>
<asrwt>0</asrwt>
<pdfrwt beam="1">  1        3 0.11612419E-01 0.91045917E+02</pdfrwt>
<pdfrwt beam="2">  1       -3 0.42238796E-02 0.91045917E+02</pdfrwt>
<totfact> 0.34590139E+04</totfact>
</mgrwt>
</event>
<event>
 5    1  0.4023633E+001  0.9106171E+02  0.7546771E-02  0.1300301E+00
          2   -1    0    0  501    0  0.00000000000E+00  0.00000000000E+00  0.13695579954E+03  0.13695579954E+03  0.00000000000E+00 0. -1.
         -2   -1    0    0    0  501 -0.00000000000E+00 -0.00000000000E+00 -0.15136698370E+02  0.15136698370E+02  0.00000000000E+00 0.  1.
         23    2    1    2    0    0  0.00000000000E+00  0.00000000000E+00  0.12181910117E+03  0.15209249791E+03  0.91061707157E+02 0.  0.
          2    1    3    3  502    0  0.27958379051E+02  0.31623676043E+02  0.89417448308E+02  0.98879764905E+02  0.00000000000E+00 0. -1.
         -2    1    3    3    0  502 -0.27958379051E+02 -0.31623676043E+02  0.32401652861E+02  0.53212733004E+02  0.00000000000E+00 0.  1.
<mgrwt>
<rscale>  0 0.91061707E+02</rscale>
<asrwt>0</asrwt>
<pdfrwt beam="1">  1        2 0.21070122E-01 0.91061707E+02</pdfrwt>
<pdfrwt beam="2">  1       -2 0.23287229E-02 0.91061707E+02</pdfrwt>
<totfact> 0.13606305E+05</totfact>
</mgrwt>
</event>
<event>
 5    1  0.4023633E+001  0.9384838E+02  0.7546771E-02  0.1293791E+00
          3   -1    0    0  501    0  0.00000000000E+00  0.00000000000E+00  0.85659012877E+02  0.85659012877E+02  0.00000000000E+00 0. -1.
         -3   -1    0    0    0  501 -0.00000000000E+00 -0.00000000000E+00 -0.25705171479E+02  0.25705171479E+02  0.00000000000E+00 0.  1.
         23    2    1    2    0    0  0.00000000000E+00  0.00000000000E+00  0.59953841398E+02  0.11136418436E+03  0.93848380161E+02 0.  0.
          2    1    3    3  502    0 -0.39284520831E+02  0.24762081450E+02  0.37976433427E+02  0.59988696856E+02  0.00000000000E+00 0. -1.
         -2    1    3    3    0  502  0.39284520831E+02 -0.24762081450E+02  0.21977407971E+02  0.51375487499E+02  0.00000000000E+00 0.  1.
<mgrwt>
<rscale>  0 0.93848380E+02</rscale>
<asrwt>0</asrwt>
<pdfrwt beam="1">  1        3 0.13178310E-01 0.93848380E+02</pdfrwt>
<pdfrwt beam="2">  1       -3 0.39546418E-02 0.93848380E+02</pdfrwt>
<totfact> 0.31284655E+04</totfact>
</mgrwt>
</event>
<event>
 5    1  0.4023633E+001  0.8731461E+02  0.7546771E-02  0.1309488E+00
         -1   -1    0    0    0  501 -0.00000000000E+00  0.00000000000E+00  0.27787097045E+01  0.27787097045E+01  0.00000000000E+00 0.  1.
          1   -1    0    0  501    0  0.00000000000E+00 -0.00000000000E+00 -0.68591561141E+03  0.68591561141E+03  0.00000000000E+00 0. -1.
         23    2    1    2    0    0  0.00000000000E+00  0.00000000000E+00 -0.68313690170E+03  0.68869432111E+03  0.87314611970E+02 0.  0.
          2    1    3    3  502    0  0.30810064983E+02  0.18374299838E+02 -0.53782079054E+03  0.53901584182E+03  0.00000000000E+00 0. -1.
         -2    1    3    3    0  502 -0.30810064983E+02 -0.18374299838E+02 -0.14531611116E+03  0.14967847929E+03  0.00000000000E+00 0.  1.
<mgrwt>
<rscale>  0 0.87314612E+02</rscale>
<asrwt>0</asrwt>
<pdfrwt beam="2">  1        1 0.10552542E+00 0.87314612E+02</pdfrwt>
<pdfrwt beam="1">  1       -1 0.42749405E-03 0.87314612E+02</pdfrwt>
<totfact> 0.15939265E+05</totfact>
</mgrwt>
</event>
<event>
 5    1  0.4023633E+001  0.9201156E+02  0.7546771E-02  0.1298052E+00
          2   -1    0    0  501    0  0.00000000000E+00  0.00000000000E+00  0.94081079022E+03  0.94081079022E+03  0.00000000000E+00 0. -1.
         -2   -1    0    0    0  501 -0.00000000000E+00 -0.00000000000E+00 -0.22496889717E+01  0.22496889717E+01  0.00000000000E+00 0.  1.
         23    2    1    2    0    0  0.00000000000E+00  0.00000000000E+00  0.93856110125E+03  0.94306047919E+03  0.92011557083E+02 0.  0.
          2    1    3    3  502    0 -0.18003648053E+02 -0.31256872433E+02  0.17660616629E+03  0.18025221604E+03  0.00000000000E+00 0.  1.
         -2    1    3    3    0  502  0.18003648053E+02  0.31256872433E+02  0.76195493496E+03  0.76280826315E+03  0.00000000000E+00 0. -1.
<mgrwt>
<rscale>  0 0.92011557E+02</rscale>
<asrwt>0</asrwt>
<pdfrwt beam="1">  1        2 0.14473981E+00 0.92011557E+02</pdfrwt>
<pdfrwt beam="2">  1       -2 0.34610675E-03 0.92011557E+02</pdfrwt>
<totfact> 0.24312238E+05</totfact>
</mgrwt>
</event>
<event>
 5    1  0.4023633E+001  0.9002886E+02  0.7546771E-02  0.1302782E+00
          2   -1    0    0  501    0  0.00000000000E+00  0.00000000000E+00  0.39682757131E+03  0.39682757131E+03  0.00000000000E+00 0. -1.
         -2   -1    0    0    0  501 -0.00000000000E+00 -0.00000000000E+00 -0.51062449124E+01  0.51062449124E+01  0.00000000000E+00 0.  1.
         23    2    1    2    0    0  0.00000000000E+00  0.00000000000E+00  0.39172132640E+03  0.40193381623E+03  0.90028856865E+02 0.  0.
          2    1    3    3  502    0 -0.18225735970E+02 -0.40256619361E+02  0.15757880378E+03  0.16365772898E+03  0.00000000000E+00 0. -1.
         -2    1    3    3    0  502  0.18225735970E+02  0.40256619361E+02  0.23414252262E+03  0.23827608724E+03  0.00000000000E+00 0.  1.
<mgrwt>
<rscale>  0 0.90028857E+02</rscale>
<asrwt>0</asrwt>
<pdfrwt beam="1">  1        2 0.61050371E-01 0.90028857E+02</pdfrwt>
<pdfrwt beam="2">  1       -2 0.78557645E-03 0.90028857E+02</pdfrwt>
<totfact> 0.20586004E+05</totfact>
</mgrwt>
</event>
<event>
 5    1  0.4023633E+001  0.9306361E+02  0.7546771E-02  0.1295598E+00
          2   -1    0    0  501    0  0.00000000000E+00  0.00000000000E+00  0.17920478096E+04  0.17920478096E+04  0.00000000000E+00 0. -1.
         -2   -1    0    0    0  501 -0.00000000000E+00 -0.00000000000E+00 -0.12082317212E+01  0.12082317212E+01  0.00000000000E+00 0.  1.
         23    2    1    2    0    0  0.00000000000E+00  0.00000000000E+00  0.17908395779E+04  0.17932560413E+04  0.93063612856E+02 0.  0.
          2    1    3    3  502    0  0.36190448472E+01  0.25006292243E+02  0.14249252245E+03  0.14471534504E+03  0.00000000000E+00 0.  1.
         -2    1    3    3    0  502 -0.36190448472E+01 -0.25006292243E+02  0.16483470555E+04  0.16485406963E+04  0.00000000000E+00 0. -1.
<mgrwt>
<rscale>  0 0.93063613E+02</rscale>
<asrwt>0</asrwt>
<pdfrwt beam="1">  1        2 0.27569754E+00 0.93063613E+02</pdfrwt>
<pdfrwt beam="2">  1       -2 0.18588324E-03 0.93063613E+02</pdfrwt>
<totfact> 0.20366851E+05</totfact>
</mgrwt>
</event>
<event>
 5    1  0.4023633E+001  0.9149562E+02  0.7546771E-02  0.1299270E+00
         -2   -1    0    0    0  501 -0.00000000000E+00  0.00000000000E+00  0.33088217774E+01  0.33088217774E+01  0.00000000000E+00 0.  1.
          2   -1    0    0  501    0  0.00000000000E+00 -0.00000000000E+00 -0.63250977279E+03  0.63250977279E+03  0.00000000000E+00 0. -1.
         23    2    1    2    0    0  0.00000000000E+00  0.00000000000E+00 -0.62920095102E+03  0.63581859457E+03  0.91495619800E+02 0.  0.
          2    1    3    3  502    0 -0.14149623334E+02  0.22732865219E+02 -0.57236382449E+03  0.57298982764E+03  0.00000000000E+00 0. -1.
         -2    1    3    3    0  502  0.14149623334E+02 -0.22732865219E+02 -0.56837126530E+02  0.62828766928E+02  0.00000000000E+00 0.  1.
<mgrwt>
<rscale>  0 0.91495620E+02</rscale>
<asrwt>0</asrwt>
<pdfrwt beam="2">  1        2 0.97309072E-01 0.91495620E+02</pdfrwt>
<pdfrwt beam="1">  1       -2 0.50905015E-03 0.91495620E+02</pdfrwt>
<totfact> 0.22906682E+05</totfact>
</mgrwt>
</event>
<event>
 5    1  0.4023633E+001  0.9283430E+02  0.7546771E-02  0.1296130E+00
          1   -1    0    0  501    0  0.00000000000E+00  0.00000000000E+00  0.31508191381E+02  0.31508191381E+02  0.00000000000E+00 0. -1.
         -1   -1    0    0    0  501 -0.00000000000E+00 -0.00000000000E+00 -0.68380691042E+02  0.68380691042E+02  0.00000000000E+00 0.  1.
         23    2    1    2    0    0  0.00000000000E+00  0.00000000000E+00 -0.36872499661E+02  0.99888882423E+02  0.92834301853E+02 0.  0.
          2    1    3    3  502    0  0.33352644180E+02 -0.22972680929E+02  0.59678582425E+01  0.40936026613E+02  0.00000000000E+00 0. -1.
         -2    1    3    3    0  502 -0.33352644180E+02  0.22972680929E+02 -0.42840357903E+02  0.58952855810E+02  0.00000000000E+00 0.  1.
<mgrwt>
<rscale>  0 0.92834302E+02</rscale>
<asrwt>0</asrwt>
<pdfrwt beam="1">  1        1 0.48474141E-02 0.92834302E+02</pdfrwt>
<pdfrwt beam="2">  1       -1 0.10520106E-01 0.92834302E+02</pdfrwt>
<totfact> 0.82965817E+04</totfact>
</mgrwt>
</event>
<event>
 5    1  0.4023633E+001  0.9033162E+02  0.7546771E-02  0.1302051E+00
         -1   -1    0    0    0  501 -0.00000000000E+00  0.00000000000E+00  0.25049803981E+02  0.25049803981E+02  0.00000000000E+00 0.  1.
          1   -1    0    0  501    0  0.00000000000E+00 -0.00000000000E+00 -0.81435787605E+02  0.81435787605E+02  0.00000000000E+00 0. -1.
         23    2    1    2    0    0  0.00000000000E+00  0.00000000000E+00 -0.56385983623E+02  0.10648559159E+03  0.90331622736E+02 0.  0.
          2    1    3    3  502    0 -0.37819081361E+02  0.24619228621E+02 -0.30417572809E+02  0.54420750348E+02  0.00000000000E+00 0. -1.
         -2    1    3    3    0  502  0.37819081361E+02 -0.24619228621E+02 -0.25968410814E+02  0.52064841237E+02  0.00000000000E+00 0.  1.
<mgrwt>
<rscale>  0 0.90331623E+02</rscale>
<asrwt>0</asrwt>
<pdfrwt beam="2">  1        1 0.12528583E-01 0.90331623E+02</pdfrwt>
<pdfrwt beam="1">  1       -1 0.38538161E-02 0.90331623E+02</pdfrwt>
<totfact> 0.10363884E+05</totfact>
</mgrwt>
</event>
<event>
 5    1  0.4023633E+001  0.9133091E+02  0.7546771E-02  0.1299660E+00
          3   -1    0    0  501    0  0.00000000000E+00  0.00000000000E+00  0.67704427551E+01  0.67704427551E+01  0.00000000000E+00 0. -1.
         -3   -1    0    0    0  501 -0.00000000000E+00 -0.00000000000E+00 -0.30800552115E+03  0.30800552115E+03  0.00000000000E+00 0.  1.
         23    2    1    2    0    0  0.00000000000E+00  0.00000000000E+00 -0.30123507839E+03  0.31477596390E+03  0.91330909317E+02 0.  0.
          2    1    3    3  502    0  0.10242234509E+02  0.43438814701E+02 -0.18394398705E+03  0.18928080822E+03  0.00000000000E+00 0. -1.
         -2    1    3    3    0  502 -0.10242234509E+02 -0.43438814701E+02 -0.11729109134E+03  0.12549515568E+03  0.00000000000E+00 0.  1.
<mgrwt>
<rscale>  0 0.91330909E+02</rscale>
<asrwt>0</asrwt>
<pdfrwt beam="1">  1        3 0.10416065E-02 0.91330909E+02</pdfrwt>
<pdfrwt beam="2">  1       -3 0.47385468E-01 0.91330909E+02</pdfrwt>
<totfact> 0.23355695E+04</totfact>
</mgrwt>
</event>
<event>
 5    1  0.4023633E+001  0.9130026E+02  0.7546771E-02  0.1299733E+00
          2   -1    0    0  501    0  0.00000000000E+00  0.00000000000E+00  0.10850021961E+02  0.10850021961E+02  0.00000000000E+00 0. -1.
         -2   -1    0    0    0  501 -0.00000000000E+00 -0.00000000000E+00 -0.19206728905E+03  0.19206728905E+03  0.00000000000E+00 0.  1.
         23    2    1    2    0    0  0.00000000000E+00  0.00000000000E+00 -0.18121726709E+03  0.20291731101E+03  0.91300258578E+02 0.  0.
          2    1    3    3  502    0 -0.41126550157E+02 -0.19211614502E+02 -0.79844843400E+02  0.91845948616E+02  0.00000000000E+00 0. -1.
         -2    1    3    3    0  502  0.41126550157E+02  0.19211614502E+02 -0.10137242369E+03  0.11107136239E+03  0.00000000000E+00 0.  1.
<mgrwt>
<rscale>  0 0.91300259E+02</rscale>
<asrwt>0</asrwt>
<pdfrwt beam="1">  1        2 0.16692344E-02 0.91300259E+02</pdfrwt>
<pdfrwt beam="2">  1       -2 0.29548809E-01 0.91300259E+02</pdfrwt>
<totfact> 0.63188485E+04</totfact>
</mgrwt>
</event>
<event>
 5    1  0.4023633E+001  0.8929285E+02  0.7546771E-02  0.1304573E+00
          3   -1    0    0  501    0  0.00000000000E+00  0.00000000000E+00  0.97871782664E+01  0.97871782664E+01  0.00000000000E+00 0. -1.
         -3   -1    0    0    0  501 -0.00000000000E+00 -0.00000000000E+00 -0.20366473410E+03  0.20366473410E+03  0.00000000000E+00 0.  1.
         23    2    1    2    0    0  0.00000000000E+00  0.00000000000E+00 -0.19387755583E+03  0.21345191237E+03  0.89292845384E+02 0.  0.
          2    1    3    3  502    0  0.44466440130E+02 -0.32404015736E+01 -0.91313010418E+02  0.10161609307E+03  0.00000000000E+00 0. -1.
         -2    1    3    3    0  502 -0.44466440130E+02  0.32404015736E+01 -0.10256454542E+03  0.11183581929E+03  0.00000000000E+00 0.  1.
<mgrwt>
<rscale>  0 0.89292845E+02</rscale>
<asrwt>0</asrwt>
<pdfrwt beam="1">  1        3 0.15057196E-02 0.89292845E+02</pdfrwt>
<pdfrwt beam="2">  1       -3 0.31333038E-01 0.89292845E+02</pdfrwt>
<totfact> 0.29422075E+04</totfact>
</mgrwt>
</event>
<event>
 5    1  0.4023633E+001  0.9323501E+02  0.7546771E-02  0.1295201E+00
          3   -1    0    0  501    0  0.00000000000E+00  0.00000000000E+00  0.33546040347E+01  0.33546040347E+01  0.00000000000E+00 0. -1.
         -3   -1    0    0    0  501 -0.00000000000E+00 -0.00000000000E+00 -0.64782365005E+03  0.64782365005E+03  0.00000000000E+00 0.  1.
         23    2    1    2    0    0  0.00000000000E+00  0.00000000000E+00 -0.64446904602E+03  0.65117825409E+03  0.93235011240E+02 0.  0.
          2    1    3    3  502    0 -0.40664457495E+02 -0.21129721579E+02 -0.26250837997E+03  0.26647835333E+03  0.00000000000E+00 0. -1.
         -2    1    3    3    0  502  0.40664457495E+02  0.21129721579E+02 -0.38196066605E+03  0.38469990076E+03  0.00000000000E+00 0.  1.
<mgrwt>
<rscale>  0 0.93235011E+02</rscale>
<asrwt>0</asrwt>
<pdfrwt beam="1">  1        3 0.51609301E-03 0.93235011E+02</pdfrwt>
<pdfrwt beam="2">  1       -3 0.99665162E-01 0.93235011E+02</pdfrwt>
<totfact> 0.13883142E+04</totfact>
</mgrwt>
</event>
<event>
 5    1  0.4023633E+001  0.9391093E+02  0.7546771E-02  0.1293648E+00
          2   -1    0    0  501    0  0.00000000000E+00  0.00000000000E+00  0.28417126672E+03  0.28417126672E+03  0.00000000000E+00 0. -1.
         -2   -1    0    0    0  501 -0.00000000000E+00 -0.00000000000E+00 -0.77587563410E+01  0.77587563410E+01  0.00000000000E+00 0.  1.
         23    2    1    2    0    0  0.00000000000E+00  0.00000000000E+00  0.27641251038E+03  0.29193002306E+03  0.93910928386E+02 0.  0.
          2    1    3    3  502    0 -0.30856366247E+02 -0.22184281697E+02  0.22393545612E+03  0.22713728491E+03  0.00000000000E+00 0. -1.
         -2    1    3    3    0  502  0.30856366247E+02  0.22184281697E+02  0.52477054261E+02  0.64792738145E+02  0.00000000000E+00 0.  1.
<mgrwt>
<rscale>  0 0.93910928E+02</rscale>
<asrwt>0</asrwt>
<pdfrwt beam="1">  1        2 0.43718648E-01 0.93910928E+02</pdfrwt>
<pdfrwt beam="2">  1       -2 0.11936550E-02 0.93910928E+02</pdfrwt>
<totfact> 0.16267641E+05</totfact>
</mgrwt>
</event>
<event>
 5    1  0.4023633E+001  0.8436980E+02  0.7546771E-02  0.1317089E+00
          1   -1    0    0  501    0  0.00000000000E+00  0.00000000000E+00  0.50200975644E+03  0.50200975644E+03  0.00000000000E+00 0. -1.
         -1   -1    0    0    0  501 -0.00000000000E+00 -0.00000000000E+00 -0.35448830803E+01  0.35448830803E+01  0.00000000000E+00 0.  1.
         23    2    1    2    0    0  0.00000000000E+00  0.00000000000E+00  0.49846487336E+03  0.50555463952E+03  0.84369802459E+02 0.  0.
          2    1    3    3  502    0  0.22184744547E+02  0.15259148621E+02  0.44382086050E+03  0.44463688637E+03  0.00000000000E+00 0. -1.
         -2    1    3    3    0  502 -0.22184744547E+02 -0.15259148621E+02  0.54644012861E+02  0.60917753150E+02  0.00000000000E+00 0.  1.
<mgrwt>
<rscale>  0 0.84369802E+02</rscale>
<asrwt>0</asrwt>
<pdfrwt beam="1">  1        1 0.77232214E-01 0.84369802E+02</pdfrwt>
<pdfrwt beam="2">  1       -1 0.54536703E-03 0.84369802E+02</pdfrwt>
<totfact> 0.17099186E+05</totfact>
</mgrwt>
</event>
<event>
 5    1  0.4023633E+001  0.8948751E+02  0.7546771E-02  0.1304098E+00
         -1   -1    0    0    0  501 -0.00000000000E+00  0.00000000000E+00  0.32035185125E+02  0.32035185125E+02  0.00000000000E+00 0.  1.
          1   -1    0    0  501    0  0.00000000000E+00 -0.00000000000E+00 -0.62493904506E+02  0.62493904506E+02  0.00000000000E+00 0. -1.
         23    2    1    2    0    0  0.00000000000E+00  0.00000000000E+00 -0.30458719381E+02  0.94529089631E+02  0.89487514214E+02 0.  0.
          2    1    3    3  502    0 -0.42515884392E+02 -0.32330043068E+01 -0.90239549732E+00  0.42648177688E+02  0.00000000000E+00 0. -1.
         -2    1    3    3    0  502  0.42515884392E+02  0.32330043068E+01 -0.29556323884E+02  0.51880911943E+02  0.00000000000E+00 0.  1.
<mgrwt>
<rscale>  0 0.89487514E+02</rscale>
<asrwt>0</asrwt>
<pdfrwt beam="2">  1        1 0.96144469E-02 0.89487514E+02</pdfrwt>
<pdfrwt beam="1">  1       -1 0.49284900E-02 0.89487514E+02</pdfrwt>
<totfact> 0.10211136E+05</totfact>
</mgrwt>
</event>
<event>
 5    1  0.4023633E+001  0.8974062E+02  0.7546771E-02  0.1303481E+00
         -2   -1    0    0    0  501 -0.00000000000E+00  0.00000000000E+00  0.44773534178E+02  0.44773534178E+02  0.00000000000E+00 0.  1.
          2   -1    0    0  501    0  0.00000000000E+00 -0.00000000000E+00 -0.44967295774E+02  0.44967295774E+02  0.00000000000E+00 0. -1.
         23    2    1    2    0    0  0.00000000000E+00  0.00000000000E+00 -0.19376159613E+00  0.89740829951E+02  0.89740620774E+02 0.  0.
          2    1    3    3  502    0 -0.39730484751E+02  0.16951207752E+02 -0.12241450736E+02  0.44896636610E+02  0.00000000000E+00 0. -1.
         -2    1    3    3    0  502  0.39730484751E+02 -0.16951207752E+02  0.12047689140E+02  0.44844193341E+02  0.00000000000E+00 0.  1.
<mgrwt>
<rscale>  0 0.89740621E+02</rscale>
<asrwt>0</asrwt>
<pdfrwt beam="2">  1        2 0.69180455E-02 0.89740621E+02</pdfrwt>
<pdfrwt beam="1">  1       -2 0.68882360E-02 0.89740621E+02</pdfrwt>
<totfact> 0.10290084E+05</totfact>
</mgrwt>
</event>
<event>
 5    1  0.4023633E+001  0.8501105E+02  0.7546771E-02  0.1315404E+00
         -1   -1    0    0    0  501 -0.00000000000E+00  0.00000000000E+00  0.19293114655E+02  0.19293114655E+02  0.00000000000E+00 0.  1.
          1   -1    0    0  501    0  0.00000000000E+00 -0.00000000000E+00 -0.93645821117E+02  0.93645821117E+02  0.00000000000E+00 0. -1.
         23    2    1    2    0    0  0.00000000000E+00  0.00000000000E+00 -0.74352706463E+02  0.11293893577E+03  0.85011047841E+02 0.  0.
          2    1    3    3  502    0 -0.42099120203E+02  0.50717232874E+01 -0.41086193184E+02  0.59043488797E+02  0.00000000000E+00 0. -1.
         -2    1    3    3    0  502  0.42099120203E+02 -0.50717232874E+01 -0.33266513278E+02  0.53895446975E+02  0.00000000000E+00 0.  1.
<mgrwt>
<rscale>  0 0.85011048E+02</rscale>
<asrwt>0</asrwt>
<pdfrwt beam="2">  1        1 0.14407049E-01 0.85011048E+02</pdfrwt>
<pdfrwt beam="1">  1       -1 0.29681715E-02 0.85011048E+02</pdfrwt>
<totfact> 0.12497642E+05</totfact>
</mgrwt>
</event>
<event>
 5    1  0.4023633E+001  0.9097438E+02  0.7546771E-02  0.1300509E+00
         -3   -1    0    0    0  501 -0.00000000000E+00  0.00000000000E+00  0.95397784458E+02  0.95397784458E+02  0.00000000000E+00 0.  1.
          3   -1    0    0  501    0  0.00000000000E+00 -0.00000000000E+00 -0.21689019956E+02  0.21689019956E+02  0.00000000000E+00 0. -1.
         23    2    1    2    0    0  0.00000000000E+00  0.00000000000E+00  0.73708764502E+02  0.11708680441E+03  0.90974379928E+02 0.  0.
          2    1    3    3  502    0  0.32492642699E+02  0.31643485201E+02  0.32395519718E+02  0.55736448425E+02  0.00000000000E+00 0. -1.
         -2    1    3    3    0  502 -0.32492642699E+02 -0.31643485201E+02  0.41313244784E+02  0.61350355988E+02  0.00000000000E+00 0.  1.
<mgrwt>
<rscale>  0 0.90974380E+02</rscale>
<asrwt>0</asrwt>
<pdfrwt beam="2">  1        3 0.33367724E-02 0.90974380E+02</pdfrwt>
<pdfrwt beam="1">  1       -3 0.14676582E-01 0.90974380E+02</pdfrwt>
<totfact> 0.33651181E+04</totfact>
</mgrwt>
</event>
<event>
 5    1  0.4023633E+001  0.9310075E+02  0.7546771E-02  0.1295512E+00
         -2   -1    0    0    0  501 -0.00000000000E+00  0.00000000000E+00  0.97924996145E+01  0.97924996145E+01  0.00000000000E+00 0.  1.
          2   -1    0    0  501    0  0.00000000000E+00 -0.00000000000E+00 -0.22128543078E+03  0.22128543078E+03  0.00000000000E+00 0. -1.
         23    2    1    2    0    0  0.00000000000E+00  0.00000000000E+00 -0.21149293116E+03  0.23107793039E+03  0.93100751782E+02 0.  0.
          2    1    3    3  502    0  0.23854698447E+02  0.39445203802E+02 -0.89667504864E+02  0.10082277605E+03  0.00000000000E+00 0. -1.
         -2    1    3    3    0  502 -0.23854698447E+02 -0.39445203802E+02 -0.12182542630E+03  0.13025515435E+03  0.00000000000E+00 0.  1.
<mgrwt>
<rscale>  0 0.93100752E+02</rscale>
<asrwt>0</asrwt>
<pdfrwt beam="2">  1        2 0.34043912E-01 0.93100752E+02</pdfrwt>
<pdfrwt beam="1">  1       -2 0.15065384E-02 0.93100752E+02</pdfrwt>
<totfact> 0.15171333E+05</totfact>
</mgrwt>
</event>
<event>
 5    1  0.4023633E+001  0.8978694E+02  0.7546771E-02  0.1303368E+00
         -1   -1    0    0    0  501 -0.00000000000E+00  0.00000000000E+00  0.39723221156E+03  0.39723221156E+03  0.00000000000E+00 0.  1.
          1   -1    0    0  501    0  0.00000000000E+00 -0.00000000000E+00 -0.50736663167E+01  0.50736663167E+01  0.00000000000E+00 0. -1.
         23    2    1    2    0    0  0.00000000000E+00  0.00000000000E+00  0.39215854524E+03  0.40230587788E+03  0.89786940959E+02 0.  0.
          2    1    3    3  502    0 -0.48368136528E+01 -0.26360684071E+02  0.35745461410E+03  0.35845792163E+03  0.00000000000E+00 0.  1.
         -2    1    3    3    0  502  0.48368136528E+01  0.26360684071E+02  0.34703931139E+02  0.43847956253E+02  0.00000000000E+00 0. -1.
<mgrwt>
<rscale>  0 0.89786941E+02</rscale>
<asrwt>0</asrwt>
<pdfrwt beam="2">  1        1 0.78056436E-03 0.89786941E+02</pdfrwt>
<pdfrwt beam="1">  1       -1 0.61112624E-01 0.89786941E+02</pdfrwt>
<totfact> 0.55670344E+04</totfact>
</mgrwt>
</event>
<event>
 5    1  0.4023633E+001  0.9602340E+02  0.7546771E-02  0.1288888E+00
         -1   -1    0    0    0  501 -0.00000000000E+00  0.00000000000E+00  0.18591411145E+03  0.18591411145E+03  0.00000000000E+00 0.  1.
          1   -1    0    0  501    0  0.00000000000E+00 -0.00000000000E+00 -0.12398861386E+02  0.12398861386E+02  0.00000000000E+00 0. -1.
         23    2    1    2    0    0  0.00000000000E+00  0.00000000000E+00  0.17351525006E+03  0.19831297284E+03  0.96023399180E+02 0.  0.
          2    1    3    3  502    0 -0.76990811119E+01  0.24322778078E+02  0.27585295342E+01  0.25660921039E+02  0.00000000000E+00 0. -1.
         -2    1    3    3    0  502  0.76990811119E+01 -0.24322778078E+02  0.17075672053E+03  0.17265205180E+03  0.00000000000E+00 0.  1.
<mgrwt>
<rscale>  0 0.96023399E+02</rscale>
<asrwt>0</asrwt>
<pdfrwt beam="2">  1        1 0.19075173E-02 0.96023399E+02</pdfrwt>
<pdfrwt beam="1">  1       -1 0.28602169E-01 0.96023399E+02</pdfrwt>
<totfact> 0.61897947E+04</totfact>
</mgrwt>
</event>
<event>
 5    1  0.4023633E+001  0.9089307E+02  0.7546771E-02  0.1300703E+00
          1   -1    0    0  501    0  0.00000000000E+00  0.00000000000E+00  0.17010004074E+02  0.17010004074E+02  0.00000000000E+00 0. -1.
         -1   -1    0    0    0  501 -0.00000000000E+00 -0.00000000000E+00 -0.12142192833E+03  0.12142192833E+03  0.00000000000E+00 0.  1.
         23    2    1    2    0    0  0.00000000000E+00  0.00000000000E+00 -0.10441192425E+03  0.13843193240E+03  0.90893068944E+02 0.  0.
          2    1    3    3  502    0  0.12379326740E+02 -0.34960236257E+02 -0.12201779667E+02  0.39042915833E+02  0.00000000000E+00 0. -1.
         -2    1    3    3    0  502 -0.12379326740E+02  0.34960236257E+02 -0.92210144587E+02  0.99389016569E+02  0.00000000000E+00 0.  1.
<mgrwt>
<rscale>  0 0.90893069E+02</rscale>
<asrwt>0</asrwt>
<pdfrwt beam="1">  1        1 0.26169237E-02 0.90893069E+02</pdfrwt>
<pdfrwt beam="2">  1       -1 0.18680296E-01 0.90893069E+02</pdfrwt>
<totfact> 0.78975111E+04</totfact>
</mgrwt>
</event>
<event>
 5    1  0.4023633E+001  0.9117446E+02  0.7546771E-02  0.1300032E+00
         -1   -1    0    0    0  501 -0.00000000000E+00  0.00000000000E+00  0.12599958627E+01  0.12599958627E+01  0.00000000000E+00 0.  1.
          1   -1    0    0  501    0  0.00000000000E+00 -0.00000000000E+00 -0.16493670730E+04  0.16493670730E+04  0.00000000000E+00 0. -1.
         23    2    1    2    0    0  0.00000000000E+00  0.00000000000E+00 -0.16481070772E+04  0.16506270689E+04  0.91174463269E+02 0.  0.
          2    1    3    3  502    0  0.37538510073E+02  0.60190430577E+01 -0.36862706541E+03  0.37058235518E+03  0.00000000000E+00 0. -1.
         -2    1    3    3    0  502 -0.37538510073E+02 -0.60190430577E+01 -0.12794800118E+04  0.12800447137E+04  0.00000000000E+00 0.  1.
<mgrwt>
<rscale>  0 0.91174463E+02</rscale>
<asrwt>0</asrwt>
<pdfrwt beam="2">  1        1 0.25374888E+00 0.91174463E+02</pdfrwt>
<pdfrwt beam="1">  1       -1 0.19384544E-03 0.91174463E+02</pdfrwt>
<totfact> 0.10135348E+05</totfact>
</mgrwt>
</event>
<event>
 5    1  0.4023633E+001  0.9114466E+02  0.7546771E-02  0.1300103E+00
         -2   -1    0    0    0  501 -0.00000000000E+00  0.00000000000E+00  0.60040508740E+02  0.60040508740E+02  0.00000000000E+00 0.  1.
          2   -1    0    0  501    0  0.00000000000E+00 -0.00000000000E+00 -0.34590598191E+02  0.34590598191E+02  0.00000000000E+00 0. -1.
         23    2    1    2    0    0  0.00000000000E+00  0.00000000000E+00  0.25449910549E+02  0.94631106931E+02  0.91144656739E+02 0.  0.
          2    1    3    3  502    0  0.28012141501E+02  0.15076583507E+02  0.46605288475E+02  0.56427266065E+02  0.00000000000E+00 0.  1.
         -2    1    3    3    0  502 -0.28012141501E+02 -0.15076583507E+02 -0.21155377926E+02  0.38203840866E+02  0.00000000000E+00 0. -1.
<mgrwt>
<rscale>  0 0.91144657E+02</rscale>
<asrwt>0</asrwt>
<pdfrwt beam="2">  1        2 0.53216305E-02 0.91144657E+02</pdfrwt>
<pdfrwt beam="1">  1       -2 0.92370014E-02 0.91144657E+02</pdfrwt>
<totfact> 0.91949942E+04</totfact>
</mgrwt>
</event>
<event>
 5    1  0.4023633E+001  0.9165274E+02  0.7546771E-02  0.1298898E+00
          1   -1    0    0  501    0  0.00000000000E+00  0.00000000000E+00  0.25486946152E+02  0.25486946152E+02  0.00000000000E+00 0. -1.
         -1   -1    0    0    0  501 -0.00000000000E+00 -0.00000000000E+00 -0.82397316209E+02  0.82397316209E+02  0.00000000000E+00 0.  1.
         23    2    1    2    0    0  0.00000000000E+00  0.00000000000E+00 -0.56910370056E+02  0.10788426236E+03  0.91652735067E+02 0.  0.
          2    1    3    3  502    0 -0.26824355036E+02  0.26333331770E+02  0.23988353355E+01  0.37666228855E+02  0.00000000000E+00 0. -1.
         -2    1    3    3    0  502  0.26824355036E+02 -0.26333331770E+02 -0.59309205392E+02  0.70218033506E+02  0.00000000000E+00 0.  1.
<mgrwt>
<rscale>  0 0.91652735E+02</rscale>
<asrwt>0</asrwt>
<pdfrwt beam="1">  1        1 0.39210686E-02 0.91652735E+02</pdfrwt>
<pdfrwt beam="2">  1       -1 0.12676510E-01 0.91652735E+02</pdfrwt>
<totfact> 0.83109585E+04</totfact>
</mgrwt>
</event>
<event>
 5    1  0.4023633E+001  0.9133213E+02  0.7546771E-02  0.1299657E+00
          2   -1    0    0  501    0  0.00000000000E+00  0.00000000000E+00  0.16808016831E+04  0.16808016831E+04  0.00000000000E+00 0. -1.
         -2   -1    0    0    0  501 -0.00000000000E+00 -0.00000000000E+00 -0.12407111628E+01  0.12407111628E+01  0.00000000000E+00 0.  1.
         23    2    1    2    0    0  0.00000000000E+00  0.00000000000E+00  0.16795609719E+04  0.16820423943E+04  0.91332128205E+02 0.  0.
          2    1    3    3  502    0  0.11349167622E+02  0.31791931678E+02  0.14061847757E+04  0.14065899025E+04  0.00000000000E+00 0. -1.
         -2    1    3    3    0  502 -0.11349167622E+02 -0.31791931678E+02  0.27337619625E+03  0.27545249174E+03  0.00000000000E+00 0.  1.
<mgrwt>
<rscale>  0 0.91332128E+02</rscale>
<asrwt>0</asrwt>
<pdfrwt beam="1">  1        2 0.25858305E+00 0.91332128E+02</pdfrwt>
<pdfrwt beam="2">  1       -2 0.19087998E-03 0.91332128E+02</pdfrwt>
<totfact> 0.22273979E+05</totfact>
</mgrwt>
</event>
<event>
 5    1  0.4023633E+001  0.9854032E+02  0.7546771E-02  0.1283396E+00
          2   -1    0    0  501    0  0.00000000000E+00  0.00000000000E+00  0.47966451613E+02  0.47966451613E+02  0.00000000000E+00 0.  1.
         -2   -1    0    0    0  501 -0.00000000000E+00 -0.00000000000E+00 -0.50609304230E+02  0.50609304230E+02  0.00000000000E+00 0. -1.
         23    2    1    2    0    0  0.00000000000E+00  0.00000000000E+00 -0.26428526172E+01  0.98575755843E+02  0.98540321544E+02 0.  0.
          2    1    3    3  502    0 -0.20921258787E+02 -0.26374391778E+02 -0.37309925807E+02  0.50252742956E+02  0.00000000000E+00 0. -1.
         -2    1    3    3    0  502  0.20921258787E+02  0.26374391778E+02  0.34667073190E+02  0.48323012887E+02  0.00000000000E+00 0.  1.
<mgrwt>
<rscale>  0 0.98540322E+02</rscale>
<asrwt>0</asrwt>
<pdfrwt beam="1">  1        2 0.73794541E-02 0.98540322E+02</pdfrwt>
<pdfrwt beam="2">  1       -2 0.77860468E-02 0.98540322E+02</pdfrwt>
<totfact> 0.79917954E+04</totfact>
</mgrwt>
</event>
<event>
 5    1  0.4023633E+001  0.8782874E+02  0.7546771E-02  0.1308197E+00
         -1   -1    0    0    0  501 -0.00000000000E+00  0.00000000000E+00  0.26726544796E+01  0.26726544796E+01  0.00000000000E+00 0.  1.
          1   -1    0    0  501    0  0.00000000000E+00 -0.00000000000E+00 -0.72155674623E+03  0.72155674623E+03  0.00000000000E+00 0. -1.
         23    2    1    2    0    0  0.00000000000E+00  0.00000000000E+00 -0.71888409175E+03  0.72422940071E+03  0.87828739490E+02 0.  0.
          2    1    3    3  502    0 -0.41430484962E+02 -0.13915505291E+02 -0.32412338254E+03  0.32705671294E+03  0.00000000000E+00 0. -1.
         -2    1    3    3    0  502  0.41430484962E+02  0.13915505291E+02 -0.39476070922E+03  0.39717268778E+03  0.00000000000E+00 0.  1.
<mgrwt>
<rscale>  0 0.87828739E+02</rscale>
<asrwt>0</asrwt>
<pdfrwt beam="2">  1        1 0.11100880E+00 0.87828739E+02</pdfrwt>
<pdfrwt beam="1">  1       -1 0.41117735E-03 0.87828739E+02</pdfrwt>
<totfact> 0.15685034E+05</totfact>
</mgrwt>
</event>
<event>
 5    1  0.4023633E+001  0.9087277E+02  0.7546771E-02  0.1300752E+00
         -1   -1    0    0    0  501 -0.00000000000E+00  0.00000000000E+00  0.20530044674E+02  0.20530044674E+02  0.00000000000E+00 0.  1.
          1   -1    0    0  501    0  0.00000000000E+00 -0.00000000000E+00 -0.10055823302E+03  0.10055823302E+03  0.00000000000E+00 0. -1.
         23    2    1    2    0    0  0.00000000000E+00  0.00000000000E+00 -0.80028188344E+02  0.12108827769E+03  0.90872768554E+02 0.  0.
          2    1    3    3  502    0  0.10170295333E+01  0.44713080059E+02 -0.50688364946E+02  0.67598847759E+02  0.00000000000E+00 0. -1.
         -2    1    3    3    0  502 -0.10170295333E+01 -0.44713080059E+02 -0.29339823398E+02  0.53489429932E+02  0.00000000000E+00 0.  1.
<mgrwt>
<rscale>  0 0.90872769E+02</rscale>
<asrwt>0</asrwt>
<pdfrwt beam="2">  1        1 0.15470497E-01 0.90872769E+02</pdfrwt>
<pdfrwt beam="1">  1       -1 0.31584685E-02 0.90872769E+02</pdfrwt>
<totfact> 0.10550453E+05</totfact>
</mgrwt>
</event>
<event>
 5    1  0.4023633E+001  0.9039196E+02  0.7546771E-02  0.1301905E+00
          3   -1    0    0  501    0  0.00000000000E+00  0.00000000000E+00  0.15026760850E+03  0.15026760850E+03  0.00000000000E+00 0. -1.
         -3   -1    0    0    0  501 -0.00000000000E+00 -0.00000000000E+00 -0.13593592490E+02  0.13593592490E+02  0.00000000000E+00 0.  1.
         23    2    1    2    0    0  0.00000000000E+00  0.00000000000E+00  0.13667401601E+03  0.16386120099E+03  0.90391960580E+02 0.  0.
          2    1    3    3  502    0  0.18464972401E+02  0.13889213769E+02  0.13875177922E+03  0.14066243885E+03  0.00000000000E+00 0. -1.
         -2    1    3    3    0  502 -0.18464972401E+02 -0.13889213769E+02 -0.20777632148E+01  0.23198762141E+02  0.00000000000E+00 0.  1.
<mgrwt>
<rscale>  0 0.90391961E+02</rscale>
<asrwt>0</asrwt>
<pdfrwt beam="1">  1        3 0.23118093E-01 0.90391961E+02</pdfrwt>
<pdfrwt beam="2">  1       -3 0.20913220E-02 0.90391961E+02</pdfrwt>
<totfact> 0.31200096E+04</totfact>
</mgrwt>
</event>
<event>
 5    1  0.4023633E+001  0.9178786E+02  0.7546771E-02  0.1298579E+00
          1   -1    0    0  501    0  0.00000000000E+00  0.00000000000E+00  0.22022983212E+03  0.22022983212E+03  0.00000000000E+00 0. -1.
         -1   -1    0    0    0  501 -0.00000000000E+00 -0.00000000000E+00 -0.95638841355E+01  0.95638841355E+01  0.00000000000E+00 0.  1.
         23    2    1    2    0    0  0.00000000000E+00  0.00000000000E+00  0.21066594799E+03  0.22979371626E+03  0.91787855353E+02 0.  0.
          2    1    3    3  502    0 -0.11439801526E+02 -0.41879400744E+02  0.68073292639E+02  0.80738630384E+02  0.00000000000E+00 0.  1.
         -2    1    3    3    0  502  0.11439801526E+02  0.41879400744E+02  0.14259265535E+03  0.14905508587E+03  0.00000000000E+00 0. -1.
<mgrwt>
<rscale>  0 0.91787855E+02</rscale>
<asrwt>0</asrwt>
<pdfrwt beam="1">  1        1 0.33881509E-01 0.91787855E+02</pdfrwt>
<pdfrwt beam="2">  1       -1 0.14713670E-02 0.91787855E+02</pdfrwt>
<totfact> 0.11850727E+05</totfact>
</mgrwt>
</event>
<event>
 5    1  0.4023633E+001  0.9174467E+02  0.7546771E-02  0.1298681E+00
         -3   -1    0    0    0  501 -0.00000000000E+00  0.00000000000E+00  0.14511597081E+04  0.14511597081E+04  0.00000000000E+00 0.  1.
          3   -1    0    0  501    0  0.00000000000E+00 -0.00000000000E+00 -0.14500616691E+01  0.14500616691E+01  0.00000000000E+00 0. -1.
         23    2    1    2    0    0  0.00000000000E+00  0.00000000000E+00  0.14497096465E+04  0.14526097698E+04  0.91744668913E+02 0.  0.
          2    1    3    3  502    0 -0.39347868698E+02 -0.53324639373E+01  0.36118040887E+03  0.36335654348E+03  0.00000000000E+00 0. -1.
         -2    1    3    3    0  502  0.39347868698E+02  0.53324639373E+01  0.10885292376E+04  0.10892532263E+04  0.00000000000E+00 0.  1.
<mgrwt>
<rscale>  0 0.91744669E+02</rscale>
<asrwt>0</asrwt>
<pdfrwt beam="2">  1        3 0.22308757E-03 0.91744669E+02</pdfrwt>
<pdfrwt beam="1">  1       -3 0.22325418E+00 0.91744669E+02</pdfrwt>
<totfact> 0.62488896E+03</totfact>
</mgrwt>
</event>
<event>
 5    1  0.4023633E+001  0.8758974E+02  0.7546771E-02  0.1308796E+00
         -1   -1    0    0    0  501 -0.00000000000E+00  0.00000000000E+00  0.60439620326E+01  0.60439620326E+01  0.00000000000E+00 0.  1.
          1   -1    0    0  501    0  0.00000000000E+00 -0.00000000000E+00 -0.31733998802E+03  0.31733998802E+03  0.00000000000E+00 0. -1.
         23    2    1    2    0    0  0.00000000000E+00  0.00000000000E+00 -0.31129602599E+03  0.32338395005E+03  0.87589744583E+02 0.  0.
          2    1    3    3  502    0  0.10387847063E+02  0.28828514863E+02 -0.27116785669E+03  0.27289374697E+03  0.00000000000E+00 0. -1.
         -2    1    3    3    0  502 -0.10387847063E+02 -0.28828514863E+02 -0.40128169303E+02  0.50490203084E+02  0.00000000000E+00 0.  1.
<mgrwt>
<rscale>  0 0.87589745E+02</rscale>
<asrwt>0</asrwt>
<pdfrwt beam="2">  1        1 0.48821541E-01 0.87589745E+02</pdfrwt>
<pdfrwt beam="1">  1       -1 0.92984024E-03 0.87589745E+02</pdfrwt>
<totfact> 0.14405426E+05</totfact>
</mgrwt>
</event>
<event>
 5    1  0.4023633E+001  0.9854434E+02  0.7546771E-02  0.1283387E+00
          2   -1    0    0  501    0  0.00000000000E+00  0.00000000000E+00  0.87109213413E+02  0.87109213413E+02  0.00000000000E+00 0.  1.
         -2   -1    0    0    0  501 -0.00000000000E+00 -0.00000000000E+00 -0.27870146575E+02  0.27870146575E+02  0.00000000000E+00 0. -1.
         23    2    1    2    0    0  0.00000000000E+00  0.00000000000E+00  0.59239066838E+02  0.11497935999E+03  0.98544336131E+02 0.  0.
          2    1    3    3  502    0 -0.31782966595E+02  0.37646399097E+02  0.28940978751E+02  0.57140078594E+02  0.00000000000E+00 0. -1.
         -2    1    3    3    0  502  0.31782966595E+02 -0.37646399097E+02  0.30298088086E+02  0.57839281395E+02  0.00000000000E+00 0.  1.
<mgrwt>
<rscale>  0 0.98544336E+02</rscale>
<asrwt>0</asrwt>
<pdfrwt beam="1">  1        2 0.13401417E-01 0.98544336E+02</pdfrwt>
<pdfrwt beam="2">  1       -2 0.42877149E-02 0.98544336E+02</pdfrwt>
<totfact> 0.94793472E+04</totfact>
</mgrwt>
</event>
<event>
 5    1  0.4023633E+001  0.9295940E+02  0.7546771E-02  0.1295839E+00
         -2   -1    0    0    0  501 -0.00000000000E+00  0.00000000000E+00  0.15765142781E+01  0.15765142781E+01  0.00000000000E+00 0.  1.
          2   -1    0    0  501    0  0.00000000000E+00 -0.00000000000E+00 -0.13703413002E+04  0.13703413002E+04  0.00000000000E+00 0. -1.
         23    2    1    2    0    0  0.00000000000E+00  0.00000000000E+00 -0.13687647859E+04  0.13719178145E+04  0.92959402444E+02 0.  0.
          2    1    3    3  502    0  0.12977870271E+02 -0.25985281837E+02 -0.14885878032E+03  0.15166606894E+03  0.00000000000E+00 0.  1.
         -2    1    3    3    0  502 -0.12977870271E+02  0.25985281837E+02 -0.12199060056E+04  0.12202517455E+04  0.00000000000E+00 0. -1.
<mgrwt>
<rscale>  0 0.92959402E+02</rscale>
<asrwt>0</asrwt>
<pdfrwt beam="2">  1        2 0.21082178E+00 0.92959402E+02</pdfrwt>
<pdfrwt beam="1">  1       -2 0.24254061E-03 0.92959402E+02</pdfrwt>
<totfact> 0.23071888E+05</totfact>
</mgrwt>
</event>
<event>
 5    1  0.4023633E+001  0.8775770E+02  0.7546771E-02  0.1308374E+00
          2   -1    0    0  501    0  0.00000000000E+00  0.00000000000E+00  0.75207202414E+03  0.75207202414E+03  0.00000000000E+00 0. -1.
         -2   -1    0    0    0  501 -0.00000000000E+00 -0.00000000000E+00 -0.25600654857E+01  0.25600654857E+01  0.00000000000E+00 0.  1.
         23    2    1    2    0    0  0.00000000000E+00  0.00000000000E+00  0.74951195866E+03  0.75463208963E+03  0.87757703519E+02 0.  0.
          2    1    3    3  502    0 -0.41010301196E+02  0.10887074293E+02  0.27862330034E+03  0.28183561997E+03  0.00000000000E+00 0. -1.
         -2    1    3    3    0  502  0.41010301196E+02 -0.10887074293E+02  0.47088865832E+03  0.47279646966E+03  0.00000000000E+00 0.  1.
<mgrwt>
<rscale>  0 0.87757704E+02</rscale>
<asrwt>0</asrwt>
<pdfrwt beam="1">  1        2 0.11570321E+00 0.87757704E+02</pdfrwt>
<pdfrwt beam="2">  1       -2 0.39385683E-03 0.87757704E+02</pdfrwt>
<totfact> 0.26637648E+05</totfact>
</mgrwt>
</event>
<event>
 5    1  0.4023633E+001  0.8839205E+02  0.7546771E-02  0.1306793E+00
         -2   -1    0    0    0  501 -0.00000000000E+00  0.00000000000E+00  0.95445082872E+02  0.95445082872E+02  0.00000000000E+00 0.  1.
          2   -1    0    0  501    0  0.00000000000E+00 -0.00000000000E+00 -0.20465051011E+02  0.20465051011E+02  0.00000000000E+00 0. -1.
         23    2    1    2    0    0  0.00000000000E+00  0.00000000000E+00  0.74980031861E+02  0.11591013388E+03  0.88392046920E+02 0.  0.
          2    1    3    3  502    0 -0.38283639733E+02  0.18925298029E+02  0.22568356271E+02  0.48302532869E+02  0.00000000000E+00 0. -1.
         -2    1    3    3    0  502  0.38283639733E+02 -0.18925298029E+02  0.52411675589E+02  0.67607601014E+02  0.00000000000E+00 0.  1.
<mgrwt>
<rscale>  0 0.88392047E+02</rscale>
<asrwt>0</asrwt>
<pdfrwt beam="2">  1        2 0.31484694E-02 0.88392047E+02</pdfrwt>
<pdfrwt beam="1">  1       -2 0.14683859E-01 0.88392047E+02</pdfrwt>
<totfact> 0.87386586E+04</totfact>
</mgrwt>
</event>
<event>
 5    1  0.4023633E+001  0.9173468E+02  0.7546771E-02  0.1298704E+00
          1   -1    0    0  501    0  0.00000000000E+00  0.00000000000E+00  0.10897625871E+04  0.10897625871E+04  0.00000000000E+00 0. -1.
         -1   -1    0    0    0  501 -0.00000000000E+00 -0.00000000000E+00 -0.19305238656E+01  0.19305238656E+01  0.00000000000E+00 0.  1.
         23    2    1    2    0    0  0.00000000000E+00  0.00000000000E+00  0.10878320632E+04  0.10916931109E+04  0.91734675717E+02 0.  0.
          2    1    3    3  502    0  0.43879548182E+01  0.37526507762E+02  0.85340350436E+03  0.85423944780E+03  0.00000000000E+00 0. -1.
         -2    1    3    3    0  502 -0.43879548182E+01 -0.37526507762E+02  0.23442855885E+03  0.23745366314E+03  0.00000000000E+00 0.  1.
<mgrwt>
<rscale>  0 0.91734676E+02</rscale>
<asrwt>0</asrwt>
<pdfrwt beam="1">  1        1 0.16765529E+00 0.91734676E+02</pdfrwt>
<pdfrwt beam="2">  1       -1 0.29700454E-03 0.91734676E+02</pdfrwt>
<totfact> 0.13032710E+05</totfact>
</mgrwt>
</event>
<event>
 5    1  0.4023633E+001  0.9301144E+02  0.7546771E-02  0.1295719E+00
          1   -1    0    0  501    0  0.00000000000E+00  0.00000000000E+00  0.25922357243E+02  0.25922357243E+02  0.00000000000E+00 0. -1.
         -1   -1    0    0    0  501 -0.00000000000E+00 -0.00000000000E+00 -0.83433080622E+02  0.83433080622E+02  0.00000000000E+00 0.  1.
         23    2    1    2    0    0  0.00000000000E+00  0.00000000000E+00 -0.57510723379E+02  0.10935543787E+03  0.93011442776E+02 0.  0.
          2    1    3    3  502    0 -0.37413052770E+02  0.25656594140E+02 -0.40790556059E+02  0.61007104537E+02  0.00000000000E+00 0.  1.
         -2    1    3    3    0  502  0.37413052770E+02 -0.25656594140E+02 -0.16720167320E+02  0.48348333328E+02  0.00000000000E+00 0. -1.
<mgrwt>
<rscale>  0 0.93011443E+02</rscale>
<asrwt>0</asrwt>
<pdfrwt beam="1">  1        1 0.39880550E-02 0.93011443E+02</pdfrwt>
<pdfrwt beam="2">  1       -1 0.12835858E-01 0.93011443E+02</pdfrwt>
<totfact> 0.79858121E+04</totfact>
</mgrwt>
</event>
<event>
 5    1  0.4023633E+001  0.9276855E+02  0.7546771E-02  0.1296282E+00
          1   -1    0    0  501    0  0.00000000000E+00  0.00000000000E+00  0.29169664148E+02  0.29169664148E+02  0.00000000000E+00 0. -1.
         -1   -1    0    0    0  501 -0.00000000000E+00 -0.00000000000E+00 -0.73758168457E+02  0.73758168457E+02  0.00000000000E+00 0.  1.
         23    2    1    2    0    0  0.00000000000E+00  0.00000000000E+00 -0.44588504309E+02  0.10292783260E+03  0.92768550750E+02 0.  0.
          2    1    3    3  502    0 -0.27884497166E+02  0.15819978794E+02 -0.59486649398E+02  0.67575723214E+02  0.00000000000E+00 0.  1.
         -2    1    3    3    0  502  0.27884497166E+02 -0.15819978794E+02  0.14898145090E+02  0.35352109391E+02  0.00000000000E+00 0. -1.
<mgrwt>
<rscale>  0 0.92768551E+02</rscale>
<asrwt>0</asrwt>
<pdfrwt beam="1">  1        1 0.44876407E-02 0.92768551E+02</pdfrwt>
<pdfrwt beam="2">  1       -1 0.11347410E-01 0.92768551E+02</pdfrwt>
<totfact> 0.82090725E+04</totfact>
</mgrwt>
</event>
<event>
 5    1  0.4023633E+001  0.8988250E+02  0.7546771E-02  0.1303136E+00
          1   -1    0    0  501    0  0.00000000000E+00  0.00000000000E+00  0.13439252189E+02  0.13439252189E+02  0.00000000000E+00 0. -1.
         -1   -1    0    0    0  501 -0.00000000000E+00 -0.00000000000E+00 -0.15028483318E+03  0.15028483318E+03  0.00000000000E+00 0.  1.
         23    2    1    2    0    0  0.00000000000E+00  0.00000000000E+00 -0.13684558099E+03  0.16372408536E+03  0.89882496031E+02 0.  0.
          2    1    3    3  502    0 -0.15779841801E+02 -0.24025891218E+02 -0.54949243836E+01  0.29265014097E+02  0.00000000000E+00 0. -1.
         -2    1    3    3    0  502  0.15779841801E+02  0.24025891218E+02 -0.13135065660E+03  0.13445907127E+03  0.00000000000E+00 0.  1.
<mgrwt>
<rscale>  0 0.89882496E+02</rscale>
<asrwt>0</asrwt>
<pdfrwt beam="1">  1        1 0.20675773E-02 0.89882496E+02</pdfrwt>
<pdfrwt beam="2">  1       -1 0.23120743E-01 0.89882496E+02</pdfrwt>
<totfact> 0.77578510E+04</totfact>
</mgrwt>
</event>
<event>
 5    1  0.4023633E+001  0.9175930E+02  0.7546771E-02  0.1298646E+00
          1   -1    0    0  501    0  0.00000000000E+00  0.00000000000E+00  0.59014461114E+01  0.59014461114E+01  0.00000000000E+00 0. -1.
         -1   -1    0    0    0  501 -0.00000000000E+00 -0.00000000000E+00 -0.35668246582E+03  0.35668246582E+03  0.00000000000E+00 0.  1.
         23    2    1    2    0    0  0.00000000000E+00  0.00000000000E+00 -0.35078101971E+03  0.36258391193E+03  0.91759301457E+02 0.  0.
          2    1    3    3  502    0  0.42421395306E+02 -0.89453317726E+01 -0.11607259531E+03  0.12390496811E+03  0.00000000000E+00 0. -1.
         -2    1    3    3    0  502 -0.42421395306E+02  0.89453317726E+01 -0.23470842440E+03  0.23867894382E+03  0.00000000000E+00 0.  1.
<mgrwt>
<rscale>  0 0.91759301E+02</rscale>
<asrwt>0</asrwt>
<pdfrwt beam="1">  1        1 0.90791482E-03 0.91759301E+02</pdfrwt>
<pdfrwt beam="2">  1       -1 0.54874223E-01 0.91759301E+02</pdfrwt>
<totfact> 0.55372236E+04</totfact>
</mgrwt>
</event>
<event>
 5    1  0.4023633E+001  0.8998136E+02  0.7546771E-02  0.1302897E+00
         -1   -1    0    0    0  501 -0.00000000000E+00  0.00000000000E+00  0.95114642073E+02  0.95114642073E+02  0.00000000000E+00 0.  1.
          1   -1    0    0  501    0  0.00000000000E+00 -0.00000000000E+00 -0.21281277373E+02  0.21281277373E+02  0.00000000000E+00 0. -1.
         23    2    1    2    0    0  0.00000000000E+00  0.00000000000E+00  0.73833364700E+02  0.11639591945E+03  0.89981355406E+02 0.  0.
          2    1    3    3  502    0 -0.44289618297E+02 -0.71033146792E+01  0.32410777013E+02  0.55339731070E+02  0.00000000000E+00 0. -1.
         -2    1    3    3    0  502  0.44289618297E+02  0.71033146792E+01  0.41422587688E+02  0.61056188376E+02  0.00000000000E+00 0.  1.
<mgrwt>
<rscale>  0 0.89981355E+02</rscale>
<asrwt>0</asrwt>
<pdfrwt beam="2">  1        1 0.32740427E-02 0.89981355E+02</pdfrwt>
<pdfrwt beam="1">  1       -1 0.14633022E-01 0.89981355E+02</pdfrwt>
<totfact> 0.84955960E+04</totfact>
</mgrwt>
</event>
<event>
 5    1  0.4023633E+001  0.9424190E+02  0.7546771E-02  0.1292893E+00
          4   -1    0    0  501    0  0.00000000000E+00  0.00000000000E+00  0.16818027014E+01  0.16818027014E+01  0.00000000000E+00 0. -1.
         -4   -1    0    0    0  501 -0.00000000000E+00 -0.00000000000E+00 -0.13202404537E+04  0.13202404537E+04  0.00000000000E+00 0.  1.
         23    2    1    2    0    0  0.00000000000E+00  0.00000000000E+00 -0.13185586510E+04  0.13219222564E+04  0.94241900694E+02 0.  0.
          2    1    3    3  502    0  0.13821429703E+02  0.40004286566E+02 -0.36874655217E+03  0.37116760985E+03  0.00000000000E+00 0. -1.
         -2    1    3    3    0  502 -0.13821429703E+02 -0.40004286566E+02 -0.94981209884E+03  0.95075464657E+03  0.00000000000E+00 0.  1.
<mgrwt>
<rscale>  0 0.94241901E+02</rscale>
<asrwt>0</asrwt>
<pdfrwt beam="1">  1        4 0.25873765E-03 0.94241901E+02</pdfrwt>
<pdfrwt beam="2">  1       -4 0.20311488E+00 0.94241901E+02</pdfrwt>
<totfact> 0.46336460E+03</totfact>
</mgrwt>
</event>
<event>
 5    1  0.4023633E+001  0.1061490E+03  0.7546771E-02  0.1267872E+00
          1   -1    0    0  501    0  0.00000000000E+00  0.00000000000E+00  0.30137145794E+04  0.30137145794E+04  0.00000000000E+00 0. -1.
         -1   -1    0    0    0  501 -0.00000000000E+00 -0.00000000000E+00 -0.93469504617E+00  0.93469504617E+00  0.00000000000E+00 0.  1.
         23    2    1    2    0    0  0.00000000000E+00  0.00000000000E+00  0.30127798843E+04  0.30146492744E+04  0.10614902897E+03 0.  0.
          2    1    3    3  502    0  0.27707292254E+02 -0.37449205727E+02  0.22286518415E+04  0.22291386605E+04  0.00000000000E+00 0. -1.
         -2    1    3    3    0  502 -0.27707292254E+02  0.37449205727E+02  0.78412804282E+03  0.78551061393E+03  0.00000000000E+00 0.  1.
<mgrwt>
<rscale>  0 0.10614903E+03</rscale>
<asrwt>0</asrwt>
<pdfrwt beam="1">  1        1 0.46364062E+00 0.10614903E+03</pdfrwt>
<pdfrwt beam="2">  1       -1 0.14380165E-03 0.10614903E+03</pdfrwt>
<totfact> 0.20550933E+04</totfact>
</mgrwt>
</event>
<event>
 5    1  0.4023633E+001  0.8765683E+02  0.7546771E-02  0.1308627E+00
         -1   -1    0    0    0  501 -0.00000000000E+00  0.00000000000E+00  0.72663514095E+02  0.72663514095E+02  0.00000000000E+00 0.  1.
          1   -1    0    0  501    0  0.00000000000E+00 -0.00000000000E+00 -0.26435965590E+02  0.26435965590E+02  0.00000000000E+00 0. -1.
         23    2    1    2    0    0  0.00000000000E+00  0.00000000000E+00  0.46227548506E+02  0.99099479685E+02  0.87656834491E+02 0.  0.
          2    1    3    3  502    0 -0.12352762079E+02 -0.32132757152E+02 -0.75533436227E+01  0.35244259293E+02  0.00000000000E+00 0. -1.
         -2    1    3    3    0  502  0.12352762079E+02  0.32132757152E+02  0.53780892128E+02  0.63855220392E+02  0.00000000000E+00 0.  1.
<mgrwt>
<rscale>  0 0.87656834E+02</rscale>
<asrwt>0</asrwt>
<pdfrwt beam="2">  1        1 0.40670717E-02 0.87656834E+02</pdfrwt>
<pdfrwt beam="1">  1       -1 0.11179002E-01 0.87656834E+02</pdfrwt>
<totfact> 0.95096073E+04</totfact>
</mgrwt>
</event>
<event>
 5    1  0.4023633E+001  0.9195762E+02  0.7546771E-02  0.1298179E+00
          2   -1    0    0  501    0  0.00000000000E+00  0.00000000000E+00  0.12693197439E+04  0.12693197439E+04  0.00000000000E+00 0. -1.
         -2   -1    0    0    0  501 -0.00000000000E+00 -0.00000000000E+00 -0.16654992938E+01  0.16654992938E+01  0.00000000000E+00 0.  1.
         23    2    1    2    0    0  0.00000000000E+00  0.00000000000E+00  0.12676542446E+04  0.12709852432E+04  0.91957623655E+02 0.  0.
          2    1    3    3  502    0  0.88809592416E+01 -0.32563585570E+02  0.20229922307E+03  0.20509567084E+03  0.00000000000E+00 0.  1.
         -2    1    3    3    0  502 -0.88809592416E+01  0.32563585570E+02  0.10653550215E+04  0.10658895723E+04  0.00000000000E+00 0. -1.
<mgrwt>
<rscale>  0 0.91957624E+02</rscale>
<asrwt>0</asrwt>
<pdfrwt beam="1">  1        2 0.19527919E+00 0.91957624E+02</pdfrwt>
<pdfrwt beam="2">  1       -2 0.25623168E-03 0.91957624E+02</pdfrwt>
<totfact> 0.24127845E+05</totfact>
</mgrwt>
</event>
<event>
 5    1  0.4023633E+001  0.9123389E+02  0.7546771E-02  0.1299891E+00
          1   -1    0    0  501    0  0.00000000000E+00  0.00000000000E+00  0.68077269920E+03  0.68077269920E+03  0.00000000000E+00 0. -1.
         -1   -1    0    0    0  501 -0.00000000000E+00 -0.00000000000E+00 -0.30566820117E+01  0.30566820117E+01  0.00000000000E+00 0.  1.
         23    2    1    2    0    0  0.00000000000E+00  0.00000000000E+00  0.67771601718E+03  0.68382938121E+03  0.91233889837E+02 0.  0.
          2    1    3    3  502    0  0.98411853105E+01  0.30318910865E+02  0.58344296528E+03  0.58431308305E+03  0.00000000000E+00 0. -1.
         -2    1    3    3    0  502 -0.98411853105E+01 -0.30318910865E+02  0.94273051901E+02  0.99516298158E+02  0.00000000000E+00 0.  1.
<mgrwt>
<rscale>  0 0.91233890E+02</rscale>
<asrwt>0</asrwt>
<pdfrwt beam="1">  1        1 0.10473414E+00 0.91233890E+02</pdfrwt>
<pdfrwt beam="2">  1       -1 0.47025931E-03 0.91233890E+02</pdfrwt>
<totfact> 0.14194875E+05</totfact>
</mgrwt>
</event>
<event>
 5    1  0.4023633E+001  0.8476792E+02  0.7546771E-02  0.1316041E+00
          2   -1    0    0  501    0  0.00000000000E+00  0.00000000000E+00  0.70754698249E+01  0.70754698249E+01  0.00000000000E+00 0. -1.
         -2   -1    0    0    0  501 -0.00000000000E+00 -0.00000000000E+00 -0.25389125046E+03  0.25389125046E+03  0.00000000000E+00 0.  1.
         23    2    1    2    0    0  0.00000000000E+00  0.00000000000E+00 -0.24681578064E+03  0.26096672029E+03  0.84767915663E+02 0.  0.
          2    1    3    3  502    0  0.72580368133E+01  0.34350411771E+02 -0.50310040586E+02  0.61349246703E+02  0.00000000000E+00 0. -1.
         -2    1    3    3    0  502 -0.72580368133E+01 -0.34350411771E+02 -0.19650574005E+03  0.19961747359E+03  0.00000000000E+00 0.  1.
<mgrwt>
<rscale>  0 0.84767916E+02</rscale>
<asrwt>0</asrwt>
<pdfrwt beam="1">  1        2 0.10885339E-02 0.84767916E+02</pdfrwt>
<pdfrwt beam="2">  1       -2 0.39060188E-01 0.84767916E+02</pdfrwt>
<totfact> 0.67187102E+04</totfact>
</mgrwt>
</event>
<event>
 5    1  0.4023633E+001  0.9154504E+02  0.7546771E-02  0.1299153E+00
          2   -1    0    0  501    0  0.00000000000E+00  0.00000000000E+00  0.74826940877E+03  0.74826940877E+03  0.00000000000E+00 0. -1.
         -2   -1    0    0    0  501 -0.00000000000E+00 -0.00000000000E+00 -0.27999587948E+01  0.27999587948E+01  0.00000000000E+00 0.  1.
         23    2    1    2    0    0  0.00000000000E+00  0.00000000000E+00  0.74546944998E+03  0.75106936757E+03  0.91545038358E+02 0.  0.
          2    1    3    3  502    0  0.16378948687E+02  0.15841100698E+02  0.69842993299E+03  0.69880153243E+03  0.00000000000E+00 0. -1.
         -2    1    3    3    0  502 -0.16378948687E+02 -0.15841100698E+02  0.47039516989E+02  0.52267835138E+02  0.00000000000E+00 0.  1.
<mgrwt>
<rscale>  0 0.91545038E+02</rscale>
<asrwt>0</asrwt>
<pdfrwt beam="1">  1        2 0.11511821E+00 0.91545038E+02</pdfrwt>
<pdfrwt beam="2">  1       -2 0.43076349E-03 0.91545038E+02</pdfrwt>
<totfact> 0.23809986E+05</totfact>
</mgrwt>
</event>
<event>
 5    1  0.4023633E+001  0.8809902E+02  0.7546771E-02  0.1307522E+00
         -2   -1    0    0    0  501 -0.00000000000E+00  0.00000000000E+00  0.16193227238E+01  0.16193227238E+01  0.00000000000E+00 0.  1.
          2   -1    0    0  501    0  0.00000000000E+00 -0.00000000000E+00 -0.11982535049E+04  0.11982535049E+04  0.00000000000E+00 0. -1.
         23    2    1    2    0    0  0.00000000000E+00  0.00000000000E+00 -0.11966341821E+04  0.11998728276E+04  0.88099015416E+02 0.  0.
          2    1    3    3  502    0  0.24361920218E+02  0.35370559843E+02 -0.46502622923E+03  0.46700532495E+03  0.00000000000E+00 0. -1.
         -2    1    3    3    0  502 -0.24361920218E+02 -0.35370559843E+02 -0.73160795291E+03  0.73286750264E+03  0.00000000000E+00 0.  1.
<mgrwt>
<rscale>  0 0.88099015E+02</rscale>
<asrwt>0</asrwt>
<pdfrwt beam="2">  1        2 0.18434681E+00 0.88099015E+02</pdfrwt>
<pdfrwt beam="1">  1       -2 0.24912641E-03 0.88099015E+02</pdfrwt>
<totfact> 0.27222019E+05</totfact>
</mgrwt>
</event>
<event>
 5    1  0.4023633E+001  0.9239451E+02  0.7546771E-02  0.1297154E+00
         -2   -1    0    0    0  501 -0.00000000000E+00  0.00000000000E+00  0.16828794318E+01  0.16828794318E+01  0.00000000000E+00 0. -1.
          2   -1    0    0  501    0  0.00000000000E+00 -0.00000000000E+00 -0.12681755624E+04  0.12681755624E+04  0.00000000000E+00 0.  1.
         23    2    1    2    0    0  0.00000000000E+00  0.00000000000E+00 -0.12664926830E+04  0.12698584418E+04  0.92394514337E+02 0.  0.
          2    1    3    3  502    0 -0.41529526308E+02 -0.10911230685E+02 -0.39902314405E+03  0.40132683190E+03  0.00000000000E+00 0. -1.
         -2    1    3    3    0  502  0.41529526308E+02  0.10911230685E+02 -0.86746953891E+03  0.86853160993E+03  0.00000000000E+00 0.  1.
<mgrwt>
<rscale>  0 0.92394514E+02</rscale>
<asrwt>0</asrwt>
<pdfrwt beam="2">  1        2 0.19510405E+00 0.92394514E+02</pdfrwt>
<pdfrwt beam="1">  1       -2 0.25890437E-03 0.92394514E+02</pdfrwt>
<totfact> 0.23831908E+05</totfact>
</mgrwt>
</event>
<event>
 5    1  0.4023633E+001  0.9114933E+02  0.7546771E-02  0.1300092E+00
          3   -1    0    0  501    0  0.00000000000E+00  0.00000000000E+00  0.99185823103E+00  0.99185823103E+00  0.00000000000E+00 0. -1.
         -3   -1    0    0    0  501 -0.00000000000E+00 -0.00000000000E+00 -0.20940995611E+04  0.20940995611E+04  0.00000000000E+00 0.  1.
         23    2    1    2    0    0  0.00000000000E+00  0.00000000000E+00 -0.20931077029E+04  0.20950914193E+04  0.91149325533E+02 0.  0.
          2    1    3    3  502    0  0.24641670208E+02 -0.10706906637E+02 -0.20039629843E+03  0.20218933252E+03  0.00000000000E+00 0. -1.
         -2    1    3    3    0  502 -0.24641670208E+02  0.10706906637E+02 -0.18927114044E+04  0.18929020868E+04  0.00000000000E+00 0.  1.
<mgrwt>
<rscale>  0 0.91149326E+02</rscale>
<asrwt>0</asrwt>
<pdfrwt beam="1">  1        3 0.15259374E-03 0.91149326E+02</pdfrwt>
<pdfrwt beam="2">  1       -3 0.32216882E+00 0.91149326E+02</pdfrwt>
<totfact> 0.32424455E+03</totfact>
</mgrwt>
</event>
<event>
 5    1  0.4023633E+001  0.9159405E+02  0.7546771E-02  0.1299037E+00
         -1   -1    0    0    0  501 -0.00000000000E+00  0.00000000000E+00  0.31826696670E+01  0.31826696670E+01  0.00000000000E+00 0.  1.
          1   -1    0    0  501    0  0.00000000000E+00 -0.00000000000E+00 -0.65899627636E+03  0.65899627636E+03  0.00000000000E+00 0. -1.
         23    2    1    2    0    0  0.00000000000E+00  0.00000000000E+00 -0.65581360669E+03  0.66217894603E+03  0.91594049139E+02 0.  0.
          2    1    3    3  502    0 -0.33174995630E+02  0.49556904280E+01 -0.55332669119E+03  0.55434246309E+03  0.00000000000E+00 0. -1.
         -2    1    3    3    0  502  0.33174995630E+02 -0.49556904280E+01 -0.10248691550E+03  0.10783648293E+03  0.00000000000E+00 0.  1.
<mgrwt>
<rscale>  0 0.91594049E+02</rscale>
<asrwt>0</asrwt>
<pdfrwt beam="2">  1        1 0.10138418E+00 0.91594049E+02</pdfrwt>
<pdfrwt beam="1">  1       -1 0.48964082E-03 0.91594049E+02</pdfrwt>
<totfact> 0.14042006E+05</totfact>
</mgrwt>
</event>
<event>
 5    1  0.4023633E+001  0.9578134E+02  0.7546771E-02  0.1289426E+00
          1   -1    0    0  501    0  0.00000000000E+00  0.00000000000E+00  0.98458286358E+02  0.98458286358E+02  0.00000000000E+00 0. -1.
         -1   -1    0    0    0  501 -0.00000000000E+00 -0.00000000000E+00 -0.23294294820E+02  0.23294294820E+02  0.00000000000E+00 0.  1.
         23    2    1    2    0    0  0.00000000000E+00  0.00000000000E+00  0.75163991538E+02  0.12175258118E+03  0.95781341604E+02 0.  0.
          2    1    3    3  502    0  0.28875703837E+02  0.21909691001E+02 -0.22047472486E+01  0.36313933170E+02  0.00000000000E+00 0.  1.
         -2    1    3    3    0  502 -0.28875703837E+02 -0.21909691001E+02  0.77368738787E+02  0.85438648007E+02  0.00000000000E+00 0. -1.
<mgrwt>
<rscale>  0 0.95781342E+02</rscale>
<asrwt>0</asrwt>
<pdfrwt beam="1">  1        1 0.15147428E-01 0.95781342E+02</pdfrwt>
<pdfrwt beam="2">  1       -1 0.35837377E-02 0.95781342E+02</pdfrwt>
<totfact> 0.91034618E+04</totfact>
</mgrwt>
</event>
<event>
 5    1  0.4023633E+001  0.8884015E+02  0.7546771E-02  0.1305685E+00
         -2   -1    0    0    0  501 -0.00000000000E+00  0.00000000000E+00  0.53930740626E+02  0.53930740626E+02  0.00000000000E+00 0. -1.
          2   -1    0    0  501    0  0.00000000000E+00 -0.00000000000E+00 -0.36586609024E+02  0.36586609024E+02  0.00000000000E+00 0.  1.
         23    2    1    2    0    0  0.00000000000E+00  0.00000000000E+00  0.17344131602E+02  0.90517349650E+02  0.88840146818E+02 0.  0.
          2    1    3    3  502    0 -0.33087529017E+02  0.91474681771E+01  0.37394371259E+02  0.50762188215E+02  0.00000000000E+00 0. -1.
         -2    1    3    3    0  502  0.33087529017E+02 -0.91474681771E+01 -0.20050239657E+02  0.39755161436E+02  0.00000000000E+00 0.  1.
<mgrwt>
<rscale>  0 0.88840147E+02</rscale>
<asrwt>0</asrwt>
<pdfrwt beam="2">  1        2 0.56287091E-02 0.88840147E+02</pdfrwt>
<pdfrwt beam="1">  1       -2 0.82970370E-02 0.88840147E+02</pdfrwt>
<totfact> 0.10051194E+05</totfact>
</mgrwt>
</event>
<event>
 5    1  0.4023633E+001  0.9097586E+02  0.7546771E-02  0.1300506E+00
          1   -1    0    0  501    0  0.00000000000E+00  0.00000000000E+00  0.18419527052E+03  0.18419527052E+03  0.00000000000E+00 0. -1.
         -1   -1    0    0    0  501 -0.00000000000E+00 -0.00000000000E+00 -0.11233469738E+02  0.11233469738E+02  0.00000000000E+00 0.  1.
         23    2    1    2    0    0  0.00000000000E+00  0.00000000000E+00  0.17296180078E+03  0.19542874026E+03  0.90975864871E+02 0.  0.
          2    1    3    3  502    0  0.15523022377E+02 -0.30536011951E+02  0.15077234179E+03  0.15461471889E+03  0.00000000000E+00 0. -1.
         -2    1    3    3    0  502 -0.15523022377E+02  0.30536011951E+02  0.22189458991E+02  0.40814021364E+02  0.00000000000E+00 0.  1.
<mgrwt>
<rscale>  0 0.90975865E+02</rscale>
<asrwt>0</asrwt>
<pdfrwt beam="1">  1        1 0.28337732E-01 0.90975865E+02</pdfrwt>
<pdfrwt beam="2">  1       -1 0.17282262E-02 0.90975865E+02</pdfrwt>
<totfact> 0.11723249E+05</totfact>
</mgrwt>
</event>
<event>
 5    1  0.4023633E+001  0.9165001E+02  0.7546771E-02  0.1298904E+00
         -2   -1    0    0    0  501 -0.00000000000E+00  0.00000000000E+00  0.48319529974E+02  0.48319529974E+02  0.00000000000E+00 0.  1.
          2   -1    0    0  501    0  0.00000000000E+00 -0.00000000000E+00 -0.43459259348E+02  0.43459259348E+02  0.00000000000E+00 0. -1.
         23    2    1    2    0    0  0.00000000000E+00  0.00000000000E+00  0.48602706263E+01  0.91778789323E+02  0.91650007850E+02 0.  0.
          2    1    3    3  502    0 -0.66360424679E+01 -0.19109519299E+02 -0.38746010046E+02  0.43708855876E+02  0.00000000000E+00 0. -1.
         -2    1    3    3    0  502  0.66360424679E+01  0.19109519299E+02  0.43606280673E+02  0.48069933447E+02  0.00000000000E+00 0.  1.
<mgrwt>
<rscale>  0 0.91650008E+02</rscale>
<asrwt>0</asrwt>
<pdfrwt beam="2">  1        2 0.66860399E-02 0.91650008E+02</pdfrwt>
<pdfrwt beam="1">  1       -2 0.74337738E-02 0.91650008E+02</pdfrwt>
<totfact> 0.96014655E+04</totfact>
</mgrwt>
</event>
<event>
 5    1  0.4023633E+001  0.9275711E+02  0.7546771E-02  0.1296309E+00
          1   -1    0    0  501    0  0.00000000000E+00  0.00000000000E+00  0.16612498051E+02  0.16612498051E+02  0.00000000000E+00 0. -1.
         -1   -1    0    0    0  501 -0.00000000000E+00 -0.00000000000E+00 -0.12947904766E+03  0.12947904766E+03  0.00000000000E+00 0.  1.
         23    2    1    2    0    0  0.00000000000E+00  0.00000000000E+00 -0.11286654961E+03  0.14609154571E+03  0.92757111357E+02 0.  0.
          2    1    3    3  502    0 -0.59408187914E+01  0.25940821475E+02 -0.11625701238E+03  0.11926404518E+03  0.00000000000E+00 0.  1.
         -2    1    3    3    0  502  0.59408187914E+01 -0.25940821475E+02  0.33904627681E+01  0.26827500526E+02  0.00000000000E+00 0. -1.
<mgrwt>
<rscale>  0 0.92757111E+02</rscale>
<asrwt>0</asrwt>
<pdfrwt beam="1">  1        1 0.25557689E-02 0.92757111E+02</pdfrwt>
<pdfrwt beam="2">  1       -1 0.19919853E-01 0.92757111E+02</pdfrwt>
<totfact> 0.73923843E+04</totfact>
</mgrwt>
</event>
<event>
 5    1  0.4023633E+001  0.9185756E+02  0.7546771E-02  0.1298415E+00
         -1   -1    0    0    0  501 -0.00000000000E+00  0.00000000000E+00  0.41066977091E+02  0.41066977091E+02  0.00000000000E+00 0.  1.
          1   -1    0    0  501    0  0.00000000000E+00 -0.00000000000E+00 -0.51366155246E+02  0.51366155246E+02  0.00000000000E+00 0. -1.
         23    2    1    2    0    0  0.00000000000E+00  0.00000000000E+00 -0.10299178155E+02  0.92433132337E+02  0.91857557571E+02 0.  0.
          2    1    3    3  502    0  0.39546178815E+01 -0.42362545117E+02 -0.22556200998E+02  0.48156063324E+02  0.00000000000E+00 0. -1.
         -2    1    3    3    0  502 -0.39546178815E+01  0.42362545117E+02  0.12257022843E+02  0.44277069013E+02  0.00000000000E+00 0.  1.
<mgrwt>
<rscale>  0 0.91857558E+02</rscale>
<asrwt>0</asrwt>
<pdfrwt beam="2">  1        1 0.79024854E-02 0.91857558E+02</pdfrwt>
<pdfrwt beam="1">  1       -1 0.63179965E-02 0.91857558E+02</pdfrwt>
<totfact> 0.92206107E+04</totfact>
</mgrwt>
</event>
<event>
 5    1  0.4023633E+001  0.9449263E+02  0.7546771E-02  0.1292323E+00
         -3   -1    0    0    0  501 -0.00000000000E+00  0.00000000000E+00  0.96465278265E+03  0.96465278265E+03  0.00000000000E+00 0.  1.
          3   -1    0    0  501    0  0.00000000000E+00 -0.00000000000E+00 -0.23140081914E+01  0.23140081914E+01  0.00000000000E+00 0. -1.
         23    2    1    2    0    0  0.00000000000E+00  0.00000000000E+00  0.96233877445E+03  0.96696679084E+03  0.94492633383E+02 0.  0.
          2    1    3    3  502    0 -0.11202831790E+02  0.22759150899E+02  0.73283259374E+02  0.77549458375E+02  0.00000000000E+00 0. -1.
         -2    1    3    3    0  502  0.11202831790E+02 -0.22759150899E+02  0.88905551508E+03  0.88941733246E+03  0.00000000000E+00 0.  1.
<mgrwt>
<rscale>  0 0.94492633E+02</rscale>
<asrwt>0</asrwt>
<pdfrwt beam="2">  1        3 0.35600203E-03 0.94492633E+02</pdfrwt>
<pdfrwt beam="1">  1       -3 0.14840780E+00 0.94492633E+02</pdfrwt>
<totfact> 0.93906718E+03</totfact>
</mgrwt>
</event>
<event>
 5    1  0.4023633E+001  0.9145544E+02  0.7546771E-02  0.1299365E+00
         -1   -1    0    0    0  501 -0.00000000000E+00  0.00000000000E+00  0.38820898273E+01  0.38820898273E+01  0.00000000000E+00 0.  1.
          1   -1    0    0  501    0  0.00000000000E+00 -0.00000000000E+00 -0.53863367345E+03  0.53863367345E+03  0.00000000000E+00 0. -1.
         23    2    1    2    0    0  0.00000000000E+00  0.00000000000E+00 -0.53475158362E+03  0.54251576328E+03  0.91455438425E+02 0.  0.
          2    1    3    3  502    0 -0.88946955418E+01 -0.33062636745E+02 -0.87568870487E+02  0.94024255571E+02  0.00000000000E+00 0.  1.
         -2    1    3    3    0  502  0.88946955418E+01  0.33062636745E+02 -0.44718271313E+03  0.44849150770E+03  0.00000000000E+00 0. -1.
<mgrwt>
<rscale>  0 0.91455438E+02</rscale>
<asrwt>0</asrwt>
<pdfrwt beam="2">  1        1 0.82866673E-01 0.91455438E+02</pdfrwt>
<pdfrwt beam="1">  1       -1 0.59724492E-03 0.91455438E+02</pdfrwt>
<totfact> 0.13925551E+05</totfact>
</mgrwt>
</event>
<event>
 5    1  0.4023633E+001  0.9138331E+02  0.7546771E-02  0.1299536E+00
          2   -1    0    0  501    0  0.00000000000E+00  0.00000000000E+00  0.17083808912E+04  0.17083808912E+04  0.00000000000E+00 0. -1.
         -2   -1    0    0    0  501 -0.00000000000E+00 -0.00000000000E+00 -0.12220503741E+01  0.12220503741E+01  0.00000000000E+00 0.  1.
         23    2    1    2    0    0  0.00000000000E+00  0.00000000000E+00  0.17071588408E+04  0.17096029416E+04  0.91383313731E+02 0.  0.
          2    1    3    3  502    0  0.23319554477E+02 -0.48394829340E+00  0.15886154639E+04  0.15887866842E+04  0.00000000000E+00 0. -1.
         -2    1    3    3    0  502 -0.23319554477E+02  0.48394829340E+00  0.11854337693E+03  0.12081625735E+03  0.00000000000E+00 0.  1.
<mgrwt>
<rscale>  0 0.91383314E+02</rscale>
<asrwt>0</asrwt>
<pdfrwt beam="1">  1        2 0.26282592E+00 0.91383314E+02</pdfrwt>
<pdfrwt beam="2">  1       -2 0.18800912E-03 0.91383314E+02</pdfrwt>
<totfact> 0.22032948E+05</totfact>
</mgrwt>
</event>
<event>
 5    1  0.4023633E+001  0.9148283E+02  0.7546771E-02  0.1299300E+00
         -1   -1    0    0    0  501 -0.00000000000E+00  0.00000000000E+00  0.65301511504E+01  0.65301511504E+01  0.00000000000E+00 0.  1.
          1   -1    0    0  501    0  0.00000000000E+00 -0.00000000000E+00 -0.32040255247E+03  0.32040255247E+03  0.00000000000E+00 0. -1.
         23    2    1    2    0    0  0.00000000000E+00  0.00000000000E+00 -0.31387240132E+03  0.32693270362E+03  0.91482831102E+02 0.  0.
          2    1    3    3  502    0  0.43966935351E+02  0.52631584615E+01 -0.19791475531E+03  0.20280789583E+03  0.00000000000E+00 0. -1.
         -2    1    3    3    0  502 -0.43966935351E+02 -0.52631584615E+01 -0.11595764601E+03  0.12412480779E+03  0.00000000000E+00 0.  1.
<mgrwt>
<rscale>  0 0.91482831E+02</rscale>
<asrwt>0</asrwt>
<pdfrwt beam="2">  1        1 0.49292693E-01 0.91482831E+02</pdfrwt>
<pdfrwt beam="1">  1       -1 0.10046388E-02 0.91482831E+02</pdfrwt>
<totfact> 0.12856894E+05</totfact>
</mgrwt>
</event>
<event>
 5    1  0.4023633E+001  0.9164514E+02  0.7546771E-02  0.1298916E+00
         -2   -1    0    0    0  501 -0.00000000000E+00  0.00000000000E+00  0.43877389160E+01  0.43877389160E+01  0.00000000000E+00 0.  1.
          2   -1    0    0  501    0  0.00000000000E+00 -0.00000000000E+00 -0.47853984935E+03  0.47853984935E+03  0.00000000000E+00 0. -1.
         23    2    1    2    0    0  0.00000000000E+00  0.00000000000E+00 -0.47415211043E+03  0.48292758827E+03  0.91645139966E+02 0.  0.
          2    1    3    3  502    0 -0.11339536652E+02  0.22367615922E+02 -0.43916904367E+03  0.43988446694E+03  0.00000000000E+00 0. -1.
         -2    1    3    3    0  502  0.11339536652E+02 -0.22367615922E+02 -0.34983066759E+02  0.43043121325E+02  0.00000000000E+00 0.  1.
<mgrwt>
<rscale>  0 0.91645140E+02</rscale>
<asrwt>0</asrwt>
<pdfrwt beam="2">  1        2 0.73621513E-01 0.91645140E+02</pdfrwt>
<pdfrwt beam="1">  1       -2 0.67503677E-03 0.91645140E+02</pdfrwt>
<totfact> 0.20954466E+05</totfact>
</mgrwt>
</event>
<event>
 5    1  0.4023633E+001  0.9278714E+02  0.7546771E-02  0.1296239E+00
          2   -1    0    0  501    0  0.00000000000E+00  0.00000000000E+00  0.34504335326E+03  0.34504335326E+03  0.00000000000E+00 0.  1.
         -2   -1    0    0    0  501 -0.00000000000E+00 -0.00000000000E+00 -0.62379507140E+01  0.62379507140E+01  0.00000000000E+00 0. -1.
         23    2    1    2    0    0  0.00000000000E+00  0.00000000000E+00  0.33880540255E+03  0.35128130397E+03  0.92787142036E+02 0.  0.
          2    1    3    3  502    0  0.33188598912E+02 -0.43540614088E+01  0.29101871818E+03  0.29293742553E+03  0.00000000000E+00 0.  1.
         -2    1    3    3    0  502 -0.33188598912E+02  0.43540614088E+01  0.47786684367E+02  0.58343878439E+02  0.00000000000E+00 0. -1.
<mgrwt>
<rscale>  0 0.92787142E+02</rscale>
<asrwt>0</asrwt>
<pdfrwt beam="1">  1        2 0.53083578E-01 0.92787142E+02</pdfrwt>
<pdfrwt beam="2">  1       -2 0.95968499E-03 0.92787142E+02</pdfrwt>
<totfact> 0.18057961E+05</totfact>
</mgrwt>
</event>
<event>
 5    1  0.4023633E+001  0.9043912E+02  0.7546771E-02  0.1301792E+00
         -1   -1    0    0    0  501 -0.00000000000E+00  0.00000000000E+00  0.56298037934E+03  0.56298037934E+03  0.00000000000E+00 0.  1.
          1   -1    0    0  501    0  0.00000000000E+00 -0.00000000000E+00 -0.36321136891E+01  0.36321136891E+01  0.00000000000E+00 0. -1.
         23    2    1    2    0    0  0.00000000000E+00  0.00000000000E+00  0.55934826565E+03  0.56661249303E+03  0.90439123006E+02 0.  0.
          2    1    3    3  502    0  0.43696348877E+02  0.77897283889E+01  0.22550416837E+03  0.22983076541E+03  0.00000000000E+00 0. -1.
         -2    1    3    3    0  502 -0.43696348877E+02 -0.77897283889E+01  0.33384409728E+03  0.33678172762E+03  0.00000000000E+00 0.  1.
<mgrwt>
<rscale>  0 0.90439123E+02</rscale>
<asrwt>0</asrwt>
<pdfrwt beam="2">  1        1 0.55878717E-03 0.90439123E+02</pdfrwt>
<pdfrwt beam="1">  1       -1 0.86612297E-01 0.90439123E+02</pdfrwt>
<totfact> 0.44478196E+04</totfact>
</mgrwt>
</event>
<event>
 5    1  0.4023633E+001  0.9589243E+02  0.7546771E-02  0.1289179E+00
         -1   -1    0    0    0  501 -0.00000000000E+00  0.00000000000E+00  0.21729631230E+03  0.21729631230E+03  0.00000000000E+00 0.  1.
          1   -1    0    0  501    0  0.00000000000E+00 -0.00000000000E+00 -0.10579284093E+02  0.10579284093E+02  0.00000000000E+00 0. -1.
         23    2    1    2    0    0  0.00000000000E+00  0.00000000000E+00  0.20671702821E+03  0.22787559639E+03  0.95892427649E+02 0.  0.
          2    1    3    3  502    0 -0.29104820123E+02 -0.15926982035E+02  0.21104626435E+02  0.39321299166E+02  0.00000000000E+00 0. -1.
         -2    1    3    3    0  502  0.29104820123E+02  0.15926982035E+02  0.18561240177E+03  0.18855429723E+03  0.00000000000E+00 0.  1.
<mgrwt>
<rscale>  0 0.95892428E+02</rscale>
<asrwt>0</asrwt>
<pdfrwt beam="2">  1        1 0.16275823E-02 0.95892428E+02</pdfrwt>
<pdfrwt beam="1">  1       -1 0.33430199E-01 0.95892428E+02</pdfrwt>
<totfact> 0.59381632E+04</totfact>
</mgrwt>
</event>
<event>
 5    1  0.4023633E+001  0.9015826E+02  0.7546771E-02  0.1302469E+00
         -2   -1    0    0    0  501 -0.00000000000E+00  0.00000000000E+00  0.28177873187E+03  0.28177873187E+03  0.00000000000E+00 0.  1.
          2   -1    0    0  501    0  0.00000000000E+00 -0.00000000000E+00 -0.72117860119E+01  0.72117860119E+01  0.00000000000E+00 0. -1.
         23    2    1    2    0    0  0.00000000000E+00  0.00000000000E+00  0.27456694586E+03  0.28899051788E+03  0.90158259010E+02 0.  0.
          2    1    3    3  502    0 -0.40735373673E+02  0.18912590830E+02  0.12483972027E+03  0.13267257636E+03  0.00000000000E+00 0. -1.
         -2    1    3    3    0  502  0.40735373673E+02 -0.18912590830E+02  0.14972722558E+03  0.15631794152E+03  0.00000000000E+00 0.  1.
<mgrwt>
<rscale>  0 0.90158259E+02</rscale>
<asrwt>0</asrwt>
<pdfrwt beam="2">  1        2 0.11095058E-02 0.90158259E+02</pdfrwt>
<pdfrwt beam="1">  1       -2 0.43350566E-01 0.90158259E+02</pdfrwt>
<totfact> 0.54339495E+04</totfact>
</mgrwt>
</event>
<event>
 5    1  0.4023633E+001  0.1059809E+03  0.7546771E-02  0.1268199E+00
          2   -1    0    0  501    0  0.00000000000E+00  0.00000000000E+00  0.63043115318E+02  0.63043115318E+02  0.00000000000E+00 0.  1.
         -2   -1    0    0    0  501 -0.00000000000E+00 -0.00000000000E+00 -0.44540762147E+02  0.44540762147E+02  0.00000000000E+00 0. -1.
         23    2    1    2    0    0  0.00000000000E+00  0.00000000000E+00  0.18502353170E+02  0.10758387746E+03  0.10598091157E+03 0.  0.
          2    1    3    3  502    0  0.20246172215E+02  0.26867336762E+01 -0.40384829722E+02  0.45255502416E+02  0.00000000000E+00 0. -1.
         -2    1    3    3    0  502 -0.20246172215E+02 -0.26867336762E+01  0.58887182893E+02  0.62328375049E+02  0.00000000000E+00 0.  1.
<mgrwt>
<rscale>  0 0.10598091E+03</rscale>
<asrwt>0</asrwt>
<pdfrwt beam="1">  1        2 0.96989408E-02 0.10598091E+03</pdfrwt>
<pdfrwt beam="2">  1       -2 0.68524250E-02 0.10598091E+03</pdfrwt>
<totfact> 0.69970141E+04</totfact>
</mgrwt>
</event>
<event>
 5    1  0.4023633E+001  0.6486085E+02  0.7546771E-02  0.1378496E+00
         -1   -1    0    0    0  501 -0.00000000000E+00  0.00000000000E+00  0.15804328804E+02  0.15804328804E+02  0.00000000000E+00 0.  1.
          1   -1    0    0  501    0  0.00000000000E+00 -0.00000000000E+00 -0.66547116158E+02  0.66547116158E+02  0.00000000000E+00 0. -1.
         23    2    1    2    0    0  0.00000000000E+00  0.00000000000E+00 -0.50742787354E+02  0.82351444962E+02  0.64860851204E+02 0.  0.
          2    1    3    3  502    0 -0.14055727285E+00  0.29164910150E+02 -0.73654024021E+01  0.30080905787E+02  0.00000000000E+00 0. -1.
         -2    1    3    3    0  502  0.14055727285E+00 -0.29164910150E+02 -0.43377384952E+02  0.52270539176E+02  0.00000000000E+00 0.  1.
<mgrwt>
<rscale>  0 0.64860851E+02</rscale>
<asrwt>0</asrwt>
<pdfrwt beam="2">  1        1 0.10238018E-01 0.64860851E+02</pdfrwt>
<pdfrwt beam="1">  1       -1 0.24314353E-02 0.64860851E+02</pdfrwt>
<totfact> 0.24515808E+05</totfact>
</mgrwt>
</event>
<event>
 5    1  0.4023633E+001  0.9206227E+02  0.7546771E-02  0.1297933E+00
         -1   -1    0    0    0  501 -0.00000000000E+00  0.00000000000E+00  0.65923491827E+01  0.65923491827E+01  0.00000000000E+00 0.  1.
          1   -1    0    0  501    0  0.00000000000E+00 -0.00000000000E+00 -0.32141281207E+03  0.32141281207E+03  0.00000000000E+00 0. -1.
         23    2    1    2    0    0  0.00000000000E+00  0.00000000000E+00 -0.31482046289E+03  0.32800516125E+03  0.92062272163E+02 0.  0.
          2    1    3    3  502    0  0.25106882529E+02  0.37077511528E+02 -0.19541247157E+03  0.20047725920E+03  0.00000000000E+00 0. -1.
         -2    1    3    3    0  502 -0.25106882529E+02 -0.37077511528E+02 -0.11940799131E+03  0.12752790205E+03  0.00000000000E+00 0.  1.
<mgrwt>
<rscale>  0 0.92062272E+02</rscale>
<asrwt>0</asrwt>
<pdfrwt beam="2">  1        1 0.49448117E-01 0.92062272E+02</pdfrwt>
<pdfrwt beam="1">  1       -1 0.10142077E-02 0.92062272E+02</pdfrwt>
<totfact> 0.12649747E+05</totfact>
</mgrwt>
</event>
<event>
 5    1  0.4023633E+001  0.9063651E+02  0.7546771E-02  0.1301318E+00
         -1   -1    0    0    0  501 -0.00000000000E+00  0.00000000000E+00  0.28851976707E+02  0.28851976707E+02  0.00000000000E+00 0.  1.
          1   -1    0    0  501    0  0.00000000000E+00 -0.00000000000E+00 -0.71182093119E+02  0.71182093119E+02  0.00000000000E+00 0. -1.
         23    2    1    2    0    0  0.00000000000E+00  0.00000000000E+00 -0.42330116412E+02  0.10003406983E+03  0.90636506831E+02 0.  0.
          2    1    3    3  502    0 -0.26326884590E+02  0.29115801657E+02 -0.46160745352E+02  0.60594134780E+02  0.00000000000E+00 0. -1.
         -2    1    3    3    0  502  0.26326884590E+02 -0.29115801657E+02  0.38306289396E+01  0.39439935046E+02  0.00000000000E+00 0.  1.
<mgrwt>
<rscale>  0 0.90636507E+02</rscale>
<asrwt>0</asrwt>
<pdfrwt beam="2">  1        1 0.10951091E-01 0.90636507E+02</pdfrwt>
<pdfrwt beam="1">  1       -1 0.44387657E-02 0.90636507E+02</pdfrwt>
<totfact> 0.10055514E+05</totfact>
</mgrwt>
</event>
<event>
 5    1  0.4023633E+001  0.9079382E+02  0.7546771E-02  0.1300941E+00
          1   -1    0    0  501    0  0.00000000000E+00  0.00000000000E+00  0.34373690800E+03  0.34373690800E+03  0.00000000000E+00 0. -1.
         -1   -1    0    0    0  501 -0.00000000000E+00 -0.00000000000E+00 -0.59955133772E+01  0.59955133772E+01  0.00000000000E+00 0.  1.
         23    2    1    2    0    0  0.00000000000E+00  0.00000000000E+00  0.33774139462E+03  0.34973242137E+03  0.90793815431E+02 0.  0.
          2    1    3    3  502    0 -0.14794480567E+02 -0.26005384001E+02  0.30038628558E+03  0.30187261753E+03  0.00000000000E+00 0. -1.
         -2    1    3    3    0  502  0.14794480567E+02  0.26005384001E+02  0.37355109042E+02  0.47859803843E+02  0.00000000000E+00 0.  1.
<mgrwt>
<rscale>  0 0.90793815E+02</rscale>
<asrwt>0</asrwt>
<pdfrwt beam="1">  1        1 0.52882586E-01 0.90793815E+02</pdfrwt>
<pdfrwt beam="2">  1       -1 0.92238694E-03 0.90793815E+02</pdfrwt>
<totfact> 0.13288504E+05</totfact>
</mgrwt>
</event>
<event>
 5    1  0.4023633E+001  0.9096274E+02  0.7546771E-02  0.1300537E+00
          1   -1    0    0  501    0  0.00000000000E+00  0.00000000000E+00  0.80245828945E+02  0.80245828945E+02  0.00000000000E+00 0. -1.
         -1   -1    0    0    0  501 -0.00000000000E+00 -0.00000000000E+00 -0.25777725678E+02  0.25777725678E+02  0.00000000000E+00 0.  1.
         23    2    1    2    0    0  0.00000000000E+00  0.00000000000E+00  0.54468103266E+02  0.10602355462E+03  0.90962738863E+02 0.  0.
          2    1    3    3  502    0  0.15984683171E+02 -0.13268104915E+02  0.74392930508E+02  0.77238985064E+02  0.00000000000E+00 0. -1.
         -2    1    3    3    0  502 -0.15984683171E+02  0.13268104915E+02 -0.19924827242E+02  0.28784569559E+02  0.00000000000E+00 0.  1.
<mgrwt>
<rscale>  0 0.90962739E+02</rscale>
<asrwt>0</asrwt>
<pdfrwt beam="1">  1        1 0.12345512E-01 0.90962739E+02</pdfrwt>
<pdfrwt beam="2">  1       -1 0.39658040E-02 0.90962739E+02</pdfrwt>
<totfact> 0.10144556E+05</totfact>
</mgrwt>
</event>
<event>
 5    1  0.4023633E+001  0.9123212E+02  0.7546771E-02  0.1299895E+00
          2   -1    0    0  501    0  0.00000000000E+00  0.00000000000E+00  0.16126762816E+03  0.16126762816E+03  0.00000000000E+00 0. -1.
         -2   -1    0    0    0  501 -0.00000000000E+00 -0.00000000000E+00 -0.12902929824E+02  0.12902929824E+02  0.00000000000E+00 0.  1.
         23    2    1    2    0    0  0.00000000000E+00  0.00000000000E+00  0.14836469833E+03  0.17417055798E+03  0.91232119102E+02 0.  0.
          2    1    3    3  502    0  0.37851299696E+02 -0.82124300282E+01  0.12018553757E+03  0.12627243696E+03  0.00000000000E+00 0. -1.
         -2    1    3    3    0  502 -0.37851299696E+02  0.82124300282E+01  0.28179160761E+02  0.47898121016E+02  0.00000000000E+00 0.  1.
<mgrwt>
<rscale>  0 0.91232119E+02</rscale>
<asrwt>0</asrwt>
<pdfrwt beam="1">  1        2 0.24810403E-01 0.91232119E+02</pdfrwt>
<pdfrwt beam="2">  1       -2 0.19850662E-02 0.91232119E+02</pdfrwt>
<totfact> 0.14309122E+05</totfact>
</mgrwt>
</event>
<event>
 5    1  0.4023633E+001  0.9199692E+02  0.7546771E-02  0.1298087E+00
          1   -1    0    0  501    0  0.00000000000E+00  0.00000000000E+00  0.14154539258E+04  0.14154539258E+04  0.00000000000E+00 0. -1.
         -1   -1    0    0    0  501 -0.00000000000E+00 -0.00000000000E+00 -0.14948267850E+01  0.14948267850E+01  0.00000000000E+00 0.  1.
         23    2    1    2    0    0  0.00000000000E+00  0.00000000000E+00  0.14139590990E+04  0.14169487526E+04  0.91996922583E+02 0.  0.
          2    1    3    3  502    0  0.14113681410E+02  0.43410577044E+02  0.79435762302E+03  0.79566808875E+03  0.00000000000E+00 0. -1.
         -2    1    3    3    0  502 -0.14113681410E+02 -0.43410577044E+02  0.61960147597E+03  0.62128066381E+03  0.00000000000E+00 0.  1.
<mgrwt>
<rscale>  0 0.91996923E+02</rscale>
<asrwt>0</asrwt>
<pdfrwt beam="1">  1        1 0.21776107E+00 0.91996923E+02</pdfrwt>
<pdfrwt beam="2">  1       -1 0.22997448E-03 0.91996923E+02</pdfrwt>
<totfact> 0.11282747E+05</totfact>
</mgrwt>
</event>
<event>
 5    1  0.4023633E+001  0.9048106E+02  0.7546771E-02  0.1301691E+00
         -1   -1    0    0    0  501 -0.00000000000E+00  0.00000000000E+00  0.10962824426E+01  0.10962824426E+01  0.00000000000E+00 0.  1.
          1   -1    0    0  501    0  0.00000000000E+00 -0.00000000000E+00 -0.18669510767E+04  0.18669510767E+04  0.00000000000E+00 0. -1.
         23    2    1    2    0    0  0.00000000000E+00  0.00000000000E+00 -0.18658547942E+04  0.18680473591E+04  0.90481062913E+02 0.  0.
          2    1    3    3  502    0  0.36476952696E+02 -0.72554244268E+01 -0.14647288043E+04  0.14652009007E+04  0.00000000000E+00 0. -1.
         -2    1    3    3    0  502 -0.36476952696E+02  0.72554244268E+01 -0.40112598997E+03  0.40284645846E+03  0.00000000000E+00 0.  1.
<mgrwt>
<rscale>  0 0.90481063E+02</rscale>
<asrwt>0</asrwt>
<pdfrwt beam="2">  1        1 0.28722232E+00 0.90481063E+02</pdfrwt>
<pdfrwt beam="1">  1       -1 0.16865938E-03 0.90481063E+02</pdfrwt>
<totfact> 0.89640590E+04</totfact>
</mgrwt>
</event>
<event>
 5    1  0.4023633E+001  0.9106558E+02  0.7546771E-02  0.1300292E+00
          2   -1    0    0  501    0  0.00000000000E+00  0.00000000000E+00  0.12816607300E+03  0.12816607300E+03  0.00000000000E+00 0.  1.
         -2   -1    0    0    0  501 -0.00000000000E+00 -0.00000000000E+00 -0.16176159498E+02  0.16176159498E+02  0.00000000000E+00 0. -1.
         23    2    1    2    0    0  0.00000000000E+00  0.00000000000E+00  0.11198991350E+03  0.14434223250E+03  0.91065577229E+02 0.  0.
          2    1    3    3  502    0 -0.11563034074E+02 -0.40087853459E+02  0.84897215823E+02  0.94595332900E+02  0.00000000000E+00 0.  1.
         -2    1    3    3    0  502  0.11563034074E+02  0.40087853459E+02  0.27092697678E+02  0.49746899597E+02  0.00000000000E+00 0. -1.
<mgrwt>
<rscale>  0 0.91065577E+02</rscale>
<asrwt>0</asrwt>
<pdfrwt beam="1">  1        2 0.19717857E-01 0.91065577E+02</pdfrwt>
<pdfrwt beam="2">  1       -2 0.24886400E-02 0.91065577E+02</pdfrwt>
<totfact> 0.13310490E+05</totfact>
</mgrwt>
</event>
<event>
 5    1  0.4023633E+001  0.9193503E+02  0.7546771E-02  0.1298232E+00
          1   -1    0    0  501    0  0.00000000000E+00  0.00000000000E+00  0.70762961714E+02  0.70762961714E+02  0.00000000000E+00 0. -1.
         -1   -1    0    0    0  501 -0.00000000000E+00 -0.00000000000E+00 -0.29860428703E+02  0.29860428703E+02  0.00000000000E+00 0.  1.
         23    2    1    2    0    0  0.00000000000E+00  0.00000000000E+00  0.40902533011E+02  0.10062339042E+03  0.91935028647E+02 0.  0.
          2    1    3    3  502    0  0.31394977102E+02 -0.18838474880E+02  0.50871423729E+02  0.62677224534E+02  0.00000000000E+00 0. -1.
         -2    1    3    3    0  502 -0.31394977102E+02  0.18838474880E+02 -0.99688907184E+01  0.37946165883E+02  0.00000000000E+00 0.  1.
<mgrwt>
<rscale>  0 0.91935029E+02</rscale>
<asrwt>0</asrwt>
<pdfrwt beam="1">  1        1 0.10886609E-01 0.91935029E+02</pdfrwt>
<pdfrwt beam="2">  1       -1 0.45939121E-02 0.91935029E+02</pdfrwt>
<totfact> 0.96598108E+04</totfact>
</mgrwt>
</event>
<event>
 5    1  0.4023633E+001  0.9179997E+02  0.7546771E-02  0.1298550E+00
         -2   -1    0    0    0  501 -0.00000000000E+00  0.00000000000E+00  0.71321947159E+01  0.71321947159E+01  0.00000000000E+00 0.  1.
          2   -1    0    0  501    0  0.00000000000E+00 -0.00000000000E+00 -0.29539416431E+03  0.29539416431E+03  0.00000000000E+00 0. -1.
         23    2    1    2    0    0  0.00000000000E+00  0.00000000000E+00 -0.28826196960E+03  0.30252635903E+03  0.91799971630E+02 0.  0.
          2    1    3    3  502    0  0.30404844993E+02  0.14279213626E+02 -0.24721511306E+03  0.24948679859E+03  0.00000000000E+00 0. -1.
         -2    1    3    3    0  502 -0.30404844993E+02 -0.14279213626E+02 -0.41046856531E+02  0.53039560442E+02  0.00000000000E+00 0.  1.
<mgrwt>
<rscale>  0 0.91799972E+02</rscale>
<asrwt>0</asrwt>
<pdfrwt beam="2">  1        2 0.45445257E-01 0.91799972E+02</pdfrwt>
<pdfrwt beam="1">  1       -2 0.10972607E-02 0.91799972E+02</pdfrwt>
<totfact> 0.17540648E+05</totfact>
</mgrwt>
</event>
<event>
 5    1  0.4023633E+001  0.9240277E+02  0.7546771E-02  0.1297135E+00
          2   -1    0    0  501    0  0.00000000000E+00  0.00000000000E+00  0.13964529838E+04  0.13964529838E+04  0.00000000000E+00 0. -1.
         -2   -1    0    0    0  501 -0.00000000000E+00 -0.00000000000E+00 -0.15285640923E+01  0.15285640923E+01  0.00000000000E+00 0.  1.
         23    2    1    2    0    0  0.00000000000E+00  0.00000000000E+00  0.13949244197E+04  0.13979815479E+04  0.92402768088E+02 0.  0.
          2    1    3    3  502    0 -0.73736314679E+01 -0.24749039965E+02  0.12770677270E+04  0.12773288006E+04  0.00000000000E+00 0. -1.
         -2    1    3    3    0  502  0.73736314679E+01  0.24749039965E+02  0.11785669266E+03  0.12065274727E+03  0.00000000000E+00 0.  1.
<mgrwt>
<rscale>  0 0.92402768E+02</rscale>
<asrwt>0</asrwt>
<pdfrwt beam="1">  1        2 0.21483790E+00 0.92402768E+02</pdfrwt>
<pdfrwt beam="2">  1       -2 0.23516482E-03 0.92402768E+02</pdfrwt>
<totfact> 0.23321801E+05</totfact>
</mgrwt>
</event>
<event>
 5    1  0.4023633E+001  0.8082822E+02  0.7546771E-02  0.1326717E+00
         -2   -1    0    0    0  501 -0.00000000000E+00  0.00000000000E+00  0.91106805366E+00  0.91106805366E+00  0.00000000000E+00 0.  1.
          2   -1    0    0  501    0  0.00000000000E+00 -0.00000000000E+00 -0.17927314634E+04  0.17927314634E+04  0.00000000000E+00 0. -1.
         23    2    1    2    0    0  0.00000000000E+00  0.00000000000E+00 -0.17918203953E+04  0.17936425314E+04  0.80828221929E+02 0.  0.
          2    1    3    3  502    0 -0.22841874697E+02  0.32415822724E+02 -0.72293075938E+03  0.72401755480E+03  0.00000000000E+00 0. -1.
         -2    1    3    3    0  502  0.22841874697E+02 -0.32415822724E+02 -0.10688896359E+04  0.10696249766E+04  0.00000000000E+00 0.  1.
<mgrwt>
<rscale>  0 0.80828222E+02</rscale>
<asrwt>0</asrwt>
<pdfrwt beam="2">  1        2 0.27580701E+00 0.80828222E+02</pdfrwt>
<pdfrwt beam="1">  1       -2 0.14016321E-03 0.80828222E+02</pdfrwt>
<totfact> 0.29486048E+05</totfact>
</mgrwt>
</event>
<event>
 5    1  0.4023633E+001  0.8903299E+02  0.7546771E-02  0.1305210E+00
          2   -1    0    0  501    0  0.00000000000E+00  0.00000000000E+00  0.31612555212E+03  0.31612555212E+03  0.00000000000E+00 0.  1.
         -2   -1    0    0    0  501 -0.00000000000E+00 -0.00000000000E+00 -0.62687694593E+01  0.62687694593E+01  0.00000000000E+00 0. -1.
         23    2    1    2    0    0  0.00000000000E+00  0.00000000000E+00  0.30985678266E+03  0.32239432158E+03  0.89032987289E+02 0.  0.
          2    1    3    3  502    0  0.10786828844E+02 -0.24074355756E+02  0.25084623346E+02  0.36402865409E+02  0.00000000000E+00 0. -1.
         -2    1    3    3    0  502 -0.10786828844E+02  0.24074355756E+02  0.28477215931E+03  0.28599145617E+03  0.00000000000E+00 0.  1.
<mgrwt>
<rscale>  0 0.89032987E+02</rscale>
<asrwt>0</asrwt>
<pdfrwt beam="1">  1        2 0.48634688E-01 0.89032987E+02</pdfrwt>
<pdfrwt beam="2">  1       -2 0.96442632E-03 0.89032987E+02</pdfrwt>
<totfact> 0.19516331E+05</totfact>
</mgrwt>
</event>
<event>
 5    1  0.4023633E+001  0.9069770E+02  0.7546771E-02  0.1301171E+00
          2   -1    0    0  501    0  0.00000000000E+00  0.00000000000E+00  0.12229922363E+04  0.12229922363E+04  0.00000000000E+00 0. -1.
         -2   -1    0    0    0  501 -0.00000000000E+00 -0.00000000000E+00 -0.16815462969E+01  0.16815462969E+01  0.00000000000E+00 0.  1.
         23    2    1    2    0    0  0.00000000000E+00  0.00000000000E+00  0.12213106900E+04  0.12246737826E+04  0.90697697127E+02 0.  0.
          2    1    3    3  502    0 -0.11390441581E+02  0.34733632565E+02  0.97306198347E+03  0.97374832019E+03  0.00000000000E+00 0. -1.
         -2    1    3    3    0  502  0.11390441581E+02 -0.34733632565E+02  0.24824870650E+03  0.25092546238E+03  0.00000000000E+00 0.  1.
<mgrwt>
<rscale>  0 0.90697697E+02</rscale>
<asrwt>0</asrwt>
<pdfrwt beam="1">  1        2 0.18815194E+00 0.90697697E+02</pdfrwt>
<pdfrwt beam="2">  1       -2 0.25870041E-03 0.90697697E+02</pdfrwt>
<totfact> 0.25158684E+05</totfact>
</mgrwt>
</event>
<event>
 5    1  0.4023633E+001  0.7122571E+02  0.7546771E-02  0.1355974E+00
          2   -1    0    0  501    0  0.00000000000E+00  0.00000000000E+00  0.23093677017E+02  0.23093677017E+02  0.00000000000E+00 0. -1.
         -2   -1    0    0    0  501 -0.00000000000E+00 -0.00000000000E+00 -0.54918723602E+02  0.54918723602E+02  0.00000000000E+00 0.  1.
         23    2    1    2    0    0  0.00000000000E+00  0.00000000000E+00 -0.31825046584E+02  0.78012400619E+02  0.71225705053E+02 0.  0.
          2    1    3    3  502    0 -0.15437776249E+02  0.18055292479E+02 -0.44972808482E+02  0.50861301839E+02  0.00000000000E+00 0.  1.
         -2    1    3    3    0  502  0.15437776249E+02 -0.18055292479E+02  0.13147761898E+02  0.27151098780E+02  0.00000000000E+00 0. -1.
<mgrwt>
<rscale>  0 0.71225705E+02</rscale>
<asrwt>0</asrwt>
<pdfrwt beam="1">  1        2 0.35528734E-02 0.71225705E+02</pdfrwt>
<pdfrwt beam="2">  1       -2 0.84490343E-02 0.71225705E+02</pdfrwt>
<totfact> 0.17040637E+05</totfact>
</mgrwt>
</event>
<event>
 5    1  0.4023633E+001  0.9190122E+02  0.7546771E-02  0.1298312E+00
          1   -1    0    0  501    0  0.00000000000E+00  0.00000000000E+00  0.19899193551E+02  0.19899193551E+02  0.00000000000E+00 0. -1.
         -1   -1    0    0    0  501 -0.00000000000E+00 -0.00000000000E+00 -0.10610774779E+03  0.10610774779E+03  0.00000000000E+00 0.  1.
         23    2    1    2    0    0  0.00000000000E+00  0.00000000000E+00 -0.86208554242E+02  0.12600694134E+03  0.91901221116E+02 0.  0.
          2    1    3    3  502    0  0.21449683968E+02  0.34404774164E+02 -0.72755877339E+02  0.83289825999E+02  0.00000000000E+00 0.  1.
         -2    1    3    3    0  502 -0.21449683968E+02 -0.34404774164E+02 -0.13452676903E+02  0.42717115346E+02  0.00000000000E+00 0. -1.
<mgrwt>
<rscale>  0 0.91901221E+02</rscale>
<asrwt>0</asrwt>
<pdfrwt beam="1">  1        1 0.30614145E-02 0.91901221E+02</pdfrwt>
<pdfrwt beam="2">  1       -1 0.16324268E-01 0.91901221E+02</pdfrwt>
<totfact> 0.78838300E+04</totfact>
</mgrwt>
</event>
<event>
 5    1  0.4023633E+001  0.9131012E+02  0.7546771E-02  0.1299710E+00
         -4   -1    0    0    0  501 -0.00000000000E+00  0.00000000000E+00  0.15921971742E+04  0.15921971742E+04  0.00000000000E+00 0.  1.
          4   -1    0    0  501    0  0.00000000000E+00 -0.00000000000E+00 -0.13091245480E+01  0.13091245480E+01  0.00000000000E+00 0. -1.
         23    2    1    2    0    0  0.00000000000E+00  0.00000000000E+00  0.15908880496E+04  0.15935062987E+04  0.91310117860E+02 0.  0.
          2    1    3    3  502    0  0.43394327154E+02  0.10747887701E+02  0.63379327172E+03  0.63536800045E+03  0.00000000000E+00 0. -1.
         -2    1    3    3    0  502 -0.43394327154E+02 -0.10747887701E+02  0.95709477790E+03  0.95813829827E+03  0.00000000000E+00 0.  1.
<mgrwt>
<rscale>  0 0.91310118E+02</rscale>
<asrwt>0</asrwt>
<pdfrwt beam="2">  1        4 0.20140505E-03 0.91310118E+02</pdfrwt>
<pdfrwt beam="1">  1       -4 0.24495186E+00 0.91310118E+02</pdfrwt>
<totfact> 0.37572840E+03</totfact>
</mgrwt>
</event>
<event>
 5    1  0.4023633E+001  0.9151897E+02  0.7546771E-02  0.1299214E+00
          1   -1    0    0  501    0  0.00000000000E+00  0.00000000000E+00  0.59524951653E+01  0.59524951653E+01  0.00000000000E+00 0. -1.
         -1   -1    0    0    0  501 -0.00000000000E+00 -0.00000000000E+00 -0.35177353377E+03  0.35177353377E+03  0.00000000000E+00 0.  1.
         23    2    1    2    0    0  0.00000000000E+00  0.00000000000E+00 -0.34582103860E+03  0.35772602893E+03  0.91518965445E+02 0.  0.
          2    1    3    3  502    0 -0.25897313872E+02 -0.17068481545E+02 -0.30441741338E+03  0.30599340760E+03  0.00000000000E+00 0.  1.
         -2    1    3    3    0  502  0.25897313872E+02  0.17068481545E+02 -0.41403625224E+02  0.51732621331E+02  0.00000000000E+00 0. -1.
<mgrwt>
<rscale>  0 0.91518965E+02</rscale>
<asrwt>0</asrwt>
<pdfrwt beam="1">  1        1 0.91576848E-03 0.91518965E+02</pdfrwt>
<pdfrwt beam="2">  1       -1 0.54119006E-01 0.91518965E+02</pdfrwt>
<totfact> 0.56105068E+04</totfact>
</mgrwt>
</event>
<event>
 5    1  0.4023633E+001  0.9016861E+02  0.7546771E-02  0.1302444E+00
          2   -1    0    0  501    0  0.00000000000E+00  0.00000000000E+00  0.75487757061E+03  0.75487757061E+03  0.00000000000E+00 0. -1.
         -2   -1    0    0    0  501 -0.00000000000E+00 -0.00000000000E+00 -0.26926146429E+01  0.26926146429E+01  0.00000000000E+00 0.  1.
         23    2    1    2    0    0  0.00000000000E+00  0.00000000000E+00  0.75218495596E+03  0.75757018525E+03  0.90168606515E+02 0.  0.
          2    1    3    3  502    0 -0.30160810194E+02  0.19881124394E+02  0.60273010405E+03  0.60381165268E+03  0.00000000000E+00 0. -1.
         -2    1    3    3    0  502  0.30160810194E+02 -0.19881124394E+02  0.14945485191E+03  0.15375853257E+03  0.00000000000E+00 0.  1.
<mgrwt>
<rscale>  0 0.90168607E+02</rscale>
<asrwt>0</asrwt>
<pdfrwt beam="1">  1        2 0.11613484E+00 0.90168607E+02</pdfrwt>
<pdfrwt beam="2">  1       -2 0.41424901E-03 0.90168607E+02</pdfrwt>
<totfact> 0.24824305E+05</totfact>
</mgrwt>
</event>
<event>
 5    1  0.4023633E+001  0.9139856E+02  0.7546771E-02  0.1299500E+00
          3   -1    0    0  501    0  0.00000000000E+00  0.00000000000E+00  0.85854506723E+01  0.85854506723E+01  0.00000000000E+00 0. -1.
         -3   -1    0    0    0  501 -0.00000000000E+00 -0.00000000000E+00 -0.24325154623E+03  0.24325154623E+03  0.00000000000E+00 0.  1.
         23    2    1    2    0    0  0.00000000000E+00  0.00000000000E+00 -0.23466609556E+03  0.25183699690E+03  0.91398559094E+02 0.  0.
          2    1    3    3  502    0  0.87700033248E+01  0.37816949217E+02 -0.18377062574E+03  0.18782618958E+03  0.00000000000E+00 0.  1.
         -2    1    3    3    0  502 -0.87700033248E+01 -0.37816949217E+02 -0.50895469818E+02  0.64010807325E+02  0.00000000000E+00 0. -1.
<mgrwt>
<rscale>  0 0.91398559E+02</rscale>
<asrwt>0</asrwt>
<pdfrwt beam="1">  1        3 0.13208388E-02 0.91398559E+02</pdfrwt>
<pdfrwt beam="2">  1       -3 0.37423307E-01 0.91398559E+02</pdfrwt>
<totfact> 0.25848306E+04</totfact>
</mgrwt>
</event>
<event>
 5    1  0.4023633E+001  0.9951694E+02  0.7546771E-02  0.1281315E+00
          4   -1    0    0  501    0  0.00000000000E+00  0.00000000000E+00  0.39507073423E+01  0.39507073423E+01  0.00000000000E+00 0. -1.
         -4   -1    0    0    0  501 -0.00000000000E+00 -0.00000000000E+00 -0.62669930865E+03  0.62669930865E+03  0.00000000000E+00 0.  1.
         23    2    1    2    0    0  0.00000000000E+00  0.00000000000E+00 -0.62274860131E+03  0.63065001600E+03  0.99516944489E+02 0.  0.
          2    1    3    3  502    0 -0.14405623575E+02 -0.16434743773E+02 -0.28091733540E+02  0.35591688450E+02  0.00000000000E+00 0. -1.
         -2    1    3    3    0  502  0.14405623575E+02  0.16434743773E+02 -0.59465686777E+03  0.59505832755E+03  0.00000000000E+00 0.  1.
<mgrwt>
<rscale>  0 0.99516944E+02</rscale>
<asrwt>0</asrwt>
<pdfrwt beam="1">  1        4 0.60780145E-03 0.99516944E+02</pdfrwt>
<pdfrwt beam="2">  1       -4 0.96415227E-01 0.99516944E+02</pdfrwt>
<totfact> 0.86961366E+03</totfact>
</mgrwt>
</event>
<event>
 5    1  0.4023633E+001  0.9299117E+02  0.7546771E-02  0.1295766E+00
         -1   -1    0    0    0  501 -0.00000000000E+00  0.00000000000E+00  0.14506602900E+02  0.14506602900E+02  0.00000000000E+00 0.  1.
          1   -1    0    0  501    0  0.00000000000E+00 -0.00000000000E+00 -0.14902452342E+03  0.14902452342E+03  0.00000000000E+00 0. -1.
         23    2    1    2    0    0  0.00000000000E+00  0.00000000000E+00 -0.13451792052E+03  0.16353112632E+03  0.92991173423E+02 0.  0.
          2    1    3    3  502    0  0.87130175118E+01 -0.43122407114E+02 -0.40799644768E+02  0.60000580686E+02  0.00000000000E+00 0. -1.
         -2    1    3    3    0  502 -0.87130175118E+01  0.43122407114E+02 -0.93718275756E+02  0.10353054564E+03  0.00000000000E+00 0.  1.
<mgrwt>
<rscale>  0 0.92991173E+02</rscale>
<asrwt>0</asrwt>
<pdfrwt beam="2">  1        1 0.22926850E-01 0.92991173E+02</pdfrwt>
<pdfrwt beam="1">  1       -1 0.22317851E-02 0.92991173E+02</pdfrwt>
<totfact> 0.10618840E+05</totfact>
</mgrwt>
</event>
<event>
 5    1  0.4023633E+001  0.8441667E+02  0.7546771E-02  0.1316965E+00
         -3   -1    0    0    0  501 -0.00000000000E+00  0.00000000000E+00  0.69368290739E+02  0.69368290739E+02  0.00000000000E+00 0.  1.
          3   -1    0    0  501    0  0.00000000000E+00 -0.00000000000E+00 -0.25682391627E+02  0.25682391627E+02  0.00000000000E+00 0. -1.
         23    2    1    2    0    0  0.00000000000E+00  0.00000000000E+00  0.43685899113E+02  0.95050682366E+02  0.84416671558E+02 0.  0.
          2    1    3    3  502    0 -0.11147529868E+02 -0.20100371910E+02 -0.18017857297E+02  0.29205060429E+02  0.00000000000E+00 0. -1.
         -2    1    3    3    0  502  0.11147529868E+02  0.20100371910E+02  0.61703756410E+02  0.65845621936E+02  0.00000000000E+00 0.  1.
<mgrwt>
<rscale>  0 0.84416672E+02</rscale>
<asrwt>0</asrwt>
<pdfrwt beam="2">  1        3 0.39511372E-02 0.84416672E+02</pdfrwt>
<pdfrwt beam="1">  1       -3 0.10672045E-01 0.84416672E+02</pdfrwt>
<totfact> 0.43169545E+04</totfact>
</mgrwt>
</event>
<event>
 5    1  0.4023633E+001  0.9040403E+02  0.7546771E-02  0.1301876E+00
         -2   -1    0    0    0  501 -0.00000000000E+00  0.00000000000E+00  0.47658687850E+01  0.47658687850E+01  0.00000000000E+00 0.  1.
          2   -1    0    0  501    0  0.00000000000E+00 -0.00000000000E+00 -0.42871976580E+03  0.42871976580E+03  0.00000000000E+00 0. -1.
         23    2    1    2    0    0  0.00000000000E+00  0.00000000000E+00 -0.42395389702E+03  0.43348563459E+03  0.90404029763E+02 0.  0.
          2    1    3    3  502    0 -0.11728571753E+02  0.18291722765E+02 -0.40203464731E+03  0.40262141542E+03  0.00000000000E+00 0. -1.
         -2    1    3    3    0  502  0.11728571753E+02 -0.18291722765E+02 -0.21919249707E+02  0.30864219167E+02  0.00000000000E+00 0.  1.
<mgrwt>
<rscale>  0 0.90404030E+02</rscale>
<asrwt>0</asrwt>
<pdfrwt beam="2">  1        2 0.65956917E-01 0.90404030E+02</pdfrwt>
<pdfrwt beam="1">  1       -2 0.73321025E-03 0.90404030E+02</pdfrwt>
<totfact> 0.20924761E+05</totfact>
</mgrwt>
</event>
<event>
 5    1  0.4023633E+001  0.8085587E+02  0.7546771E-02  0.1326640E+00
         -1   -1    0    0    0  501 -0.00000000000E+00  0.00000000000E+00  0.10539607323E+01  0.10539607323E+01  0.00000000000E+00 0.  1.
          1   -1    0    0  501    0  0.00000000000E+00 -0.00000000000E+00 -0.15507389799E+04  0.15507389799E+04  0.00000000000E+00 0. -1.
         23    2    1    2    0    0  0.00000000000E+00  0.00000000000E+00 -0.15496850191E+04  0.15517929406E+04  0.80855871544E+02 0.  0.
          2    1    3    3  502    0  0.10978537187E+02  0.25912820519E+02 -0.13318812106E+04  0.13321785021E+04  0.00000000000E+00 0. -1.
         -2    1    3    3    0  502 -0.10978537187E+02 -0.25912820519E+02 -0.21780380857E+03  0.21961443844E+03  0.00000000000E+00 0.  1.
<mgrwt>
<rscale>  0 0.80855872E+02</rscale>
<asrwt>0</asrwt>
<pdfrwt beam="2">  1        1 0.23857673E+00 0.80855872E+02</pdfrwt>
<pdfrwt beam="1">  1       -1 0.16214678E-03 0.80855872E+02</pdfrwt>
<totfact> 0.14741997E+05</totfact>
</mgrwt>
</event>
<event>
 5    1  0.4023633E+001  0.8836256E+02  0.7546771E-02  0.1306866E+00
         -2   -1    0    0    0  501 -0.00000000000E+00  0.00000000000E+00  0.38840266516E+02  0.38840266516E+02  0.00000000000E+00 0.  1.
          2   -1    0    0  501    0  0.00000000000E+00 -0.00000000000E+00 -0.50256747576E+02  0.50256747576E+02  0.00000000000E+00 0. -1.
         23    2    1    2    0    0  0.00000000000E+00  0.00000000000E+00 -0.11416481059E+02  0.89097014092E+02  0.88362559267E+02 0.  0.
          2    1    3    3  502    0  0.11525570768E+02  0.30929369878E+02 -0.35321052166E+02  0.48342956350E+02  0.00000000000E+00 0. -1.
         -2    1    3    3    0  502 -0.11525570768E+02 -0.30929369878E+02  0.23904571107E+02  0.40754057741E+02  0.00000000000E+00 0.  1.
<mgrwt>
<rscale>  0 0.88362559E+02</rscale>
<asrwt>0</asrwt>
<pdfrwt beam="2">  1        2 0.77318073E-02 0.88362559E+02</pdfrwt>
<pdfrwt beam="1">  1       -2 0.59754256E-02 0.88362559E+02</pdfrwt>
<totfact> 0.11063834E+05</totfact>
</mgrwt>
</event>
<event>
 5    1  0.4023633E+001  0.9044585E+02  0.7546771E-02  0.1301776E+00
         -2   -1    0    0    0  501 -0.00000000000E+00  0.00000000000E+00  0.15464663246E+01  0.15464663246E+01  0.00000000000E+00 0.  1.
          2   -1    0    0  501    0  0.00000000000E+00 -0.00000000000E+00 -0.13224425727E+04  0.13224425727E+04  0.00000000000E+00 0. -1.
         23    2    1    2    0    0  0.00000000000E+00  0.00000000000E+00 -0.13208961064E+04  0.13239890390E+04  0.90445849102E+02 0.  0.
          2    1    3    3  502    0 -0.35813498380E+02  0.11918462050E+02 -0.10250772318E+04  0.10257718985E+04  0.00000000000E+00 0. -1.
         -2    1    3    3    0  502  0.35813498380E+02 -0.11918462050E+02 -0.29581887455E+03  0.29821714059E+03  0.00000000000E+00 0.  1.
<mgrwt>
<rscale>  0 0.90445849E+02</rscale>
<asrwt>0</asrwt>
<pdfrwt beam="2">  1        2 0.20345185E+00 0.90445849E+02</pdfrwt>
<pdfrwt beam="1">  1       -2 0.23791889E-03 0.90445849E+02</pdfrwt>
<totfact> 0.25008207E+05</totfact>
</mgrwt>
</event>
<event>
 5    1  0.4023633E+001  0.9110294E+02  0.7546771E-02  0.1300203E+00
         -1   -1    0    0    0  501 -0.00000000000E+00  0.00000000000E+00  0.18603787614E+02  0.18603787614E+02  0.00000000000E+00 0.  1.
          1   -1    0    0  501    0  0.00000000000E+00 -0.00000000000E+00 -0.11153299801E+03  0.11153299801E+03  0.00000000000E+00 0. -1.
         23    2    1    2    0    0  0.00000000000E+00  0.00000000000E+00 -0.92929210400E+02  0.13013678563E+03  0.91102935343E+02 0.  0.
          2    1    3    3  502    0 -0.33167905813E+02 -0.18856032411E+02 -0.82012175811E+02  0.90452511936E+02  0.00000000000E+00 0. -1.
         -2    1    3    3    0  502  0.33167905813E+02  0.18856032411E+02 -0.10917034589E+02  0.39684273693E+02  0.00000000000E+00 0.  1.
<mgrwt>
<rscale>  0 0.91102935E+02</rscale>
<asrwt>0</asrwt>
<pdfrwt beam="2">  1        1 0.17158923E-01 0.91102935E+02</pdfrwt>
<pdfrwt beam="1">  1       -1 0.28621212E-02 0.91102935E+02</pdfrwt>
<totfact> 0.10662509E+05</totfact>
</mgrwt>
</event>
<event>
 5    1  0.4023633E+001  0.9186584E+02  0.7546771E-02  0.1298395E+00
          4   -1    0    0  501    0  0.00000000000E+00  0.00000000000E+00  0.39866918251E+03  0.39866918251E+03  0.00000000000E+00 0. -1.
         -4   -1    0    0    0  501 -0.00000000000E+00 -0.00000000000E+00 -0.52921903299E+01  0.52921903299E+01  0.00000000000E+00 0.  1.
         23    2    1    2    0    0  0.00000000000E+00  0.00000000000E+00  0.39337699218E+03  0.40396137284E+03  0.91865841150E+02 0.  0.
          2    1    3    3  502    0  0.21013287621E+02  0.19375793993E+02  0.35479890015E+03  0.35594836591E+03  0.00000000000E+00 0. -1.
         -2    1    3    3    0  502 -0.21013287621E+02 -0.19375793993E+02  0.38578092036E+02  0.48013006932E+02  0.00000000000E+00 0.  1.
<mgrwt>
<rscale>  0 0.91865841E+02</rscale>
<asrwt>0</asrwt>
<pdfrwt beam="1">  1        4 0.61333697E-01 0.91865841E+02</pdfrwt>
<pdfrwt beam="2">  1       -4 0.81418344E-03 0.91865841E+02</pdfrwt>
<totfact> 0.14760364E+04</totfact>
</mgrwt>
</event>
<event>
 5    1  0.4023633E+001  0.9196532E+02  0.7546771E-02  0.1298161E+00
         -4   -1    0    0    0  501 -0.00000000000E+00  0.00000000000E+00  0.22502846516E+03  0.22502846516E+03  0.00000000000E+00 0.  1.
          4   -1    0    0  501    0  0.00000000000E+00 -0.00000000000E+00 -0.93961670890E+01  0.93961670890E+01  0.00000000000E+00 0. -1.
         23    2    1    2    0    0  0.00000000000E+00  0.00000000000E+00  0.21563229807E+03  0.23442463225E+03  0.91965320820E+02 0.  0.
          2    1    3    3  502    0  0.18880212820E+02 -0.41449764406E+02  0.12390947878E+03  0.13201554581E+03  0.00000000000E+00 0. -1.
         -2    1    3    3    0  502 -0.18880212820E+02  0.41449764406E+02  0.91722819291E+02  0.10240908643E+03  0.00000000000E+00 0.  1.
<mgrwt>
<rscale>  0 0.91965321E+02</rscale>
<asrwt>0</asrwt>
<pdfrwt beam="2">  1        4 0.14455643E-02 0.91965321E+02</pdfrwt>
<pdfrwt beam="1">  1       -4 0.34619760E-01 0.91965321E+02</pdfrwt>
<totfact> 0.19572994E+04</totfact>
</mgrwt>
</event>
<event>
 5    1  0.4023633E+001  0.8571576E+02  0.7546771E-02  0.1313571E+00
         -3   -1    0    0    0  501 -0.00000000000E+00  0.00000000000E+00  0.57065439910E+03  0.57065439910E+03  0.00000000000E+00 0.  1.
          3   -1    0    0  501    0  0.00000000000E+00 -0.00000000000E+00 -0.32187572923E+01  0.32187572923E+01  0.00000000000E+00 0. -1.
         23    2    1    2    0    0  0.00000000000E+00  0.00000000000E+00  0.56743564181E+03  0.57387315639E+03  0.85715763043E+02 0.  0.
          2    1    3    3  502    0  0.13198698605E+02  0.23579358030E+02  0.61001639328E+02  0.66718751267E+02  0.00000000000E+00 0. -1.
         -2    1    3    3    0  502 -0.13198698605E+02 -0.23579358030E+02  0.50643400248E+03  0.50715440513E+03  0.00000000000E+00 0.  1.
<mgrwt>
<rscale>  0 0.85715763E+02</rscale>
<asrwt>0</asrwt>
<pdfrwt beam="2">  1        3 0.49519388E-03 0.85715763E+02</pdfrwt>
<pdfrwt beam="1">  1       -3 0.87792904E-01 0.85715763E+02</pdfrwt>
<totfact> 0.19120693E+04</totfact>
</mgrwt>
</event>
<event>
 5    1  0.4023633E+001  0.9029595E+02  0.7546771E-02  0.1302137E+00
         -2   -1    0    0    0  501 -0.00000000000E+00  0.00000000000E+00  0.17278645618E+02  0.17278645618E+02  0.00000000000E+00 0.  1.
          2   -1    0    0  501    0  0.00000000000E+00 -0.00000000000E+00 -0.11796870677E+03  0.11796870677E+03  0.00000000000E+00 0. -1.
         23    2    1    2    0    0  0.00000000000E+00  0.00000000000E+00 -0.10069006116E+03  0.13524735239E+03  0.90295946275E+02 0.  0.
          2    1    3    3  502    0  0.13975742635E+02  0.38186279429E+02 -0.79727805734E+02  0.89498806282E+02  0.00000000000E+00 0. -1.
         -2    1    3    3    0  502 -0.13975742635E+02 -0.38186279429E+02 -0.20962255422E+02  0.45748546111E+02  0.00000000000E+00 0.  1.
<mgrwt>
<rscale>  0 0.90295946E+02</rscale>
<asrwt>0</asrwt>
<pdfrwt beam="2">  1        2 0.18149031E-01 0.90295946E+02</pdfrwt>
<pdfrwt beam="1">  1       -2 0.26582533E-02 0.90295946E+02</pdfrwt>
<totfact> 0.13262937E+05</totfact>
</mgrwt>
</event>
<event>
 5    1  0.4023633E+001  0.9113226E+02  0.7546771E-02  0.1300133E+00
          2   -1    0    0  501    0  0.00000000000E+00  0.00000000000E+00  0.79312342973E+01  0.79312342973E+01  0.00000000000E+00 0. -1.
         -2   -1    0    0    0  501 -0.00000000000E+00 -0.00000000000E+00 -0.26178425792E+03  0.26178425792E+03  0.00000000000E+00 0.  1.
         23    2    1    2    0    0  0.00000000000E+00  0.00000000000E+00 -0.25385302362E+03  0.26971549222E+03  0.91132261793E+02 0.  0.
          2    1    3    3  502    0  0.10348012388E+02  0.36419705538E+02 -0.51890400796E+02  0.64234648023E+02  0.00000000000E+00 0. -1.
         -2    1    3    3    0  502 -0.10348012388E+02 -0.36419705538E+02 -0.20196262283E+03  0.20548084419E+03  0.00000000000E+00 0.  1.
<mgrwt>
<rscale>  0 0.91132262E+02</rscale>
<asrwt>0</asrwt>
<pdfrwt beam="1">  1        2 0.12201899E-02 0.91132262E+02</pdfrwt>
<pdfrwt beam="2">  1       -2 0.40274501E-01 0.91132262E+02</pdfrwt>
<totfact> 0.54950086E+04</totfact>
</mgrwt>
</event>
<event>
 5    1  0.4023633E+001  0.8950458E+02  0.7546771E-02  0.1304056E+00
          2   -1    0    0  501    0  0.00000000000E+00  0.00000000000E+00  0.98480244671E+03  0.98480244671E+03  0.00000000000E+00 0. -1.
         -2   -1    0    0    0  501 -0.00000000000E+00 -0.00000000000E+00 -0.20336742499E+01  0.20336742499E+01  0.00000000000E+00 0.  1.
         23    2    1    2    0    0  0.00000000000E+00  0.00000000000E+00  0.98276877246E+03  0.98683612096E+03  0.89504578142E+02 0.  0.
          2    1    3    3  502    0 -0.32307770128E+02  0.95251186873E+01  0.16650545079E+03  0.16987814762E+03  0.00000000000E+00 0.  1.
         -2    1    3    3    0  502  0.32307770128E+02 -0.95251186873E+01  0.81626332167E+03  0.81695797334E+03  0.00000000000E+00 0. -1.
<mgrwt>
<rscale>  0 0.89504578E+02</rscale>
<asrwt>0</asrwt>
<pdfrwt beam="1">  1        2 0.15150769E+00 0.89504578E+02</pdfrwt>
<pdfrwt beam="2">  1       -2 0.31287375E-03 0.89504578E+02</pdfrwt>
<totfact> 0.26229344E+05</totfact>
</mgrwt>
</event>
<event>
 5    1  0.4023633E+001  0.9290133E+02  0.7546771E-02  0.1295974E+00
         -2   -1    0    0    0  501 -0.00000000000E+00  0.00000000000E+00  0.60661853524E+01  0.60661853524E+01  0.00000000000E+00 0.  1.
          2   -1    0    0  501    0  0.00000000000E+00 -0.00000000000E+00 -0.35568719257E+03  0.35568719257E+03  0.00000000000E+00 0. -1.
         23    2    1    2    0    0  0.00000000000E+00  0.00000000000E+00 -0.34962100722E+03  0.36175337792E+03  0.92901333415E+02 0.  0.
          2    1    3    3  502    0  0.20227739501E+02  0.89965208089E+01 -0.33382331354E+03  0.33455657742E+03  0.00000000000E+00 0. -1.
         -2    1    3    3    0  502 -0.20227739501E+02 -0.89965208089E+01 -0.15797693675E+02  0.27196800500E+02  0.00000000000E+00 0.  1.
<mgrwt>
<rscale>  0 0.92901333E+02</rscale>
<asrwt>0</asrwt>
<pdfrwt beam="2">  1        2 0.54721114E-01 0.92901333E+02</pdfrwt>
<pdfrwt beam="1">  1       -2 0.93325915E-03 0.92901333E+02</pdfrwt>
<totfact> 0.18200520E+05</totfact>
</mgrwt>
</event>
<event>
 5    1  0.4023633E+001  0.8626577E+02  0.7546771E-02  0.1312155E+00
         -1   -1    0    0    0  501 -0.00000000000E+00  0.00000000000E+00  0.82644269865E+02  0.82644269865E+02  0.00000000000E+00 0.  1.
          1   -1    0    0  501    0  0.00000000000E+00 -0.00000000000E+00 -0.22511492220E+02  0.22511492220E+02  0.00000000000E+00 0. -1.
         23    2    1    2    0    0  0.00000000000E+00  0.00000000000E+00  0.60132777645E+02  0.10515576208E+03  0.86265771615E+02 0.  0.
          2    1    3    3  502    0  0.79177645607E+01 -0.26293414021E+02 -0.10480062463E+02  0.29391602981E+02  0.00000000000E+00 0. -1.
         -2    1    3    3    0  502 -0.79177645607E+01  0.26293414021E+02  0.70612840108E+02  0.75764159104E+02  0.00000000000E+00 0.  1.
<mgrwt>
<rscale>  0 0.86265772E+02</rscale>
<asrwt>0</asrwt>
<pdfrwt beam="2">  1        1 0.34633065E-02 0.86265772E+02</pdfrwt>
<pdfrwt beam="1">  1       -1 0.12714503E-01 0.86265772E+02</pdfrwt>
<totfact> 0.96993983E+04</totfact>
</mgrwt>
</event>
<event>
 5    1  0.4023633E+001  0.9205127E+02  0.7546771E-02  0.1297959E+00
         -1   -1    0    0    0  501 -0.00000000000E+00  0.00000000000E+00  0.40473271766E+01  0.40473271766E+01  0.00000000000E+00 0.  1.
          1   -1    0    0  501    0  0.00000000000E+00 -0.00000000000E+00 -0.52339708108E+03  0.52339708108E+03  0.00000000000E+00 0. -1.
         23    2    1    2    0    0  0.00000000000E+00  0.00000000000E+00 -0.51934975390E+03  0.52744440826E+03  0.92051273330E+02 0.  0.
          2    1    3    3  502    0  0.33905453414E+02 -0.29815108616E+02 -0.20847678493E+03  0.21330984583E+03  0.00000000000E+00 0.  1.
         -2    1    3    3    0  502 -0.33905453414E+02  0.29815108616E+02 -0.31087296897E+03  0.31413456243E+03  0.00000000000E+00 0. -1.
<mgrwt>
<rscale>  0 0.92051273E+02</rscale>
<asrwt>0</asrwt>
<pdfrwt beam="2">  1        1 0.80522630E-01 0.92051273E+02</pdfrwt>
<pdfrwt beam="1">  1       -1 0.62266570E-03 0.92051273E+02</pdfrwt>
<totfact> 0.13648128E+05</totfact>
</mgrwt>
</event>
<event>
 5    1  0.4023633E+001  0.9123894E+02  0.7546771E-02  0.1299879E+00
          1   -1    0    0  501    0  0.00000000000E+00  0.00000000000E+00  0.55775814791E+03  0.55775814791E+03  0.00000000000E+00 0. -1.
         -1   -1    0    0    0  501 -0.00000000000E+00 -0.00000000000E+00 -0.37312517471E+01  0.37312517471E+01  0.00000000000E+00 0.  1.
         23    2    1    2    0    0  0.00000000000E+00  0.00000000000E+00  0.55402689617E+03  0.56148939966E+03  0.91238940455E+02 0.  0.
          2    1    3    3  502    0  0.23846929488E+02  0.38350414897E+02  0.31675629834E+03  0.31995934571E+03  0.00000000000E+00 0. -1.
         -2    1    3    3    0  502 -0.23846929488E+02 -0.38350414897E+02  0.23727059783E+03  0.24153005395E+03  0.00000000000E+00 0.  1.
<mgrwt>
<rscale>  0 0.91238940E+02</rscale>
<asrwt>0</asrwt>
<pdfrwt beam="1">  1        1 0.85808880E-01 0.91238940E+02</pdfrwt>
<pdfrwt beam="2">  1       -1 0.57403917E-03 0.91238940E+02</pdfrwt>
<totfact> 0.14058036E+05</totfact>
</mgrwt>
</event>
<event>
 5    1  0.4023633E+001  0.7878133E+02  0.7546771E-02  0.1332546E+00
          1   -1    0    0  501    0  0.00000000000E+00  0.00000000000E+00  0.11834572687E+04  0.11834572687E+04  0.00000000000E+00 0. -1.
         -1   -1    0    0    0  501 -0.00000000000E+00 -0.00000000000E+00 -0.13110945785E+01  0.13110945785E+01  0.00000000000E+00 0.  1.
         23    2    1    2    0    0  0.00000000000E+00  0.00000000000E+00  0.11821461741E+04  0.11847683633E+04  0.78781327962E+02 0.  0.
          2    1    3    3  502    0 -0.24447213437E+01 -0.20446629776E+02  0.86081170606E+02  0.88509938790E+02  0.00000000000E+00 0. -1.
         -2    1    3    3    0  502  0.24447213437E+01  0.20446629776E+02  0.10960650035E+04  0.10962584245E+04  0.00000000000E+00 0.  1.
<mgrwt>
<rscale>  0 0.78781328E+02</rscale>
<asrwt>0</asrwt>
<pdfrwt beam="1">  1        1 0.18206949E+00 0.78781328E+02</pdfrwt>
<pdfrwt beam="2">  1       -1 0.20170780E-03 0.78781328E+02</pdfrwt>
<totfact> 0.18804881E+05</totfact>
</mgrwt>
</event>
<event>
 5    1  0.4023633E+001  0.9089192E+02  0.7546771E-02  0.1300706E+00
         -2   -1    0    0    0  501 -0.00000000000E+00  0.00000000000E+00  0.23736632480E+01  0.23736632480E+01  0.00000000000E+00 0. -1.
          2   -1    0    0  501    0  0.00000000000E+00 -0.00000000000E+00 -0.87010452086E+03  0.87010452086E+03  0.00000000000E+00 0.  1.
         23    2    1    2    0    0  0.00000000000E+00  0.00000000000E+00 -0.86773085761E+03  0.87247818411E+03  0.90891916539E+02 0.  0.
          2    1    3    3  502    0 -0.14122578966E+02  0.42601792963E+02 -0.50239980364E+03  0.50440055779E+03  0.00000000000E+00 0.  1.
         -2    1    3    3    0  502  0.14122578966E+02 -0.42601792963E+02 -0.36533105397E+03  0.36807762632E+03  0.00000000000E+00 0. -1.
<mgrwt>
<rscale>  0 0.90891917E+02</rscale>
<asrwt>0</asrwt>
<pdfrwt beam="2">  1        2 0.13386237E+00 0.90891917E+02</pdfrwt>
<pdfrwt beam="1">  1       -2 0.36517858E-03 0.90891917E+02</pdfrwt>
<totfact> 0.24896367E+05</totfact>
</mgrwt>
</event>
<event>
 5    1  0.4023633E+001  0.9870165E+02  0.7546771E-02  0.1283050E+00
          1   -1    0    0  501    0  0.00000000000E+00  0.00000000000E+00  0.58055466959E+03  0.58055466959E+03  0.00000000000E+00 0. -1.
         -1   -1    0    0    0  501 -0.00000000000E+00 -0.00000000000E+00 -0.41951324918E+01  0.41951324918E+01  0.00000000000E+00 0.  1.
         23    2    1    2    0    0  0.00000000000E+00  0.00000000000E+00  0.57635953710E+03  0.58474980208E+03  0.98701646544E+02 0.  0.
          2    1    3    3  502    0 -0.15697989245E+02 -0.44833983929E+02  0.20891850130E+03  0.21425091171E+03  0.00000000000E+00 0. -1.
         -2    1    3    3    0  502  0.15697989245E+02  0.44833983929E+02  0.36744103580E+03  0.37049889037E+03  0.00000000000E+00 0.  1.
<mgrwt>
<rscale>  0 0.98701647E+02</rscale>
<asrwt>0</asrwt>
<pdfrwt beam="1">  1        1 0.89316039E-01 0.98701647E+02</pdfrwt>
<pdfrwt beam="2">  1       -1 0.64540546E-03 0.98701647E+02</pdfrwt>
<totfact> 0.11443012E+05</totfact>
</mgrwt>
</event>
<event>
 5    1  0.4023633E+001  0.9110799E+02  0.7546771E-02  0.1300191E+00
         -1   -1    0    0    0  501 -0.00000000000E+00  0.00000000000E+00  0.47690117696E+01  0.47690117696E+01  0.00000000000E+00 0.  1.
          1   -1    0    0  501    0  0.00000000000E+00 -0.00000000000E+00 -0.43513554460E+03  0.43513554460E+03  0.00000000000E+00 0. -1.
         23    2    1    2    0    0  0.00000000000E+00  0.00000000000E+00 -0.43036653283E+03  0.43990455637E+03  0.91107991605E+02 0.  0.
          2    1    3    3  502    0 -0.58059914903E+01 -0.45120662678E+02 -0.22659174850E+03  0.23111340123E+03  0.00000000000E+00 0.  1.
         -2    1    3    3    0  502  0.58059914903E+01  0.45120662678E+02 -0.20377478433E+03  0.20879115515E+03  0.00000000000E+00 0. -1.
<mgrwt>
<rscale>  0 0.91107992E+02</rscale>
<asrwt>0</asrwt>
<pdfrwt beam="2">  1        1 0.66943918E-01 0.91107992E+02</pdfrwt>
<pdfrwt beam="1">  1       -1 0.73369425E-03 0.91107992E+02</pdfrwt>
<totfact> 0.13695912E+05</totfact>
</mgrwt>
</event>
<event>
 5    1  0.4023633E+001  0.1003392E+03  0.7546771E-02  0.1279584E+00
          3   -1    0    0  501    0  0.00000000000E+00  0.00000000000E+00  0.43714620527E+02  0.43714620527E+02  0.00000000000E+00 0. -1.
         -3   -1    0    0    0  501 -0.00000000000E+00 -0.00000000000E+00 -0.57577745837E+02  0.57577745837E+02  0.00000000000E+00 0.  1.
         23    2    1    2    0    0  0.00000000000E+00  0.00000000000E+00 -0.13863125310E+02  0.10129236636E+03  0.10033921088E+03 0.  0.
          2    1    3    3  502    0  0.39492683951E+02  0.18250760081E+02  0.18290308572E+02  0.47194255126E+02  0.00000000000E+00 0. -1.
         -2    1    3    3    0  502 -0.39492683951E+02 -0.18250760081E+02 -0.32153433882E+02  0.54098111239E+02  0.00000000000E+00 0.  1.
<mgrwt>
<rscale>  0 0.10033921E+03</rscale>
<asrwt>0</asrwt>
<pdfrwt beam="1">  1        3 0.67253262E-02 0.10033921E+03</pdfrwt>
<pdfrwt beam="2">  1       -3 0.88581148E-02 0.10033921E+03</pdfrwt>
<totfact> 0.26597472E+04</totfact>
</mgrwt>
</event>
<event>
 5    1  0.4023633E+001  0.8867593E+02  0.7546771E-02  0.1306090E+00
          1   -1    0    0  501    0  0.00000000000E+00  0.00000000000E+00  0.13054690671E+01  0.13054690671E+01  0.00000000000E+00 0.  1.
         -1   -1    0    0    0  501 -0.00000000000E+00 -0.00000000000E+00 -0.15058609899E+04  0.15058609899E+04  0.00000000000E+00 0. -1.
         23    2    1    2    0    0  0.00000000000E+00  0.00000000000E+00 -0.15045555208E+04  0.15071664590E+04  0.88675925520E+02 0.  0.
          2    1    3    3  502    0 -0.29754787507E+02 -0.26347184319E+02 -0.10863471177E+04  0.10870738621E+04  0.00000000000E+00 0. -1.
         -2    1    3    3    0  502  0.29754787507E+02  0.26347184319E+02 -0.41820840311E+03  0.42009259686E+03  0.00000000000E+00 0.  1.
<mgrwt>
<rscale>  0 0.88675926E+02</rscale>
<asrwt>0</asrwt>
<pdfrwt beam="1">  1        1 0.20084081E-03 0.88675926E+02</pdfrwt>
<pdfrwt beam="2">  1       -1 0.23167160E+00 0.88675926E+02</pdfrwt>
<totfact> 0.14732779E+04</totfact>
</mgrwt>
</event>
<event>
 5    1  0.4023633E+001  0.8471519E+02  0.7546771E-02  0.1316179E+00
          4   -1    0    0  501    0  0.00000000000E+00  0.00000000000E+00  0.15966356649E+02  0.15966356649E+02  0.00000000000E+00 0. -1.
         -4   -1    0    0    0  501 -0.00000000000E+00 -0.00000000000E+00 -0.11237164182E+03  0.11237164182E+03  0.00000000000E+00 0.  1.
         23    2    1    2    0    0  0.00000000000E+00  0.00000000000E+00 -0.96405285167E+02  0.12833799846E+03  0.84715186607E+02 0.  0.
          2    1    3    3  502    0 -0.23523020392E+02 -0.35225224241E+02 -0.48398996328E+02  0.64316496770E+02  0.00000000000E+00 0. -1.
         -2    1    3    3    0  502  0.23523020392E+02  0.35225224241E+02 -0.48006288839E+02  0.64021501695E+02  0.00000000000E+00 0.  1.
<mgrwt>
<rscale>  0 0.84715187E+02</rscale>
<asrwt>0</asrwt>
<pdfrwt beam="1">  1        4 0.24563625E-02 0.84715187E+02</pdfrwt>
<pdfrwt beam="2">  1       -4 0.17287945E-01 0.84715187E+02</pdfrwt>
<totfact> 0.30210630E+04</totfact>
</mgrwt>
</event>
<event>
 5    1  0.4023633E+001  0.9097046E+02  0.7546771E-02  0.1300518E+00
         -1   -1    0    0    0  501 -0.00000000000E+00  0.00000000000E+00  0.73545619425E+03  0.73545619425E+03  0.00000000000E+00 0.  1.
          1   -1    0    0  501    0  0.00000000000E+00 -0.00000000000E+00 -0.28130924302E+01  0.28130924302E+01  0.00000000000E+00 0. -1.
         23    2    1    2    0    0  0.00000000000E+00  0.00000000000E+00  0.73264310182E+03  0.73826928668E+03  0.90970462300E+02 0.  0.
          2    1    3    3  502    0  0.65748586356E+01 -0.25646969168E+02  0.66168173346E+02  0.71268667432E+02  0.00000000000E+00 0. -1.
         -2    1    3    3    0  502 -0.65748586356E+01  0.25646969168E+02  0.66647492847E+03  0.66700061925E+03  0.00000000000E+00 0.  1.
<mgrwt>
<rscale>  0 0.90970462E+02</rscale>
<asrwt>0</asrwt>
<pdfrwt beam="2">  1        1 0.43278404E-03 0.90970462E+02</pdfrwt>
<pdfrwt beam="1">  1       -1 0.11314695E+00 0.90970462E+02</pdfrwt>
<totfact> 0.35509501E+04</totfact>
</mgrwt>
</event>
<event>
 5    1  0.4023633E+001  0.9118162E+02  0.7546771E-02  0.1300015E+00
         -1   -1    0    0    0  501 -0.00000000000E+00  0.00000000000E+00  0.21011901508E+02  0.21011901508E+02  0.00000000000E+00 0.  1.
          1   -1    0    0  501    0  0.00000000000E+00 -0.00000000000E+00 -0.98921171245E+02  0.98921171245E+02  0.00000000000E+00 0. -1.
         23    2    1    2    0    0  0.00000000000E+00  0.00000000000E+00 -0.77909269737E+02  0.11993307275E+03  0.91181618920E+02 0.  0.
          2    1    3    3  502    0  0.17686082770E+02  0.41661294124E+02 -0.46166258472E+02  0.64651251907E+02  0.00000000000E+00 0. -1.
         -2    1    3    3    0  502 -0.17686082770E+02 -0.41661294124E+02 -0.31743011265E+02  0.55281820846E+02  0.00000000000E+00 0.  1.
<mgrwt>
<rscale>  0 0.91181619E+02</rscale>
<asrwt>0</asrwt>
<pdfrwt beam="2">  1        1 0.15218642E-01 0.91181619E+02</pdfrwt>
<pdfrwt beam="1">  1       -1 0.32326003E-02 0.91181619E+02</pdfrwt>
<totfact> 0.10424886E+05</totfact>
</mgrwt>
</event>
<event>
 5    1  0.4023633E+001  0.9278381E+02  0.7546771E-02  0.1296247E+00
          2   -1    0    0  501    0  0.00000000000E+00  0.00000000000E+00  0.12708705789E+04  0.12708705789E+04  0.00000000000E+00 0. -1.
         -2   -1    0    0    0  501 -0.00000000000E+00 -0.00000000000E+00 -0.16934916103E+01  0.16934916103E+01  0.00000000000E+00 0.  1.
         23    2    1    2    0    0  0.00000000000E+00  0.00000000000E+00  0.12691770873E+04  0.12725640705E+04  0.92783805981E+02 0.  0.
          2    1    3    3  502    0 -0.38437813742E+02 -0.40740139251E+01  0.98644736859E+03  0.98720437302E+03  0.00000000000E+00 0. -1.
         -2    1    3    3    0  502  0.38437813742E+02  0.40740139251E+01  0.28272971868E+03  0.28535969746E+03  0.00000000000E+00 0.  1.
<mgrwt>
<rscale>  0 0.92783806E+02</rscale>
<asrwt>0</asrwt>
<pdfrwt beam="1">  1        2 0.19551779E+00 0.92783806E+02</pdfrwt>
<pdfrwt beam="2">  1       -2 0.26053819E-03 0.92783806E+02</pdfrwt>
<totfact> 0.23560782E+05</totfact>
</mgrwt>
</event>
<event>
 5    1  0.4023633E+001  0.9489629E+02  0.7546771E-02  0.1291410E+00
          4   -1    0    0  501    0  0.00000000000E+00  0.00000000000E+00  0.43399287891E+03  0.43399287891E+03  0.00000000000E+00 0. -1.
         -4   -1    0    0    0  501 -0.00000000000E+00 -0.00000000000E+00 -0.51874736382E+01  0.51874736382E+01  0.00000000000E+00 0.  1.
         23    2    1    2    0    0  0.00000000000E+00  0.00000000000E+00  0.42880540528E+03  0.43918035255E+03  0.94896293258E+02 0.  0.
          2    1    3    3  502    0  0.30954697705E+02 -0.35887058285E+02  0.22500916952E+03  0.22994608201E+03  0.00000000000E+00 0. -1.
         -2    1    3    3    0  502 -0.30954697705E+02  0.35887058285E+02  0.20379623575E+03  0.20923427054E+03  0.00000000000E+00 0.  1.
<mgrwt>
<rscale>  0 0.94896293E+02</rscale>
<asrwt>0</asrwt>
<pdfrwt beam="1">  1        4 0.66768107E-01 0.94896293E+02</pdfrwt>
<pdfrwt beam="2">  1       -4 0.79807321E-03 0.94896293E+02</pdfrwt>
<totfact> 0.12839906E+04</totfact>
</mgrwt>
</event>
<event>
 5    1  0.4023633E+001  0.8960732E+02  0.7546771E-02  0.1303805E+00
          2   -1    0    0  501    0  0.00000000000E+00  0.00000000000E+00  0.14463576252E+02  0.14463576252E+02  0.00000000000E+00 0.  1.
         -2   -1    0    0    0  501 -0.00000000000E+00 -0.00000000000E+00 -0.13878780894E+03  0.13878780894E+03  0.00000000000E+00 0. -1.
         23    2    1    2    0    0  0.00000000000E+00  0.00000000000E+00 -0.12432423269E+03  0.15325138519E+03  0.89607322411E+02 0.  0.
          2    1    3    3  502    0  0.18463056765E+02  0.40556191371E+02 -0.54199058549E+02  0.70165711507E+02  0.00000000000E+00 0. -1.
         -2    1    3    3    0  502 -0.18463056765E+02 -0.40556191371E+02 -0.70125174138E+02  0.83085673684E+02  0.00000000000E+00 0.  1.
<mgrwt>
<rscale>  0 0.89607322E+02</rscale>
<asrwt>0</asrwt>
<pdfrwt beam="1">  1        2 0.22251654E-02 0.89607322E+02</pdfrwt>
<pdfrwt beam="2">  1       -2 0.21351972E-01 0.89607322E+02</pdfrwt>
<totfact> 0.75033227E+04</totfact>
</mgrwt>
</event>
<event>
 5    1  0.4023633E+001  0.1067412E+03  0.7546771E-02  0.1266726E+00
         -1   -1    0    0    0  501 -0.00000000000E+00  0.00000000000E+00  0.18427614080E+02  0.18427614080E+02  0.00000000000E+00 0.  1.
          1   -1    0    0  501    0  0.00000000000E+00 -0.00000000000E+00 -0.15457352589E+03  0.15457352589E+03  0.00000000000E+00 0. -1.
         23    2    1    2    0    0  0.00000000000E+00  0.00000000000E+00 -0.13614591181E+03  0.17300113997E+03  0.10674120633E+03 0.  0.
          2    1    3    3  502    0  0.50093506184E+02 -0.13540609958E+02 -0.88297577888E+02  0.10241664777E+03  0.00000000000E+00 0. -1.
         -2    1    3    3    0  502 -0.50093506184E+02  0.13540609958E+02 -0.47848333925E+02  0.70584492201E+02  0.00000000000E+00 0.  1.
<mgrwt>
<rscale>  0 0.10674121E+03</rscale>
<asrwt>0</asrwt>
<pdfrwt beam="2">  1        1 0.23780542E-01 0.10674121E+03</pdfrwt>
<pdfrwt beam="1">  1       -1 0.28350176E-02 0.10674121E+03</pdfrwt>
<totfact> 0.73418531E+04</totfact>
</mgrwt>
</event>
<event>
 5    1  0.4023633E+001  0.9095032E+02  0.7546771E-02  0.1300567E+00
          1   -1    0    0  501    0  0.00000000000E+00  0.00000000000E+00  0.11149715047E+03  0.11149715047E+03  0.00000000000E+00 0. -1.
         -1   -1    0    0    0  501 -0.00000000000E+00 -0.00000000000E+00 -0.18547473069E+02  0.18547473069E+02  0.00000000000E+00 0.  1.
         23    2    1    2    0    0  0.00000000000E+00  0.00000000000E+00  0.92949677399E+02  0.13004462354E+03  0.90950324805E+02 0.  0.
          2    1    3    3  502    0  0.36962773971E+02 -0.23005183713E+02  0.65254567494E+02  0.78445163753E+02  0.00000000000E+00 0. -1.
         -2    1    3    3    0  502 -0.36962773971E+02  0.23005183713E+02  0.27695109905E+02  0.51599459784E+02  0.00000000000E+00 0.  1.
<mgrwt>
<rscale>  0 0.90950325E+02</rscale>
<asrwt>0</asrwt>
<pdfrwt beam="1">  1        1 0.17153407E-01 0.90950325E+02</pdfrwt>
<pdfrwt beam="2">  1       -1 0.28534575E-02 0.90950325E+02</pdfrwt>
<totfact> 0.10710596E+05</totfact>
</mgrwt>
</event>
<event>
 5    1  0.4023633E+001  0.9289302E+02  0.7546771E-02  0.1295993E+00
         -2   -1    0    0    0  501 -0.00000000000E+00  0.00000000000E+00  0.57627575718E+01  0.57627575718E+01  0.00000000000E+00 0.  1.
          2   -1    0    0  501    0  0.00000000000E+00 -0.00000000000E+00 -0.37434827675E+03  0.37434827675E+03  0.00000000000E+00 0. -1.
         23    2    1    2    0    0  0.00000000000E+00  0.00000000000E+00 -0.36858551918E+03  0.38011103433E+03  0.92893021618E+02 0.  0.
          2    1    3    3  502    0  0.23912329272E+02  0.37836954263E+02 -0.13353910260E+03  0.14084078430E+03  0.00000000000E+00 0. -1.
         -2    1    3    3    0  502 -0.23912329272E+02 -0.37836954263E+02 -0.23504641658E+03  0.23927025002E+03  0.00000000000E+00 0.  1.
<mgrwt>
<rscale>  0 0.92893022E+02</rscale>
<asrwt>0</asrwt>
<pdfrwt beam="2">  1        2 0.57592082E-01 0.92893022E+02</pdfrwt>
<pdfrwt beam="1">  1       -2 0.88657749E-03 0.92893022E+02</pdfrwt>
<totfact> 0.18547198E+05</totfact>
</mgrwt>
</event>
<event>
 5    1  0.4023633E+001  0.9212653E+02  0.7546771E-02  0.1297782E+00
         -1   -1    0    0    0  501 -0.00000000000E+00  0.00000000000E+00  0.19241991750E+01  0.19241991750E+01  0.00000000000E+00 0.  1.
          1   -1    0    0  501    0  0.00000000000E+00 -0.00000000000E+00 -0.11027051161E+04  0.11027051161E+04  0.00000000000E+00 0. -1.
         23    2    1    2    0    0  0.00000000000E+00  0.00000000000E+00 -0.11007809169E+04  0.11046293153E+04  0.92126527661E+02 0.  0.
          2    1    3    3  502    0 -0.14496766834E+02  0.25574480420E+02 -0.12517843151E+03  0.12858401927E+03  0.00000000000E+00 0.  1.
         -2    1    3    3    0  502  0.14496766834E+02 -0.25574480420E+02 -0.97560248542E+03  0.97604529601E+03  0.00000000000E+00 0. -1.
<mgrwt>
<rscale>  0 0.92126528E+02</rscale>
<asrwt>0</asrwt>
<pdfrwt beam="2">  1        1 0.16964676E+00 0.92126528E+02</pdfrwt>
<pdfrwt beam="1">  1       -1 0.29603096E-03 0.92126528E+02</pdfrwt>
<totfact> 0.12831695E+05</totfact>
</mgrwt>
</event>
<event>
 5    1  0.4023633E+001  0.8749522E+02  0.7546771E-02  0.1309033E+00
          4   -1    0    0  501    0  0.00000000000E+00  0.00000000000E+00  0.10589717887E+02  0.10589717887E+02  0.00000000000E+00 0.  1.
         -4   -1    0    0    0  501 -0.00000000000E+00 -0.00000000000E+00 -0.18072750914E+03  0.18072750914E+03  0.00000000000E+00 0. -1.
         23    2    1    2    0    0  0.00000000000E+00  0.00000000000E+00 -0.17013779126E+03  0.19131722703E+03  0.87495218984E+02 0.  0.
          2    1    3    3  502    0 -0.13805806748E+02 -0.41442095929E+02 -0.79800263866E+02  0.90973236328E+02  0.00000000000E+00 0. -1.
         -2    1    3    3    0  502  0.13805806748E+02  0.41442095929E+02 -0.90337527392E+02  0.10034399070E+03  0.00000000000E+00 0.  1.
<mgrwt>
<rscale>  0 0.87495219E+02</rscale>
<asrwt>0</asrwt>
<pdfrwt beam="1">  1        4 0.16291874E-02 0.87495219E+02</pdfrwt>
<pdfrwt beam="2">  1       -4 0.27804231E-01 0.87495219E+02</pdfrwt>
<totfact> 0.24282223E+04</totfact>
</mgrwt>
</event>
<event>
 5    1  0.4023633E+001  0.9157043E+02  0.7546771E-02  0.1299093E+00
         -3   -1    0    0    0  501 -0.00000000000E+00  0.00000000000E+00  0.19831506092E+02  0.19831506092E+02  0.00000000000E+00 0.  1.
          3   -1    0    0  501    0  0.00000000000E+00 -0.00000000000E+00 -0.10570483330E+03  0.10570483330E+03  0.00000000000E+00 0. -1.
         23    2    1    2    0    0  0.00000000000E+00  0.00000000000E+00 -0.85873327204E+02  0.12553633939E+03  0.91570432901E+02 0.  0.
          2    1    3    3  502    0  0.22040038158E+02 -0.28198216741E+02 -0.37899679853E+01  0.35989811984E+02  0.00000000000E+00 0.  1.
         -2    1    3    3    0  502 -0.22040038158E+02  0.28198216741E+02 -0.82083359219E+02  0.89546527403E+02  0.00000000000E+00 0. -1.
<mgrwt>
<rscale>  0 0.91570433E+02</rscale>
<asrwt>0</asrwt>
<pdfrwt beam="2">  1        3 0.16262282E-01 0.91570433E+02</pdfrwt>
<pdfrwt beam="1">  1       -3 0.30510010E-02 0.91570433E+02</pdfrwt>
<totfact> 0.32489027E+04</totfact>
</mgrwt>
</event>
<event>
 5    1  0.4023633E+001  0.9065999E+02  0.7546771E-02  0.1301261E+00
          2   -1    0    0  501    0  0.00000000000E+00  0.00000000000E+00  0.54340439883E+02  0.54340439883E+02  0.00000000000E+00 0. -1.
         -2   -1    0    0    0  501 -0.00000000000E+00 -0.00000000000E+00 -0.37813611064E+02  0.37813611064E+02  0.00000000000E+00 0.  1.
         23    2    1    2    0    0  0.00000000000E+00  0.00000000000E+00  0.16526828818E+02  0.92154050947E+02  0.90659985855E+02 0.  0.
          2    1    3    3  502    0  0.95469048386E+01 -0.17986152087E+02 -0.32902931184E+02  0.38694288202E+02  0.00000000000E+00 0.  1.
         -2    1    3    3    0  502 -0.95469048386E+01  0.17986152087E+02  0.49429760003E+02  0.53459762746E+02  0.00000000000E+00 0. -1.
<mgrwt>
<rscale>  0 0.90659986E+02</rscale>
<asrwt>0</asrwt>
<pdfrwt beam="1">  1        2 0.83600677E-02 0.90659986E+02</pdfrwt>
<pdfrwt beam="2">  1       -2 0.58174786E-02 0.90659986E+02</pdfrwt>
<totfact> 0.10498893E+05</totfact>
</mgrwt>
</event>
<event>
 5    1  0.4023633E+001  0.9076954E+02  0.7546771E-02  0.1300999E+00
         -1   -1    0    0    0  501 -0.00000000000E+00  0.00000000000E+00  0.52764739554E+03  0.52764739554E+03  0.00000000000E+00 0.  1.
          1   -1    0    0  501    0  0.00000000000E+00 -0.00000000000E+00 -0.39037000463E+01  0.39037000463E+01  0.00000000000E+00 0. -1.
         23    2    1    2    0    0  0.00000000000E+00  0.00000000000E+00  0.52374369549E+03  0.53155109558E+03  0.90769535911E+02 0.  0.
          2    1    3    3  502    0  0.11280989718E+02  0.18252494246E+02  0.49606727425E+03  0.49653112174E+03  0.00000000000E+00 0.  1.
         -2    1    3    3    0  502 -0.11280989718E+02 -0.18252494246E+02  0.27676421239E+02  0.35019973841E+02  0.00000000000E+00 0. -1.
<mgrwt>
<rscale>  0 0.90769536E+02</rscale>
<asrwt>0</asrwt>
<pdfrwt beam="2">  1        1 0.60056965E-03 0.90769536E+02</pdfrwt>
<pdfrwt beam="1">  1       -1 0.81176466E-01 0.90769536E+02</pdfrwt>
<totfact> 0.46005460E+04</totfact>
</mgrwt>
</event>
<event>
 5    1  0.4023633E+001  0.9103079E+02  0.7546771E-02  0.1300375E+00
          1   -1    0    0  501    0  0.00000000000E+00  0.00000000000E+00  0.76849783453E+01  0.76849783453E+01  0.00000000000E+00 0. -1.
         -1   -1    0    0    0  501 -0.00000000000E+00 -0.00000000000E+00 -0.26957149446E+03  0.26957149446E+03  0.00000000000E+00 0.  1.
         23    2    1    2    0    0  0.00000000000E+00  0.00000000000E+00 -0.26188651611E+03  0.27725647280E+03  0.91030788141E+02 0.  0.
          2    1    3    3  502    0 -0.63324405937E+01 -0.36351537533E+02 -0.49780209765E+02  0.61964533156E+02  0.00000000000E+00 0. -1.
         -2    1    3    3    0  502  0.63324405937E+01  0.36351537533E+02 -0.21210630635E+03  0.21529193965E+03  0.00000000000E+00 0.  1.
<mgrwt>
<rscale>  0 0.91030788E+02</rscale>
<asrwt>0</asrwt>
<pdfrwt beam="1">  1        1 0.11823044E-02 0.91030788E+02</pdfrwt>
<pdfrwt beam="2">  1       -1 0.41472536E-01 0.91030788E+02</pdfrwt>
<totfact> 0.63344173E+04</totfact>
</mgrwt>
</event>
<event>
 5    1  0.4023633E+001  0.9179399E+02  0.7546771E-02  0.1298565E+00
          1   -1    0    0  501    0  0.00000000000E+00  0.00000000000E+00  0.18014863541E+03  0.18014863541E+03  0.00000000000E+00 0. -1.
         -1   -1    0    0    0  501 -0.00000000000E+00 -0.00000000000E+00 -0.11693311542E+02  0.11693311542E+02  0.00000000000E+00 0.  1.
         23    2    1    2    0    0  0.00000000000E+00  0.00000000000E+00  0.16845532387E+03  0.19184194695E+03  0.91793989297E+02 0.  0.
          2    1    3    3  502    0  0.20341194101E+02  0.21019384994E+02  0.15814566763E+03  0.16082795439E+03  0.00000000000E+00 0. -1.
         -2    1    3    3    0  502 -0.20341194101E+02 -0.21019384994E+02  0.10309656238E+02  0.31013992563E+02  0.00000000000E+00 0.  1.
<mgrwt>
<rscale>  0 0.91793989E+02</rscale>
<asrwt>0</asrwt>
<pdfrwt beam="1">  1        1 0.27715173E-01 0.91793989E+02</pdfrwt>
<pdfrwt beam="2">  1       -1 0.17989711E-02 0.91793989E+02</pdfrwt>
<totfact> 0.11395741E+05</totfact>
</mgrwt>
</event>
<event>
 5    1  0.4023633E+001  0.9065002E+02  0.7546771E-02  0.1301285E+00
          1   -1    0    0  501    0  0.00000000000E+00  0.00000000000E+00  0.28533490351E+02  0.28533490351E+02  0.00000000000E+00 0. -1.
         -1   -1    0    0    0  501 -0.00000000000E+00 -0.00000000000E+00 -0.71998083785E+02  0.71998083785E+02  0.00000000000E+00 0.  1.
         23    2    1    2    0    0  0.00000000000E+00  0.00000000000E+00 -0.43464593434E+02  0.10053157414E+03  0.90650022150E+02 0.  0.
          2    1    3    3  502    0  0.34532570504E+02  0.15508263169E+02  0.59118640806E+01  0.38313898119E+02  0.00000000000E+00 0. -1.
         -2    1    3    3    0  502 -0.34532570504E+02 -0.15508263169E+02 -0.49376457515E+02  0.62217676017E+02  0.00000000000E+00 0.  1.
<mgrwt>
<rscale>  0 0.90650022E+02</rscale>
<asrwt>0</asrwt>
<pdfrwt beam="1">  1        1 0.43897677E-02 0.90650022E+02</pdfrwt>
<pdfrwt beam="2">  1       -1 0.11076628E-01 0.90650022E+02</pdfrwt>
<totfact> 0.87427103E+04</totfact>
</mgrwt>
</event>
<event>
 5    1  0.4023633E+001  0.8993649E+02  0.7546771E-02  0.1303006E+00
          2   -1    0    0  501    0  0.00000000000E+00  0.00000000000E+00  0.22524598422E+02  0.22524598422E+02  0.00000000000E+00 0.  1.
         -2   -1    0    0    0  501 -0.00000000000E+00 -0.00000000000E+00 -0.89774876982E+02  0.89774876982E+02  0.00000000000E+00 0. -1.
         23    2    1    2    0    0  0.00000000000E+00  0.00000000000E+00 -0.67250278561E+02  0.11229947540E+03  0.89936489866E+02 0.  0.
          2    1    3    3  502    0  0.40854637887E+02 -0.18161128004E+02 -0.39641398773E+02  0.59752560647E+02  0.00000000000E+00 0. -1.
         -2    1    3    3    0  502 -0.40854637887E+02  0.18161128004E+02 -0.27608879788E+02  0.52546914756E+02  0.00000000000E+00 0.  1.
<mgrwt>
<rscale>  0 0.89936490E+02</rscale>
<asrwt>0</asrwt>
<pdfrwt beam="1">  1        2 0.34653229E-02 0.89936490E+02</pdfrwt>
<pdfrwt beam="2">  1       -2 0.13811519E-01 0.89936490E+02</pdfrwt>
<totfact> 0.85200437E+04</totfact>
</mgrwt>
</event>
<event>
 5    1  0.4023633E+001  0.8932168E+02  0.7546771E-02  0.1304503E+00
          3   -1    0    0  501    0  0.00000000000E+00  0.00000000000E+00  0.82835050710E+02  0.82835050710E+02  0.00000000000E+00 0. -1.
         -3   -1    0    0    0  501 -0.00000000000E+00 -0.00000000000E+00 -0.24079064218E+02  0.24079064218E+02  0.00000000000E+00 0.  1.
         23    2    1    2    0    0  0.00000000000E+00  0.00000000000E+00  0.58755986492E+02  0.10691411493E+03  0.89321677225E+02 0.  0.
          2    1    3    3  502    0 -0.25202828963E+02 -0.31536813537E+02  0.52240708005E+02  0.66021547760E+02  0.00000000000E+00 0. -1.
         -2    1    3    3    0  502  0.25202828963E+02  0.31536813537E+02  0.65152784875E+01  0.40892567168E+02  0.00000000000E+00 0.  1.
<mgrwt>
<rscale>  0 0.89321677E+02</rscale>
<asrwt>0</asrwt>
<pdfrwt beam="1">  1        3 0.12743854E-01 0.89321677E+02</pdfrwt>
<pdfrwt beam="2">  1       -3 0.37044715E-02 0.89321677E+02</pdfrwt>
<totfact> 0.36124829E+04</totfact>
</mgrwt>
</event>
<event>
 5    1  0.4023633E+001  0.9016922E+02  0.7546771E-02  0.1302442E+00
         -2   -1    0    0    0  501 -0.00000000000E+00  0.00000000000E+00  0.59973024207E+01  0.59973024207E+01  0.00000000000E+00 0.  1.
          2   -1    0    0  501    0  0.00000000000E+00 -0.00000000000E+00 -0.33892268587E+03  0.33892268587E+03  0.00000000000E+00 0. -1.
         23    2    1    2    0    0  0.00000000000E+00  0.00000000000E+00 -0.33292538345E+03  0.34491998829E+03  0.90169215243E+02 0.  0.
          2    1    3    3  502    0 -0.22682833671E+02 -0.10872134303E+02 -0.30958579948E+03  0.31060599075E+03  0.00000000000E+00 0. -1.
         -2    1    3    3    0  502  0.22682833671E+02  0.10872134303E+02 -0.23339583968E+02  0.34313997544E+02  0.00000000000E+00 0.  1.
<mgrwt>
<rscale>  0 0.90169215E+02</rscale>
<asrwt>0</asrwt>
<pdfrwt beam="2">  1        2 0.52141953E-01 0.90169215E+02</pdfrwt>
<pdfrwt beam="1">  1       -2 0.92266188E-03 0.90169215E+02</pdfrwt>
<totfact> 0.19360316E+05</totfact>
</mgrwt>
</event>
<event>
 5    1  0.4023633E+001  0.9405202E+02  0.7546771E-02  0.1293326E+00
          1   -1    0    0  501    0  0.00000000000E+00  0.00000000000E+00  0.10915616713E+04  0.10915616713E+04  0.00000000000E+00 0. -1.
         -1   -1    0    0    0  501 -0.00000000000E+00 -0.00000000000E+00 -0.20259466166E+01  0.20259466166E+01  0.00000000000E+00 0.  1.
         23    2    1    2    0    0  0.00000000000E+00  0.00000000000E+00  0.10895357247E+04  0.10935876179E+04  0.94052021238E+02 0.  0.
          2    1    3    3  502    0  0.26826784939E+02 -0.37203279369E+02  0.66542795085E+03  0.66700683517E+03  0.00000000000E+00 0. -1.
         -2    1    3    3    0  502 -0.26826784939E+02  0.37203279369E+02  0.42410777382E+03  0.42658078274E+03  0.00000000000E+00 0.  1.
<mgrwt>
<rscale>  0 0.94052021E+02</rscale>
<asrwt>0</asrwt>
<pdfrwt beam="1">  1        1 0.16793210E+00 0.94052021E+02</pdfrwt>
<pdfrwt beam="2">  1       -1 0.31168497E-03 0.94052021E+02</pdfrwt>
<totfact> 0.12192389E+05</totfact>
</mgrwt>
</event>
<event>
 5    1  0.4023633E+001  0.9161424E+02  0.7546771E-02  0.1298989E+00
         -4   -1    0    0    0  501 -0.00000000000E+00  0.00000000000E+00  0.34088327449E+02  0.34088327449E+02  0.00000000000E+00 0.  1.
          4   -1    0    0  501    0  0.00000000000E+00 -0.00000000000E+00 -0.61554565200E+02  0.61554565200E+02  0.00000000000E+00 0. -1.
         23    2    1    2    0    0  0.00000000000E+00  0.00000000000E+00 -0.27466237751E+02  0.95642892649E+02  0.91614238512E+02 0.  0.
          2    1    3    3  502    0  0.95937672453E+01 -0.44296793309E+02 -0.20661671273E+02  0.49811152639E+02  0.00000000000E+00 0. -1.
         -2    1    3    3    0  502 -0.95937672453E+01  0.44296793309E+02 -0.68045664780E+01  0.45831740010E+02  0.00000000000E+00 0.  1.
<mgrwt>
<rscale>  0 0.91614239E+02</rscale>
<asrwt>0</asrwt>
<pdfrwt beam="2">  1        4 0.94699330E-02 0.91614239E+02</pdfrwt>
<pdfrwt beam="1">  1       -4 0.52443581E-02 0.91614239E+02</pdfrwt>
<totfact> 0.26385505E+04</totfact>
</mgrwt>
</event>
<event>
 5    1  0.4023633E+001  0.9519255E+02  0.7546771E-02  0.1290743E+00
         -1   -1    0    0    0  501 -0.00000000000E+00  0.00000000000E+00  0.30454080131E+01  0.30454080131E+01  0.00000000000E+00 0.  1.
          1   -1    0    0  501    0  0.00000000000E+00 -0.00000000000E+00 -0.74387577249E+03  0.74387577249E+03  0.00000000000E+00 0. -1.
         23    2    1    2    0    0  0.00000000000E+00  0.00000000000E+00 -0.74083036448E+03  0.74692118050E+03  0.95192546731E+02 0.  0.
          2    1    3    3  502    0 -0.42553961314E+02  0.16222286426E+02 -0.47896928504E+03  0.48112948175E+03  0.00000000000E+00 0. -1.
         -2    1    3    3    0  502  0.42553961314E+02 -0.16222286426E+02 -0.26186107944E+03  0.26579169875E+03  0.00000000000E+00 0.  1.
<mgrwt>
<rscale>  0 0.95192547E+02</rscale>
<asrwt>0</asrwt>
<pdfrwt beam="2">  1        1 0.11444247E+00 0.95192547E+02</pdfrwt>
<pdfrwt beam="1">  1       -1 0.46852413E-03 0.95192547E+02</pdfrwt>
<totfact> 0.12663540E+05</totfact>
</mgrwt>
</event>
<event>
 5    1  0.4023633E+001  0.9127798E+02  0.7546771E-02  0.1299786E+00
         -2   -1    0    0    0  501 -0.00000000000E+00  0.00000000000E+00  0.33661614836E+01  0.33661614836E+01  0.00000000000E+00 0. -1.
          2   -1    0    0  501    0  0.00000000000E+00 -0.00000000000E+00 -0.61878117656E+03  0.61878117656E+03  0.00000000000E+00 0.  1.
         23    2    1    2    0    0  0.00000000000E+00  0.00000000000E+00 -0.61541501507E+03  0.62214733804E+03  0.91277979016E+02 0.  0.
          2    1    3    3  502    0  0.25253047103E+02  0.29215566899E+02 -0.14191677033E+03  0.14707697114E+03  0.00000000000E+00 0. -1.
         -2    1    3    3    0  502 -0.25253047103E+02 -0.29215566899E+02 -0.47349824474E+03  0.47507036690E+03  0.00000000000E+00 0.  1.
<mgrwt>
<rscale>  0 0.91277979E+02</rscale>
<asrwt>0</asrwt>
<pdfrwt beam="2">  1        2 0.95197033E-01 0.91277979E+02</pdfrwt>
<pdfrwt beam="1">  1       -2 0.51787139E-03 0.91277979E+02</pdfrwt>
<totfact> 0.22914514E+05</totfact>
</mgrwt>
</event>
<event>
 5    1  0.4023633E+001  0.1074011E+03  0.7546771E-02  0.1265460E+00
          2   -1    0    0  501    0  0.00000000000E+00  0.00000000000E+00  0.10529378955E+03  0.10529378955E+03  0.00000000000E+00 0. -1.
         -2   -1    0    0    0  501 -0.00000000000E+00 -0.00000000000E+00 -0.27387671036E+02  0.27387671036E+02  0.00000000000E+00 0.  1.
         23    2    1    2    0    0  0.00000000000E+00  0.00000000000E+00  0.77906118518E+02  0.13268146059E+03  0.10740114842E+03 0.  0.
          2    1    3    3  502    0  0.45765227605E+01  0.53261892250E+02  0.45249624466E+02  0.70037862909E+02  0.00000000000E+00 0. -1.
         -2    1    3    3    0  502 -0.45765227605E+01 -0.53261892250E+02  0.32656494053E+02  0.62643597681E+02  0.00000000000E+00 0.  1.
<mgrwt>
<rscale>  0 0.10740115E+03</rscale>
<asrwt>0</asrwt>
<pdfrwt beam="1">  1        2 0.16199044E-01 0.10740115E+03</pdfrwt>
<pdfrwt beam="2">  1       -2 0.42134879E-02 0.10740115E+03</pdfrwt>
<totfact> 0.79019424E+04</totfact>
</mgrwt>
</event>
<event>
 5    1  0.4023633E+001  0.9617365E+02  0.7546771E-02  0.1288554E+00
          1   -1    0    0  501    0  0.00000000000E+00  0.00000000000E+00  0.23126139871E+04  0.23126139871E+04  0.00000000000E+00 0. -1.
         -1   -1    0    0    0  501 -0.00000000000E+00 -0.00000000000E+00 -0.99988269168E+00  0.99988269168E+00  0.00000000000E+00 0.  1.
         23    2    1    2    0    0  0.00000000000E+00  0.00000000000E+00  0.23116141044E+04  0.23136138698E+04  0.96173649161E+02 0.  0.
          2    1    3    3  502    0  0.11358683456E+02 -0.39859602108E+02  0.56923205909E+03  0.57073894616E+03  0.00000000000E+00 0.  1.
         -2    1    3    3    0  502 -0.11358683456E+02  0.39859602108E+02  0.17423820453E+04  0.17428749237E+04  0.00000000000E+00 0. -1.
<mgrwt>
<rscale>  0 0.96173649E+02</rscale>
<asrwt>0</asrwt>
<pdfrwt beam="1">  1        1 0.35578249E+00 0.96173649E+02</pdfrwt>
<pdfrwt beam="2">  1       -1 0.15382996E-03 0.96173649E+02</pdfrwt>
<totfact> 0.53692088E+04</totfact>
</mgrwt>
</event>
<event>
 5    1  0.4023633E+001  0.9268851E+02  0.7546771E-02  0.1296469E+00
          2   -1    0    0  501    0  0.00000000000E+00  0.00000000000E+00  0.23377049350E+03  0.23377049350E+03  0.00000000000E+00 0. -1.
         -2   -1    0    0    0  501 -0.00000000000E+00 -0.00000000000E+00 -0.91875999576E+01  0.91875999576E+01  0.00000000000E+00 0.  1.
         23    2    1    2    0    0  0.00000000000E+00  0.00000000000E+00  0.22458289355E+03  0.24295809346E+03  0.92688505786E+02 0.  0.
          2    1    3    3  502    0 -0.32663001559E+02  0.21595592371E+02  0.17727202473E+03  0.18154506888E+03  0.00000000000E+00 0. -1.
         -2    1    3    3    0  502  0.32663001559E+02 -0.21595592371E+02  0.47310868812E+02  0.61413024583E+02  0.00000000000E+00 0.  1.
<mgrwt>
<rscale>  0 0.92688506E+02</rscale>
<asrwt>0</asrwt>
<pdfrwt beam="1">  1        2 0.35964687E-01 0.92688506E+02</pdfrwt>
<pdfrwt beam="2">  1       -2 0.14134771E-02 0.92688506E+02</pdfrwt>
<totfact> 0.15667465E+05</totfact>
</mgrwt>
</event>
<event>
 5    1  0.4023633E+001  0.9011306E+02  0.7546771E-02  0.1302578E+00
          1   -1    0    0  501    0  0.00000000000E+00  0.00000000000E+00  0.30194784708E+03  0.30194784708E+03  0.00000000000E+00 0. -1.
         -1   -1    0    0    0  501 -0.00000000000E+00 -0.00000000000E+00 -0.67233163326E+01  0.67233163326E+01  0.00000000000E+00 0.  1.
         23    2    1    2    0    0  0.00000000000E+00  0.00000000000E+00  0.29522453075E+03  0.30867116341E+03  0.90113059916E+02 0.  0.
          2    1    3    3  502    0  0.10528404073E+02  0.21925532781E+02  0.27752910898E+03  0.27859286174E+03  0.00000000000E+00 0. -1.
         -2    1    3    3    0  502 -0.10528404073E+02 -0.21925532781E+02  0.17695421766E+02  0.30078301673E+02  0.00000000000E+00 0.  1.
<mgrwt>
<rscale>  0 0.90113060E+02</rscale>
<asrwt>0</asrwt>
<pdfrwt beam="1">  1        1 0.46453504E-01 0.90113060E+02</pdfrwt>
<pdfrwt beam="2">  1       -1 0.10343566E-02 0.90113060E+02</pdfrwt>
<totfact> 0.13234987E+05</totfact>
</mgrwt>
</event>
<event>
 5    1  0.4023633E+001  0.9403591E+02  0.7546771E-02  0.1293362E+00
          3   -1    0    0  501    0  0.00000000000E+00  0.00000000000E+00  0.87083022354E+02  0.87083022354E+02  0.00000000000E+00 0. -1.
         -3   -1    0    0    0  501 -0.00000000000E+00 -0.00000000000E+00 -0.25385981912E+02  0.25385981912E+02  0.00000000000E+00 0.  1.
         23    2    1    2    0    0  0.00000000000E+00  0.00000000000E+00  0.61697040442E+02  0.11246900427E+03  0.94035908680E+02 0.  0.
          2    1    3    3  502    0  0.15574997075E+02  0.36999236013E+02  0.60124537278E+02  0.72294425666E+02  0.00000000000E+00 0. -1.
         -2    1    3    3    0  502 -0.15574997075E+02 -0.36999236013E+02  0.15725031633E+01  0.40174578600E+02  0.00000000000E+00 0.  1.
<mgrwt>
<rscale>  0 0.94035909E+02</rscale>
<asrwt>0</asrwt>
<pdfrwt beam="1">  1        3 0.13397388E-01 0.94035909E+02</pdfrwt>
<pdfrwt beam="2">  1       -3 0.39055357E-02 0.94035909E+02</pdfrwt>
<totfact> 0.31042949E+04</totfact>
</mgrwt>
</event>
<event>
 5    1  0.4023633E+001  0.9041038E+02  0.7546771E-02  0.1301861E+00
          2   -1    0    0  501    0  0.00000000000E+00  0.00000000000E+00  0.55087064680E+03  0.55087064680E+03  0.00000000000E+00 0. -1.
         -2   -1    0    0    0  501 -0.00000000000E+00 -0.00000000000E+00 -0.37095986660E+01  0.37095986660E+01  0.00000000000E+00 0.  1.
         23    2    1    2    0    0  0.00000000000E+00  0.00000000000E+00  0.54716104813E+03  0.55458024546E+03  0.90410375875E+02 0.  0.
          2    1    3    3  502    0  0.36600018269E+02 -0.69929258599E+01  0.11658681809E+03  0.12239668501E+03  0.00000000000E+00 0.  1.
         -2    1    3    3    0  502 -0.36600018269E+02  0.69929258599E+01  0.43057423004E+03  0.43218356045E+03  0.00000000000E+00 0. -1.
<mgrwt>
<rscale>  0 0.90410376E+02</rscale>
<asrwt>0</asrwt>
<pdfrwt beam="1">  1        2 0.84749265E-01 0.90410376E+02</pdfrwt>
<pdfrwt beam="2">  1       -2 0.57070792E-03 0.90410376E+02</pdfrwt>
<totfact> 0.22719350E+05</totfact>
</mgrwt>
</event>
<event>
 5    1  0.4023633E+001  0.9066257E+02  0.7546771E-02  0.1301255E+00
          2   -1    0    0  501    0  0.00000000000E+00  0.00000000000E+00  0.58090716610E+03  0.58090716610E+03  0.00000000000E+00 0. -1.
         -2   -1    0    0    0  501 -0.00000000000E+00 -0.00000000000E+00 -0.35374419050E+01  0.35374419050E+01  0.00000000000E+00 0.  1.
         23    2    1    2    0    0  0.00000000000E+00  0.00000000000E+00  0.57736972419E+03  0.58444460800E+03  0.90662568953E+02 0.  0.
          2    1    3    3  502    0 -0.15344997268E+02  0.13394329596E+02  0.54974686204E+03  0.55012406721E+03  0.00000000000E+00 0. -1.
         -2    1    3    3    0  502  0.15344997268E+02 -0.13394329596E+02  0.27622862155E+02  0.34320540790E+02  0.00000000000E+00 0.  1.
<mgrwt>
<rscale>  0 0.90662569E+02</rscale>
<asrwt>0</asrwt>
<pdfrwt beam="1">  1        2 0.89370257E-01 0.90662569E+02</pdfrwt>
<pdfrwt beam="2">  1       -2 0.54422229E-03 0.90662569E+02</pdfrwt>
<totfact> 0.22913580E+05</totfact>
</mgrwt>
</event>
<event>
 5    1  0.4023633E+001  0.9134223E+02  0.7546771E-02  0.1299633E+00
          3   -1    0    0  501    0  0.00000000000E+00  0.00000000000E+00  0.99531016014E+02  0.99531016014E+02  0.00000000000E+00 0. -1.
         -3   -1    0    0    0  501 -0.00000000000E+00 -0.00000000000E+00 -0.20956791835E+02  0.20956791835E+02  0.00000000000E+00 0.  1.
         23    2    1    2    0    0  0.00000000000E+00  0.00000000000E+00  0.78574224179E+02  0.12048780785E+03  0.91342230841E+02 0.  0.
          2    1    3    3  502    0 -0.32939624362E+02 -0.13172857702E+02  0.13464386477E+01  0.35501491943E+02  0.00000000000E+00 0.  1.
         -2    1    3    3    0  502  0.32939624362E+02  0.13172857702E+02  0.77227785532E+02  0.84986315906E+02  0.00000000000E+00 0. -1.
<mgrwt>
<rscale>  0 0.91342231E+02</rscale>
<asrwt>0</asrwt>
<pdfrwt beam="1">  1        3 0.15312464E-01 0.91342231E+02</pdfrwt>
<pdfrwt beam="2">  1       -3 0.32241219E-02 0.91342231E+02</pdfrwt>
<totfact> 0.33049589E+04</totfact>
</mgrwt>
</event>
<event>
 5    1  0.4023633E+001  0.8851246E+02  0.7546771E-02  0.1306495E+00
          2   -1    0    0  501    0  0.00000000000E+00  0.00000000000E+00  0.97065157974E+01  0.97065157974E+01  0.00000000000E+00 0. -1.
         -2   -1    0    0    0  501 -0.00000000000E+00 -0.00000000000E+00 -0.20178339325E+03  0.20178339325E+03  0.00000000000E+00 0.  1.
         23    2    1    2    0    0  0.00000000000E+00  0.00000000000E+00 -0.19207687745E+03  0.21148990905E+03  0.88512455491E+02 0.  0.
          2    1    3    3  502    0 -0.21106590283E+02  0.37601359592E+02 -0.11984406498E+03  0.12736542038E+03  0.00000000000E+00 0.  1.
         -2    1    3    3    0  502  0.21106590283E+02 -0.37601359592E+02 -0.72232812473E+02  0.84124488672E+02  0.00000000000E+00 0. -1.
<mgrwt>
<rscale>  0 0.88512455E+02</rscale>
<asrwt>0</asrwt>
<pdfrwt beam="1">  1        2 0.14933102E-02 0.88512455E+02</pdfrwt>
<pdfrwt beam="2">  1       -2 0.31043598E-01 0.88512455E+02</pdfrwt>
<totfact> 0.66958780E+04</totfact>
</mgrwt>
</event>
<event>
 5    1  0.4023633E+001  0.9004355E+02  0.7546771E-02  0.1302746E+00
          1   -1    0    0  501    0  0.00000000000E+00  0.00000000000E+00  0.57352293095E+03  0.57352293095E+03  0.00000000000E+00 0. -1.
         -1   -1    0    0    0  501 -0.00000000000E+00 -0.00000000000E+00 -0.35342269552E+01  0.35342269552E+01  0.00000000000E+00 0.  1.
         23    2    1    2    0    0  0.00000000000E+00  0.00000000000E+00  0.56998870400E+03  0.57705715791E+03  0.90043549508E+02 0.  0.
          2    1    3    3  502    0 -0.18987271521E+02 -0.67779601459E+01  0.54297738409E+03  0.54335154077E+03  0.00000000000E+00 0. -1.
         -2    1    3    3    0  502  0.18987271521E+02  0.67779601459E+01  0.27011319910E+02  0.33705617141E+02  0.00000000000E+00 0.  1.
<mgrwt>
<rscale>  0 0.90043550E+02</rscale>
<asrwt>0</asrwt>
<pdfrwt beam="1">  1        1 0.88234223E-01 0.90043550E+02</pdfrwt>
<pdfrwt beam="2">  1       -1 0.54372768E-03 0.90043550E+02</pdfrwt>
<totfact> 0.14590075E+05</totfact>
</mgrwt>
</event>
<event>
 5    1  0.4023633E+001  0.9127498E+02  0.7546771E-02  0.1299793E+00
         -1   -1    0    0    0  501 -0.00000000000E+00  0.00000000000E+00  0.14274166870E+02  0.14274166870E+02  0.00000000000E+00 0. -1.
          1   -1    0    0  501    0  0.00000000000E+00 -0.00000000000E+00 -0.14591256942E+03  0.14591256942E+03  0.00000000000E+00 0.  1.
         23    2    1    2    0    0  0.00000000000E+00  0.00000000000E+00 -0.13163840255E+03  0.16018673629E+03  0.91274977169E+02 0.  0.
          2    1    3    3  502    0 -0.35301362016E+02 -0.21372313140E+02 -0.10002209414E+03  0.10820065270E+03  0.00000000000E+00 0. -1.
         -2    1    3    3    0  502  0.35301362016E+02  0.21372313140E+02 -0.31616308406E+02  0.51986083584E+02  0.00000000000E+00 0.  1.
<mgrwt>
<rscale>  0 0.91274977E+02</rscale>
<asrwt>0</asrwt>
<pdfrwt beam="2">  1        1 0.22448088E-01 0.91274977E+02</pdfrwt>
<pdfrwt beam="1">  1       -1 0.21960257E-02 0.91274977E+02</pdfrwt>
<totfact> 0.11124247E+05</totfact>
</mgrwt>
</event>
<event>
 5    1  0.4023633E+001  0.9158221E+02  0.7546771E-02  0.1299065E+00
         -2   -1    0    0    0  501 -0.00000000000E+00  0.00000000000E+00  0.43406403647E+01  0.43406403647E+01  0.00000000000E+00 0.  1.
          2   -1    0    0  501    0  0.00000000000E+00 -0.00000000000E+00 -0.48306820712E+03  0.48306820712E+03  0.00000000000E+00 0. -1.
         23    2    1    2    0    0  0.00000000000E+00  0.00000000000E+00 -0.47872756676E+03  0.48740884749E+03  0.91582211346E+02 0.  0.
          2    1    3    3  502    0 -0.14905324379E+02  0.38127512358E+02 -0.34855740326E+03  0.35095318671E+03  0.00000000000E+00 0. -1.
         -2    1    3    3    0  502  0.14905324379E+02 -0.38127512358E+02 -0.13017016349E+03  0.13645566077E+03  0.00000000000E+00 0.  1.
<mgrwt>
<rscale>  0 0.91582211E+02</rscale>
<asrwt>0</asrwt>
<pdfrwt beam="2">  1        2 0.74318108E-01 0.91582211E+02</pdfrwt>
<pdfrwt beam="1">  1       -2 0.66779152E-03 0.91582211E+02</pdfrwt>
<totfact> 0.21058449E+05</totfact>
</mgrwt>
</event>
<event>
 5    1  0.4023633E+001  0.9205903E+02  0.7546771E-02  0.1297941E+00
         -1   -1    0    0    0  501 -0.00000000000E+00  0.00000000000E+00  0.32848314520E+02  0.32848314520E+02  0.00000000000E+00 0.  1.
          1   -1    0    0  501    0  0.00000000000E+00 -0.00000000000E+00 -0.64499997792E+02  0.64499997792E+02  0.00000000000E+00 0. -1.
         23    2    1    2    0    0  0.00000000000E+00  0.00000000000E+00 -0.31651683271E+02  0.97348312312E+02  0.92059029194E+02 0.  0.
          2    1    3    3  502    0 -0.41753101218E+02 -0.58944197825E+00  0.46529847372E+01  0.42015701472E+02  0.00000000000E+00 0.  1.
         -2    1    3    3    0  502  0.41753101218E+02  0.58944197825E+00 -0.36304668008E+02  0.55332610840E+02  0.00000000000E+00 0. -1.
<mgrwt>
<rscale>  0 0.92059029E+02</rscale>
<asrwt>0</asrwt>
<pdfrwt beam="2">  1        1 0.99230766E-02 0.92059029E+02</pdfrwt>
<pdfrwt beam="1">  1       -1 0.50535868E-02 0.92059029E+02</pdfrwt>
<totfact> 0.94870729E+04</totfact>
</mgrwt>
</event>
<event>
 5    1  0.4023633E+001  0.8891882E+02  0.7546771E-02  0.1305491E+00
          2   -1    0    0  501    0  0.00000000000E+00  0.00000000000E+00  0.35843283166E+03  0.35843283166E+03  0.00000000000E+00 0. -1.
         -2   -1    0    0    0  501 -0.00000000000E+00 -0.00000000000E+00 -0.55146710256E+01  0.55146710256E+01  0.00000000000E+00 0.  1.
         23    2    1    2    0    0  0.00000000000E+00  0.00000000000E+00  0.35291816063E+03  0.36394750268E+03  0.88918820311E+02 0.  0.
          2    1    3    3  502    0 -0.42628815444E+02  0.39805027075E+01  0.22550357640E+03  0.22953196570E+03  0.00000000000E+00 0. -1.
         -2    1    3    3    0  502  0.42628815444E+02 -0.39805027075E+01  0.12741458423E+03  0.13441553699E+03  0.00000000000E+00 0.  1.
<mgrwt>
<rscale>  0 0.88918820E+02</rscale>
<asrwt>0</asrwt>
<pdfrwt beam="1">  1        2 0.55143494E-01 0.88918820E+02</pdfrwt>
<pdfrwt beam="2">  1       -2 0.84841121E-03 0.88918820E+02</pdfrwt>
<totfact> 0.20506448E+05</totfact>
</mgrwt>
</event>
<event>
 5    1  0.4023633E+001  0.8070096E+02  0.7546771E-02  0.1327074E+00
          2   -1    0    0  501    0  0.00000000000E+00  0.00000000000E+00  0.20521858133E+04  0.20521858133E+04  0.00000000000E+00 0. -1.
         -2   -1    0    0    0  501 -0.00000000000E+00 -0.00000000000E+00 -0.79337906518E+00  0.79337906518E+00  0.00000000000E+00 0.  1.
         23    2    1    2    0    0  0.00000000000E+00  0.00000000000E+00  0.20513924342E+04  0.20529791923E+04  0.80700960641E+02 0.  0.
          2    1    3    3  502    0 -0.18703202703E+02  0.35750819367E+02  0.10379067118E+04  0.10386906533E+04  0.00000000000E+00 0. -1.
         -2    1    3    3    0  502  0.18703202703E+02 -0.35750819367E+02  0.10134857224E+04  0.10142885390E+04  0.00000000000E+00 0.  1.
<mgrwt>
<rscale>  0 0.80700961E+02</rscale>
<asrwt>0</asrwt>
<pdfrwt beam="1">  1        2 0.31571665E+00 0.80700961E+02</pdfrwt>
<pdfrwt beam="2">  1       -2 0.12205996E-03 0.80700961E+02</pdfrwt>
<totfact> 0.26462496E+05</totfact>
</mgrwt>
</event>
<event>
 5    1  0.4023633E+001  0.9430646E+02  0.7546771E-02  0.1292746E+00
         -1   -1    0    0    0  501 -0.00000000000E+00  0.00000000000E+00  0.23030783901E+02  0.23030783901E+02  0.00000000000E+00 0.  1.
          1   -1    0    0  501    0  0.00000000000E+00 -0.00000000000E+00 -0.96541527676E+02  0.96541527676E+02  0.00000000000E+00 0. -1.
         23    2    1    2    0    0  0.00000000000E+00  0.00000000000E+00 -0.73510743775E+02  0.11957231158E+03  0.94306459194E+02 0.  0.
          2    1    3    3  502    0  0.10803379992E+02  0.40447308199E+02 -0.92463719524E+01  0.42874154849E+02  0.00000000000E+00 0.  1.
         -2    1    3    3    0  502 -0.10803379992E+02 -0.40447308199E+02 -0.64264371823E+02  0.76698156728E+02  0.00000000000E+00 0. -1.
<mgrwt>
<rscale>  0 0.94306459E+02</rscale>
<asrwt>0</asrwt>
<pdfrwt beam="2">  1        1 0.14852543E-01 0.94306459E+02</pdfrwt>
<pdfrwt beam="1">  1       -1 0.35431975E-02 0.94306459E+02</pdfrwt>
<totfact> 0.94681585E+04</totfact>
</mgrwt>
</event>
<event>
 5    1  0.4023633E+001  0.9233126E+02  0.7546771E-02  0.1297302E+00
          2   -1    0    0  501    0  0.00000000000E+00  0.00000000000E+00  0.18626010526E+04  0.18626010526E+04  0.00000000000E+00 0. -1.
         -2   -1    0    0    0  501 -0.00000000000E+00 -0.00000000000E+00 -0.11442415302E+01  0.11442415302E+01  0.00000000000E+00 0.  1.
         23    2    1    2    0    0  0.00000000000E+00  0.00000000000E+00  0.18614568110E+04  0.18637452941E+04  0.92331261848E+02 0.  0.
          2    1    3    3  502    0 -0.18106608286E+02  0.16561753084E+02  0.17200595144E+04  0.17202345404E+04  0.00000000000E+00 0. -1.
         -2    1    3    3    0  502  0.18106608286E+02 -0.16561753084E+02  0.14139729666E+03  0.14351075371E+03  0.00000000000E+00 0.  1.
<mgrwt>
<rscale>  0 0.92331262E+02</rscale>
<asrwt>0</asrwt>
<pdfrwt beam="1">  1        2 0.28655158E+00 0.92331262E+02</pdfrwt>
<pdfrwt beam="2">  1       -2 0.17603865E-03 0.92331262E+02</pdfrwt>
<totfact> 0.20221755E+05</totfact>
</mgrwt>
</event>
<event>
 5    1  0.4023633E+001  0.8884466E+02  0.7546771E-02  0.1305674E+00
         -1   -1    0    0    0  501 -0.00000000000E+00  0.00000000000E+00  0.29284668113E+02  0.29284668113E+02  0.00000000000E+00 0.  1.
          1   -1    0    0  501    0  0.00000000000E+00 -0.00000000000E+00 -0.67384866071E+02  0.67384866071E+02  0.00000000000E+00 0. -1.
         23    2    1    2    0    0  0.00000000000E+00  0.00000000000E+00 -0.38100197958E+02  0.96669534184E+02  0.88844660813E+02 0.  0.
          2    1    3    3  502    0 -0.42714811425E+02 -0.84740891292E+01 -0.28596550923E+02  0.52097293848E+02  0.00000000000E+00 0. -1.
         -2    1    3    3    0  502  0.42714811425E+02  0.84740891292E+01 -0.95036470352E+01  0.44572240336E+02  0.00000000000E+00 0.  1.
<mgrwt>
<rscale>  0 0.88844661E+02</rscale>
<asrwt>0</asrwt>
<pdfrwt beam="2">  1        1 0.10366902E-01 0.88844661E+02</pdfrwt>
<pdfrwt beam="1">  1       -1 0.45053336E-02 0.88844661E+02</pdfrwt>
<totfact> 0.10534657E+05</totfact>
</mgrwt>
</event>
<event>
 5    1  0.4023633E+001  0.9215381E+02  0.7546771E-02  0.1297718E+00
          2   -1    0    0  501    0  0.00000000000E+00  0.00000000000E+00  0.47334277319E+03  0.47334277319E+03  0.00000000000E+00 0.  1.
         -2   -1    0    0    0  501 -0.00000000000E+00 -0.00000000000E+00 -0.44852936665E+01  0.44852936665E+01  0.00000000000E+00 0. -1.
         23    2    1    2    0    0  0.00000000000E+00  0.00000000000E+00  0.46885747952E+03  0.47782806685E+03  0.92153813652E+02 0.  0.
          2    1    3    3  502    0 -0.58539367934E+01 -0.29895733879E+02  0.55181362374E+02  0.63031787485E+02  0.00000000000E+00 0. -1.
         -2    1    3    3    0  502  0.58539367934E+01  0.29895733879E+02  0.41367611715E+03  0.41479627937E+03  0.00000000000E+00 0.  1.
<mgrwt>
<rscale>  0 0.92153814E+02</rscale>
<asrwt>0</asrwt>
<pdfrwt beam="1">  1        2 0.72821926E-01 0.92153814E+02</pdfrwt>
<pdfrwt beam="2">  1       -2 0.69004555E-03 0.92153814E+02</pdfrwt>
<totfact> 0.20573934E+05</totfact>
</mgrwt>
</event>
<event>
 5    1  0.4023633E+001  0.9113357E+02  0.7546771E-02  0.1300130E+00
          4   -1    0    0  501    0  0.00000000000E+00  0.00000000000E+00  0.37792094051E+01  0.37792094051E+01  0.00000000000E+00 0. -1.
         -4   -1    0    0    0  501 -0.00000000000E+00 -0.00000000000E+00 -0.54940907214E+03  0.54940907214E+03  0.00000000000E+00 0.  1.
         23    2    1    2    0    0  0.00000000000E+00  0.00000000000E+00 -0.54562986273E+03  0.55318828154E+03  0.91133570822E+02 0.  0.
          2    1    3    3  502    0 -0.41057583029E+02 -0.93583265488E+01 -0.16714866899E+03  0.17237163614E+03  0.00000000000E+00 0. -1.
         -2    1    3    3    0  502  0.41057583029E+02  0.93583265488E+01 -0.37848119375E+03  0.38081664541E+03  0.00000000000E+00 0.  1.
<mgrwt>
<rscale>  0 0.91133571E+02</rscale>
<asrwt>0</asrwt>
<pdfrwt beam="1">  1        4 0.58141618E-03 0.91133571E+02</pdfrwt>
<pdfrwt beam="2">  1       -4 0.84524567E-01 0.91133571E+02</pdfrwt>
<totfact> 0.12157131E+04</totfact>
</mgrwt>
</event>
<event>
 5    1  0.4023633E+001  0.9402140E+02  0.7546771E-02  0.1293395E+00
          2   -1    0    0  501    0  0.00000000000E+00  0.00000000000E+00  0.17365842478E+03  0.17365842478E+03  0.00000000000E+00 0. -1.
         -2   -1    0    0    0  501 -0.00000000000E+00 -0.00000000000E+00 -0.12726165846E+02  0.12726165846E+02  0.00000000000E+00 0.  1.
         23    2    1    2    0    0  0.00000000000E+00  0.00000000000E+00  0.16093225894E+03  0.18638459063E+03  0.94021399996E+02 0.  0.
          2    1    3    3  502    0 -0.16156091529E+02  0.11971715981E+02  0.16470292490E+03  0.16592587124E+03  0.00000000000E+00 0. -1.
         -2    1    3    3    0  502  0.16156091529E+02 -0.11971715981E+02 -0.37706659652E+01  0.20458719384E+02  0.00000000000E+00 0.  1.
<mgrwt>
<rscale>  0 0.94021400E+02</rscale>
<asrwt>0</asrwt>
<pdfrwt beam="1">  1        2 0.26716679E-01 0.94021400E+02</pdfrwt>
<pdfrwt beam="2">  1       -2 0.19578718E-02 0.94021400E+02</pdfrwt>
<totfact> 0.13532487E+05</totfact>
</mgrwt>
</event>
<event>
 5    1  0.4023633E+001  0.8967571E+02  0.7546771E-02  0.1303639E+00
         -4   -1    0    0    0  501 -0.00000000000E+00  0.00000000000E+00  0.21353419560E+03  0.21353419560E+03  0.00000000000E+00 0. -1.
          4   -1    0    0  501    0  0.00000000000E+00 -0.00000000000E+00 -0.94150411316E+01  0.94150411316E+01  0.00000000000E+00 0.  1.
         23    2    1    2    0    0  0.00000000000E+00  0.00000000000E+00  0.20411915447E+03  0.22294923673E+03  0.89675709858E+02 0.  0.
          2    1    3    3  502    0 -0.39726439509E+02 -0.58590932776E+00  0.15372770717E+03  0.15877890677E+03  0.00000000000E+00 0. -1.
         -2    1    3    3    0  502  0.39726439509E+02  0.58590932776E+00  0.50391447306E+02  0.64170329962E+02  0.00000000000E+00 0.  1.
<mgrwt>
<rscale>  0 0.89675710E+02</rscale>
<asrwt>0</asrwt>
<pdfrwt beam="2">  1        4 0.14484680E-02 0.89675710E+02</pdfrwt>
<pdfrwt beam="1">  1       -4 0.32851411E-01 0.89675710E+02</pdfrwt>
<totfact> 0.21389939E+04</totfact>
</mgrwt>
</event>
<event>
 5    1  0.4023633E+001  0.8912809E+02  0.7546771E-02  0.1304977E+00
          2   -1    0    0  501    0  0.00000000000E+00  0.00000000000E+00  0.18098110903E+02  0.18098110903E+02  0.00000000000E+00 0. -1.
         -2   -1    0    0    0  501 -0.00000000000E+00 -0.00000000000E+00 -0.10973268364E+03  0.10973268364E+03  0.00000000000E+00 0.  1.
         23    2    1    2    0    0  0.00000000000E+00  0.00000000000E+00 -0.91634572741E+02  0.12783079455E+03  0.89128093850E+02 0.  0.
          2    1    3    3  502    0 -0.27618391908E+02 -0.25953476508E+02 -0.79440758444E+02  0.88018137998E+02  0.00000000000E+00 0. -1.
         -2    1    3    3    0  502  0.27618391908E+02  0.25953476508E+02 -0.12193814296E+02  0.39812656549E+02  0.00000000000E+00 0.  1.
<mgrwt>
<rscale>  0 0.89128094E+02</rscale>
<asrwt>0</asrwt>
<pdfrwt beam="1">  1        2 0.27843248E-02 0.89128094E+02</pdfrwt>
<pdfrwt beam="2">  1       -2 0.16881951E-01 0.89128094E+02</pdfrwt>
<totfact> 0.82114527E+04</totfact>
</mgrwt>
</event>
<event>
 5    1  0.4023633E+001  0.9067583E+02  0.7546771E-02  0.1301223E+00
         -2   -1    0    0    0  501 -0.00000000000E+00  0.00000000000E+00  0.22157931522E+01  0.22157931522E+01  0.00000000000E+00 0. -1.
          2   -1    0    0  501    0  0.00000000000E+00 -0.00000000000E+00 -0.92767073514E+03  0.92767073514E+03  0.00000000000E+00 0.  1.
         23    2    1    2    0    0  0.00000000000E+00  0.00000000000E+00 -0.92545494199E+03  0.92988652829E+03  0.90675828365E+02 0.  0.
          2    1    3    3  502    0 -0.35050730826E+02 -0.15744349647E+02 -0.21594700706E+03  0.21933888879E+03  0.00000000000E+00 0. -1.
         -2    1    3    3    0  502  0.35050730826E+02  0.15744349647E+02 -0.70950793492E+03  0.71054763950E+03  0.00000000000E+00 0.  1.
<mgrwt>
<rscale>  0 0.90675828E+02</rscale>
<asrwt>0</asrwt>
<pdfrwt beam="2">  1        2 0.14271849E+00 0.90675828E+02</pdfrwt>
<pdfrwt beam="1">  1       -2 0.34089146E-03 0.90675828E+02</pdfrwt>
<totfact> 0.25235218E+05</totfact>
</mgrwt>
</event>
<event>
 5    1  0.4023633E+001  0.9056059E+02  0.7546771E-02  0.1301500E+00
         -4   -1    0    0    0  501 -0.00000000000E+00  0.00000000000E+00  0.61809974138E+02  0.61809974138E+02  0.00000000000E+00 0.  1.
          4   -1    0    0  501    0  0.00000000000E+00 -0.00000000000E+00 -0.33171108205E+02  0.33171108205E+02  0.00000000000E+00 0. -1.
         23    2    1    2    0    0  0.00000000000E+00  0.00000000000E+00  0.28638865933E+02  0.94981082343E+02  0.90560594969E+02 0.  0.
          2    1    3    3  502    0 -0.10415052172E+02 -0.37680998137E+02  0.38281399224E+02  0.54715596121E+02  0.00000000000E+00 0.  1.
         -2    1    3    3    0  502  0.10415052172E+02  0.37680998137E+02 -0.96425332912E+01  0.40265486222E+02  0.00000000000E+00 0. -1.
<mgrwt>
<rscale>  0 0.90560595E+02</rscale>
<asrwt>0</asrwt>
<pdfrwt beam="2">  1        4 0.51032474E-02 0.90560595E+02</pdfrwt>
<pdfrwt beam="1">  1       -4 0.95092268E-02 0.90560595E+02</pdfrwt>
<totfact> 0.27269156E+04</totfact>
</mgrwt>
</event>
<event>
 4    1  0.4023633E+001  0.1521897E+03  0.7546771E-02  0.1197808E+00
          2   -1    0    0  501    0  0.00000000000E+00  0.00000000000E+00  0.11777680859E+04  0.11777680859E+04  0.00000000000E+00 0. -1.
         -2   -1    0    0    0  501 -0.00000000000E+00 -0.00000000000E+00 -0.49164399540E+01  0.49164399540E+01  0.00000000000E+00 0.  1.
          2    1    1    2  502    0  0.22577271971E+02  0.24902081344E+02  0.11169480756E+04  0.11174537352E+04  0.00000000000E+00 0. -1.
         -2    1    1    2    0  502 -0.22577271971E+02 -0.24902081344E+02  0.55903570406E+02  0.65230790651E+02  0.00000000000E+00 0.  1.
<mgrwt>
<rscale>  0 0.15218970E+03</rscale>
<asrwt>0</asrwt>
<pdfrwt beam="1">  1        2 0.18119487E+00 0.15218970E+03</pdfrwt>
<pdfrwt beam="2">  1       -2 0.75637631E-03 0.15218970E+03</pdfrwt>
<totfact> 0.62537798E+04</totfact>
</mgrwt>
</event>
<event>
 5    1  0.4023633E+001  0.9034471E+02  0.7546771E-02  0.1302019E+00
         -2   -1    0    0    0  501 -0.00000000000E+00  0.00000000000E+00  0.74697880546E+03  0.74697880546E+03  0.00000000000E+00 0.  1.
          2   -1    0    0  501    0  0.00000000000E+00 -0.00000000000E+00 -0.27317263381E+01  0.27317263381E+01  0.00000000000E+00 0. -1.
         23    2    1    2    0    0  0.00000000000E+00  0.00000000000E+00  0.74424707912E+03  0.74971053179E+03  0.90344710457E+02 0.  0.
          2    1    3    3  502    0  0.31911158113E+02 -0.31972040257E+02  0.37136722507E+03  0.37410446299E+03  0.00000000000E+00 0. -1.
         -2    1    3    3    0  502 -0.31911158113E+02  0.31972040257E+02  0.37287985404E+03  0.37560606880E+03  0.00000000000E+00 0.  1.
<mgrwt>
<rscale>  0 0.90344710E+02</rscale>
<asrwt>0</asrwt>
<pdfrwt beam="2">  1        2 0.42026619E-03 0.90344710E+02</pdfrwt>
<pdfrwt beam="1">  1       -2 0.11491965E+00 0.90344710E+02</pdfrwt>
<totfact> 0.26152487E+04</totfact>
</mgrwt>
</event>
<event>
 5    1  0.4023633E+001  0.8992248E+02  0.7546771E-02  0.1303040E+00
         -2   -1    0    0    0  501 -0.00000000000E+00  0.00000000000E+00  0.13565801085E+01  0.13565801085E+01  0.00000000000E+00 0.  1.
          2   -1    0    0  501    0  0.00000000000E+00 -0.00000000000E+00 -0.14901539362E+04  0.14901539362E+04  0.00000000000E+00 0. -1.
         23    2    1    2    0    0  0.00000000000E+00  0.00000000000E+00 -0.14887973561E+04  0.14915105163E+04  0.89922481917E+02 0.  0.
          2    1    3    3  502    0 -0.12431377717E+02  0.26190704993E+02 -0.13144144155E+04  0.13147340978E+04  0.00000000000E+00 0. -1.
         -2    1    3    3    0  502  0.12431377717E+02 -0.26190704993E+02 -0.17438294059E+03  0.17677641853E+03  0.00000000000E+00 0.  1.
<mgrwt>
<rscale>  0 0.89922482E+02</rscale>
<asrwt>0</asrwt>
<pdfrwt beam="2">  1        2 0.22925338E+00 0.89922482E+02</pdfrwt>
<pdfrwt beam="1">  1       -2 0.20870560E-03 0.89922482E+02</pdfrwt>
<totfact> 0.24533645E+05</totfact>
</mgrwt>
</event>
<event>
 5    1  0.4023633E+001  0.9005311E+02  0.7546771E-02  0.1302723E+00
          1   -1    0    0  501    0  0.00000000000E+00  0.00000000000E+00  0.28724905831E+03  0.28724905831E+03  0.00000000000E+00 0. -1.
         -1   -1    0    0    0  501 -0.00000000000E+00 -0.00000000000E+00 -0.70579546217E+01  0.70579546217E+01  0.00000000000E+00 0.  1.
         23    2    1    2    0    0  0.00000000000E+00  0.00000000000E+00  0.28019110369E+03  0.29430701294E+03  0.90053113632E+02 0.  0.
          2    1    3    3  502    0  0.15114703112E+02 -0.16679147964E+02  0.26754258567E+03  0.26848777137E+03  0.00000000000E+00 0. -1.
         -2    1    3    3    0  502 -0.15114703112E+02  0.16679147964E+02  0.12648518022E+02  0.25819241567E+02  0.00000000000E+00 0.  1.
<mgrwt>
<rscale>  0 0.90053114E+02</rscale>
<asrwt>0</asrwt>
<pdfrwt beam="1">  1        1 0.44192154E-01 0.90053114E+02</pdfrwt>
<pdfrwt beam="2">  1       -1 0.10858394E-02 0.90053114E+02</pdfrwt>
<totfact> 0.13132560E+05</totfact>
</mgrwt>
</event>
<event>
 5    1  0.4023633E+001  0.9002615E+02  0.7546771E-02  0.1302788E+00
         -1   -1    0    0    0  501 -0.00000000000E+00  0.00000000000E+00  0.52843341314E+02  0.52843341314E+02  0.00000000000E+00 0.  1.
          1   -1    0    0  501    0  0.00000000000E+00 -0.00000000000E+00 -0.38343085469E+02  0.38343085469E+02  0.00000000000E+00 0. -1.
         23    2    1    2    0    0  0.00000000000E+00  0.00000000000E+00  0.14500255845E+02  0.91186426783E+02  0.90026146257E+02 0.  0.
          2    1    3    3  502    0  0.10028013668E+02 -0.19559397691E+02 -0.32537763699E+02  0.39266234384E+02  0.00000000000E+00 0. -1.
         -2    1    3    3    0  502 -0.10028013668E+02  0.19559397691E+02  0.47038019544E+02  0.51920192400E+02  0.00000000000E+00 0.  1.
<mgrwt>
<rscale>  0 0.90026146E+02</rscale>
<asrwt>0</asrwt>
<pdfrwt beam="2">  1        1 0.58989362E-02 0.90026146E+02</pdfrwt>
<pdfrwt beam="1">  1       -1 0.81297448E-02 0.90026146E+02</pdfrwt>
<totfact> 0.93372487E+04</totfact>
</mgrwt>
</event>
<event>
 5    1  0.4023633E+001  0.9074181E+02  0.7546771E-02  0.1301065E+00
         -2   -1    0    0    0  501 -0.00000000000E+00  0.00000000000E+00  0.24846394400E+01  0.24846394400E+01  0.00000000000E+00 0.  1.
          2   -1    0    0  501    0  0.00000000000E+00 -0.00000000000E+00 -0.82849808072E+03  0.82849808072E+03  0.00000000000E+00 0. -1.
         23    2    1    2    0    0  0.00000000000E+00  0.00000000000E+00 -0.82601344128E+03  0.83098272016E+03  0.90741809710E+02 0.  0.
          2    1    3    3  502    0  0.27595135095E+02 -0.10681397621E+02 -0.72797371580E+03  0.72857485177E+03  0.00000000000E+00 0. -1.
         -2    1    3    3    0  502 -0.27595135095E+02  0.10681397621E+02 -0.98039725484E+02  0.10240786839E+03  0.00000000000E+00 0.  1.
<mgrwt>
<rscale>  0 0.90741810E+02</rscale>
<asrwt>0</asrwt>
<pdfrwt beam="2">  1        2 0.12746117E+00 0.90741810E+02</pdfrwt>
<pdfrwt beam="1">  1       -2 0.38225244E-03 0.90741810E+02</pdfrwt>
<totfact> 0.24827672E+05</totfact>
</mgrwt>
</event>
<event>
 5    1  0.4023633E+001  0.9197151E+02  0.7546771E-02  0.1298146E+00
         -2   -1    0    0    0  501 -0.00000000000E+00  0.00000000000E+00  0.22159589959E+01  0.22159589959E+01  0.00000000000E+00 0. -1.
          2   -1    0    0  501    0  0.00000000000E+00 -0.00000000000E+00 -0.95429997926E+03  0.95429997926E+03  0.00000000000E+00 0.  1.
         23    2    1    2    0    0  0.00000000000E+00  0.00000000000E+00 -0.95208402026E+03  0.95651593825E+03  0.91971509150E+02 0.  0.
          2    1    3    3  502    0 -0.31717962198E+02  0.46705352748E+01 -0.13317711342E+03  0.13698170157E+03  0.00000000000E+00 0. -1.
         -2    1    3    3    0  502  0.31717962198E+02 -0.46705352748E+01 -0.81890690684E+03  0.81953423668E+03  0.00000000000E+00 0.  1.
<mgrwt>
<rscale>  0 0.91971509E+02</rscale>
<asrwt>0</asrwt>
<pdfrwt beam="2">  1        2 0.14681532E+00 0.91971509E+02</pdfrwt>
<pdfrwt beam="1">  1       -2 0.34091691E-03 0.91971509E+02</pdfrwt>
<totfact> 0.24368030E+05</totfact>
</mgrwt>
</event>
<event>
 5    1  0.4023633E+001  0.8968433E+02  0.7546771E-02  0.1303618E+00
         -2   -1    0    0    0  501 -0.00000000000E+00  0.00000000000E+00  0.48694130049E+01  0.48694130049E+01  0.00000000000E+00 0. -1.
          2   -1    0    0  501    0  0.00000000000E+00 -0.00000000000E+00 -0.41294913643E+03  0.41294913643E+03  0.00000000000E+00 0.  1.
         23    2    1    2    0    0  0.00000000000E+00  0.00000000000E+00 -0.40807972343E+03  0.41781854944E+03  0.89684332975E+02 0.  0.
          2    1    3    3  502    0  0.42954980764E+01 -0.44484566348E+02 -0.22115216508E+03  0.22562271177E+03  0.00000000000E+00 0. -1.
         -2    1    3    3    0  502 -0.42954980764E+01  0.44484566348E+02 -0.18692755835E+03  0.19219583767E+03  0.00000000000E+00 0.  1.
<mgrwt>
<rscale>  0 0.89684333E+02</rscale>
<asrwt>0</asrwt>
<pdfrwt beam="2">  1        2 0.63530642E-01 0.89684333E+02</pdfrwt>
<pdfrwt beam="1">  1       -2 0.74914039E-03 0.89684333E+02</pdfrwt>
<totfact> 0.21092785E+05</totfact>
</mgrwt>
</event>
<event>
 5    1  0.4023633E+001  0.9202735E+02  0.7546771E-02  0.1298015E+00
         -2   -1    0    0    0  501 -0.00000000000E+00  0.00000000000E+00  0.10675428861E+02  0.10675428861E+02  0.00000000000E+00 0.  1.
          2   -1    0    0  501    0  0.00000000000E+00 -0.00000000000E+00 -0.19833005639E+03  0.19833005639E+03  0.00000000000E+00 0. -1.
         23    2    1    2    0    0  0.00000000000E+00  0.00000000000E+00 -0.18765462753E+03  0.20900548525E+03  0.92027352630E+02 0.  0.
          2    1    3    3  502    0 -0.31255657844E+02 -0.17164537985E+02 -0.15987449479E+03  0.16380290472E+03  0.00000000000E+00 0. -1.
         -2    1    3    3    0  502  0.31255657844E+02  0.17164537985E+02 -0.27780132744E+02  0.45202580532E+02  0.00000000000E+00 0.  1.
<mgrwt>
<rscale>  0 0.92027353E+02</rscale>
<asrwt>0</asrwt>
<pdfrwt beam="2">  1        2 0.30512313E-01 0.92027353E+02</pdfrwt>
<pdfrwt beam="1">  1       -2 0.16423738E-02 0.92027353E+02</pdfrwt>
<totfact> 0.15039856E+05</totfact>
</mgrwt>
</event>
<event>
 5    1  0.4023633E+001  0.9075018E+02  0.7546771E-02  0.1301045E+00
          2   -1    0    0  501    0  0.00000000000E+00  0.00000000000E+00  0.19069138457E+03  0.19069138457E+03  0.00000000000E+00 0. -1.
         -2   -1    0    0    0  501 -0.00000000000E+00 -0.00000000000E+00 -0.10797020529E+02  0.10797020529E+02  0.00000000000E+00 0.  1.
         23    2    1    2    0    0  0.00000000000E+00  0.00000000000E+00  0.17989436404E+03  0.20148840510E+03  0.90750180032E+02 0.  0.
          2    1    3    3  502    0  0.24497450432E+01  0.23156583732E+02  0.17641373318E+03  0.17794390655E+03  0.00000000000E+00 0. -1.
         -2    1    3    3    0  502 -0.24497450432E+01 -0.23156583732E+02  0.34806308548E+01  0.23544498551E+02  0.00000000000E+00 0.  1.
<mgrwt>
<rscale>  0 0.90750180E+02</rscale>
<asrwt>0</asrwt>
<pdfrwt beam="1">  1        2 0.29337134E-01 0.90750180E+02</pdfrwt>
<pdfrwt beam="2">  1       -2 0.16610802E-02 0.90750180E+02</pdfrwt>
<totfact> 0.15398001E+05</totfact>
</mgrwt>
</event>
<event>
 5    1  0.4023633E+001  0.8572812E+02  0.7546771E-02  0.1313539E+00
         -2   -1    0    0    0  501 -0.00000000000E+00  0.00000000000E+00  0.42983710829E+03  0.42983710829E+03  0.00000000000E+00 0.  1.
          2   -1    0    0  501    0  0.00000000000E+00 -0.00000000000E+00 -0.42744740064E+01  0.42744740064E+01  0.00000000000E+00 0. -1.
         23    2    1    2    0    0  0.00000000000E+00  0.00000000000E+00  0.42556263428E+03  0.43411158230E+03  0.85728117823E+02 0.  0.
          2    1    3    3  502    0  0.33389812661E+01 -0.42128269546E+02  0.24908138916E+03  0.25264100680E+03  0.00000000000E+00 0. -1.
         -2    1    3    3    0  502 -0.33389812661E+01  0.42128269546E+02  0.17648124512E+03  0.18147057550E+03  0.00000000000E+00 0.  1.
<mgrwt>
<rscale>  0 0.85728118E+02</rscale>
<asrwt>0</asrwt>
<pdfrwt beam="2">  1        2 0.65761173E-03 0.85728118E+02</pdfrwt>
<pdfrwt beam="1">  1       -2 0.66128752E-01 0.85728118E+02</pdfrwt>
<totfact> 0.47620209E+04</totfact>
</mgrwt>
</event>
<event>
 5    1  0.4023633E+001  0.8602926E+02  0.7546771E-02  0.1312763E+00
          2   -1    0    0  501    0  0.00000000000E+00  0.00000000000E+00  0.14326048353E+03  0.14326048353E+03  0.00000000000E+00 0.  1.
         -2   -1    0    0    0  501 -0.00000000000E+00 -0.00000000000E+00 -0.12915342539E+02  0.12915342539E+02  0.00000000000E+00 0. -1.
         23    2    1    2    0    0  0.00000000000E+00  0.00000000000E+00  0.13034514099E+03  0.15617582607E+03  0.86029255887E+02 0.  0.
          2    1    3    3  502    0  0.26942300154E+02 -0.83629389912E+01  0.62235056682E+01  0.28888722868E+02  0.00000000000E+00 0. -1.
         -2    1    3    3    0  502 -0.26942300154E+02  0.83629389912E+01  0.12412163532E+03  0.12728710320E+03  0.00000000000E+00 0.  1.
<mgrwt>
<rscale>  0 0.86029256E+02</rscale>
<asrwt>0</asrwt>
<pdfrwt beam="1">  1        2 0.22040073E-01 0.86029256E+02</pdfrwt>
<pdfrwt beam="2">  1       -2 0.19869759E-02 0.86029256E+02</pdfrwt>
<totfact> 0.16109224E+05</totfact>
</mgrwt>
</event>
<event>
 5    1  0.4023633E+001  0.9136322E+02  0.7546771E-02  0.1299584E+00
          1   -1    0    0  501    0  0.00000000000E+00  0.00000000000E+00  0.32866177553E+03  0.32866177553E+03  0.00000000000E+00 0. -1.
         -1   -1    0    0    0  501 -0.00000000000E+00 -0.00000000000E+00 -0.63494131081E+01  0.63494131081E+01  0.00000000000E+00 0.  1.
         23    2    1    2    0    0  0.00000000000E+00  0.00000000000E+00  0.32231236242E+03  0.33501118864E+03  0.91363217668E+02 0.  0.
          2    1    3    3  502    0  0.21410895814E+02  0.28252841428E+02  0.26680600942E+03  0.26915069417E+03  0.00000000000E+00 0. -1.
         -2    1    3    3    0  502 -0.21410895814E+02 -0.28252841428E+02  0.55506353000E+02  0.65860494469E+02  0.00000000000E+00 0.  1.
<mgrwt>
<rscale>  0 0.91363218E+02</rscale>
<asrwt>0</asrwt>
<pdfrwt beam="1">  1        1 0.50563337E-01 0.91363218E+02</pdfrwt>
<pdfrwt beam="2">  1       -1 0.97683304E-03 0.91363218E+02</pdfrwt>
<totfact> 0.12962845E+05</totfact>
</mgrwt>
</event>
<event>
 5    1  0.4023633E+001  0.8990921E+02  0.7546771E-02  0.1303072E+00
          3   -1    0    0  501    0  0.00000000000E+00  0.00000000000E+00  0.67635389559E+02  0.67635389559E+02  0.00000000000E+00 0. -1.
         -3   -1    0    0    0  501 -0.00000000000E+00 -0.00000000000E+00 -0.29879571699E+02  0.29879571699E+02  0.00000000000E+00 0.  1.
         23    2    1    2    0    0  0.00000000000E+00  0.00000000000E+00  0.37755817860E+02  0.97514961259E+02  0.89909209133E+02 0.  0.
          2    1    3    3  502    0  0.36840471523E+02 -0.90571824398E+01  0.45035817022E+02  0.58885292821E+02  0.00000000000E+00 0. -1.
         -2    1    3    3    0  502 -0.36840471523E+02  0.90571824398E+01 -0.72799991621E+01  0.38629668437E+02  0.00000000000E+00 0.  1.
<mgrwt>
<rscale>  0 0.89909209E+02</rscale>
<asrwt>0</asrwt>
<pdfrwt beam="1">  1        3 0.10405445E-01 0.89909209E+02</pdfrwt>
<pdfrwt beam="2">  1       -3 0.45968572E-02 0.89909209E+02</pdfrwt>
<totfact> 0.36207539E+04</totfact>
</mgrwt>
</event>
<event>
 5    1  0.4023633E+001  0.8971011E+02  0.7546771E-02  0.1303555E+00
         -3   -1    0    0    0  501 -0.00000000000E+00  0.00000000000E+00  0.13874765466E+02  0.13874765466E+02  0.00000000000E+00 0.  1.
          3   -1    0    0  501    0  0.00000000000E+00 -0.00000000000E+00 -0.14500973650E+03  0.14500973650E+03  0.00000000000E+00 0. -1.
         23    2    1    2    0    0  0.00000000000E+00  0.00000000000E+00 -0.13113497103E+03  0.15888450196E+03  0.89710112788E+02 0.  0.
          2    1    3    3  502    0  0.44601742830E+02 -0.45192829957E+01 -0.62918715908E+02  0.77256094864E+02  0.00000000000E+00 0. -1.
         -2    1    3    3    0  502 -0.44601742830E+02  0.45192829957E+01 -0.68216255122E+02  0.81628407097E+02  0.00000000000E+00 0.  1.
<mgrwt>
<rscale>  0 0.89710113E+02</rscale>
<asrwt>0</asrwt>
<pdfrwt beam="2">  1        3 0.22309189E-01 0.89710113E+02</pdfrwt>
<pdfrwt beam="1">  1       -3 0.21345794E-02 0.89710113E+02</pdfrwt>
<totfact> 0.32149552E+04</totfact>
</mgrwt>
</event>
<event>
 5    1  0.4023633E+001  0.9744412E+02  0.7546771E-02  0.1285764E+00
         -1   -1    0    0    0  501 -0.00000000000E+00  0.00000000000E+00  0.14443324874E+01  0.14443324874E+01  0.00000000000E+00 0.  1.
          1   -1    0    0  501    0  0.00000000000E+00 -0.00000000000E+00 -0.16435544533E+04  0.16435544533E+04  0.00000000000E+00 0. -1.
         23    2    1    2    0    0  0.00000000000E+00  0.00000000000E+00 -0.16421101208E+04  0.16449987858E+04  0.97444119202E+02 0.  0.
          2    1    3    3  502    0  0.20205215723E+02 -0.38146446045E+02 -0.12024553536E+04  0.12032299363E+04  0.00000000000E+00 0. -1.
         -2    1    3    3    0  502 -0.20205215723E+02  0.38146446045E+02 -0.43965476719E+03  0.44176884952E+03  0.00000000000E+00 0.  1.
<mgrwt>
<rscale>  0 0.97444119E+02</rscale>
<asrwt>0</asrwt>
<pdfrwt beam="2">  1        1 0.25285353E+00 0.97444119E+02</pdfrwt>
<pdfrwt beam="1">  1       -1 0.22220587E-03 0.97444119E+02</pdfrwt>
<totfact> 0.85238346E+04</totfact>
</mgrwt>
</event>
<event>
 5    1  0.4023633E+001  0.9185067E+02  0.7546771E-02  0.1298431E+00
          2   -1    0    0  501    0  0.00000000000E+00  0.00000000000E+00  0.12622184328E+02  0.12622184328E+02  0.00000000000E+00 0.  1.
         -2   -1    0    0    0  501 -0.00000000000E+00 -0.00000000000E+00 -0.16709755961E+03  0.16709755961E+03  0.00000000000E+00 0. -1.
         23    2    1    2    0    0  0.00000000000E+00  0.00000000000E+00 -0.15447537528E+03  0.17971974393E+03  0.91850665716E+02 0.  0.
          2    1    3    3  502    0  0.32754602620E+02 -0.27093028197E+02 -0.11125417566E+03  0.11909822741E+03  0.00000000000E+00 0. -1.
         -2    1    3    3    0  502 -0.32754602620E+02  0.27093028197E+02 -0.43221199618E+02  0.60621516527E+02  0.00000000000E+00 0.  1.
<mgrwt>
<rscale>  0 0.91850666E+02</rscale>
<asrwt>0</asrwt>
<pdfrwt beam="1">  1        2 0.19418747E-02 0.91850666E+02</pdfrwt>
<pdfrwt beam="2">  1       -2 0.25707314E-01 0.91850666E+02</pdfrwt>
<totfact> 0.65837519E+04</totfact>
</mgrwt>
</event>
<event>
 5    1  0.4023633E+001  0.8899470E+02  0.7546771E-02  0.1305305E+00
          2   -1    0    0  501    0  0.00000000000E+00  0.00000000000E+00  0.24006078727E+04  0.24006078727E+04  0.00000000000E+00 0. -1.
         -2   -1    0    0    0  501 -0.00000000000E+00 -0.00000000000E+00 -0.82479693288E+00  0.82479693288E+00  0.00000000000E+00 0.  1.
         23    2    1    2    0    0  0.00000000000E+00  0.00000000000E+00  0.23997830758E+04  0.24014326696E+04  0.88994696706E+02 0.  0.
          2    1    3    3  502    0 -0.14831860198E+01 -0.43742158638E+02  0.14165004867E+04  0.14171764905E+04  0.00000000000E+00 0. -1.
         -2    1    3    3    0  502  0.14831860198E+01  0.43742158638E+02  0.98328258907E+03  0.98425617918E+03  0.00000000000E+00 0.  1.
<mgrwt>
<rscale>  0 0.88994697E+02</rscale>
<asrwt>0</asrwt>
<pdfrwt beam="1">  1        2 0.36931869E+00 0.88994697E+02</pdfrwt>
<pdfrwt beam="2">  1       -2 0.12689376E-03 0.88994697E+02</pdfrwt>
<totfact> 0.16878886E+05</totfact>
</mgrwt>
</event>
<event>
 5    1  0.4023633E+001  0.9086106E+02  0.7546771E-02  0.1300780E+00
          2   -1    0    0  501    0  0.00000000000E+00  0.00000000000E+00  0.71069336495E+03  0.71069336495E+03  0.00000000000E+00 0. -1.
         -2   -1    0    0    0  501 -0.00000000000E+00 -0.00000000000E+00 -0.29041119186E+01  0.29041119186E+01  0.00000000000E+00 0.  1.
         23    2    1    2    0    0  0.00000000000E+00  0.00000000000E+00  0.70778925303E+03  0.71359747686E+03  0.90861060342E+02 0.  0.
          2    1    3    3  502    0 -0.43448612517E+02 -0.12920962062E+02  0.33007326289E+03  0.33317126536E+03  0.00000000000E+00 0. -1.
         -2    1    3    3    0  502  0.43448612517E+02  0.12920962062E+02  0.37771599014E+03  0.38042621150E+03  0.00000000000E+00 0.  1.
<mgrwt>
<rscale>  0 0.90861060E+02</rscale>
<asrwt>0</asrwt>
<pdfrwt beam="1">  1        2 0.10933730E+00 0.90861060E+02</pdfrwt>
<pdfrwt beam="2">  1       -2 0.44678701E-03 0.90861060E+02</pdfrwt>
<totfact> 0.24015855E+05</totfact>
</mgrwt>
</event>
<event>
 5    1  0.4023633E+001  0.5982062E+02  0.7546771E-02  0.1398586E+00
          2   -1    0    0  501    0  0.00000000000E+00  0.00000000000E+00  0.17432449222E+02  0.17432449222E+02  0.00000000000E+00 0. -1.
         -2   -1    0    0    0  501 -0.00000000000E+00 -0.00000000000E+00 -0.51319617070E+02  0.51319617070E+02  0.00000000000E+00 0.  1.
         23    2    1    2    0    0  0.00000000000E+00  0.00000000000E+00 -0.33887167848E+02  0.68752066292E+02  0.59820619142E+02 0.  0.
          2    1    3    3  502    0  0.17425751467E+02 -0.23165993496E+02 -0.84740218074E+01  0.30201475368E+02  0.00000000000E+00 0. -1.
         -2    1    3    3    0  502 -0.17425751467E+02  0.23165993496E+02 -0.25413146041E+02  0.38550590923E+02  0.00000000000E+00 0.  1.
<mgrwt>
<rscale>  0 0.59820619E+02</rscale>
<asrwt>0</asrwt>
<pdfrwt beam="1">  1        2 0.26819153E-02 0.59820619E+02</pdfrwt>
<pdfrwt beam="2">  1       -2 0.78953257E-02 0.59820619E+02</pdfrwt>
<totfact> 0.26348111E+05</totfact>
</mgrwt>
</event>
<event>
 5    1  0.4023633E+001  0.9050316E+02  0.7546771E-02  0.1301638E+00
          1   -1    0    0  501    0  0.00000000000E+00  0.00000000000E+00  0.65454152138E+03  0.65454152138E+03  0.00000000000E+00 0. -1.
         -1   -1    0    0    0  501 -0.00000000000E+00 -0.00000000000E+00 -0.31284578786E+01  0.31284578786E+01  0.00000000000E+00 0.  1.
         23    2    1    2    0    0  0.00000000000E+00  0.00000000000E+00  0.65141306351E+03  0.65766997926E+03  0.90503161921E+02 0.  0.
          2    1    3    3  502    0  0.33280616027E+02 -0.19728232221E+02  0.49626836132E+03  0.49777413452E+03  0.00000000000E+00 0. -1.
         -2    1    3    3    0  502 -0.33280616027E+02  0.19728232221E+02  0.15514470218E+03  0.15989584474E+03  0.00000000000E+00 0.  1.
<mgrwt>
<rscale>  0 0.90503162E+02</rscale>
<asrwt>0</asrwt>
<pdfrwt beam="1">  1        1 0.10069859E+00 0.90503162E+02</pdfrwt>
<pdfrwt beam="2">  1       -1 0.48130173E-03 0.90503162E+02</pdfrwt>
<totfact> 0.14492079E+05</totfact>
</mgrwt>
</event>
<event>
 5    1  0.4023633E+001  0.8946517E+02  0.7546771E-02  0.1304152E+00
          1   -1    0    0  501    0  0.00000000000E+00  0.00000000000E+00  0.44201808195E+01  0.44201808195E+01  0.00000000000E+00 0. -1.
         -1   -1    0    0    0  501 -0.00000000000E+00 -0.00000000000E+00 -0.45269739915E+03  0.45269739915E+03  0.00000000000E+00 0.  1.
         23    2    1    2    0    0  0.00000000000E+00  0.00000000000E+00 -0.44827721833E+03  0.45711757997E+03  0.89465174470E+02 0.  0.
          2    1    3    3  502    0  0.30017113978E+02  0.22794663206E+02 -0.10104646447E+03  0.10784716864E+03  0.00000000000E+00 0. -1.
         -2    1    3    3    0  502 -0.30017113978E+02 -0.22794663206E+02 -0.34723075386E+03  0.34927041133E+03  0.00000000000E+00 0.  1.
<mgrwt>
<rscale>  0 0.89465174E+02</rscale>
<asrwt>0</asrwt>
<pdfrwt beam="1">  1        1 0.68002786E-03 0.89465174E+02</pdfrwt>
<pdfrwt beam="2">  1       -1 0.69645749E-01 0.89465174E+02</pdfrwt>
<totfact> 0.52421024E+04</totfact>
</mgrwt>
</event>
<event>
 5    1  0.4023633E+001  0.9172277E+02  0.7546771E-02  0.1298733E+00
          2   -1    0    0  501    0  0.00000000000E+00  0.00000000000E+00  0.98350670526E+01  0.98350670526E+01  0.00000000000E+00 0.  1.
         -2   -1    0    0    0  501 -0.00000000000E+00 -0.00000000000E+00 -0.21385382369E+03  0.21385382369E+03  0.00000000000E+00 0. -1.
         23    2    1    2    0    0  0.00000000000E+00  0.00000000000E+00 -0.20401875664E+03  0.22368889075E+03  0.91722771338E+02 0.  0.
          2    1    3    3  502    0 -0.14960106774E+02 -0.17549236832E+02 -0.19868623731E+03  0.20002000251E+03  0.00000000000E+00 0. -1.
         -2    1    3    3    0  502  0.14960106774E+02  0.17549236832E+02 -0.53325193367E+01  0.23668888241E+02  0.00000000000E+00 0.  1.
<mgrwt>
<rscale>  0 0.91722771E+02</rscale>
<asrwt>0</asrwt>
<pdfrwt beam="1">  1        2 0.15130874E-02 0.91722771E+02</pdfrwt>
<pdfrwt beam="2">  1       -2 0.32900585E-01 0.91722771E+02</pdfrwt>
<totfact> 0.59583013E+04</totfact>
</mgrwt>
</event>
<event>
 5    1  0.4023633E+001  0.9490878E+02  0.7546771E-02  0.1291382E+00
          1   -1    0    0  501    0  0.00000000000E+00  0.00000000000E+00  0.84200227347E+03  0.84200227347E+03  0.00000000000E+00 0. -1.
         -1   -1    0    0    0  501 -0.00000000000E+00 -0.00000000000E+00 -0.26744810326E+01  0.26744810326E+01  0.00000000000E+00 0.  1.
         23    2    1    2    0    0  0.00000000000E+00  0.00000000000E+00  0.83932779244E+03  0.84467675451E+03  0.94908779569E+02 0.  0.
          2    1    3    3  502    0 -0.47153869376E+01  0.42917024644E+02  0.59492900427E+03  0.59649360936E+03  0.00000000000E+00 0. -1.
         -2    1    3    3    0  502  0.47153869376E+01 -0.42917024644E+02  0.24439878817E+03  0.24818314515E+03  0.00000000000E+00 0.  1.
<mgrwt>
<rscale>  0 0.94908780E+02</rscale>
<asrwt>0</asrwt>
<pdfrwt beam="1">  1        1 0.12953860E+00 0.94908780E+02</pdfrwt>
<pdfrwt beam="2">  1       -1 0.41145929E-03 0.94908780E+02</pdfrwt>
<totfact> 0.12637764E+05</totfact>
</mgrwt>
</event>
<event>
 5    1  0.4023633E+001  0.9056623E+02  0.7546771E-02  0.1301486E+00
          3   -1    0    0  501    0  0.00000000000E+00  0.00000000000E+00  0.21027700413E+02  0.21027700413E+02  0.00000000000E+00 0. -1.
         -3   -1    0    0    0  501 -0.00000000000E+00 -0.00000000000E+00 -0.97517108035E+02  0.97517108035E+02  0.00000000000E+00 0.  1.
         23    2    1    2    0    0  0.00000000000E+00  0.00000000000E+00 -0.76489407623E+02  0.11854480845E+03  0.90566230635E+02 0.  0.
          2    1    3    3  502    0 -0.27934607654E+02  0.20393705741E+02  0.13560292150E-01  0.34586785374E+02  0.00000000000E+00 0. -1.
         -2    1    3    3    0  502  0.27934607654E+02 -0.20393705741E+02 -0.76502967915E+02  0.83958023073E+02  0.00000000000E+00 0.  1.
<mgrwt>
<rscale>  0 0.90566231E+02</rscale>
<asrwt>0</asrwt>
<pdfrwt beam="1">  1        3 0.32350307E-02 0.90566231E+02</pdfrwt>
<pdfrwt beam="2">  1       -3 0.15002632E-01 0.90566231E+02</pdfrwt>
<totfact> 0.33961260E+04</totfact>
</mgrwt>
</event>
<event>
 5    1  0.4023633E+001  0.9494969E+02  0.7546771E-02  0.1291289E+00
          2   -1    0    0  501    0  0.00000000000E+00  0.00000000000E+00  0.15702821302E+03  0.15702821302E+03  0.00000000000E+00 0. -1.
         -2   -1    0    0    0  501 -0.00000000000E+00 -0.00000000000E+00 -0.14353223018E+02  0.14353223018E+02  0.00000000000E+00 0.  1.
         23    2    1    2    0    0  0.00000000000E+00  0.00000000000E+00  0.14267499000E+03  0.17138143603E+03  0.94949691132E+02 0.  0.
          2    1    3    3  502    0 -0.34991478352E+02  0.29320834939E+01  0.12900794985E+03  0.13370135300E+03  0.00000000000E+00 0. -1.
         -2    1    3    3    0  502  0.34991478352E+02 -0.29320834939E+01  0.13667040152E+02  0.37680083033E+02  0.00000000000E+00 0.  1.
<mgrwt>
<rscale>  0 0.94949691E+02</rscale>
<asrwt>0</asrwt>
<pdfrwt beam="1">  1        2 0.24158185E-01 0.94949691E+02</pdfrwt>
<pdfrwt beam="2">  1       -2 0.22081883E-02 0.94949691E+02</pdfrwt>
<totfact> 0.12718888E+05</totfact>
</mgrwt>
</event>
<event>
 5    1  0.4023633E+001  0.9121490E+02  0.7546771E-02  0.1299936E+00
          2   -1    0    0  501    0  0.00000000000E+00  0.00000000000E+00  0.29923459350E+04  0.29923459350E+04  0.00000000000E+00 0. -1.
         -2   -1    0    0    0  501 -0.00000000000E+00 -0.00000000000E+00 -0.69511993427E+00  0.69511993427E+00  0.00000000000E+00 0.  1.
         23    2    1    2    0    0  0.00000000000E+00  0.00000000000E+00  0.29916508151E+04  0.29930410550E+04  0.91214895925E+02 0.  0.
          2    1    3    3  502    0 -0.30716026557E+02 -0.27819784153E+02  0.21206750959E+04  0.21210799790E+04  0.00000000000E+00 0. -1.
         -2    1    3    3    0  502  0.30716026557E+02  0.27819784153E+02  0.87097571916E+03  0.87196107600E+03  0.00000000000E+00 0.  1.
<mgrwt>
<rscale>  0 0.91214896E+02</rscale>
<asrwt>0</asrwt>
<pdfrwt beam="1">  1        2 0.46035060E+00 0.91214896E+02</pdfrwt>
<pdfrwt beam="2">  1       -2 0.10694392E-03 0.91214896E+02</pdfrwt>
<totfact> 0.10246981E+05</totfact>
</mgrwt>
</event>
<event>
 5    1  0.4023633E+001  0.9206832E+02  0.7546771E-02  0.1297919E+00
         -1   -1    0    0    0  501 -0.00000000000E+00  0.00000000000E+00  0.10679348011E+02  0.10679348011E+02  0.00000000000E+00 0.  1.
          1   -1    0    0  501    0  0.00000000000E+00 -0.00000000000E+00 -0.19843383870E+03  0.19843383870E+03  0.00000000000E+00 0. -1.
         23    2    1    2    0    0  0.00000000000E+00  0.00000000000E+00 -0.18775449069E+03  0.20911318671E+03  0.92068322905E+02 0.  0.
          2    1    3    3  502    0  0.41344765112E+02 -0.16480748667E+02 -0.67182248157E+02  0.80588207240E+02  0.00000000000E+00 0. -1.
         -2    1    3    3    0  502 -0.41344765112E+02  0.16480748667E+02 -0.12057224253E+03  0.12852497947E+03  0.00000000000E+00 0.  1.
<mgrwt>
<rscale>  0 0.92068323E+02</rscale>
<asrwt>0</asrwt>
<pdfrwt beam="2">  1        1 0.30528282E-01 0.92068323E+02</pdfrwt>
<pdfrwt beam="1">  1       -1 0.16429767E-02 0.92068323E+02</pdfrwt>
<totfact> 0.11517618E+05</totfact>
</mgrwt>
</event>
<event>
 5    1  0.4023633E+001  0.8969174E+02  0.7546771E-02  0.1303600E+00
          1   -1    0    0  501    0  0.00000000000E+00  0.00000000000E+00  0.61841673399E+03  0.61841673399E+03  0.00000000000E+00 0. -1.
         -1   -1    0    0    0  501 -0.00000000000E+00 -0.00000000000E+00 -0.32520982343E+01  0.32520982343E+01  0.00000000000E+00 0.  1.
         23    2    1    2    0    0  0.00000000000E+00  0.00000000000E+00  0.61516463575E+03  0.62166883222E+03  0.89691738052E+02 0.  0.
          2    1    3    3  502    0  0.21412394547E+02  0.29140145371E+02  0.49142349707E+03  0.49275216102E+03  0.00000000000E+00 0. -1.
         -2    1    3    3    0  502 -0.21412394547E+02 -0.29140145371E+02  0.12374113868E+03  0.12891667121E+03  0.00000000000E+00 0.  1.
<mgrwt>
<rscale>  0 0.89691738E+02</rscale>
<asrwt>0</asrwt>
<pdfrwt beam="1">  1        1 0.95140943E-01 0.89691738E+02</pdfrwt>
<pdfrwt beam="2">  1       -1 0.50032330E-03 0.89691738E+02</pdfrwt>
<totfact> 0.14811061E+05</totfact>
</mgrwt>
</event>
<event>
 5    1  0.4023633E+001  0.9172503E+02  0.7546771E-02  0.1298727E+00
         -2   -1    0    0    0  501 -0.00000000000E+00  0.00000000000E+00  0.10445569627E+02  0.10445569627E+02  0.00000000000E+00 0.  1.
          2   -1    0    0  501    0  0.00000000000E+00 -0.00000000000E+00 -0.20136482399E+03  0.20136482399E+03  0.00000000000E+00 0. -1.
         23    2    1    2    0    0  0.00000000000E+00  0.00000000000E+00 -0.19091925436E+03  0.21181039361E+03  0.91725030159E+02 0.  0.
          2    1    3    3  502    0 -0.16154589867E+02  0.42024560770E+02 -0.11563509236E+03  0.12409072917E+03  0.00000000000E+00 0. -1.
         -2    1    3    3    0  502  0.16154589867E+02 -0.42024560770E+02 -0.75284162005E+02  0.87719664445E+02  0.00000000000E+00 0.  1.
<mgrwt>
<rscale>  0 0.91725030E+02</rscale>
<asrwt>0</asrwt>
<pdfrwt beam="2">  1        2 0.30979204E-01 0.91725030E+02</pdfrwt>
<pdfrwt beam="1">  1       -2 0.16070107E-02 0.91725030E+02</pdfrwt>
<totfact> 0.15257586E+05</totfact>
</mgrwt>
</event>
<event>
 5    1  0.4023633E+001  0.8966558E+02  0.7546771E-02  0.1303664E+00
         -3   -1    0    0    0  501 -0.00000000000E+00  0.00000000000E+00  0.19532506402E+01  0.19532506402E+01  0.00000000000E+00 0.  1.
          3   -1    0    0  501    0  0.00000000000E+00 -0.00000000000E+00 -0.10290431259E+04  0.10290431259E+04  0.00000000000E+00 0. -1.
         23    2    1    2    0    0  0.00000000000E+00  0.00000000000E+00 -0.10270898753E+04  0.10309963766E+04  0.89665581904E+02 0.  0.
          2    1    3    3  502    0 -0.26325488316E+02 -0.11581272504E+01 -0.93060094509E+03  0.93097394786E+03  0.00000000000E+00 0. -1.
         -2    1    3    3    0  502  0.26325488316E+02  0.11581272504E+01 -0.96488930210E+02  0.10002242872E+03  0.00000000000E+00 0.  1.
<mgrwt>
<rscale>  0 0.89665582E+02</rscale>
<asrwt>0</asrwt>
<pdfrwt beam="2">  1        3 0.15831390E+00 0.89665582E+02</pdfrwt>
<pdfrwt beam="1">  1       -3 0.30050090E-03 0.89665582E+02</pdfrwt>
<totfact> 0.10146481E+04</totfact>
</mgrwt>
</event>
<event>
 5    1  0.4023633E+001  0.9077026E+02  0.7546771E-02  0.1300997E+00
         -1   -1    0    0    0  501 -0.00000000000E+00  0.00000000000E+00  0.70146959602E+02  0.70146959602E+02  0.00000000000E+00 0.  1.
          1   -1    0    0  501    0  0.00000000000E+00 -0.00000000000E+00 -0.29364211348E+02  0.29364211348E+02  0.00000000000E+00 0. -1.
         23    2    1    2    0    0  0.00000000000E+00  0.00000000000E+00  0.40782748254E+02  0.99511170950E+02  0.90770262690E+02 0.  0.
          2    1    3    3  502    0  0.28016832675E+02 -0.12293554149E+02 -0.16358879877E+02  0.34694197462E+02  0.00000000000E+00 0. -1.
         -2    1    3    3    0  502 -0.28016832675E+02  0.12293554149E+02  0.57141628130E+02  0.64816973488E+02  0.00000000000E+00 0.  1.
<mgrwt>
<rscale>  0 0.90770263E+02</rscale>
<asrwt>0</asrwt>
<pdfrwt beam="2">  1        1 0.45175710E-02 0.90770263E+02</pdfrwt>
<pdfrwt beam="1">  1       -1 0.10791840E-01 0.90770263E+02</pdfrwt>
<totfact> 0.87500927E+04</totfact>
</mgrwt>
</event>
<event>
 5    1  0.4023633E+001  0.7313156E+02  0.7546771E-02  0.1349757E+00
         -3   -1    0    0    0  501 -0.00000000000E+00  0.00000000000E+00  0.10721856314E+02  0.10721856314E+02  0.00000000000E+00 0.  1.
          3   -1    0    0  501    0  0.00000000000E+00 -0.00000000000E+00 -0.12470379919E+03  0.12470379919E+03  0.00000000000E+00 0. -1.
         23    2    1    2    0    0  0.00000000000E+00  0.00000000000E+00 -0.11398194288E+03  0.13542565550E+03  0.73131558626E+02 0.  0.
          2    1    3    3  502    0  0.13332835984E+02  0.15895585470E+02 -0.11274923738E+03  0.11464215927E+03  0.00000000000E+00 0. -1.
         -2    1    3    3    0  502 -0.13332835984E+02 -0.15895585470E+02 -0.12327054968E+01  0.20783496233E+02  0.00000000000E+00 0.  1.
<mgrwt>
<rscale>  0 0.73131559E+02</rscale>
<asrwt>0</asrwt>
<pdfrwt beam="2">  1        3 0.19185200E-01 0.73131559E+02</pdfrwt>
<pdfrwt beam="1">  1       -3 0.16495164E-02 0.73131559E+02</pdfrwt>
<totfact> 0.58101820E+04</totfact>
</mgrwt>
</event>
<event>
 5    1  0.4023633E+001  0.9716069E+02  0.7546771E-02  0.1286383E+00
         -1   -1    0    0    0  501 -0.00000000000E+00  0.00000000000E+00  0.60400128535E+02  0.60400128535E+02  0.00000000000E+00 0.  1.
          1   -1    0    0  501    0  0.00000000000E+00 -0.00000000000E+00 -0.39073587193E+02  0.39073587193E+02  0.00000000000E+00 0. -1.
         23    2    1    2    0    0  0.00000000000E+00  0.00000000000E+00  0.21326541342E+02  0.99473715727E+02  0.97160685233E+02 0.  0.
          2    1    3    3  502    0 -0.15484722306E+02 -0.15022375859E+02 -0.33899961822E+02  0.40182780054E+02  0.00000000000E+00 0. -1.
         -2    1    3    3    0  502  0.15484722306E+02  0.15022375859E+02  0.55226503164E+02  0.59290935674E+02  0.00000000000E+00 0.  1.
<mgrwt>
<rscale>  0 0.97160685E+02</rscale>
<asrwt>0</asrwt>
<pdfrwt beam="2">  1        1 0.60113211E-02 0.97160685E+02</pdfrwt>
<pdfrwt beam="1">  1       -1 0.92923274E-02 0.97160685E+02</pdfrwt>
<totfact> 0.75388804E+04</totfact>
</mgrwt>
</event>
<event>
 5    1  0.4023633E+001  0.7174041E+02  0.7546771E-02  0.1354273E+00
         -2   -1    0    0    0  501 -0.00000000000E+00  0.00000000000E+00  0.13601471293E+01  0.13601471293E+01  0.00000000000E+00 0.  1.
          2   -1    0    0  501    0  0.00000000000E+00 -0.00000000000E+00 -0.94597976234E+03  0.94597976234E+03  0.00000000000E+00 0. -1.
         23    2    1    2    0    0  0.00000000000E+00  0.00000000000E+00 -0.94461961521E+03  0.94733990947E+03  0.71740411433E+02 0.  0.
          2    1    3    3  502    0 -0.23312919748E+02 -0.23804758015E+02 -0.64775045798E+03  0.64860682585E+03  0.00000000000E+00 0. -1.
         -2    1    3    3    0  502  0.23312919748E+02  0.23804758015E+02 -0.29686915723E+03  0.29873308362E+03  0.00000000000E+00 0.  1.
<mgrwt>
<rscale>  0 0.71740411E+02</rscale>
<asrwt>0</asrwt>
<pdfrwt beam="2">  1        2 0.14553516E+00 0.71740411E+02</pdfrwt>
<pdfrwt beam="1">  1       -2 0.20925368E-03 0.71740411E+02</pdfrwt>
<totfact> 0.46484736E+05</totfact>
</mgrwt>
</event>
<event>
 5    1  0.4023633E+001  0.9020711E+02  0.7546771E-02  0.1302351E+00
         -3   -1    0    0    0  501 -0.00000000000E+00  0.00000000000E+00  0.78718585370E+01  0.78718585370E+01  0.00000000000E+00 0.  1.
          3   -1    0    0  501    0  0.00000000000E+00 -0.00000000000E+00 -0.25843077090E+03  0.25843077090E+03  0.00000000000E+00 0. -1.
         23    2    1    2    0    0  0.00000000000E+00  0.00000000000E+00 -0.25055891236E+03  0.26630262944E+03  0.90207105488E+02 0.  0.
          2    1    3    3  502    0  0.22436308837E+02  0.19697385638E+02 -0.22508378324E+03  0.22705524533E+03  0.00000000000E+00 0. -1.
         -2    1    3    3    0  502 -0.22436308837E+02 -0.19697385638E+02 -0.25475129121E+02  0.39247384103E+02  0.00000000000E+00 0.  1.
<mgrwt>
<rscale>  0 0.90207105E+02</rscale>
<asrwt>0</asrwt>
<pdfrwt beam="2">  1        3 0.39758575E-01 0.90207105E+02</pdfrwt>
<pdfrwt beam="1">  1       -3 0.12110553E-02 0.90207105E+02</pdfrwt>
<totfact> 0.26135578E+04</totfact>
</mgrwt>
</event>
<event>
 5    1  0.4023633E+001  0.8657082E+02  0.7546771E-02  0.1311375E+00
         -2   -1    0    0    0  501 -0.00000000000E+00  0.00000000000E+00  0.18253026445E+03  0.18253026445E+03  0.00000000000E+00 0.  1.
          2   -1    0    0  501    0  0.00000000000E+00 -0.00000000000E+00 -0.10264746200E+02  0.10264746200E+02  0.00000000000E+00 0. -1.
         23    2    1    2    0    0  0.00000000000E+00  0.00000000000E+00  0.17226551825E+03  0.19279501066E+03  0.86570822764E+02 0.  0.
          2    1    3    3  502    0  0.28804558570E+02 -0.81575458671E+00  0.14201067874E+02  0.32125354142E+02  0.00000000000E+00 0. -1.
         -2    1    3    3    0  502 -0.28804558570E+02  0.81575458671E+00  0.15806445038E+03  0.16066965651E+03  0.00000000000E+00 0.  1.
<mgrwt>
<rscale>  0 0.86570823E+02</rscale>
<asrwt>0</asrwt>
<pdfrwt beam="2">  1        2 0.15791919E-02 0.86570823E+02</pdfrwt>
<pdfrwt beam="1">  1       -2 0.28081577E-01 0.86570823E+02</pdfrwt>
<totfact> 0.73892367E+04</totfact>
</mgrwt>
</event>
<event>
 5    1  0.4023633E+001  0.8810514E+02  0.7546771E-02  0.1307506E+00
          2   -1    0    0  501    0  0.00000000000E+00  0.00000000000E+00  0.38175163209E+02  0.38175163209E+02  0.00000000000E+00 0. -1.
         -2   -1    0    0    0  501 -0.00000000000E+00 -0.00000000000E+00 -0.50834857105E+02  0.50834857105E+02  0.00000000000E+00 0.  1.
         23    2    1    2    0    0  0.00000000000E+00  0.00000000000E+00 -0.12659693896E+02  0.89010020313E+02  0.88105140977E+02 0.  0.
          2    1    3    3  502    0 -0.18968134246E+02 -0.96123102574E+01  0.32646726620E+02  0.38961460242E+02  0.00000000000E+00 0. -1.
         -2    1    3    3    0  502  0.18968134246E+02  0.96123102574E+01 -0.45306420516E+02  0.50048560071E+02  0.00000000000E+00 0.  1.
<mgrwt>
<rscale>  0 0.88105141E+02</rscale>
<asrwt>0</asrwt>
<pdfrwt beam="1">  1        2 0.58731020E-02 0.88105141E+02</pdfrwt>
<pdfrwt beam="2">  1       -2 0.78207472E-02 0.88105141E+02</pdfrwt>
<totfact> 0.10406642E+05</totfact>
</mgrwt>
</event>
<event>
 5    1  0.4023633E+001  0.9251151E+02  0.7546771E-02  0.1296881E+00
          1   -1    0    0  501    0  0.00000000000E+00  0.00000000000E+00  0.97046306505E+01  0.97046306505E+01  0.00000000000E+00 0. -1.
         -1   -1    0    0    0  501 -0.00000000000E+00 -0.00000000000E+00 -0.22047153577E+03  0.22047153577E+03  0.00000000000E+00 0.  1.
         23    2    1    2    0    0  0.00000000000E+00  0.00000000000E+00 -0.21076690511E+03  0.23017616642E+03  0.92511508982E+02 0.  0.
          2    1    3    3  502    0 -0.12399703903E+02  0.43977937634E+02 -0.12328781646E+03  0.13148268838E+03  0.00000000000E+00 0. -1.
         -2    1    3    3    0  502  0.12399703903E+02 -0.43977937634E+02 -0.87479088653E+02  0.98693478037E+02  0.00000000000E+00 0.  1.
<mgrwt>
<rscale>  0 0.92511509E+02</rscale>
<asrwt>0</asrwt>
<pdfrwt beam="1">  1        1 0.14930201E-02 0.92511509E+02</pdfrwt>
<pdfrwt beam="2">  1       -1 0.33918698E-01 0.92511509E+02</pdfrwt>
<totfact> 0.64935158E+04</totfact>
</mgrwt>
</event>
<event>
 5    1  0.4023633E+001  0.9187529E+02  0.7546771E-02  0.1298373E+00
         -1   -1    0    0    0  501 -0.00000000000E+00  0.00000000000E+00  0.12562449039E+02  0.12562449039E+02  0.00000000000E+00 0.  1.
          1   -1    0    0  501    0  0.00000000000E+00 -0.00000000000E+00 -0.16798214766E+03  0.16798214766E+03  0.00000000000E+00 0. -1.
         23    2    1    2    0    0  0.00000000000E+00  0.00000000000E+00 -0.15541969862E+03  0.18054459670E+03  0.91875288723E+02 0.  0.
          2    1    3    3  502    0 -0.34163802983E+02  0.30626232835E+02 -0.73256556318E+02  0.86438733306E+02  0.00000000000E+00 0.  1.
         -2    1    3    3    0  502  0.34163802983E+02 -0.30626232835E+02 -0.82163142303E+02  0.94105863394E+02  0.00000000000E+00 0. -1.
<mgrwt>
<rscale>  0 0.91875289E+02</rscale>
<asrwt>0</asrwt>
<pdfrwt beam="2">  1        1 0.25843406E-01 0.91875289E+02</pdfrwt>
<pdfrwt beam="1">  1       -1 0.19326845E-02 0.91875289E+02</pdfrwt>
<totfact> 0.11218750E+05</totfact>
</mgrwt>
</event>
<event>
 5    1  0.4023633E+001  0.8767166E+02  0.7546771E-02  0.1308590E+00
         -1   -1    0    0    0  501 -0.00000000000E+00  0.00000000000E+00  0.40397600462E+01  0.40397600462E+01  0.00000000000E+00 0.  1.
          1   -1    0    0  501    0  0.00000000000E+00 -0.00000000000E+00 -0.47566687719E+03  0.47566687719E+03  0.00000000000E+00 0. -1.
         23    2    1    2    0    0  0.00000000000E+00  0.00000000000E+00 -0.47162711714E+03  0.47970663724E+03  0.87671661232E+02 0.  0.
          2    1    3    3  502    0 -0.59826886230E+00  0.32433457537E+02 -0.74489339693E+02  0.81246223429E+02  0.00000000000E+00 0.  1.
         -2    1    3    3    0  502  0.59826886230E+00 -0.32433457537E+02 -0.39713777745E+03  0.39846041381E+03  0.00000000000E+00 0. -1.
<mgrwt>
<rscale>  0 0.87671661E+02</rscale>
<asrwt>0</asrwt>
<pdfrwt beam="2">  1        1 0.73179471E-01 0.87671661E+02</pdfrwt>
<pdfrwt beam="1">  1       -1 0.62150196E-03 0.87671661E+02</pdfrwt>
<totfact> 0.15352488E+05</totfact>
</mgrwt>
</event>
<event>
 5    1  0.4023633E+001  0.8744601E+02  0.7546771E-02  0.1309157E+00
         -2   -1    0    0    0  501 -0.00000000000E+00  0.00000000000E+00  0.56141734109E+00  0.56141734109E+00  0.00000000000E+00 0.  1.
          2   -1    0    0  501    0  0.00000000000E+00 -0.00000000000E+00 -0.34051336608E+04  0.34051336608E+04  0.00000000000E+00 0. -1.
         23    2    1    2    0    0  0.00000000000E+00  0.00000000000E+00 -0.34045722434E+04  0.34056950781E+04  0.87446008162E+02 0.  0.
          2    1    3    3  502    0  0.21523037922E+02 -0.38007792136E+02 -0.17788792837E+04  0.17794154488E+04  0.00000000000E+00 0. -1.
         -2    1    3    3    0  502 -0.21523037922E+02  0.38007792136E+02 -0.16256929597E+04  0.16262796293E+04  0.00000000000E+00 0.  1.
<mgrwt>
<rscale>  0 0.87446008E+02</rscale>
<asrwt>0</asrwt>
<pdfrwt beam="2">  1        2 0.52385502E+00 0.87446008E+02</pdfrwt>
<pdfrwt beam="1">  1       -2 0.86373827E-04 0.87446008E+02</pdfrwt>
<totfact> 0.77930483E+04</totfact>
</mgrwt>
</event>
<event>
 5    1  0.4023633E+001  0.9229142E+02  0.7546771E-02  0.1297396E+00
         -1   -1    0    0    0  501 -0.00000000000E+00  0.00000000000E+00  0.76371132689E+01  0.76371132689E+01  0.00000000000E+00 0.  1.
          1   -1    0    0  501    0  0.00000000000E+00 -0.00000000000E+00 -0.27882608493E+03  0.27882608493E+03  0.00000000000E+00 0. -1.
         23    2    1    2    0    0  0.00000000000E+00  0.00000000000E+00 -0.27118897167E+03  0.28646319820E+03  0.92291416567E+02 0.  0.
          2    1    3    3  502    0 -0.15447689132E+02  0.18190242671E+02 -0.25818513540E+03  0.25928571146E+03  0.00000000000E+00 0. -1.
         -2    1    3    3    0  502  0.15447689132E+02 -0.18190242671E+02 -0.13003836270E+02  0.27177486744E+02  0.00000000000E+00 0.  1.
<mgrwt>
<rscale>  0 0.92291417E+02</rscale>
<asrwt>0</asrwt>
<pdfrwt beam="2">  1        1 0.42896318E-01 0.92291417E+02</pdfrwt>
<pdfrwt beam="1">  1       -1 0.11749406E-02 0.92291417E+02</pdfrwt>
<totfact> 0.12229668E+05</totfact>
</mgrwt>
</event>
<event>
 5    1  0.4023633E+001  0.9093954E+02  0.7546771E-02  0.1300592E+00
          3   -1    0    0  501    0  0.00000000000E+00  0.00000000000E+00  0.17420379779E+03  0.17420379779E+03  0.00000000000E+00 0. -1.
         -3   -1    0    0    0  501 -0.00000000000E+00 -0.00000000000E+00 -0.11868282186E+02  0.11868282186E+02  0.00000000000E+00 0.  1.
         23    2    1    2    0    0  0.00000000000E+00  0.00000000000E+00  0.16233551561E+03  0.18607207998E+03  0.90939536620E+02 0.  0.
          2    1    3    3  502    0  0.16997330803E+02 -0.40298640805E+02  0.55725980838E+02  0.70839781518E+02  0.00000000000E+00 0. -1.
         -2    1    3    3    0  502 -0.16997330803E+02  0.40298640805E+02  0.10660953477E+03  0.11523229846E+03  0.00000000000E+00 0.  1.
<mgrwt>
<rscale>  0 0.90939537E+02</rscale>
<asrwt>0</asrwt>
<pdfrwt beam="1">  1        3 0.26800582E-01 0.90939537E+02</pdfrwt>
<pdfrwt beam="2">  1       -3 0.18258897E-02 0.90939537E+02</pdfrwt>
<totfact> 0.29441365E+04</totfact>
</mgrwt>
</event>
<event>
 5    1  0.4023633E+001  0.9191832E+02  0.7546771E-02  0.1298272E+00
         -1   -1    0    0    0  501 -0.00000000000E+00  0.00000000000E+00  0.26329235350E+01  0.26329235350E+01  0.00000000000E+00 0.  1.
          1   -1    0    0  501    0  0.00000000000E+00 -0.00000000000E+00 -0.80224295757E+03  0.80224295757E+03  0.00000000000E+00 0. -1.
         23    2    1    2    0    0  0.00000000000E+00  0.00000000000E+00 -0.79961003404E+03  0.80487588111E+03  0.91918319475E+02 0.  0.
          2    1    3    3  502    0 -0.34190044579E+02 -0.29835438188E+02 -0.33597803928E+03  0.33902854658E+03  0.00000000000E+00 0. -1.
         -2    1    3    3    0  502  0.34190044579E+02  0.29835438188E+02 -0.46363199476E+03  0.46584733452E+03  0.00000000000E+00 0.  1.
<mgrwt>
<rscale>  0 0.91918319E+02</rscale>
<asrwt>0</asrwt>
<pdfrwt beam="2">  1        1 0.12342198E+00 0.91918319E+02</pdfrwt>
<pdfrwt beam="1">  1       -1 0.40506522E-03 0.91918319E+02</pdfrwt>
<totfact> 0.13826967E+05</totfact>
</mgrwt>
</event>
<event>
 5    1  0.4023633E+001  0.9300256E+02  0.7546771E-02  0.1295739E+00
         -2   -1    0    0    0  501 -0.00000000000E+00  0.00000000000E+00  0.19454744158E+01  0.19454744158E+01  0.00000000000E+00 0. -1.
          2   -1    0    0  501    0  0.00000000000E+00 -0.00000000000E+00 -0.11114866821E+04  0.11114866821E+04  0.00000000000E+00 0.  1.
         23    2    1    2    0    0  0.00000000000E+00  0.00000000000E+00 -0.11095412077E+04  0.11134321566E+04  0.93002557031E+02 0.  0.
          2    1    3    3  502    0 -0.22970800568E+02 -0.23649611278E+02 -0.16216605923E+03  0.16548351144E+03  0.00000000000E+00 0. -1.
         -2    1    3    3    0  502  0.22970800568E+02  0.23649611278E+02 -0.94737514849E+03  0.94794864512E+03  0.00000000000E+00 0.  1.
<mgrwt>
<rscale>  0 0.93002557E+02</rscale>
<asrwt>0</asrwt>
<pdfrwt beam="2">  1        2 0.17099850E+00 0.93002557E+02</pdfrwt>
<pdfrwt beam="1">  1       -2 0.29930280E-03 0.93002557E+02</pdfrwt>
<totfact> 0.23736804E+05</totfact>
</mgrwt>
</event>
<event>
 5    1  0.4023633E+001  0.9362344E+02  0.7546771E-02  0.1294307E+00
          2   -1    0    0  501    0  0.00000000000E+00  0.00000000000E+00  0.45464829116E+03  0.45464829116E+03  0.00000000000E+00 0. -1.
         -2   -1    0    0    0  501 -0.00000000000E+00 -0.00000000000E+00 -0.48198512567E+01  0.48198512567E+01  0.00000000000E+00 0.  1.
         23    2    1    2    0    0  0.00000000000E+00  0.00000000000E+00  0.44982843990E+03  0.45946814242E+03  0.93623440174E+02 0.  0.
          2    1    3    3  502    0 -0.45789181075E+02 -0.76684556242E+01  0.25431197094E+03  0.25851505348E+03  0.00000000000E+00 0. -1.
         -2    1    3    3    0  502  0.45789181075E+02  0.76684556242E+01  0.19551646897E+03  0.20095308893E+03  0.00000000000E+00 0.  1.
<mgrwt>
<rscale>  0 0.93623440E+02</rscale>
<asrwt>0</asrwt>
<pdfrwt beam="1">  1        2 0.69945857E-01 0.93623440E+02</pdfrwt>
<pdfrwt beam="2">  1       -2 0.74151593E-03 0.93623440E+02</pdfrwt>
<totfact> 0.19459974E+05</totfact>
</mgrwt>
</event>
<event>
 5    1  0.4023633E+001  0.9070118E+02  0.7546771E-02  0.1301163E+00
         -1   -1    0    0    0  501 -0.00000000000E+00  0.00000000000E+00  0.23378528873E+01  0.23378528873E+01  0.00000000000E+00 0.  1.
          1   -1    0    0  501    0  0.00000000000E+00 -0.00000000000E+00 -0.87972861341E+03  0.87972861341E+03  0.00000000000E+00 0. -1.
         23    2    1    2    0    0  0.00000000000E+00  0.00000000000E+00 -0.87739076052E+03  0.88206646630E+03  0.90701181445E+02 0.  0.
          2    1    3    3  502    0 -0.15902122725E+02  0.31681260398E+02 -0.71377568813E+03  0.71465538040E+03  0.00000000000E+00 0. -1.
         -2    1    3    3    0  502  0.15902122725E+02 -0.31681260398E+02 -0.16361507239E+03  0.16741108590E+03  0.00000000000E+00 0.  1.
<mgrwt>
<rscale>  0 0.90701181E+02</rscale>
<asrwt>0</asrwt>
<pdfrwt beam="2">  1        1 0.13534278E+00 0.90701181E+02</pdfrwt>
<pdfrwt beam="1">  1       -1 0.35966989E-03 0.90701181E+02</pdfrwt>
<totfact> 0.14164116E+05</totfact>
</mgrwt>
</event>
<event>
 5    1  0.4023633E+001  0.9056782E+02  0.7546771E-02  0.1301482E+00
         -2   -1    0    0    0  501 -0.00000000000E+00  0.00000000000E+00  0.19610831801E+01  0.19610831801E+01  0.00000000000E+00 0.  1.
          2   -1    0    0  501    0  0.00000000000E+00 -0.00000000000E+00 -0.10456632215E+04  0.10456632215E+04  0.00000000000E+00 0. -1.
         23    2    1    2    0    0  0.00000000000E+00  0.00000000000E+00 -0.10437021383E+04  0.10476243047E+04  0.90567821122E+02 0.  0.
          2    1    3    3  502    0 -0.12795197830E+02 -0.32575453398E+02 -0.85424825001E+03  0.85496488226E+03  0.00000000000E+00 0. -1.
         -2    1    3    3    0  502  0.12795197830E+02  0.32575453398E+02 -0.18945388829E+03  0.19265942240E+03  0.00000000000E+00 0.  1.
<mgrwt>
<rscale>  0 0.90567821E+02</rscale>
<asrwt>0</asrwt>
<pdfrwt beam="2">  1        2 0.16087121E+00 0.90567821E+02</pdfrwt>
<pdfrwt beam="1">  1       -2 0.30170520E-03 0.90567821E+02</pdfrwt>
<totfact> 0.25477081E+05</totfact>
</mgrwt>
</event>
<event>
 5    1  0.4023633E+001  0.9135819E+02  0.7546771E-02  0.1299596E+00
          1   -1    0    0  501    0  0.00000000000E+00  0.00000000000E+00  0.59980808452E+03  0.59980808452E+03  0.00000000000E+00 0. -1.
         -1   -1    0    0    0  501 -0.00000000000E+00 -0.00000000000E+00 -0.34787458025E+01  0.34787458025E+01  0.00000000000E+00 0.  1.
         23    2    1    2    0    0  0.00000000000E+00  0.00000000000E+00  0.59632933871E+03  0.60328683032E+03  0.91358192984E+02 0.  0.
          2    1    3    3  502    0 -0.30524048261E+02 -0.19719231340E+02  0.48093040052E+03  0.48230137440E+03  0.00000000000E+00 0. -1.
         -2    1    3    3    0  502  0.30524048261E+02  0.19719231340E+02  0.11539893820E+03  0.12098545592E+03  0.00000000000E+00 0.  1.
<mgrwt>
<rscale>  0 0.91358193E+02</rscale>
<asrwt>0</asrwt>
<pdfrwt beam="1">  1        1 0.92278085E-01 0.91358193E+02</pdfrwt>
<pdfrwt beam="2">  1       -1 0.53519214E-03 0.91358193E+02</pdfrwt>
<totfact> 0.14084162E+05</totfact>
</mgrwt>
</event>
<event>
 5    1  0.4023633E+001  0.9155158E+02  0.7546771E-02  0.1299137E+00
         -2   -1    0    0    0  501 -0.00000000000E+00  0.00000000000E+00  0.37102494204E+03  0.37102494204E+03  0.00000000000E+00 0.  1.
          2   -1    0    0  501    0  0.00000000000E+00 -0.00000000000E+00 -0.56476608798E+01  0.56476608798E+01  0.00000000000E+00 0. -1.
         23    2    1    2    0    0  0.00000000000E+00  0.00000000000E+00  0.36537728116E+03  0.37667260292E+03  0.91551582195E+02 0.  0.
          2    1    3    3  502    0  0.12988134344E+02 -0.26248568245E+02  0.37940295120E+02  0.47928540166E+02  0.00000000000E+00 0. -1.
         -2    1    3    3    0  502 -0.12988134344E+02  0.26248568245E+02  0.32743698604E+03  0.32874406275E+03  0.00000000000E+00 0.  1.
<mgrwt>
<rscale>  0 0.91551582E+02</rscale>
<asrwt>0</asrwt>
<pdfrwt beam="2">  1        2 0.86887119E-03 0.91551582E+02</pdfrwt>
<pdfrwt beam="1">  1       -2 0.57080741E-01 0.91551582E+02</pdfrwt>
<totfact> 0.44393145E+04</totfact>
</mgrwt>
</event>
<event>
 5    1  0.4023633E+001  0.9213678E+02  0.7546771E-02  0.1297758E+00
          2   -1    0    0  501    0  0.00000000000E+00  0.00000000000E+00  0.64057300716E+03  0.64057300716E+03  0.00000000000E+00 0. -1.
         -2   -1    0    0    0  501 -0.00000000000E+00 -0.00000000000E+00 -0.33131218119E+01  0.33131218119E+01  0.00000000000E+00 0.  1.
         23    2    1    2    0    0  0.00000000000E+00  0.00000000000E+00  0.63725988535E+03  0.64388612898E+03  0.92136776634E+02 0.  0.
          2    1    3    3  502    0  0.39992050609E+02 -0.17498866472E+02  0.42150912812E+03  0.42376351840E+03  0.00000000000E+00 0. -1.
         -2    1    3    3    0  502 -0.39992050609E+02  0.17498866472E+02  0.21575075723E+03  0.22012261057E+03  0.00000000000E+00 0.  1.
<mgrwt>
<rscale>  0 0.92136777E+02</rscale>
<asrwt>0</asrwt>
<pdfrwt beam="1">  1        2 0.98549595E-01 0.92136777E+02</pdfrwt>
<pdfrwt beam="2">  1       -2 0.50971156E-03 0.92136777E+02</pdfrwt>
<totfact> 0.22563725E+05</totfact>
</mgrwt>
</event>
<event>
 5    1  0.4023633E+001  0.9138444E+02  0.7546771E-02  0.1299533E+00
          2   -1    0    0  501    0  0.00000000000E+00  0.00000000000E+00  0.15468308442E+03  0.15468308442E+03  0.00000000000E+00 0. -1.
         -2   -1    0    0    0  501 -0.00000000000E+00 -0.00000000000E+00 -0.13497138841E+02  0.13497138841E+02  0.00000000000E+00 0.  1.
         23    2    1    2    0    0  0.00000000000E+00  0.00000000000E+00  0.14118594558E+03  0.16818022326E+03  0.91384442151E+02 0.  0.
          2    1    3    3  502    0 -0.32114605053E+02 -0.25047180938E+02  0.10871418502E+03  0.11609256287E+03  0.00000000000E+00 0. -1.
         -2    1    3    3    0  502  0.32114605053E+02  0.25047180938E+02  0.32471760560E+02  0.52087660387E+02  0.00000000000E+00 0.  1.
<mgrwt>
<rscale>  0 0.91384442E+02</rscale>
<asrwt>0</asrwt>
<pdfrwt beam="1">  1        2 0.23797396E-01 0.91384442E+02</pdfrwt>
<pdfrwt beam="2">  1       -2 0.20764830E-02 0.91384442E+02</pdfrwt>
<totfact> 0.14041519E+05</totfact>
</mgrwt>
</event>
<event>
 5    1  0.4023633E+001  0.8772590E+02  0.7546771E-02  0.1308454E+00
          2   -1    0    0  501    0  0.00000000000E+00  0.00000000000E+00  0.89679211976E+03  0.89679211976E+03  0.00000000000E+00 0. -1.
         -2   -1    0    0    0  501 -0.00000000000E+00 -0.00000000000E+00 -0.21453785127E+01  0.21453785127E+01  0.00000000000E+00 0.  1.
         23    2    1    2    0    0  0.00000000000E+00  0.00000000000E+00  0.89464674124E+03  0.89893749827E+03  0.87725903679E+02 0.  0.
          2    1    3    3  502    0 -0.31225050743E+02 -0.30047732062E+02  0.37775719000E+03  0.38023461783E+03  0.00000000000E+00 0. -1.
         -2    1    3    3    0  502  0.31225050743E+02  0.30047732062E+02  0.51688955124E+03  0.51870288044E+03  0.00000000000E+00 0.  1.
<mgrwt>
<rscale>  0 0.87725904E+02</rscale>
<asrwt>0</asrwt>
<pdfrwt beam="1">  1        2 0.13796772E+00 0.87725904E+02</pdfrwt>
<pdfrwt beam="2">  1       -2 0.33005895E-03 0.87725904E+02</pdfrwt>
<totfact> 0.27429656E+05</totfact>
</mgrwt>
</event>
<event>
 5    1  0.4023633E+001  0.9139314E+02  0.7546771E-02  0.1299513E+00
         -2   -1    0    0    0  501 -0.00000000000E+00  0.00000000000E+00  0.25312107836E+02  0.25312107836E+02  0.00000000000E+00 0. -1.
          2   -1    0    0  501    0  0.00000000000E+00 -0.00000000000E+00 -0.82497144151E+02  0.82497144151E+02  0.00000000000E+00 0.  1.
         23    2    1    2    0    0  0.00000000000E+00  0.00000000000E+00 -0.57185036315E+02  0.10780925199E+03  0.91393142170E+02 0.  0.
          2    1    3    3  502    0  0.27150463046E+02 -0.95402447479E+01 -0.70465113901E+02  0.76115019481E+02  0.00000000000E+00 0.  1.
         -2    1    3    3    0  502 -0.27150463046E+02  0.95402447479E+01  0.13280077587E+02  0.31694232506E+02  0.00000000000E+00 0. -1.
<mgrwt>
<rscale>  0 0.91393142E+02</rscale>
<asrwt>0</asrwt>
<pdfrwt beam="2">  1        2 0.12691868E-01 0.91393142E+02</pdfrwt>
<pdfrwt beam="1">  1       -2 0.38941705E-02 0.91393142E+02</pdfrwt>
<totfact> 0.11511370E+05</totfact>
</mgrwt>
</event>
<event>
 5    1  0.4023633E+001  0.9017435E+02  0.7546771E-02  0.1302430E+00
         -1   -1    0    0    0  501 -0.00000000000E+00  0.00000000000E+00  0.20858716767E+01  0.20858716767E+01  0.00000000000E+00 0.  1.
          1   -1    0    0  501    0  0.00000000000E+00 -0.00000000000E+00 -0.97458214143E+03  0.97458214143E+03  0.00000000000E+00 0. -1.
         23    2    1    2    0    0  0.00000000000E+00  0.00000000000E+00 -0.97249626975E+03  0.97666801311E+03  0.90174348580E+02 0.  0.
          2    1    3    3  502    0 -0.30211306626E+01 -0.37582409275E+02 -0.75403365367E+03  0.75497570529E+03  0.00000000000E+00 0. -1.
         -2    1    3    3    0  502  0.30211306626E+01  0.37582409275E+02 -0.21846261609E+03  0.22169230782E+03  0.00000000000E+00 0.  1.
<mgrwt>
<rscale>  0 0.90174349E+02</rscale>
<asrwt>0</asrwt>
<pdfrwt beam="2">  1        1 0.14993555E+00 0.90174349E+02</pdfrwt>
<pdfrwt beam="1">  1       -1 0.32090370E-03 0.90174349E+02</pdfrwt>
<totfact> 0.14096446E+05</totfact>
</mgrwt>
</event>
<event>
 5    1  0.4023633E+001  0.8991900E+02  0.7546771E-02  0.1303048E+00
         -1   -1    0    0    0  501 -0.00000000000E+00  0.00000000000E+00  0.39707691974E+01  0.39707691974E+01  0.00000000000E+00 0.  1.
          1   -1    0    0  501    0  0.00000000000E+00 -0.00000000000E+00 -0.50905919360E+03  0.50905919360E+03  0.00000000000E+00 0. -1.
         23    2    1    2    0    0  0.00000000000E+00  0.00000000000E+00 -0.50508842440E+03  0.51302996280E+03  0.89918998339E+02 0.  0.
          2    1    3    3  502    0  0.42298367263E+02 -0.15046284295E+02 -0.26630139741E+03  0.27005920982E+03  0.00000000000E+00 0. -1.
         -2    1    3    3    0  502 -0.42298367263E+02  0.15046284295E+02 -0.23878702699E+03  0.24297075298E+03  0.00000000000E+00 0.  1.
<mgrwt>
<rscale>  0 0.89918998E+02</rscale>
<asrwt>0</asrwt>
<pdfrwt beam="2">  1        1 0.78316843E-01 0.89918998E+02</pdfrwt>
<pdfrwt beam="1">  1       -1 0.61088723E-03 0.89918998E+02</pdfrwt>
<totfact> 0.14478158E+05</totfact>
</mgrwt>
</event>
<event>
 5    1  0.4023633E+001  0.8897705E+02  0.7546771E-02  0.1305348E+00
          2   -1    0    0  501    0  0.00000000000E+00  0.00000000000E+00  0.26992680406E+04  0.26992680406E+04  0.00000000000E+00 0. -1.
         -2   -1    0    0    0  501 -0.00000000000E+00 -0.00000000000E+00 -0.73324652380E+00  0.73324652380E+00  0.00000000000E+00 0.  1.
         23    2    1    2    0    0  0.00000000000E+00  0.00000000000E+00  0.26985347941E+04  0.27000012871E+04  0.88977051144E+02 0.  0.
          2    1    3    3  502    0  0.40480163719E+02  0.15715210599E+02  0.10556618403E+04  0.10565545573E+04  0.00000000000E+00 0. -1.
         -2    1    3    3    0  502 -0.40480163719E+02 -0.15715210599E+02  0.16428729538E+04  0.16434467298E+04  0.00000000000E+00 0.  1.
<mgrwt>
<rscale>  0 0.88977051E+02</rscale>
<asrwt>0</asrwt>
<pdfrwt beam="1">  1        2 0.41526405E+00 0.88977051E+02</pdfrwt>
<pdfrwt beam="2">  1       -2 0.11280932E-03 0.88977051E+02</pdfrwt>
<totfact> 0.13801921E+05</totfact>
</mgrwt>
</event>
<event>
 5    1  0.4023633E+001  0.9064118E+02  0.7546771E-02  0.1301306E+00
         -3   -1    0    0    0  501 -0.00000000000E+00  0.00000000000E+00  0.49126149934E+03  0.49126149934E+03  0.00000000000E+00 0.  1.
          3   -1    0    0  501    0  0.00000000000E+00 -0.00000000000E+00 -0.41809831231E+01  0.41809831231E+01  0.00000000000E+00 0. -1.
         23    2    1    2    0    0  0.00000000000E+00  0.00000000000E+00  0.48708051621E+03  0.49544248246E+03  0.90641183526E+02 0.  0.
          2    1    3    3  502    0 -0.36971702820E+02  0.21663615948E+02  0.16288479941E+03  0.16842706713E+03  0.00000000000E+00 0. -1.
         -2    1    3    3    0  502  0.36971702820E+02 -0.21663615948E+02  0.32419571680E+03  0.32701541532E+03  0.00000000000E+00 0.  1.
<mgrwt>
<rscale>  0 0.90641184E+02</rscale>
<asrwt>0</asrwt>
<pdfrwt beam="2">  1        3 0.64322856E-03 0.90641184E+02</pdfrwt>
<pdfrwt beam="1">  1       -3 0.75578647E-01 0.90641184E+02</pdfrwt>
<totfact> 0.18287264E+04</totfact>
</mgrwt>
</event>
<event>
 5    1  0.4023633E+001  0.9068332E+02  0.7546771E-02  0.1301205E+00
          1   -1    0    0  501    0  0.00000000000E+00  0.00000000000E+00  0.19323748624E+04  0.19323748624E+04  0.00000000000E+00 0. -1.
         -1   -1    0    0    0  501 -0.00000000000E+00 -0.00000000000E+00 -0.10639065030E+01  0.10639065030E+01  0.00000000000E+00 0.  1.
         23    2    1    2    0    0  0.00000000000E+00  0.00000000000E+00  0.19313109559E+04  0.19334387689E+04  0.90683321119E+02 0.  0.
          2    1    3    3  502    0 -0.25466146667E+02 -0.35696233846E+02  0.12116499720E+04  0.12124431535E+04  0.00000000000E+00 0. -1.
         -2    1    3    3    0  502  0.25466146667E+02  0.35696233846E+02  0.71966098383E+03  0.72099561537E+03  0.00000000000E+00 0.  1.
<mgrwt>
<rscale>  0 0.90683321E+02</rscale>
<asrwt>0</asrwt>
<pdfrwt beam="1">  1        1 0.29728563E+00 0.90683321E+02</pdfrwt>
<pdfrwt beam="2">  1       -1 0.16367947E-03 0.90683321E+02</pdfrwt>
<totfact> 0.85044397E+04</totfact>
</mgrwt>
</event>
<event>
 5    1  0.4023633E+001  0.9098969E+02  0.7546771E-02  0.1300473E+00
         -1   -1    0    0    0  501 -0.00000000000E+00  0.00000000000E+00  0.80201818733E+01  0.80201818733E+01  0.00000000000E+00 0.  1.
          1   -1    0    0  501    0  0.00000000000E+00 -0.00000000000E+00 -0.25807159116E+03  0.25807159116E+03  0.00000000000E+00 0. -1.
         23    2    1    2    0    0  0.00000000000E+00  0.00000000000E+00 -0.25005140928E+03  0.26609177303E+03  0.90989693865E+02 0.  0.
          2    1    3    3  502    0 -0.21860325267E+02 -0.38450296751E+02 -0.93872505548E+02  0.10377064343E+03  0.00000000000E+00 0. -1.
         -2    1    3    3    0  502  0.21860325267E+02  0.38450296751E+02 -0.15617890373E+03  0.16232112959E+03  0.00000000000E+00 0.  1.
<mgrwt>
<rscale>  0 0.90989694E+02</rscale>
<asrwt>0</asrwt>
<pdfrwt beam="2">  1        1 0.39703316E-01 0.90989694E+02</pdfrwt>
<pdfrwt beam="1">  1       -1 0.12338743E-02 0.90989694E+02</pdfrwt>
<totfact> 0.12512291E+05</totfact>
</mgrwt>
</event>
<event>
 5    1  0.4023633E+001  0.7761930E+02  0.7546771E-02  0.1335947E+00
          3   -1    0    0  501    0  0.00000000000E+00  0.00000000000E+00  0.35360186611E+03  0.35360186611E+03  0.00000000000E+00 0. -1.
         -3   -1    0    0    0  501 -0.00000000000E+00 -0.00000000000E+00 -0.42595614651E+01  0.42595614651E+01  0.00000000000E+00 0.  1.
         23    2    1    2    0    0  0.00000000000E+00  0.00000000000E+00  0.34934230465E+03  0.35786142758E+03  0.77619298705E+02 0.  0.
          2    1    3    3  502    0  0.25808826322E+02  0.28288609519E+02  0.14556745914E+03  0.15051985286E+03  0.00000000000E+00 0.  1.
         -2    1    3    3    0  502 -0.25808826322E+02 -0.28288609519E+02  0.20377484551E+03  0.20734157472E+03  0.00000000000E+00 0. -1.
<mgrwt>
<rscale>  0 0.77619299E+02</rscale>
<asrwt>0</asrwt>
<pdfrwt beam="1">  1        3 0.54400264E-01 0.77619299E+02</pdfrwt>
<pdfrwt beam="2">  1       -3 0.65531743E-03 0.77619299E+02</pdfrwt>
<totfact> 0.33641050E+04</totfact>
</mgrwt>
</event>
<event>
 5    1  0.4023633E+001  0.9078508E+02  0.7546771E-02  0.1300962E+00
          1   -1    0    0  501    0  0.00000000000E+00  0.00000000000E+00  0.11307909225E+03  0.11307909225E+03  0.00000000000E+00 0. -1.
         -1   -1    0    0    0  501 -0.00000000000E+00 -0.00000000000E+00 -0.18221604785E+02  0.18221604785E+02  0.00000000000E+00 0.  1.
         23    2    1    2    0    0  0.00000000000E+00  0.00000000000E+00  0.94857487462E+02  0.13130069703E+03  0.90785076490E+02 0.  0.
          2    1    3    3  502    0  0.12881154597E+02 -0.43456699426E+02  0.50993072771E+02  0.68225378998E+02  0.00000000000E+00 0. -1.
         -2    1    3    3    0  502 -0.12881154597E+02  0.43456699426E+02  0.43864414691E+02  0.63075318033E+02  0.00000000000E+00 0.  1.
<mgrwt>
<rscale>  0 0.90785076E+02</rscale>
<asrwt>0</asrwt>
<pdfrwt beam="1">  1        1 0.17396783E-01 0.90785076E+02</pdfrwt>
<pdfrwt beam="2">  1       -1 0.28033239E-02 0.90785076E+02</pdfrwt>
<totfact> 0.10789472E+05</totfact>
</mgrwt>
</event>
<event>
 5    1  0.4023633E+001  0.9136149E+02  0.7546771E-02  0.1299588E+00
          2   -1    0    0  501    0  0.00000000000E+00  0.00000000000E+00  0.49739340388E+01  0.49739340388E+01  0.00000000000E+00 0.  1.
         -2   -1    0    0    0  501 -0.00000000000E+00 -0.00000000000E+00 -0.41953317677E+03  0.41953317677E+03  0.00000000000E+00 0. -1.
         23    2    1    2    0    0  0.00000000000E+00  0.00000000000E+00 -0.41455924274E+03  0.42450711081E+03  0.91361487474E+02 0.  0.
          2    1    3    3  502    0 -0.71926544102E+01  0.39232451336E+02 -0.10381787295E+03  0.11121632191E+03  0.00000000000E+00 0.  1.
         -2    1    3    3    0  502  0.71926544102E+01 -0.39232451336E+02 -0.31074136979E+03  0.31329078890E+03  0.00000000000E+00 0. -1.
<mgrwt>
<rscale>  0 0.91361487E+02</rscale>
<asrwt>0</asrwt>
<pdfrwt beam="1">  1        2 0.76522077E-03 0.91361487E+02</pdfrwt>
<pdfrwt beam="2">  1       -2 0.64543553E-01 0.91361487E+02</pdfrwt>
<totfact> 0.41101324E+04</totfact>
</mgrwt>
</event>
<event>
 5    1  0.4023633E+001  0.8863334E+02  0.7546771E-02  0.1306195E+00
          2   -1    0    0  501    0  0.00000000000E+00  0.00000000000E+00  0.12744661872E+03  0.12744661872E+03  0.00000000000E+00 0. -1.
         -2   -1    0    0    0  501 -0.00000000000E+00 -0.00000000000E+00 -0.15410117836E+02  0.15410117836E+02  0.00000000000E+00 0.  1.
         23    2    1    2    0    0  0.00000000000E+00  0.00000000000E+00  0.11203650089E+03  0.14285673656E+03  0.88633343891E+02 0.  0.
          2    1    3    3  502    0 -0.36136501856E+02 -0.22115929102E+02  0.76971677798E+02  0.87861255793E+02  0.00000000000E+00 0. -1.
         -2    1    3    3    0  502  0.36136501856E+02  0.22115929102E+02  0.35064823090E+02  0.54995480767E+02  0.00000000000E+00 0.  1.
<mgrwt>
<rscale>  0 0.88633344E+02</rscale>
<asrwt>0</asrwt>
<pdfrwt beam="1">  1        2 0.19607171E-01 0.88633344E+02</pdfrwt>
<pdfrwt beam="2">  1       -2 0.23707874E-02 0.88633344E+02</pdfrwt>
<totfact> 0.14301535E+05</totfact>
</mgrwt>
</event>
<event>
 5    1  0.4023633E+001  0.9246056E+02  0.7546771E-02  0.1297000E+00
         -2   -1    0    0    0  501 -0.00000000000E+00  0.00000000000E+00  0.28416543600E+01  0.28416543600E+01  0.00000000000E+00 0.  1.
          2   -1    0    0  501    0  0.00000000000E+00 -0.00000000000E+00 -0.75211071539E+03  0.75211071539E+03  0.00000000000E+00 0. -1.
         23    2    1    2    0    0  0.00000000000E+00  0.00000000000E+00 -0.74926906103E+03  0.75495236975E+03  0.92460557940E+02 0.  0.
          2    1    3    3  502    0 -0.20289442138E+02 -0.16267003737E+02 -0.68672641546E+03  0.68721863083E+03  0.00000000000E+00 0. -1.
         -2    1    3    3    0  502  0.20289442138E+02  0.16267003737E+02 -0.62542645568E+02  0.67733738915E+02  0.00000000000E+00 0.  1.
<mgrwt>
<rscale>  0 0.92460558E+02</rscale>
<asrwt>0</asrwt>
<pdfrwt beam="2">  1        2 0.11570953E+00 0.92460558E+02</pdfrwt>
<pdfrwt beam="1">  1       -2 0.43717689E-03 0.92460558E+02</pdfrwt>
<totfact> 0.23217188E+05</totfact>
</mgrwt>
</event>
<event>
 5    1  0.4023633E+001  0.9176902E+02  0.7546771E-02  0.1298623E+00
         -1   -1    0    0    0  501 -0.00000000000E+00  0.00000000000E+00  0.12516088548E+01  0.12516088548E+01  0.00000000000E+00 0.  1.
          1   -1    0    0  501    0  0.00000000000E+00 -0.00000000000E+00 -0.16821453661E+04  0.16821453661E+04  0.00000000000E+00 0. -1.
         23    2    1    2    0    0  0.00000000000E+00  0.00000000000E+00 -0.16808937572E+04  0.16833969749E+04  0.91769015148E+02 0.  0.
          2    1    3    3  502    0 -0.33360435668E+02  0.12325001388E+02 -0.13722805000E+04  0.13727412703E+04  0.00000000000E+00 0. -1.
         -2    1    3    3    0  502  0.33360435668E+02 -0.12325001388E+02 -0.30861325721E+03  0.31065570469E+03  0.00000000000E+00 0.  1.
<mgrwt>
<rscale>  0 0.91769015E+02</rscale>
<asrwt>0</asrwt>
<pdfrwt beam="2">  1        1 0.25879006E+00 0.91769015E+02</pdfrwt>
<pdfrwt beam="1">  1       -1 0.19255635E-03 0.91769015E+02</pdfrwt>
<totfact> 0.97621376E+04</totfact>
</mgrwt>
</event>
<event>
 5    1  0.4023633E+001  0.9271302E+02  0.7546771E-02  0.1296412E+00
          1   -1    0    0  501    0  0.00000000000E+00  0.00000000000E+00  0.16406448134E+04  0.16406448134E+04  0.00000000000E+00 0. -1.
         -1   -1    0    0    0  501 -0.00000000000E+00 -0.00000000000E+00 -0.13098058377E+01  0.13098058377E+01  0.00000000000E+00 0.  1.
         23    2    1    2    0    0  0.00000000000E+00  0.00000000000E+00  0.16393350076E+04  0.16419546192E+04  0.92713022907E+02 0.  0.
          2    1    3    3  502    0 -0.22790913058E+02 -0.28663914683E+02  0.13230451812E+04  0.13235518869E+04  0.00000000000E+00 0. -1.
         -2    1    3    3    0  502  0.22790913058E+02  0.28663914683E+02  0.31628982632E+03  0.31840273233E+03  0.00000000000E+00 0.  1.
<mgrwt>
<rscale>  0 0.92713023E+02</rscale>
<asrwt>0</asrwt>
<pdfrwt beam="1">  1        1 0.25240525E+00 0.92713023E+02</pdfrwt>
<pdfrwt beam="2">  1       -1 0.20150990E-03 0.92713023E+02</pdfrwt>
<totfact> 0.97474668E+04</totfact>
</mgrwt>
</event>
<event>
 5    1  0.4023633E+001  0.9171958E+02  0.7546771E-02  0.1298740E+00
         -2   -1    0    0    0  501 -0.00000000000E+00  0.00000000000E+00  0.26116631088E+01  0.26116631088E+01  0.00000000000E+00 0. -1.
          2   -1    0    0  501    0  0.00000000000E+00 -0.00000000000E+00 -0.80528009026E+03  0.80528009026E+03  0.00000000000E+00 0.  1.
         23    2    1    2    0    0  0.00000000000E+00  0.00000000000E+00 -0.80266842715E+03  0.80789175337E+03  0.91719579240E+02 0.  0.
          2    1    3    3  502    0 -0.24275746776E+02 -0.29803806898E+02 -0.18103183269E+03  0.18506783414E+03  0.00000000000E+00 0. -1.
         -2    1    3    3    0  502  0.24275746776E+02  0.29803806898E+02 -0.62163659446E+03  0.62282391923E+03  0.00000000000E+00 0.  1.
<mgrwt>
<rscale>  0 0.91719579E+02</rscale>
<asrwt>0</asrwt>
<pdfrwt beam="2">  1        2 0.12388936E+00 0.91719579E+02</pdfrwt>
<pdfrwt beam="1">  1       -2 0.40179394E-03 0.91719579E+02</pdfrwt>
<totfact> 0.24023035E+05</totfact>
</mgrwt>
</event>
<event>
 5    1  0.4023633E+001  0.9097776E+02  0.7546771E-02  0.1300501E+00
         -1   -1    0    0    0  501 -0.00000000000E+00  0.00000000000E+00  0.25378658975E+01  0.25378658975E+01  0.00000000000E+00 0.  1.
          1   -1    0    0  501    0  0.00000000000E+00 -0.00000000000E+00 -0.81534582871E+03  0.81534582871E+03  0.00000000000E+00 0. -1.
         23    2    1    2    0    0  0.00000000000E+00  0.00000000000E+00 -0.81280796281E+03  0.81788369461E+03  0.90977763730E+02 0.  0.
          2    1    3    3  502    0  0.18426939881E+02 -0.12647971967E+02 -0.76258166557E+03  0.76290911645E+03  0.00000000000E+00 0. -1.
         -2    1    3    3    0  502 -0.18426939881E+02  0.12647971967E+02 -0.50226297246E+02  0.54974578155E+02  0.00000000000E+00 0.  1.
<mgrwt>
<rscale>  0 0.90977764E+02</rscale>
<asrwt>0</asrwt>
<pdfrwt beam="2">  1        1 0.12543780E+00 0.90977764E+02</pdfrwt>
<pdfrwt beam="1">  1       -1 0.39044097E-03 0.90977764E+02</pdfrwt>
<totfact> 0.14186510E+05</totfact>
</mgrwt>
</event>
<event>
 5    1  0.4023633E+001  0.9147650E+02  0.7546771E-02  0.1299315E+00
          1   -1    0    0  501    0  0.00000000000E+00  0.00000000000E+00  0.53259971002E+03  0.53259971002E+03  0.00000000000E+00 0. -1.
         -1   -1    0    0    0  501 -0.00000000000E+00 -0.00000000000E+00 -0.39278794683E+01  0.39278794683E+01  0.00000000000E+00 0.  1.
         23    2    1    2    0    0  0.00000000000E+00  0.00000000000E+00  0.52867183056E+03  0.53652758949E+03  0.91476498967E+02 0.  0.
          2    1    3    3  502    0 -0.19604985700E+02  0.40815547296E+02  0.22645060824E+03  0.23093319887E+03  0.00000000000E+00 0. -1.
         -2    1    3    3    0  502  0.19604985700E+02 -0.40815547296E+02  0.30222122231E+03  0.30559439062E+03  0.00000000000E+00 0.  1.
<mgrwt>
<rscale>  0 0.91476499E+02</rscale>
<asrwt>0</asrwt>
<pdfrwt beam="1">  1        1 0.81938360E-01 0.91476499E+02</pdfrwt>
<pdfrwt beam="2">  1       -1 0.60428957E-03 0.91476499E+02</pdfrwt>
<totfact> 0.13901606E+05</totfact>
</mgrwt>
</event>
<event>
 5    1  0.4023633E+001  0.8935828E+02  0.7546771E-02  0.1304413E+00
          4   -1    0    0  501    0  0.00000000000E+00  0.00000000000E+00  0.79509330758E+02  0.79509330758E+02  0.00000000000E+00 0. -1.
         -4   -1    0    0    0  501 -0.00000000000E+00 -0.00000000000E+00 -0.25106808887E+02  0.25106808887E+02  0.00000000000E+00 0.  1.
         23    2    1    2    0    0  0.00000000000E+00  0.00000000000E+00  0.54402521871E+02  0.10461613964E+03  0.89358280468E+02 0.  0.
          2    1    3    3  502    0  0.11283170923E+02  0.41289053592E+02  0.12202428679E+02  0.44508371777E+02  0.00000000000E+00 0. -1.
         -2    1    3    3    0  502 -0.11283170923E+02 -0.41289053592E+02  0.42200093193E+02  0.60107767868E+02  0.00000000000E+00 0.  1.
<mgrwt>
<rscale>  0 0.89358280E+02</rscale>
<asrwt>0</asrwt>
<pdfrwt beam="1">  1        4 0.12232205E-01 0.89358280E+02</pdfrwt>
<pdfrwt beam="2">  1       -4 0.38625860E-02 0.89358280E+02</pdfrwt>
<totfact> 0.27638427E+04</totfact>
</mgrwt>
</event>
<event>
 5    1  0.4023633E+001  0.8813132E+02  0.7546771E-02  0.1307441E+00
         -1   -1    0    0    0  501 -0.00000000000E+00  0.00000000000E+00  0.11629389678E+03  0.11629389678E+03  0.00000000000E+00 0.  1.
          1   -1    0    0  501    0  0.00000000000E+00 -0.00000000000E+00 -0.16697199253E+02  0.16697199253E+02  0.00000000000E+00 0. -1.
         23    2    1    2    0    0  0.00000000000E+00  0.00000000000E+00  0.99596697531E+02  0.13299109604E+03  0.88131319440E+02 0.  0.
          2    1    3    3  502    0  0.19439274394E+02  0.39523159876E+02  0.51832331086E+02  0.68018792266E+02  0.00000000000E+00 0.  1.
         -2    1    3    3    0  502 -0.19439274394E+02 -0.39523159876E+02  0.47764366445E+02  0.64972303772E+02  0.00000000000E+00 0. -1.
<mgrwt>
<rscale>  0 0.88131319E+02</rscale>
<asrwt>0</asrwt>
<pdfrwt beam="2">  1        1 0.25688000E-02 0.88131319E+02</pdfrwt>
<pdfrwt beam="1">  1       -1 0.17891368E-01 0.88131319E+02</pdfrwt>
<totfact> 0.86270285E+04</totfact>
</mgrwt>
</event>
<event>
 5    1  0.4023633E+001  0.9088246E+02  0.7546771E-02  0.1300729E+00
         -1   -1    0    0    0  501 -0.00000000000E+00  0.00000000000E+00  0.17932716662E+03  0.17932716662E+03  0.00000000000E+00 0.  1.
          1   -1    0    0  501    0  0.00000000000E+00 -0.00000000000E+00 -0.11514737057E+02  0.11514737057E+02  0.00000000000E+00 0. -1.
         23    2    1    2    0    0  0.00000000000E+00  0.00000000000E+00  0.16781242957E+03  0.19084190368E+03  0.90882455309E+02 0.  0.
          2    1    3    3  502    0  0.24217199513E+02  0.79413476161E+01  0.49059976036E+01  0.25953931623E+02  0.00000000000E+00 0. -1.
         -2    1    3    3    0  502 -0.24217199513E+02 -0.79413476161E+01  0.16290643196E+03  0.16488797206E+03  0.00000000000E+00 0.  1.
<mgrwt>
<rscale>  0 0.90882455E+02</rscale>
<asrwt>0</asrwt>
<pdfrwt beam="2">  1        1 0.17714981E-02 0.90882455E+02</pdfrwt>
<pdfrwt beam="1">  1       -1 0.27588793E-01 0.90882455E+02</pdfrwt>
<totfact> 0.72144748E+04</totfact>
</mgrwt>
</event>
<event>
 5    1  0.4023633E+001  0.1009408E+03  0.7546771E-02  0.1278330E+00
          2   -1    0    0  501    0  0.00000000000E+00  0.00000000000E+00  0.42353119765E+02  0.42353119765E+02  0.00000000000E+00 0.  1.
         -2   -1    0    0    0  501 -0.00000000000E+00 -0.00000000000E+00 -0.60143441811E+02  0.60143441811E+02  0.00000000000E+00 0. -1.
         23    2    1    2    0    0  0.00000000000E+00  0.00000000000E+00 -0.17790322046E+02  0.10249656158E+03  0.10094082215E+03 0.  0.
          2    1    3    3  502    0  0.15456269955E+02  0.30317881990E+02  0.28951155591E+02  0.44679297883E+02  0.00000000000E+00 0.  1.
         -2    1    3    3    0  502 -0.15456269955E+02 -0.30317881990E+02 -0.46741477637E+02  0.57817263693E+02  0.00000000000E+00 0. -1.
<mgrwt>
<rscale>  0 0.10094082E+03</rscale>
<asrwt>0</asrwt>
<pdfrwt beam="1">  1        2 0.65158646E-02 0.10094082E+03</pdfrwt>
<pdfrwt beam="2">  1       -2 0.92528372E-02 0.10094082E+03</pdfrwt>
<totfact> 0.71939057E+04</totfact>
</mgrwt>
</event>
<event>
 5    1  0.4023633E+001  0.8818909E+02  0.7546771E-02  0.1307297E+00
         -1   -1    0    0    0  501 -0.00000000000E+00  0.00000000000E+00  0.25010226994E+02  0.25010226994E+02  0.00000000000E+00 0.  1.
          1   -1    0    0  501    0  0.00000000000E+00 -0.00000000000E+00 -0.77741352965E+02  0.77741352965E+02  0.00000000000E+00 0. -1.
         23    2    1    2    0    0  0.00000000000E+00  0.00000000000E+00 -0.52731125971E+02  0.10275157996E+03  0.88189089676E+02 0.  0.
          2    1    3    3  502    0 -0.29578225118E+02  0.13222906780E+02 -0.61214622479E+02  0.69259993287E+02  0.00000000000E+00 0. -1.
         -2    1    3    3    0  502  0.29578225118E+02 -0.13222906780E+02  0.84834965084E+01  0.33491586672E+02  0.00000000000E+00 0.  1.
<mgrwt>
<rscale>  0 0.88189090E+02</rscale>
<asrwt>0</asrwt>
<pdfrwt beam="2">  1        1 0.11960208E-01 0.88189090E+02</pdfrwt>
<pdfrwt beam="1">  1       -1 0.38477272E-02 0.88189090E+02</pdfrwt>
<totfact> 0.10987314E+05</totfact>
</mgrwt>
</event>
<event>
 5    1  0.4023633E+001  0.9111412E+02  0.7546771E-02  0.1300176E+00
          1   -1    0    0  501    0  0.00000000000E+00  0.00000000000E+00  0.19725347106E+03  0.19725347106E+03  0.00000000000E+00 0. -1.
         -1   -1    0    0    0  501 -0.00000000000E+00 -0.00000000000E+00 -0.10521718595E+02  0.10521718595E+02  0.00000000000E+00 0.  1.
         23    2    1    2    0    0  0.00000000000E+00  0.00000000000E+00  0.18673175246E+03  0.20777518965E+03  0.91114115577E+02 0.  0.
          2    1    3    3  502    0  0.41844807118E+02 -0.14149564057E+02  0.67947266212E+02  0.81043377468E+02  0.00000000000E+00 0. -1.
         -2    1    3    3    0  502 -0.41844807118E+02  0.14149564057E+02  0.11878448625E+03  0.12673181218E+03  0.00000000000E+00 0.  1.
<mgrwt>
<rscale>  0 0.91114116E+02</rscale>
<asrwt>0</asrwt>
<pdfrwt beam="1">  1        1 0.30346685E-01 0.91114116E+02</pdfrwt>
<pdfrwt beam="2">  1       -1 0.16187261E-02 0.91114116E+02</pdfrwt>
<totfact> 0.11830750E+05</totfact>
</mgrwt>
</event>
<event>
 5    1  0.4023633E+001  0.9442110E+02  0.7546771E-02  0.1292485E+00
          1   -1    0    0  501    0  0.00000000000E+00  0.00000000000E+00  0.94981135975E+02  0.94981135975E+02  0.00000000000E+00 0. -1.
         -1   -1    0    0    0  501 -0.00000000000E+00 -0.00000000000E+00 -0.23466093654E+02  0.23466093654E+02  0.00000000000E+00 0.  1.
         23    2    1    2    0    0  0.00000000000E+00  0.00000000000E+00  0.71515042321E+02  0.11844722963E+03  0.94421104255E+02 0.  0.
          2    1    3    3  502    0 -0.30122708764E+02  0.35399586600E+02  0.46126952116E+02  0.65484380017E+02  0.00000000000E+00 0. -1.
         -2    1    3    3    0  502  0.30122708764E+02 -0.35399586600E+02  0.25388090205E+02  0.52962849612E+02  0.00000000000E+00 0.  1.
<mgrwt>
<rscale>  0 0.94421104E+02</rscale>
<asrwt>0</asrwt>
<pdfrwt beam="1">  1        1 0.14612482E-01 0.94421104E+02</pdfrwt>
<pdfrwt beam="2">  1       -1 0.36101683E-02 0.94421104E+02</pdfrwt>
<totfact> 0.94109464E+04</totfact>
</mgrwt>
</event>
<event>
 5    1  0.4023633E+001  0.9369405E+02  0.7546771E-02  0.1294145E+00
         -2   -1    0    0    0  501 -0.00000000000E+00  0.00000000000E+00  0.22975711276E+01  0.22975711276E+01  0.00000000000E+00 0.  1.
          2   -1    0    0  501    0  0.00000000000E+00 -0.00000000000E+00 -0.95520175597E+03  0.95520175597E+03  0.00000000000E+00 0. -1.
         23    2    1    2    0    0  0.00000000000E+00  0.00000000000E+00 -0.95290418485E+03  0.95749932710E+03  0.93694054787E+02 0.  0.
          2    1    3    3  502    0  0.44542488755E+01 -0.31685918579E+02 -0.12677357582E+03  0.13074929176E+03  0.00000000000E+00 0.  1.
         -2    1    3    3    0  502 -0.44542488755E+01  0.31685918579E+02 -0.82613060902E+03  0.82675003534E+03  0.00000000000E+00 0. -1.
<mgrwt>
<rscale>  0 0.93694055E+02</rscale>
<asrwt>0</asrwt>
<pdfrwt beam="2">  1        2 0.14695400E+00 0.93694055E+02</pdfrwt>
<pdfrwt beam="1">  1       -2 0.35347275E-03 0.93694055E+02</pdfrwt>
<totfact> 0.23205511E+05</totfact>
</mgrwt>
</event>
<event>
 5    1  0.4023633E+001  0.9020591E+02  0.7546771E-02  0.1302354E+00
         -3   -1    0    0    0  501 -0.00000000000E+00  0.00000000000E+00  0.80264389827E+02  0.80264389827E+02  0.00000000000E+00 0.  1.
          3   -1    0    0  501    0  0.00000000000E+00 -0.00000000000E+00 -0.25344695108E+02  0.25344695108E+02  0.00000000000E+00 0. -1.
         23    2    1    2    0    0  0.00000000000E+00  0.00000000000E+00  0.54919694719E+02  0.10560908494E+03  0.90205908636E+02 0.  0.
          2    1    3    3  502    0 -0.32944094458E+02  0.62136775845E+01 -0.78642675601E+01  0.34435009119E+02  0.00000000000E+00 0. -1.
         -2    1    3    3    0  502  0.32944094458E+02 -0.62136775845E+01  0.62783962279E+02  0.71174075816E+02  0.00000000000E+00 0.  1.
<mgrwt>
<rscale>  0 0.90205909E+02</rscale>
<asrwt>0</asrwt>
<pdfrwt beam="2">  1        3 0.38991839E-02 0.90205909E+02</pdfrwt>
<pdfrwt beam="1">  1       -3 0.12348368E-01 0.90205909E+02</pdfrwt>
<totfact> 0.35272102E+04</totfact>
</mgrwt>
</event>
<event>
 5    1  0.4023633E+001  0.9096069E+02  0.7546771E-02  0.1300542E+00
         -2   -1    0    0    0  501 -0.00000000000E+00  0.00000000000E+00  0.18247304507E+01  0.18247304507E+01  0.00000000000E+00 0.  1.
          2   -1    0    0  501    0  0.00000000000E+00 -0.00000000000E+00 -0.11335711231E+04  0.11335711231E+04  0.00000000000E+00 0. -1.
         23    2    1    2    0    0  0.00000000000E+00  0.00000000000E+00 -0.11317463926E+04  0.11353958535E+04  0.90960689229E+02 0.  0.
          2    1    3    3  502    0 -0.24672591997E+02 -0.10768880177E+02 -0.10234392500E+04  0.10237932428E+04  0.00000000000E+00 0. -1.
         -2    1    3    3    0  502  0.24672591997E+02  0.10768880177E+02 -0.10830714267E+03  0.11160261077E+03  0.00000000000E+00 0.  1.
<mgrwt>
<rscale>  0 0.90960689E+02</rscale>
<asrwt>0</asrwt>
<pdfrwt beam="2">  1        2 0.17439561E+00 0.90960689E+02</pdfrwt>
<pdfrwt beam="1">  1       -2 0.28072768E-03 0.90960689E+02</pdfrwt>
<totfact> 0.25142737E+05</totfact>
</mgrwt>
</event>
<event>
 5    1  0.4023633E+001  0.8836395E+02  0.7546771E-02  0.1306863E+00
         -1   -1    0    0    0  501 -0.00000000000E+00  0.00000000000E+00  0.46043102855E+03  0.46043102855E+03  0.00000000000E+00 0.  1.
          1   -1    0    0  501    0  0.00000000000E+00 -0.00000000000E+00 -0.42396073298E+01  0.42396073298E+01  0.00000000000E+00 0. -1.
         23    2    1    2    0    0  0.00000000000E+00  0.00000000000E+00  0.45619142123E+03  0.46467063588E+03  0.88363946574E+02 0.  0.
          2    1    3    3  502    0 -0.22317377380E+02 -0.24191399604E+02  0.73100086663E+02  0.80168022416E+02  0.00000000000E+00 0. -1.
         -2    1    3    3    0  502  0.22317377380E+02  0.24191399604E+02  0.38309133456E+03  0.38450261347E+03  0.00000000000E+00 0.  1.
<mgrwt>
<rscale>  0 0.88363947E+02</rscale>
<asrwt>0</asrwt>
<pdfrwt beam="2">  1        1 0.65224765E-03 0.88363947E+02</pdfrwt>
<pdfrwt beam="1">  1       -1 0.70835503E-01 0.88363947E+02</pdfrwt>
<totfact> 0.53628913E+04</totfact>
</mgrwt>
</event>
<event>
 5    1  0.4023633E+001  0.9087232E+02  0.7546771E-02  0.1300753E+00
         -2   -1    0    0    0  501 -0.00000000000E+00  0.00000000000E+00  0.13547694181E+02  0.13547694181E+02  0.00000000000E+00 0.  1.
          2   -1    0    0  501    0  0.00000000000E+00 -0.00000000000E+00 -0.15238346538E+03  0.15238346538E+03  0.00000000000E+00 0. -1.
         23    2    1    2    0    0  0.00000000000E+00  0.00000000000E+00 -0.13883577120E+03  0.16593115956E+03  0.90872318933E+02 0.  0.
          2    1    3    3  502    0  0.31649074429E+02  0.40460232551E+01 -0.10350553572E+02  0.33543526583E+02  0.00000000000E+00 0.  1.
         -2    1    3    3    0  502 -0.31649074429E+02 -0.40460232551E+01 -0.12848521762E+03  0.13238763297E+03  0.00000000000E+00 0. -1.
<mgrwt>
<rscale>  0 0.90872319E+02</rscale>
<asrwt>0</asrwt>
<pdfrwt beam="2">  1        2 0.23443611E-01 0.90872319E+02</pdfrwt>
<pdfrwt beam="1">  1       -2 0.20842606E-02 0.90872319E+02</pdfrwt>
<totfact> 0.14184402E+05</totfact>
</mgrwt>
</event>
<event>
 5    1  0.4023633E+001  0.9241424E+02  0.7546771E-02  0.1297108E+00
          2   -1    0    0  501    0  0.00000000000E+00  0.00000000000E+00  0.22302950277E+01  0.22302950277E+01  0.00000000000E+00 0.  1.
         -2   -1    0    0    0  501 -0.00000000000E+00 -0.00000000000E+00 -0.95731636761E+03  0.95731636761E+03  0.00000000000E+00 0. -1.
         23    2    1    2    0    0  0.00000000000E+00  0.00000000000E+00 -0.95508607258E+03  0.95954666264E+03  0.92414239911E+02 0.  0.
          2    1    3    3  502    0  0.59911609792E+00  0.39194919086E+02 -0.73155741774E+03  0.73260689055E+03  0.00000000000E+00 0. -1.
         -2    1    3    3    0  502 -0.59911609792E+00 -0.39194919086E+02 -0.22352865484E+03  0.22693977209E+03  0.00000000000E+00 0.  1.
<mgrwt>
<rscale>  0 0.92414240E+02</rscale>
<asrwt>0</asrwt>
<pdfrwt beam="1">  1        2 0.34312152E-03 0.92414240E+02</pdfrwt>
<pdfrwt beam="2">  1       -2 0.14727978E+00 0.92414240E+02</pdfrwt>
<totfact> 0.18972259E+04</totfact>
</mgrwt>
</event>
<event>
 5    1  0.4023633E+001  0.8966640E+02  0.7546771E-02  0.1303662E+00
         -2   -1    0    0    0  501 -0.00000000000E+00  0.00000000000E+00  0.48609237334E+01  0.48609237334E+01  0.00000000000E+00 0.  1.
          2   -1    0    0  501    0  0.00000000000E+00 -0.00000000000E+00 -0.41350487707E+03  0.41350487707E+03  0.00000000000E+00 0. -1.
         23    2    1    2    0    0  0.00000000000E+00  0.00000000000E+00 -0.40864395334E+03  0.41836580080E+03  0.89666396623E+02 0.  0.
          2    1    3    3  502    0  0.31446661385E+02 -0.31644423074E+02 -0.22505917598E+03  0.22943821546E+03  0.00000000000E+00 0. -1.
         -2    1    3    3    0  502 -0.31446661385E+02  0.31644423074E+02 -0.18358477736E+03  0.18892758534E+03  0.00000000000E+00 0.  1.
<mgrwt>
<rscale>  0 0.89666397E+02</rscale>
<asrwt>0</asrwt>
<pdfrwt beam="2">  1        2 0.63616159E-01 0.89666397E+02</pdfrwt>
<pdfrwt beam="1">  1       -2 0.74783414E-03 0.89666397E+02</pdfrwt>
<totfact> 0.21113991E+05</totfact>
</mgrwt>
</event>
<event>
 5    1  0.4023633E+001  0.9030524E+02  0.7546771E-02  0.1302114E+00
         -2   -1    0    0    0  501 -0.00000000000E+00  0.00000000000E+00  0.80854879345E+01  0.80854879345E+01  0.00000000000E+00 0.  1.
          2   -1    0    0  501    0  0.00000000000E+00 -0.00000000000E+00 -0.25215041605E+03  0.25215041605E+03  0.00000000000E+00 0. -1.
         23    2    1    2    0    0  0.00000000000E+00  0.00000000000E+00 -0.24406492812E+03  0.26023590399E+03  0.90305241191E+02 0.  0.
          2    1    3    3  502    0 -0.35578240663E+02  0.20388853048E+02 -0.17649976868E+03  0.18120067572E+03  0.00000000000E+00 0. -1.
         -2    1    3    3    0  502  0.35578240663E+02 -0.20388853048E+02 -0.67565159439E+02  0.79035228268E+02  0.00000000000E+00 0.  1.
<mgrwt>
<rscale>  0 0.90305241E+02</rscale>
<asrwt>0</asrwt>
<pdfrwt beam="2">  1        2 0.38792363E-01 0.90305241E+02</pdfrwt>
<pdfrwt beam="1">  1       -2 0.12439215E-02 0.90305241E+02</pdfrwt>
<totfact> 0.17277592E+05</totfact>
</mgrwt>
</event>
<event>
 5    1  0.4023633E+001  0.8987009E+02  0.7546771E-02  0.1303167E+00
         -2   -1    0    0    0  501 -0.00000000000E+00  0.00000000000E+00  0.79216181108E+00  0.79216181108E+00  0.00000000000E+00 0.  1.
          2   -1    0    0  501    0  0.00000000000E+00 -0.00000000000E+00 -0.25489213723E+04  0.25489213723E+04  0.00000000000E+00 0. -1.
         23    2    1    2    0    0  0.00000000000E+00  0.00000000000E+00 -0.25481292105E+04  0.25497135341E+04  0.89870087807E+02 0.  0.
          2    1    3    3  502    0  0.14466040672E+02  0.28751234416E+02 -0.21636958891E+04  0.21639352579E+04  0.00000000000E+00 0. -1.
         -2    1    3    3    0  502 -0.14466040672E+02 -0.28751234416E+02 -0.38443332139E+03  0.38577827622E+03  0.00000000000E+00 0.  1.
<mgrwt>
<rscale>  0 0.89870088E+02</rscale>
<asrwt>0</asrwt>
<pdfrwt beam="2">  1        2 0.39214752E+00 0.89870088E+02</pdfrwt>
<pdfrwt beam="1">  1       -2 0.12186925E-03 0.89870088E+02</pdfrwt>
<totfact> 0.14940028E+05</totfact>
</mgrwt>
</event>
<event>
 5    1  0.4023633E+001  0.9015477E+02  0.7546771E-02  0.1302477E+00
          1   -1    0    0  501    0  0.00000000000E+00  0.00000000000E+00  0.51182576905E+03  0.51182576905E+03  0.00000000000E+00 0. -1.
         -1   -1    0    0    0  501 -0.00000000000E+00 -0.00000000000E+00 -0.39700438166E+01  0.39700438166E+01  0.00000000000E+00 0.  1.
         23    2    1    2    0    0  0.00000000000E+00  0.00000000000E+00  0.50785572523E+03  0.51579581286E+03  0.90154772022E+02 0.  0.
          2    1    3    3  502    0  0.19909147899E+01  0.45022235368E+02  0.24819146596E+03  0.25224981506E+03  0.00000000000E+00 0. -1.
         -2    1    3    3    0  502 -0.19909147899E+01 -0.45022235368E+02  0.25966425927E+03  0.26354599781E+03  0.00000000000E+00 0.  1.
<mgrwt>
<rscale>  0 0.90154772E+02</rscale>
<asrwt>0</asrwt>
<pdfrwt beam="1">  1        1 0.78742374E-01 0.90154772E+02</pdfrwt>
<pdfrwt beam="2">  1       -1 0.61077638E-03 0.90154772E+02</pdfrwt>
<totfact> 0.14386961E+05</totfact>
</mgrwt>
</event>
<event>
 5    1  0.4023633E+001  0.9138715E+02  0.7546771E-02  0.1299527E+00
          2   -1    0    0  501    0  0.00000000000E+00  0.00000000000E+00  0.33125458451E+02  0.33125458451E+02  0.00000000000E+00 0. -1.
         -2   -1    0    0    0  501 -0.00000000000E+00 -0.00000000000E+00 -0.63030162317E+02  0.63030162317E+02  0.00000000000E+00 0.  1.
         23    2    1    2    0    0  0.00000000000E+00  0.00000000000E+00 -0.29904703866E+02  0.96155620768E+02  0.91387154961E+02 0.  0.
          2    1    3    3  502    0 -0.50269501018E+00  0.28716569758E+02  0.22440856594E+02  0.36448403609E+02  0.00000000000E+00 0. -1.
         -2    1    3    3    0  502  0.50269501018E+00 -0.28716569758E+02 -0.52345560461E+02  0.59707217159E+02  0.00000000000E+00 0.  1.
<mgrwt>
<rscale>  0 0.91387155E+02</rscale>
<asrwt>0</asrwt>
<pdfrwt beam="1">  1        2 0.50962244E-02 0.91387155E+02</pdfrwt>
<pdfrwt beam="2">  1       -2 0.96969480E-02 0.91387155E+02</pdfrwt>
<totfact> 0.90204149E+04</totfact>
</mgrwt>
</event>
<event>
 5    1  0.4023633E+001  0.9446323E+02  0.7546771E-02  0.1292390E+00
          2   -1    0    0  501    0  0.00000000000E+00  0.00000000000E+00  0.47571780968E+03  0.47571780968E+03  0.00000000000E+00 0.  1.
         -2   -1    0    0    0  501 -0.00000000000E+00 -0.00000000000E+00 -0.46893885931E+01  0.46893885931E+01  0.00000000000E+00 0. -1.
         23    2    1    2    0    0  0.00000000000E+00  0.00000000000E+00  0.47102842109E+03  0.48040719828E+03  0.94463234547E+02 0.  0.
          2    1    3    3  502    0 -0.33118811220E+01 -0.47082504350E+02  0.24446105425E+03  0.24897577757E+03  0.00000000000E+00 0. -1.
         -2    1    3    3    0  502  0.33118811220E+01  0.47082504350E+02  0.22656736684E+03  0.23143142071E+03  0.00000000000E+00 0.  1.
<mgrwt>
<rscale>  0 0.94463235E+02</rscale>
<asrwt>0</asrwt>
<pdfrwt beam="1">  1        2 0.73187317E-01 0.94463235E+02</pdfrwt>
<pdfrwt beam="2">  1       -2 0.72144478E-03 0.94463235E+02</pdfrwt>
<totfact> 0.19297291E+05</totfact>
</mgrwt>
</event>
<event>
 5    1  0.4023633E+001  0.8559047E+02  0.7546771E-02  0.1313896E+00
          2   -1    0    0  501    0  0.00000000000E+00  0.00000000000E+00  0.14400031019E+02  0.14400031019E+02  0.00000000000E+00 0. -1.
         -2   -1    0    0    0  501 -0.00000000000E+00 -0.00000000000E+00 -0.12718252024E+03  0.12718252024E+03  0.00000000000E+00 0.  1.
         23    2    1    2    0    0  0.00000000000E+00  0.00000000000E+00 -0.11278248922E+03  0.14158255126E+03  0.85590472285E+02 0.  0.
          2    1    3    3  502    0  0.27425964616E+02 -0.31564987922E+02 -0.41329953533E+02  0.58793682116E+02  0.00000000000E+00 0. -1.
         -2    1    3    3    0  502 -0.27425964616E+02  0.31564987922E+02 -0.71452535689E+02  0.82788869144E+02  0.00000000000E+00 0.  1.
<mgrwt>
<rscale>  0 0.85590472E+02</rscale>
<asrwt>0</asrwt>
<pdfrwt beam="1">  1        2 0.22153894E-02 0.85590472E+02</pdfrwt>
<pdfrwt beam="2">  1       -2 0.19566541E-01 0.85590472E+02</pdfrwt>
<totfact> 0.86734726E+04</totfact>
</mgrwt>
</event>
<event>
 5    1  0.4023633E+001  0.9054310E+02  0.7546771E-02  0.1301542E+00
         -2   -1    0    0    0  501 -0.00000000000E+00  0.00000000000E+00  0.51603787124E+03  0.51603787124E+03  0.00000000000E+00 0. -1.
          2   -1    0    0  501    0  0.00000000000E+00 -0.00000000000E+00 -0.39716337904E+01  0.39716337904E+01  0.00000000000E+00 0.  1.
         23    2    1    2    0    0  0.00000000000E+00  0.00000000000E+00  0.51206623745E+03  0.52000950503E+03  0.90543104576E+02 0.  0.
          2    1    3    3  502    0  0.60239710843E+01  0.42943857791E+02  0.33070616512E+03  0.33353715055E+03  0.00000000000E+00 0. -1.
         -2    1    3    3    0  502 -0.60239710843E+01 -0.42943857791E+02  0.18136007234E+03  0.18647235449E+03  0.00000000000E+00 0.  1.
<mgrwt>
<rscale>  0 0.90543105E+02</rscale>
<asrwt>0</asrwt>
<pdfrwt beam="2">  1        2 0.61102099E-03 0.90543105E+02</pdfrwt>
<pdfrwt beam="1">  1       -2 0.79390389E-01 0.90543105E+02</pdfrwt>
<totfact> 0.36061061E+04</totfact>
</mgrwt>
</event>
<event>
 5    1  0.4023633E+001  0.9056356E+02  0.7546771E-02  0.1301493E+00
          2   -1    0    0  501    0  0.00000000000E+00  0.00000000000E+00  0.11468493118E+04  0.11468493118E+04  0.00000000000E+00 0.  1.
         -2   -1    0    0    0  501 -0.00000000000E+00 -0.00000000000E+00 -0.17878891598E+01  0.17878891598E+01  0.00000000000E+00 0. -1.
         23    2    1    2    0    0  0.00000000000E+00  0.00000000000E+00  0.11450614226E+04  0.11486372010E+04  0.90563556743E+02 0.  0.
          2    1    3    3  502    0  0.38954369980E+02  0.20837960139E+02  0.69858422884E+03  0.69997970564E+03  0.00000000000E+00 0.  1.
         -2    1    3    3    0  502 -0.38954369980E+02 -0.20837960139E+02  0.44647719380E+03  0.44865749532E+03  0.00000000000E+00 0. -1.
<mgrwt>
<rscale>  0 0.90563557E+02</rscale>
<asrwt>0</asrwt>
<pdfrwt beam="1">  1        2 0.17643777E+00 0.90563557E+02</pdfrwt>
<pdfrwt beam="2">  1       -2 0.27506079E-03 0.90563557E+02</pdfrwt>
<totfact> 0.25415609E+05</totfact>
</mgrwt>
</event>
<event>
 5    1  0.4023633E+001  0.9043495E+02  0.7546771E-02  0.1301802E+00
          1   -1    0    0  501    0  0.00000000000E+00  0.00000000000E+00  0.37265815749E+02  0.37265815749E+02  0.00000000000E+00 0. -1.
         -1   -1    0    0    0  501 -0.00000000000E+00 -0.00000000000E+00 -0.54865839368E+02  0.54865839368E+02  0.00000000000E+00 0.  1.
         23    2    1    2    0    0  0.00000000000E+00  0.00000000000E+00 -0.17600023620E+02  0.92131655117E+02  0.90434954764E+02 0.  0.
          2    1    3    3  502    0 -0.43540841083E+00 -0.25575603827E+02  0.29186533891E+02  0.38809210919E+02  0.00000000000E+00 0. -1.
         -2    1    3    3    0  502  0.43540841083E+00  0.25575603827E+02 -0.46786557511E+02  0.53322444198E+02  0.00000000000E+00 0.  1.
<mgrwt>
<rscale>  0 0.90434955E+02</rscale>
<asrwt>0</asrwt>
<pdfrwt beam="1">  1        1 0.57332024E-02 0.90434955E+02</pdfrwt>
<pdfrwt beam="2">  1       -1 0.84408984E-02 0.90434955E+02</pdfrwt>
<totfact> 0.91787465E+04</totfact>
</mgrwt>
</event>
<event>
 5    1  0.4023633E+001  0.9037757E+02  0.7546771E-02  0.1301940E+00
          3   -1    0    0  501    0  0.00000000000E+00  0.00000000000E+00  0.22025567303E+02  0.22025567303E+02  0.00000000000E+00 0. -1.
         -3   -1    0    0    0  501 -0.00000000000E+00 -0.00000000000E+00 -0.92711631005E+02  0.92711631005E+02  0.00000000000E+00 0.  1.
         23    2    1    2    0    0  0.00000000000E+00  0.00000000000E+00 -0.70686063702E+02  0.11473719831E+03  0.90377569528E+02 0.  0.
          2    1    3    3  502    0 -0.10647448100E+02 -0.30408064913E+02  0.48834550500E+01  0.32586296138E+02  0.00000000000E+00 0. -1.
         -2    1    3    3    0  502  0.10647448100E+02  0.30408064913E+02 -0.75569518752E+02  0.82150902169E+02  0.00000000000E+00 0.  1.
<mgrwt>
<rscale>  0 0.90377570E+02</rscale>
<asrwt>0</asrwt>
<pdfrwt beam="1">  1        3 0.33885488E-02 0.90377570E+02</pdfrwt>
<pdfrwt beam="2">  1       -3 0.14263328E-01 0.90377570E+02</pdfrwt>
<totfact> 0.34424388E+04</totfact>
</mgrwt>
</event>
<event>
 5    1  0.4023633E+001  0.9080439E+02  0.7546771E-02  0.1300915E+00
          4   -1    0    0  501    0  0.00000000000E+00  0.00000000000E+00  0.19594419636E+02  0.19594419636E+02  0.00000000000E+00 0. -1.
         -4   -1    0    0    0  501 -0.00000000000E+00 -0.00000000000E+00 -0.10520134823E+03  0.10520134823E+03  0.00000000000E+00 0.  1.
         23    2    1    2    0    0  0.00000000000E+00  0.00000000000E+00 -0.85606928593E+02  0.12479576786E+03  0.90804391159E+02 0.  0.
          2    1    3    3  502    0 -0.39906913181E+02 -0.48253175692E+01 -0.13795071839E+02  0.42498816647E+02  0.00000000000E+00 0. -1.
         -2    1    3    3    0  502  0.39906913181E+02  0.48253175692E+01 -0.71811856754E+02  0.82296951218E+02  0.00000000000E+00 0.  1.
<mgrwt>
<rscale>  0 0.90804391E+02</rscale>
<asrwt>0</asrwt>
<pdfrwt beam="1">  1        4 0.30145261E-02 0.90804391E+02</pdfrwt>
<pdfrwt beam="2">  1       -4 0.16184823E-01 0.90804391E+02</pdfrwt>
<totfact> 0.25281296E+04</totfact>
</mgrwt>
</event>
<event>
 5    1  0.4023633E+001  0.1010427E+03  0.7546771E-02  0.1278118E+00
          2   -1    0    0  501    0  0.00000000000E+00  0.00000000000E+00  0.54010593667E+03  0.54010593667E+03  0.00000000000E+00 0.  1.
         -2   -1    0    0    0  501 -0.00000000000E+00 -0.00000000000E+00 -0.47257553010E+01  0.47257553010E+01  0.00000000000E+00 0. -1.
         23    2    1    2    0    0  0.00000000000E+00  0.00000000000E+00  0.53538018137E+03  0.54483169197E+03  0.10104273340E+03 0.  0.
          2    1    3    3  502    0  0.38527535096E+02 -0.32679733970E+02  0.26914215959E+03  0.27384272501E+03  0.00000000000E+00 0. -1.
         -2    1    3    3    0  502 -0.38527535096E+02  0.32679733970E+02  0.26623802178E+03  0.27098896696E+03  0.00000000000E+00 0.  1.
<mgrwt>
<rscale>  0 0.10104273E+03</rscale>
<asrwt>0</asrwt>
<pdfrwt beam="1">  1        2 0.83093172E-01 0.10104273E+03</pdfrwt>
<pdfrwt beam="2">  1       -2 0.72703970E-03 0.10104273E+03</pdfrwt>
<totfact> 0.16804716E+05</totfact>
</mgrwt>
</event>
<event>
 5    1  0.4023633E+001  0.8939641E+02  0.7546771E-02  0.1304320E+00
          1   -1    0    0  501    0  0.00000000000E+00  0.00000000000E+00  0.26560334915E+02  0.26560334915E+02  0.00000000000E+00 0. -1.
         -1   -1    0    0    0  501 -0.00000000000E+00 -0.00000000000E+00 -0.75222298120E+02  0.75222298120E+02  0.00000000000E+00 0.  1.
         23    2    1    2    0    0  0.00000000000E+00  0.00000000000E+00 -0.48661963205E+02  0.10178263303E+03  0.89396407782E+02 0.  0.
          2    1    3    3  502    0  0.24666177620E+02 -0.14556331645E+02  0.14740207441E+02  0.32211501436E+02  0.00000000000E+00 0. -1.
         -2    1    3    3    0  502 -0.24666177620E+02  0.14556331645E+02 -0.63402170646E+02  0.69571131599E+02  0.00000000000E+00 0.  1.
<mgrwt>
<rscale>  0 0.89396408E+02</rscale>
<asrwt>0</asrwt>
<pdfrwt beam="1">  1        1 0.40862055E-02 0.89396408E+02</pdfrwt>
<pdfrwt beam="2">  1       -1 0.11572661E-01 0.89396408E+02</pdfrwt>
<totfact> 0.89941963E+04</totfact>
</mgrwt>
</event>
<event>
 5    1  0.4023633E+001  0.9014685E+02  0.7546771E-02  0.1302496E+00
         -2   -1    0    0    0  501 -0.00000000000E+00  0.00000000000E+00  0.16138867032E+01  0.16138867032E+01  0.00000000000E+00 0. -1.
          2   -1    0    0  501    0  0.00000000000E+00 -0.00000000000E+00 -0.12588329354E+04  0.12588329354E+04  0.00000000000E+00 0.  1.
         23    2    1    2    0    0  0.00000000000E+00  0.00000000000E+00 -0.12572190487E+04  0.12604468221E+04  0.90146852100E+02 0.  0.
          2    1    3    3  502    0 -0.86531903156E+01 -0.21762598059E+02 -0.90137813569E+02  0.93130627679E+02  0.00000000000E+00 0. -1.
         -2    1    3    3    0  502  0.86531903156E+01  0.21762598059E+02 -0.11670812351E+04  0.11673161944E+04  0.00000000000E+00 0.  1.
<mgrwt>
<rscale>  0 0.90146852E+02</rscale>
<asrwt>0</asrwt>
<pdfrwt beam="2">  1        2 0.19366652E+00 0.90146852E+02</pdfrwt>
<pdfrwt beam="1">  1       -2 0.24829037E-03 0.90146852E+02</pdfrwt>
<totfact> 0.25459273E+05</totfact>
</mgrwt>
</event>
<event>
 5    1  0.4023633E+001  0.9101996E+02  0.7546771E-02  0.1300400E+00
         -2   -1    0    0    0  501 -0.00000000000E+00  0.00000000000E+00  0.26386602004E+03  0.26386602004E+03  0.00000000000E+00 0.  1.
          2   -1    0    0  501    0  0.00000000000E+00 -0.00000000000E+00 -0.78492801255E+01  0.78492801255E+01  0.00000000000E+00 0. -1.
         23    2    1    2    0    0  0.00000000000E+00  0.00000000000E+00  0.25601673992E+03  0.27171530017E+03  0.91019960600E+02 0.  0.
          2    1    3    3  502    0 -0.27866112443E+02  0.22934518693E+02  0.45244532583E+02  0.57875557008E+02  0.00000000000E+00 0. -1.
         -2    1    3    3    0  502  0.27866112443E+02 -0.22934518693E+02  0.21077220733E+03  0.21383974316E+03  0.00000000000E+00 0.  1.
<mgrwt>
<rscale>  0 0.91019961E+02</rscale>
<asrwt>0</asrwt>
<pdfrwt beam="2">  1        2 0.12075818E-02 0.91019961E+02</pdfrwt>
<pdfrwt beam="1">  1       -2 0.40594765E-01 0.91019961E+02</pdfrwt>
<totfact> 0.54899790E+04</totfact>
</mgrwt>
</event>
<event>
 5    1  0.4023633E+001  0.9205867E+02  0.7546771E-02  0.1297942E+00
          1   -1    0    0  501    0  0.00000000000E+00  0.00000000000E+00  0.14001477738E+02  0.14001477738E+02  0.00000000000E+00 0. -1.
         -1   -1    0    0    0  501 -0.00000000000E+00 -0.00000000000E+00 -0.15131972827E+03  0.15131972827E+03  0.00000000000E+00 0.  1.
         23    2    1    2    0    0  0.00000000000E+00  0.00000000000E+00 -0.13731825053E+03  0.16532120601E+03  0.92058672742E+02 0.  0.
          2    1    3    3  502    0  0.17932149976E+02 -0.30194347451E+02 -0.15221982998E+02  0.38274918513E+02  0.00000000000E+00 0. -1.
         -2    1    3    3    0  502 -0.17932149976E+02  0.30194347451E+02 -0.12209626753E+03  0.12704628750E+03  0.00000000000E+00 0.  1.
<mgrwt>
<rscale>  0 0.92058673E+02</rscale>
<asrwt>0</asrwt>
<pdfrwt beam="1">  1        1 0.21540736E-02 0.92058673E+02</pdfrwt>
<pdfrwt beam="2">  1       -1 0.23279957E-01 0.92058673E+02</pdfrwt>
<totfact> 0.72791016E+04</totfact>
</mgrwt>
</event>
<event>
 5    1  0.4023633E+001  0.9093287E+02  0.7546771E-02  0.1300608E+00
          1   -1    0    0  501    0  0.00000000000E+00  0.00000000000E+00  0.46045045976E+02  0.46045045976E+02  0.00000000000E+00 0. -1.
         -1   -1    0    0    0  501 -0.00000000000E+00 -0.00000000000E+00 -0.44895093914E+02  0.44895093914E+02  0.00000000000E+00 0.  1.
         23    2    1    2    0    0  0.00000000000E+00  0.00000000000E+00  0.11499520620E+01  0.90940139891E+02  0.90932868939E+02 0.  0.
          2    1    3    3  502    0  0.15833800135E+02 -0.36511522308E+02 -0.21413054412E+02  0.45192027917E+02  0.00000000000E+00 0.  1.
         -2    1    3    3    0  502 -0.15833800135E+02  0.36511522308E+02  0.22563006474E+02  0.45748111974E+02  0.00000000000E+00 0. -1.
<mgrwt>
<rscale>  0 0.90932869E+02</rscale>
<asrwt>0</asrwt>
<pdfrwt beam="1">  1        1 0.70838532E-02 0.90932869E+02</pdfrwt>
<pdfrwt beam="2">  1       -1 0.69069375E-02 0.90932869E+02</pdfrwt>
<totfact> 0.93309736E+04</totfact>
</mgrwt>
</event>
<event>
 5    1  0.4023633E+001  0.8575483E+02  0.7546771E-02  0.1313470E+00
          1   -1    0    0  501    0  0.00000000000E+00  0.00000000000E+00  0.73943244914E+03  0.73943244914E+03  0.00000000000E+00 0. -1.
         -1   -1    0    0    0  501 -0.00000000000E+00 -0.00000000000E+00 -0.24863293041E+01  0.24863293041E+01  0.00000000000E+00 0.  1.
         23    2    1    2    0    0  0.00000000000E+00  0.00000000000E+00  0.73694611984E+03  0.74191877845E+03  0.85754826494E+02 0.  0.
          2    1    3    3  502    0 -0.18591036551E+02 -0.38634466715E+02  0.36437920004E+03  0.36689296815E+03  0.00000000000E+00 0. -1.
         -2    1    3    3    0  502  0.18591036551E+02  0.38634466715E+02  0.37256691980E+03  0.37502581030E+03  0.00000000000E+00 0.  1.
<mgrwt>
<rscale>  0 0.85754826E+02</rscale>
<asrwt>0</asrwt>
<pdfrwt beam="1">  1        1 0.11375866E+00 0.85754826E+02</pdfrwt>
<pdfrwt beam="2">  1       -1 0.38251279E-03 0.85754826E+02</pdfrwt>
<totfact> 0.16690034E+05</totfact>
</mgrwt>
</event>
<event>
 5    1  0.4023633E+001  0.9016087E+02  0.7546771E-02  0.1302463E+00
         -2   -1    0    0    0  501 -0.00000000000E+00  0.00000000000E+00  0.62225425202E+02  0.62225425202E+02  0.00000000000E+00 0.  1.
          2   -1    0    0  501    0  0.00000000000E+00 -0.00000000000E+00 -0.32659410371E+02  0.32659410371E+02  0.00000000000E+00 0. -1.
         23    2    1    2    0    0  0.00000000000E+00  0.00000000000E+00  0.29566014831E+02  0.94884835573E+02  0.90160871717E+02 0.  0.
          2    1    3    3  502    0  0.28270551084E+02  0.10958135458E+02 -0.20325693482E+02  0.36502583564E+02  0.00000000000E+00 0. -1.
         -2    1    3    3    0  502 -0.28270551084E+02 -0.10958135458E+02  0.49891708313E+02  0.58382252009E+02  0.00000000000E+00 0.  1.
<mgrwt>
<rscale>  0 0.90160872E+02</rscale>
<asrwt>0</asrwt>
<pdfrwt beam="2">  1        2 0.50245247E-02 0.90160872E+02</pdfrwt>
<pdfrwt beam="1">  1       -2 0.95731424E-02 0.90160872E+02</pdfrwt>
<totfact> 0.93510237E+04</totfact>
</mgrwt>
</event>
<event>
 5    1  0.4023633E+001  0.8445130E+02  0.7546771E-02  0.1316874E+00
         -1   -1    0    0    0  501 -0.00000000000E+00  0.00000000000E+00  0.19910056593E+03  0.19910056593E+03  0.00000000000E+00 0.  1.
          1   -1    0    0  501    0  0.00000000000E+00 -0.00000000000E+00 -0.89553002093E+01  0.89553002093E+01  0.00000000000E+00 0. -1.
         23    2    1    2    0    0  0.00000000000E+00  0.00000000000E+00  0.19014526572E+03  0.20805586614E+03  0.84451295781E+02 0.  0.
          2    1    3    3  502    0  0.35591909973E+02 -0.19493736981E+02  0.66319384441E+02  0.77749923406E+02  0.00000000000E+00 0. -1.
         -2    1    3    3    0  502 -0.35591909973E+02  0.19493736981E+02  0.12382588128E+03  0.13030594274E+03  0.00000000000E+00 0.  1.
<mgrwt>
<rscale>  0 0.84451296E+02</rscale>
<asrwt>0</asrwt>
<pdfrwt beam="2">  1        1 0.13777386E-02 0.84451296E+02</pdfrwt>
<pdfrwt beam="1">  1       -1 0.30630853E-01 0.84451296E+02</pdfrwt>
<totfact> 0.84824218E+04</totfact>
</mgrwt>
</event>
<event>
 5    1  0.4023633E+001  0.9124015E+02  0.7546771E-02  0.1299876E+00
         -2   -1    0    0    0  501 -0.00000000000E+00  0.00000000000E+00  0.25467763341E+01  0.25467763341E+01  0.00000000000E+00 0.  1.
          2   -1    0    0  501    0  0.00000000000E+00 -0.00000000000E+00 -0.81718648445E+03  0.81718648445E+03  0.00000000000E+00 0. -1.
         23    2    1    2    0    0  0.00000000000E+00  0.00000000000E+00 -0.81463970812E+03  0.81973326078E+03  0.91240149038E+02 0.  0.
          2    1    3    3  502    0 -0.40875486226E+02 -0.20159970722E+02 -0.42520165337E+03  0.42763731809E+03  0.00000000000E+00 0.  1.
         -2    1    3    3    0  502  0.40875486226E+02  0.20159970722E+02 -0.38943805474E+03  0.39209594269E+03  0.00000000000E+00 0. -1.
<mgrwt>
<rscale>  0 0.91240149E+02</rscale>
<asrwt>0</asrwt>
<pdfrwt beam="2">  1        2 0.12572116E+00 0.91240149E+02</pdfrwt>
<pdfrwt beam="1">  1       -2 0.39181125E-03 0.91240149E+02</pdfrwt>
<totfact> 0.24417716E+05</totfact>
</mgrwt>
</event>
<event>
 5    1  0.4023633E+001  0.9060972E+02  0.7546771E-02  0.1301382E+00
         -3   -1    0    0    0  501 -0.00000000000E+00  0.00000000000E+00  0.27940829292E+03  0.27940829292E+03  0.00000000000E+00 0.  1.
          3   -1    0    0  501    0  0.00000000000E+00 -0.00000000000E+00 -0.73459891342E+01  0.73459891342E+01  0.00000000000E+00 0. -1.
         23    2    1    2    0    0  0.00000000000E+00  0.00000000000E+00  0.27206230378E+03  0.28675428205E+03  0.90609718767E+02 0.  0.
          2    1    3    3  502    0 -0.39493145635E+02 -0.68914177812E+01  0.20281572448E+03  0.20673997748E+03  0.00000000000E+00 0.  1.
         -2    1    3    3    0  502  0.39493145635E+02  0.68914177812E+01  0.69246579301E+02  0.80014304572E+02  0.00000000000E+00 0. -1.
<mgrwt>
<rscale>  0 0.90609719E+02</rscale>
<asrwt>0</asrwt>
<pdfrwt beam="2">  1        3 0.11301524E-02 0.90609719E+02</pdfrwt>
<pdfrwt beam="1">  1       -3 0.42985883E-01 0.90609719E+02</pdfrwt>
<totfact> 0.24960363E+04</totfact>
</mgrwt>
</event>
<event>
 5    1  0.4023633E+001  0.9129299E+02  0.7546771E-02  0.1299750E+00
         -2   -1    0    0    0  501 -0.00000000000E+00  0.00000000000E+00  0.10367080015E+01  0.10367080015E+01  0.00000000000E+00 0.  1.
          2   -1    0    0  501    0  0.00000000000E+00 -0.00000000000E+00 -0.20098257537E+04  0.20098257537E+04  0.00000000000E+00 0. -1.
         23    2    1    2    0    0  0.00000000000E+00  0.00000000000E+00 -0.20087890457E+04  0.20108624617E+04  0.91292988572E+02 0.  0.
          2    1    3    3  502    0 -0.12743641919E+02 -0.38025934670E+02 -0.14845667252E+04  0.14851083239E+04  0.00000000000E+00 0. -1.
         -2    1    3    3    0  502  0.12743641919E+02  0.38025934670E+02 -0.52422232049E+03  0.52575413780E+03  0.00000000000E+00 0.  1.
<mgrwt>
<rscale>  0 0.91292989E+02</rscale>
<asrwt>0</asrwt>
<pdfrwt beam="2">  1        2 0.30920536E+00 0.91292989E+02</pdfrwt>
<pdfrwt beam="1">  1       -2 0.15949282E-03 0.91292989E+02</pdfrwt>
<totfact> 0.19524378E+05</totfact>
</mgrwt>
</event>
<event>
 5    1  0.4023633E+001  0.8940773E+02  0.7546771E-02  0.1304292E+00
          4   -1    0    0  501    0  0.00000000000E+00  0.00000000000E+00  0.12461104061E+03  0.12461104061E+03  0.00000000000E+00 0. -1.
         -4   -1    0    0    0  501 -0.00000000000E+00 -0.00000000000E+00 -0.16037389291E+02  0.16037389291E+02  0.00000000000E+00 0.  1.
         23    2    1    2    0    0  0.00000000000E+00  0.00000000000E+00  0.10857365131E+03  0.14064842990E+03  0.89407734971E+02 0.  0.
          2    1    3    3  502    0  0.13629207333E+02  0.34526375501E+02  0.93476272627E+02  0.10057653525E+03  0.00000000000E+00 0. -1.
         -2    1    3    3    0  502 -0.13629207333E+02 -0.34526375501E+02  0.15097378688E+02  0.40071894652E+02  0.00000000000E+00 0.  1.
<mgrwt>
<rscale>  0 0.89407735E+02</rscale>
<asrwt>0</asrwt>
<pdfrwt beam="1">  1        4 0.19170929E-01 0.89407735E+02</pdfrwt>
<pdfrwt beam="2">  1       -4 0.24672907E-02 0.89407735E+02</pdfrwt>
<totfact> 0.25456313E+04</totfact>
</mgrwt>
</event>
<event>
 5    1  0.4023633E+001  0.9115122E+02  0.7546771E-02  0.1300088E+00
          2   -1    0    0  501    0  0.00000000000E+00  0.00000000000E+00  0.31418257104E+03  0.31418257104E+03  0.00000000000E+00 0. -1.
         -2   -1    0    0    0  501 -0.00000000000E+00 -0.00000000000E+00 -0.66112393930E+01  0.66112393930E+01  0.00000000000E+00 0.  1.
         23    2    1    2    0    0  0.00000000000E+00  0.00000000000E+00  0.30757133164E+03  0.32079381043E+03  0.91151219196E+02 0.  0.
          2    1    3    3  502    0  0.74561165596E+01  0.43506083547E+02  0.19372119067E+03  0.19868636766E+03  0.00000000000E+00 0. -1.
         -2    1    3    3    0  502 -0.74561165596E+01 -0.43506083547E+02  0.11385014097E+03  0.12210744277E+03  0.00000000000E+00 0.  1.
<mgrwt>
<rscale>  0 0.91151219E+02</rscale>
<asrwt>0</asrwt>
<pdfrwt beam="1">  1        2 0.48335769E-01 0.91151219E+02</pdfrwt>
<pdfrwt beam="2">  1       -2 0.10171140E-02 0.91151219E+02</pdfrwt>
<totfact> 0.18290939E+05</totfact>
</mgrwt>
</event>
<event>
 5    1  0.4023633E+001  0.9162455E+02  0.7546771E-02  0.1298965E+00
         -3   -1    0    0    0  501 -0.00000000000E+00  0.00000000000E+00  0.15154680166E+01  0.15154680166E+01  0.00000000000E+00 0.  1.
          3   -1    0    0  501    0  0.00000000000E+00 -0.00000000000E+00 -0.13848953936E+04  0.13848953936E+04  0.00000000000E+00 0. -1.
         23    2    1    2    0    0  0.00000000000E+00  0.00000000000E+00 -0.13833799256E+04  0.13864108616E+04  0.91624552941E+02 0.  0.
          2    1    3    3  502    0  0.37735846049E+02 -0.15484655006E+00 -0.10847423540E+04  0.10853985409E+04  0.00000000000E+00 0. -1.
         -2    1    3    3    0  502 -0.37735846049E+02  0.15484655006E+00 -0.29863757165E+03  0.30101232077E+03  0.00000000000E+00 0.  1.
<mgrwt>
<rscale>  0 0.91624553E+02</rscale>
<asrwt>0</asrwt>
<pdfrwt beam="2">  1        3 0.21306073E+00 0.91624553E+02</pdfrwt>
<pdfrwt beam="1">  1       -3 0.23314903E-03 0.91624553E+02</pdfrwt>
<totfact> 0.67400489E+03</totfact>
</mgrwt>
</event>
<event>
 5    1  0.4023633E+001  0.9225993E+02  0.7546771E-02  0.1297469E+00
         -3   -1    0    0    0  501 -0.00000000000E+00  0.00000000000E+00  0.31935528760E+02  0.31935528760E+02  0.00000000000E+00 0.  1.
          3   -1    0    0  501    0  0.00000000000E+00 -0.00000000000E+00 -0.66633430130E+02  0.66633430130E+02  0.00000000000E+00 0. -1.
         23    2    1    2    0    0  0.00000000000E+00  0.00000000000E+00 -0.34697901370E+02  0.98568958890E+02  0.92259933325E+02 0.  0.
          2    1    3    3  502    0  0.37234628820E+02 -0.15825181444E+02 -0.41025629738E+02  0.57619061486E+02  0.00000000000E+00 0. -1.
         -2    1    3    3    0  502 -0.37234628820E+02  0.15825181444E+02  0.63277283682E+01  0.40949897404E+02  0.00000000000E+00 0.  1.
<mgrwt>
<rscale>  0 0.92259933E+02</rscale>
<asrwt>0</asrwt>
<pdfrwt beam="2">  1        3 0.10251297E-01 0.92259933E+02</pdfrwt>
<pdfrwt beam="1">  1       -3 0.49131583E-02 0.92259933E+02</pdfrwt>
<totfact> 0.33674712E+04</totfact>
</mgrwt>
</event>
<event>
 5    1  0.4023633E+001  0.9227211E+02  0.7546771E-02  0.1297441E+00
          2   -1    0    0  501    0  0.00000000000E+00  0.00000000000E+00  0.42831064511E+02  0.42831064511E+02  0.00000000000E+00 0.  1.
         -2   -1    0    0    0  501 -0.00000000000E+00 -0.00000000000E+00 -0.49696071006E+02  0.49696071006E+02  0.00000000000E+00 0. -1.
         23    2    1    2    0    0  0.00000000000E+00  0.00000000000E+00 -0.68650064943E+01  0.92527135517E+02  0.92272111132E+02 0.  0.
          2    1    3    3  502    0  0.17456041833E+02  0.22891938146E+02 -0.39584627275E+02  0.48945857282E+02  0.00000000000E+00 0. -1.
         -2    1    3    3    0  502 -0.17456041833E+02 -0.22891938146E+02  0.32719620781E+02  0.43581278235E+02  0.00000000000E+00 0.  1.
<mgrwt>
<rscale>  0 0.92272111E+02</rscale>
<asrwt>0</asrwt>
<pdfrwt beam="1">  1        2 0.65893945E-02 0.92272111E+02</pdfrwt>
<pdfrwt beam="2">  1       -2 0.76455494E-02 0.92272111E+02</pdfrwt>
<totfact> 0.93799858E+04</totfact>
</mgrwt>
</event>
<event>
 5    1  0.4023633E+001  0.9156843E+02  0.7546771E-02  0.1299097E+00
         -2   -1    0    0    0  501 -0.00000000000E+00  0.00000000000E+00  0.28058956717E+01  0.28058956717E+01  0.00000000000E+00 0.  1.
          2   -1    0    0  501    0  0.00000000000E+00 -0.00000000000E+00 -0.74706787712E+03  0.74706787712E+03  0.00000000000E+00 0. -1.
         23    2    1    2    0    0  0.00000000000E+00  0.00000000000E+00 -0.74426198145E+03  0.74987377280E+03  0.91568433926E+02 0.  0.
          2    1    3    3  502    0  0.26463902452E+02  0.25357274603E+02 -0.59682988518E+03  0.59795421342E+03  0.00000000000E+00 0. -1.
         -2    1    3    3    0  502 -0.26463902452E+02 -0.25357274603E+02 -0.14743209628E+03  0.15191955938E+03  0.00000000000E+00 0.  1.
<mgrwt>
<rscale>  0 0.91568434E+02</rscale>
<asrwt>0</asrwt>
<pdfrwt beam="2">  1        2 0.11493358E+00 0.91568434E+02</pdfrwt>
<pdfrwt beam="1">  1       -2 0.43167602E-03 0.91568434E+02</pdfrwt>
<totfact> 0.23786054E+05</totfact>
</mgrwt>
</event>
<event>
 5    1  0.4023633E+001  0.9089990E+02  0.7546771E-02  0.1300687E+00
          1   -1    0    0  501    0  0.00000000000E+00  0.00000000000E+00  0.39665894840E+03  0.39665894840E+03  0.00000000000E+00 0. -1.
         -1   -1    0    0    0  501 -0.00000000000E+00 -0.00000000000E+00 -0.52077427974E+01  0.52077427974E+01  0.00000000000E+00 0.  1.
         23    2    1    2    0    0  0.00000000000E+00  0.00000000000E+00  0.39145120560E+03  0.40186669120E+03  0.90899896184E+02 0.  0.
          2    1    3    3  502    0  0.41493936627E+02 -0.18406575168E+02  0.20575742608E+03  0.21070516646E+03  0.00000000000E+00 0. -1.
         -2    1    3    3    0  502 -0.41493936627E+02  0.18406575168E+02  0.18569377952E+03  0.19116152473E+03  0.00000000000E+00 0.  1.
<mgrwt>
<rscale>  0 0.90899896E+02</rscale>
<asrwt>0</asrwt>
<pdfrwt beam="1">  1        1 0.61024430E-01 0.90899896E+02</pdfrwt>
<pdfrwt beam="2">  1       -1 0.80119151E-03 0.90899896E+02</pdfrwt>
<totfact> 0.13579815E+05</totfact>
</mgrwt>
</event>
<event>
 5    1  0.4023633E+001  0.9161973E+02  0.7546771E-02  0.1298976E+00
          1   -1    0    0  501    0  0.00000000000E+00  0.00000000000E+00  0.10014649911E+04  0.10014649911E+04  0.00000000000E+00 0. -1.
         -1   -1    0    0    0  501 -0.00000000000E+00 -0.00000000000E+00 -0.20954739643E+01  0.20954739643E+01  0.00000000000E+00 0.  1.
         23    2    1    2    0    0  0.00000000000E+00  0.00000000000E+00  0.99936951711E+03  0.10035604650E+04  0.91619731825E+02 0.  0.
          2    1    3    3  502    0 -0.26800586000E+02 -0.36828260800E+02  0.44607771006E+03  0.44839705130E+03  0.00000000000E+00 0.  1.
         -2    1    3    3    0  502  0.26800586000E+02  0.36828260800E+02  0.55329180705E+03  0.55516341374E+03  0.00000000000E+00 0. -1.
<mgrwt>
<rscale>  0 0.91619732E+02</rscale>
<asrwt>0</asrwt>
<pdfrwt beam="1">  1        1 0.15407115E+00 0.91619732E+02</pdfrwt>
<pdfrwt beam="2">  1       -1 0.32238141E-03 0.91619732E+02</pdfrwt>
<totfact> 0.13423143E+05</totfact>
</mgrwt>
</event>
<event>
 5    1  0.4023633E+001  0.9105758E+02  0.7546771E-02  0.1300311E+00
         -1   -1    0    0    0  501 -0.00000000000E+00  0.00000000000E+00  0.15101682043E+01  0.15101682043E+01  0.00000000000E+00 0.  1.
          1   -1    0    0  501    0  0.00000000000E+00 -0.00000000000E+00 -0.13726090630E+04  0.13726090630E+04  0.00000000000E+00 0. -1.
         23    2    1    2    0    0  0.00000000000E+00  0.00000000000E+00 -0.13710988948E+04  0.13741192312E+04  0.91057576598E+02 0.  0.
          2    1    3    3  502    0 -0.86837186285E+01 -0.25180526921E+02 -0.12427617759E+04  0.12430471823E+04  0.00000000000E+00 0. -1.
         -2    1    3    3    0  502  0.86837186285E+01  0.25180526921E+02 -0.12833711894E+03  0.13107204891E+03  0.00000000000E+00 0.  1.
<mgrwt>
<rscale>  0 0.91057577E+02</rscale>
<asrwt>0</asrwt>
<pdfrwt beam="2">  1        1 0.21117132E+00 0.91057577E+02</pdfrwt>
<pdfrwt beam="1">  1       -1 0.23233280E-03 0.91057577E+02</pdfrwt>
<totfact> 0.11841790E+05</totfact>
</mgrwt>
</event>
<event>
 5    1  0.4023633E+001  0.9166829E+02  0.7546771E-02  0.1298861E+00
         -1   -1    0    0    0  501 -0.00000000000E+00  0.00000000000E+00  0.15311797676E+02  0.15311797676E+02  0.00000000000E+00 0.  1.
          1   -1    0    0  501    0  0.00000000000E+00 -0.00000000000E+00 -0.13719937240E+03  0.13719937240E+03  0.00000000000E+00 0. -1.
         23    2    1    2    0    0  0.00000000000E+00  0.00000000000E+00 -0.12188757472E+03  0.15251117008E+03  0.91668294006E+02 0.  0.
          2    1    3    3  502    0 -0.69114390740E+01  0.43143813505E+02 -0.37913767811E+02  0.57849895622E+02  0.00000000000E+00 0. -1.
         -2    1    3    3    0  502  0.69114390740E+01 -0.43143813505E+02 -0.83973806914E+02  0.94661274455E+02  0.00000000000E+00 0.  1.
<mgrwt>
<rscale>  0 0.91668294E+02</rscale>
<asrwt>0</asrwt>
<pdfrwt beam="2">  1        1 0.21107596E-01 0.91668294E+02</pdfrwt>
<pdfrwt beam="1">  1       -1 0.23556611E-02 0.91668294E+02</pdfrwt>
<totfact> 0.10873307E+05</totfact>
</mgrwt>
</event>
<event>
 5    1  0.4023633E+001  0.9357102E+02  0.7546771E-02  0.1294427E+00
          1   -1    0    0  501    0  0.00000000000E+00  0.00000000000E+00  0.89478407542E+03  0.89478407542E+03  0.00000000000E+00 0. -1.
         -1   -1    0    0    0  501 -0.00000000000E+00 -0.00000000000E+00 -0.24462704308E+01  0.24462704308E+01  0.00000000000E+00 0.  1.
         23    2    1    2    0    0  0.00000000000E+00  0.00000000000E+00  0.89233780499E+03  0.89723034585E+03  0.93571017429E+02 0.  0.
          2    1    3    3  502    0  0.38249162232E+02  0.25817657821E+02  0.37230805861E+03  0.37515708760E+03  0.00000000000E+00 0. -1.
         -2    1    3    3    0  502 -0.38249162232E+02 -0.25817657821E+02  0.52002974638E+03  0.52207325825E+03  0.00000000000E+00 0.  1.
<mgrwt>
<rscale>  0 0.93571017E+02</rscale>
<asrwt>0</asrwt>
<pdfrwt beam="1">  1        1 0.13765883E+00 0.93571017E+02</pdfrwt>
<pdfrwt beam="2">  1       -1 0.37635001E-03 0.93571017E+02</pdfrwt>
<totfact> 0.13007765E+05</totfact>
</mgrwt>
</event>
<event>
 5    1  0.4023633E+001  0.8856910E+02  0.7546771E-02  0.1306354E+00
          2   -1    0    0  501    0  0.00000000000E+00  0.00000000000E+00  0.33874770708E+03  0.33874770708E+03  0.00000000000E+00 0. -1.
         -2   -1    0    0    0  501 -0.00000000000E+00 -0.00000000000E+00 -0.57893269342E+01  0.57893269342E+01  0.00000000000E+00 0.  1.
         23    2    1    2    0    0  0.00000000000E+00  0.00000000000E+00  0.33295838014E+03  0.34453703401E+03  0.88569096743E+02 0.  0.
          2    1    3    3  502    0 -0.14348061441E+02 -0.39324558133E+02  0.11026398968E+03  0.11794250786E+03  0.00000000000E+00 0.  1.
         -2    1    3    3    0  502  0.14348061441E+02  0.39324558133E+02  0.22269439046E+03  0.22659452615E+03  0.00000000000E+00 0. -1.
<mgrwt>
<rscale>  0 0.88569097E+02</rscale>
<asrwt>0</asrwt>
<pdfrwt beam="1">  1        2 0.52115016E-01 0.88569097E+02</pdfrwt>
<pdfrwt beam="2">  1       -2 0.89066595E-03 0.88569097E+02</pdfrwt>
<totfact> 0.20298956E+05</totfact>
</mgrwt>
</event>
<event>
 5    1  0.4023633E+001  0.9444094E+02  0.7546771E-02  0.1292440E+00
         -1   -1    0    0    0  501 -0.00000000000E+00  0.00000000000E+00  0.80886580732E+03  0.80886580732E+03  0.00000000000E+00 0.  1.
          1   -1    0    0  501    0  0.00000000000E+00 -0.00000000000E+00 -0.27566661117E+01  0.27566661117E+01  0.00000000000E+00 0. -1.
         23    2    1    2    0    0  0.00000000000E+00  0.00000000000E+00  0.80610914121E+03  0.81162247343E+03  0.94440943662E+02 0.  0.
          2    1    3    3  502    0 -0.25862188414E+02  0.24097756346E+02  0.13399084511E+03  0.13857525473E+03  0.00000000000E+00 0. -1.
         -2    1    3    3    0  502  0.25862188414E+02 -0.24097756346E+02  0.67211829610E+03  0.67304721870E+03  0.00000000000E+00 0.  1.
<mgrwt>
<rscale>  0 0.94440944E+02</rscale>
<asrwt>0</asrwt>
<pdfrwt beam="2">  1        1 0.42410312E-03 0.94440944E+02</pdfrwt>
<pdfrwt beam="1">  1       -1 0.12444070E+00 0.94440944E+02</pdfrwt>
<totfact> 0.29446903E+04</totfact>
</mgrwt>
</event>
<event>
 5    1  0.4023633E+001  0.9123699E+02  0.7546771E-02  0.1299884E+00
          1   -1    0    0  501    0  0.00000000000E+00  0.00000000000E+00  0.80570266316E+02  0.80570266316E+02  0.00000000000E+00 0. -1.
         -1   -1    0    0    0  501 -0.00000000000E+00 -0.00000000000E+00 -0.25828970743E+02  0.25828970743E+02  0.00000000000E+00 0.  1.
         23    2    1    2    0    0  0.00000000000E+00  0.00000000000E+00  0.54741295573E+02  0.10639923706E+03  0.91236989241E+02 0.  0.
          2    1    3    3  502    0  0.97111749655E+01  0.29196289932E+02  0.66647325761E+02  0.73407058898E+02  0.00000000000E+00 0. -1.
         -2    1    3    3    0  502 -0.97111749655E+01 -0.29196289932E+02 -0.11906030188E+02  0.32992178161E+02  0.00000000000E+00 0.  1.
<mgrwt>
<rscale>  0 0.91236989E+02</rscale>
<asrwt>0</asrwt>
<pdfrwt beam="1">  1        1 0.12395425E-01 0.91236989E+02</pdfrwt>
<pdfrwt beam="2">  1       -1 0.39736879E-02 0.91236989E+02</pdfrwt>
<totfact> 0.10067471E+05</totfact>
</mgrwt>
</event>
<event>
 5    1  0.4023633E+001  0.9190473E+02  0.7546771E-02  0.1298304E+00
         -3   -1    0    0    0  501 -0.00000000000E+00  0.00000000000E+00  0.29094093302E+03  0.29094093302E+03  0.00000000000E+00 0.  1.
          3   -1    0    0  501    0  0.00000000000E+00 -0.00000000000E+00 -0.72578991235E+01  0.72578991235E+01  0.00000000000E+00 0. -1.
         23    2    1    2    0    0  0.00000000000E+00  0.00000000000E+00  0.28368303389E+03  0.29819883214E+03  0.91904732037E+02 0.  0.
          2    1    3    3  502    0  0.18951774275E+02 -0.15316579717E+02  0.15431100592E+02  0.28842437967E+02  0.00000000000E+00 0. -1.
         -2    1    3    3    0  502 -0.18951774275E+02  0.15316579717E+02  0.26825193330E+03  0.26935639417E+03  0.00000000000E+00 0.  1.
<mgrwt>
<rscale>  0 0.91904732E+02</rscale>
<asrwt>0</asrwt>
<pdfrwt beam="2">  1        3 0.11166001E-02 0.91904732E+02</pdfrwt>
<pdfrwt beam="1">  1       -3 0.44760134E-01 0.91904732E+02</pdfrwt>
<totfact> 0.23583759E+04</totfact>
</mgrwt>
</event>
<event>
 5    1  0.4023633E+001  0.1061299E+03  0.7546771E-02  0.1267909E+00
         -2   -1    0    0    0  501 -0.00000000000E+00  0.00000000000E+00  0.58304846140E+01  0.58304846140E+01  0.00000000000E+00 0.  1.
          2   -1    0    0  501    0  0.00000000000E+00 -0.00000000000E+00 -0.48295961809E+03  0.48295961809E+03  0.00000000000E+00 0. -1.
         23    2    1    2    0    0  0.00000000000E+00  0.00000000000E+00 -0.47712913348E+03  0.48879010270E+03  0.10612989442E+03 0.  0.
          2    1    3    3  502    0  0.38868634672E+02 -0.96107653889E+01 -0.39895206044E+03  0.40095621220E+03  0.00000000000E+00 0. -1.
         -2    1    3    3    0  502 -0.38868634672E+02  0.96107653889E+01 -0.78177073041E+02  0.87833890509E+02  0.00000000000E+00 0.  1.
<mgrwt>
<rscale>  0 0.10612989E+03</rscale>
<asrwt>0</asrwt>
<pdfrwt beam="2">  1        2 0.74301521E-01 0.10612989E+03</pdfrwt>
<pdfrwt beam="1">  1       -2 0.89699713E-03 0.10612989E+03</pdfrwt>
<totfact> 0.14205265E+05</totfact>
</mgrwt>
</event>
<event>
 5    1  0.4023633E+001  0.9138908E+02  0.7546771E-02  0.1299522E+00
         -1   -1    0    0    0  501 -0.00000000000E+00  0.00000000000E+00  0.65321232097E+01  0.65321232097E+01  0.00000000000E+00 0.  1.
          1   -1    0    0  501    0  0.00000000000E+00 -0.00000000000E+00 -0.31964969216E+03  0.31964969216E+03  0.00000000000E+00 0. -1.
         23    2    1    2    0    0  0.00000000000E+00  0.00000000000E+00 -0.31311756895E+03  0.32618181537E+03  0.91389084100E+02 0.  0.
          2    1    3    3  502    0  0.18472116768E+02  0.41336580509E+02 -0.13453990702E+03  0.14195393115E+03  0.00000000000E+00 0. -1.
         -2    1    3    3    0  502 -0.18472116768E+02 -0.41336580509E+02 -0.17857766193E+03  0.18422788422E+03  0.00000000000E+00 0.  1.
<mgrwt>
<rscale>  0 0.91389084E+02</rscale>
<asrwt>0</asrwt>
<pdfrwt beam="2">  1        1 0.49176873E-01 0.91389084E+02</pdfrwt>
<pdfrwt beam="1">  1       -1 0.10049421E-02 0.91389084E+02</pdfrwt>
<totfact> 0.12886411E+05</totfact>
</mgrwt>
</event>
<event>
 5    1  0.4023633E+001  0.9061723E+02  0.7546771E-02  0.1301364E+00
         -2   -1    0    0    0  501 -0.00000000000E+00  0.00000000000E+00  0.12915501641E+01  0.12915501641E+01  0.00000000000E+00 0.  1.
          2   -1    0    0  501    0  0.00000000000E+00 -0.00000000000E+00 -0.15894626645E+04  0.15894626645E+04  0.00000000000E+00 0. -1.
         23    2    1    2    0    0  0.00000000000E+00  0.00000000000E+00 -0.15881711144E+04  0.15907542147E+04  0.90617233795E+02 0.  0.
          2    1    3    3  502    0  0.29430909546E+02  0.30458440289E+02 -0.10765877520E+04  0.10774205691E+04  0.00000000000E+00 0. -1.
         -2    1    3    3    0  502 -0.29430909546E+02 -0.30458440289E+02 -0.51158336237E+03  0.51333364557E+03  0.00000000000E+00 0.  1.
<mgrwt>
<rscale>  0 0.90617234E+02</rscale>
<asrwt>0</asrwt>
<pdfrwt beam="2">  1        2 0.24453218E+00 0.90617234E+02</pdfrwt>
<pdfrwt beam="1">  1       -2 0.19870047E-03 0.90617234E+02</pdfrwt>
<totfact> 0.23403141E+05</totfact>
</mgrwt>
</event>
<event>
 5    1  0.4023633E+001  0.8960201E+02  0.7546771E-02  0.1303818E+00
          1   -1    0    0  501    0  0.00000000000E+00  0.00000000000E+00  0.64832810087E+01  0.64832810087E+01  0.00000000000E+00 0. -1.
         -1   -1    0    0    0  501 -0.00000000000E+00 -0.00000000000E+00 -0.30958551754E+03  0.30958551754E+03  0.00000000000E+00 0.  1.
         23    2    1    2    0    0  0.00000000000E+00  0.00000000000E+00 -0.30310223653E+03  0.31606879855E+03  0.89602006818E+02 0.  0.
          2    1    3    3  502    0  0.59978363353E+01  0.43522995315E+02 -0.18248542986E+03  0.18769964644E+03  0.00000000000E+00 0. -1.
         -2    1    3    3    0  502 -0.59978363353E+01 -0.43522995315E+02 -0.12061680667E+03  0.12836915211E+03  0.00000000000E+00 0.  1.
<mgrwt>
<rscale>  0 0.89602007E+02</rscale>
<asrwt>0</asrwt>
<pdfrwt beam="1">  1        1 0.99742766E-03 0.89602007E+02</pdfrwt>
<pdfrwt beam="2">  1       -1 0.47628550E-01 0.89602007E+02</pdfrwt>
<totfact> 0.62617804E+04</totfact>
</mgrwt>
</event>
<event>
 5    1  0.4023633E+001  0.6577342E+02  0.7546771E-02  0.1375086E+00
         -1   -1    0    0    0  501 -0.00000000000E+00  0.00000000000E+00  0.42083041548E+01  0.42083041548E+01  0.00000000000E+00 0.  1.
          1   -1    0    0  501    0  0.00000000000E+00 -0.00000000000E+00 -0.25700038621E+03  0.25700038621E+03  0.00000000000E+00 0. -1.
         23    2    1    2    0    0  0.00000000000E+00  0.00000000000E+00 -0.25279208205E+03  0.26120869036E+03  0.65773422994E+02 0.  0.
          2    1    3    3  502    0  0.21328369668E+02 -0.12190854038E+02 -0.21322408001E+03  0.21463463041E+03  0.00000000000E+00 0. -1.
         -2    1    3    3    0  502 -0.21328369668E+02  0.12190854038E+02 -0.39568002042E+02  0.46574059952E+02  0.00000000000E+00 0.  1.
<mgrwt>
<rscale>  0 0.65773423E+02</rscale>
<asrwt>0</asrwt>
<pdfrwt beam="2">  1        1 0.39538515E-01 0.65773423E+02</pdfrwt>
<pdfrwt beam="1">  1       -1 0.64743150E-03 0.65773423E+02</pdfrwt>
<totfact> 0.29288357E+05</totfact>
</mgrwt>
</event>
<event>
 5    1  0.4023633E+001  0.9051334E+02  0.7546771E-02  0.1301613E+00
          2   -1    0    0  501    0  0.00000000000E+00  0.00000000000E+00  0.15437286940E+04  0.15437286940E+04  0.00000000000E+00 0. -1.
         -2   -1    0    0    0  501 -0.00000000000E+00 -0.00000000000E+00 -0.13267655718E+01  0.13267655718E+01  0.00000000000E+00 0.  1.
         23    2    1    2    0    0  0.00000000000E+00  0.00000000000E+00  0.15424019285E+04  0.15450554596E+04  0.90513337879E+02 0.  0.
          2    1    3    3  502    0  0.25147751755E+02  0.21036874741E+02  0.13037186151E+04  0.13041308166E+04  0.00000000000E+00 0. -1.
         -2    1    3    3    0  502 -0.25147751755E+02 -0.21036874741E+02  0.23868331339E+03  0.24092464301E+03  0.00000000000E+00 0.  1.
<mgrwt>
<rscale>  0 0.90513338E+02</rscale>
<asrwt>0</asrwt>
<pdfrwt beam="1">  1        2 0.23749529E+00 0.90513338E+02</pdfrwt>
<pdfrwt beam="2">  1       -2 0.20411902E-03 0.90513338E+02</pdfrwt>
<totfact> 0.23780397E+05</totfact>
</mgrwt>
</event>
<event>
 5    1  0.4023633E+001  0.9057110E+02  0.7546771E-02  0.1301475E+00
         -1   -1    0    0    0  501 -0.00000000000E+00  0.00000000000E+00  0.13138102860E+01  0.13138102860E+01  0.00000000000E+00 0.  1.
          1   -1    0    0  501    0  0.00000000000E+00 -0.00000000000E+00 -0.15609414209E+04  0.15609414209E+04  0.00000000000E+00 0. -1.
         23    2    1    2    0    0  0.00000000000E+00  0.00000000000E+00 -0.15596276106E+04  0.15622552311E+04  0.90571096816E+02 0.  0.
          2    1    3    3  502    0 -0.15893822945E+02 -0.33597890038E+02 -0.12260745576E+04  0.12266377838E+04  0.00000000000E+00 0. -1.
         -2    1    3    3    0  502  0.15893822945E+02  0.33597890038E+02 -0.33355305301E+03  0.33561744739E+03  0.00000000000E+00 0.  1.
<mgrwt>
<rscale>  0 0.90571097E+02</rscale>
<asrwt>0</asrwt>
<pdfrwt beam="2">  1        1 0.24014528E+00 0.90571097E+02</pdfrwt>
<pdfrwt beam="1">  1       -1 0.20212429E-03 0.90571097E+02</pdfrwt>
<totfact> 0.10870617E+05</totfact>
</mgrwt>
</event>
<event>
 5    1  0.4023633E+001  0.9241607E+02  0.7546771E-02  0.1297104E+00
          3   -1    0    0  501    0  0.00000000000E+00  0.00000000000E+00  0.45087167566E+03  0.45087167566E+03  0.00000000000E+00 0. -1.
         -3   -1    0    0    0  501 -0.00000000000E+00 -0.00000000000E+00 -0.47356762934E+01  0.47356762934E+01  0.00000000000E+00 0.  1.
         23    2    1    2    0    0  0.00000000000E+00  0.00000000000E+00  0.44613599936E+03  0.45560735195E+03  0.92416065828E+02 0.  0.
          2    1    3    3  502    0 -0.18890065456E+01  0.45773329989E+02  0.19331774488E+03  0.19867188168E+03  0.00000000000E+00 0. -1.
         -2    1    3    3    0  502  0.18890065456E+01 -0.45773329989E+02  0.25281825448E+03  0.25693547027E+03  0.00000000000E+00 0.  1.
<mgrwt>
<rscale>  0 0.92416066E+02</rscale>
<asrwt>0</asrwt>
<pdfrwt beam="1">  1        3 0.69364839E-01 0.92416066E+02</pdfrwt>
<pdfrwt beam="2">  1       -3 0.72856594E-03 0.92416066E+02</pdfrwt>
<totfact> 0.18363094E+04</totfact>
</mgrwt>
</event>
<event>
 5    1  0.4023633E+001  0.9634830E+02  0.7546771E-02  0.1288168E+00
         -4   -1    0    0    0  501 -0.00000000000E+00  0.00000000000E+00  0.50819296977E+02  0.50819296977E+02  0.00000000000E+00 0.  1.
          4   -1    0    0  501    0  0.00000000000E+00 -0.00000000000E+00 -0.45666679527E+02  0.45666679527E+02  0.00000000000E+00 0. -1.
         23    2    1    2    0    0  0.00000000000E+00  0.00000000000E+00  0.51526174492E+01  0.96485976504E+02  0.96348296276E+02 0.  0.
          2    1    3    3  502    0  0.37620408687E+02 -0.10929742022E+02 -0.25499340696E+02  0.46743671083E+02  0.00000000000E+00 0. -1.
         -2    1    3    3    0  502 -0.37620408687E+02  0.10929742022E+02  0.30651958145E+02  0.49742305421E+02  0.00000000000E+00 0.  1.
<mgrwt>
<rscale>  0 0.96348296E+02</rscale>
<asrwt>0</asrwt>
<pdfrwt beam="2">  1        4 0.70256430E-02 0.96348296E+02</pdfrwt>
<pdfrwt beam="1">  1       -4 0.78183534E-02 0.96348296E+02</pdfrwt>
<totfact> 0.22951775E+04</totfact>
</mgrwt>
</event>
<event>
 5    1  0.4023633E+001  0.9193387E+02  0.7546771E-02  0.1298235E+00
          2   -1    0    0  501    0  0.00000000000E+00  0.00000000000E+00  0.21728246024E+02  0.21728246024E+02  0.00000000000E+00 0. -1.
         -2   -1    0    0    0  501 -0.00000000000E+00 -0.00000000000E+00 -0.97244813440E+02  0.97244813440E+02  0.00000000000E+00 0.  1.
         23    2    1    2    0    0  0.00000000000E+00  0.00000000000E+00 -0.75516567416E+02  0.11897305946E+03  0.91933872560E+02 0.  0.
          2    1    3    3  502    0 -0.35700674775E+00 -0.36009385667E+02 -0.78741602641E+00  0.36019763102E+02  0.00000000000E+00 0. -1.
         -2    1    3    3    0  502  0.35700674775E+00  0.36009385667E+02 -0.74729151389E+02  0.82953296362E+02  0.00000000000E+00 0.  1.
<mgrwt>
<rscale>  0 0.91933873E+02</rscale>
<asrwt>0</asrwt>
<pdfrwt beam="1">  1        2 0.33428071E-02 0.91933873E+02</pdfrwt>
<pdfrwt beam="2">  1       -2 0.14960740E-01 0.91933873E+02</pdfrwt>
<totfact> 0.78832734E+04</totfact>
</mgrwt>
</event>
<event>
 5    1  0.4023633E+001  0.8952549E+02  0.7546771E-02  0.1304005E+00
          2   -1    0    0  501    0  0.00000000000E+00  0.00000000000E+00  0.60242551422E+02  0.60242551422E+02  0.00000000000E+00 0.  1.
         -2   -1    0    0    0  501 -0.00000000000E+00 -0.00000000000E+00 -0.33260598567E+02  0.33260598567E+02  0.00000000000E+00 0. -1.
         23    2    1    2    0    0  0.00000000000E+00  0.00000000000E+00  0.26981952855E+02  0.93503149988E+02  0.89525489543E+02 0.  0.
          2    1    3    3  502    0 -0.25022404014E+02  0.35686741650E+02  0.28378322647E+01  0.43677425796E+02  0.00000000000E+00 0. -1.
         -2    1    3    3    0  502  0.25022404014E+02 -0.35686741650E+02  0.24144120591E+02  0.49825724192E+02  0.00000000000E+00 0.  1.
<mgrwt>
<rscale>  0 0.89525490E+02</rscale>
<asrwt>0</asrwt>
<pdfrwt beam="1">  1        2 0.92680848E-02 0.89525490E+02</pdfrwt>
<pdfrwt beam="2">  1       -2 0.51170152E-02 0.89525490E+02</pdfrwt>
<totfact> 0.11178680E+05</totfact>
</mgrwt>
</event>
<event>
 5    1  0.4023633E+001  0.9067915E+02  0.7546771E-02  0.1301215E+00
          3   -1    0    0  501    0  0.00000000000E+00  0.00000000000E+00  0.11897388731E+01  0.11897388731E+01  0.00000000000E+00 0. -1.
         -3   -1    0    0    0  501 -0.00000000000E+00 -0.00000000000E+00 -0.17278389174E+04  0.17278389174E+04  0.00000000000E+00 0.  1.
         23    2    1    2    0    0  0.00000000000E+00  0.00000000000E+00 -0.17266491785E+04  0.17290286563E+04  0.90679151439E+02 0.  0.
          2    1    3    3  502    0 -0.26722664699E+02 -0.34649354724E+02 -0.10897379463E+04  0.10906160966E+04  0.00000000000E+00 0. -1.
         -2    1    3    3    0  502  0.26722664699E+02  0.34649354724E+02 -0.63691123229E+03  0.63841255972E+03  0.00000000000E+00 0.  1.
<mgrwt>
<rscale>  0 0.90679151E+02</rscale>
<asrwt>0</asrwt>
<pdfrwt beam="1">  1        3 0.18303610E-03 0.90679151E+02</pdfrwt>
<pdfrwt beam="2">  1       -3 0.26582231E+00 0.90679151E+02</pdfrwt>
<totfact> 0.48830593E+03</totfact>
</mgrwt>
</event>
<event>
 5    1  0.4023633E+001  0.8989096E+02  0.7546771E-02  0.1303116E+00
          2   -1    0    0  501    0  0.00000000000E+00  0.00000000000E+00  0.53990648223E+03  0.53990648223E+03  0.00000000000E+00 0. -1.
         -2   -1    0    0    0  501 -0.00000000000E+00 -0.00000000000E+00 -0.37415670573E+01  0.37415670573E+01  0.00000000000E+00 0.  1.
         23    2    1    2    0    0  0.00000000000E+00  0.00000000000E+00  0.53616491517E+03  0.54364804928E+03  0.89890963014E+02 0.  0.
          2    1    3    3  502    0  0.22728308478E+02  0.32245657339E+02  0.39832056878E+03  0.40026945166E+03  0.00000000000E+00 0. -1.
         -2    1    3    3    0  502 -0.22728308478E+02 -0.32245657339E+02  0.13784434639E+03  0.14337859762E+03  0.00000000000E+00 0.  1.
<mgrwt>
<rscale>  0 0.89890963E+02</rscale>
<asrwt>0</asrwt>
<pdfrwt beam="1">  1        2 0.83062474E-01 0.89890963E+02</pdfrwt>
<pdfrwt beam="2">  1       -2 0.57562613E-03 0.89890963E+02</pdfrwt>
<totfact> 0.22925327E+05</totfact>
</mgrwt>
</event>
<event>
 5    1  0.4023633E+001  0.9120993E+02  0.7546771E-02  0.1299948E+00
         -2   -1    0    0    0  501 -0.00000000000E+00  0.00000000000E+00  0.30920933885E+02  0.30920933885E+02  0.00000000000E+00 0.  1.
          2   -1    0    0  501    0  0.00000000000E+00 -0.00000000000E+00 -0.67262296856E+02  0.67262296856E+02  0.00000000000E+00 0. -1.
         23    2    1    2    0    0  0.00000000000E+00  0.00000000000E+00 -0.36341362971E+02  0.98183230741E+02  0.91209934416E+02 0.  0.
          2    1    3    3  502    0 -0.19509211797E+02 -0.33163564235E+02 -0.44524704045E+02  0.58846245487E+02  0.00000000000E+00 0. -1.
         -2    1    3    3    0  502  0.19509211797E+02  0.33163564235E+02  0.81833410738E+01  0.39336985253E+02  0.00000000000E+00 0.  1.
<mgrwt>
<rscale>  0 0.91209934E+02</rscale>
<asrwt>0</asrwt>
<pdfrwt beam="2">  1        2 0.10348046E-01 0.91209934E+02</pdfrwt>
<pdfrwt beam="1">  1       -2 0.47570668E-02 0.91209934E+02</pdfrwt>
<totfact> 0.10929769E+05</totfact>
</mgrwt>
</event>
<event>
 5    1  0.4023633E+001  0.8797931E+02  0.7546771E-02  0.1307820E+00
          3   -1    0    0  501    0  0.00000000000E+00  0.00000000000E+00  0.20265840348E+03  0.20265840348E+03  0.00000000000E+00 0. -1.
         -3   -1    0    0    0  501 -0.00000000000E+00 -0.00000000000E+00 -0.95485295699E+01  0.95485295699E+01  0.00000000000E+00 0.  1.
         23    2    1    2    0    0  0.00000000000E+00  0.00000000000E+00  0.19310987391E+03  0.21220693305E+03  0.87979310255E+02 0.  0.
          2    1    3    3  502    0 -0.21851366813E+02 -0.25042914764E+02  0.27046365740E+02  0.42850154156E+02  0.00000000000E+00 0. -1.
         -2    1    3    3    0  502  0.21851366813E+02  0.25042914764E+02  0.16606350817E+03  0.16935677890E+03  0.00000000000E+00 0.  1.
<mgrwt>
<rscale>  0 0.87979310E+02</rscale>
<asrwt>0</asrwt>
<pdfrwt beam="1">  1        3 0.31178213E-01 0.87979310E+02</pdfrwt>
<pdfrwt beam="2">  1       -3 0.14690047E-02 0.87979310E+02</pdfrwt>
<totfact> 0.30685987E+04</totfact>
</mgrwt>
</event>
<event>
 5    1  0.4023633E+001  0.9041598E+02  0.7546771E-02  0.1301847E+00
          1   -1    0    0  501    0  0.00000000000E+00  0.00000000000E+00  0.37536401449E+01  0.37536401449E+01  0.00000000000E+00 0. -1.
         -1   -1    0    0    0  501 -0.00000000000E+00 -0.00000000000E+00 -0.54447480106E+03  0.54447480106E+03  0.00000000000E+00 0.  1.
         23    2    1    2    0    0  0.00000000000E+00  0.00000000000E+00 -0.54072116092E+03  0.54822844121E+03  0.90415982463E+02 0.  0.
          2    1    3    3  502    0  0.49907235176E+01  0.30389131896E+02 -0.47103590092E+03  0.47204155178E+03  0.00000000000E+00 0. -1.
         -2    1    3    3    0  502 -0.49907235176E+01 -0.30389131896E+02 -0.69685260003E+02  0.76186889425E+02  0.00000000000E+00 0.  1.
<mgrwt>
<rscale>  0 0.90415982E+02</rscale>
<asrwt>0</asrwt>
<pdfrwt beam="1">  1        1 0.57748320E-03 0.90415982E+02</pdfrwt>
<pdfrwt beam="2">  1       -1 0.83765339E-01 0.90415982E+02</pdfrwt>
<totfact> 0.45528569E+04</totfact>
</mgrwt>
</event>
<event>
 5    1  0.4023633E+001  0.8973189E+02  0.7546771E-02  0.1303502E+00
         -2   -1    0    0    0  501 -0.00000000000E+00  0.00000000000E+00  0.71382534693E+01  0.71382534693E+01  0.00000000000E+00 0.  1.
          2   -1    0    0  501    0  0.00000000000E+00 -0.00000000000E+00 -0.28199514855E+03  0.28199514855E+03  0.00000000000E+00 0. -1.
         23    2    1    2    0    0  0.00000000000E+00  0.00000000000E+00 -0.27485689509E+03  0.28913340202E+03  0.89731886138E+02 0.  0.
          2    1    3    3  502    0  0.19905763131E+02  0.99451954334E+01 -0.26296195925E+03  0.26390175886E+03  0.00000000000E+00 0. -1.
         -2    1    3    3    0  502 -0.19905763131E+02 -0.99451954334E+01 -0.11894935833E+02  0.25231643159E+02  0.00000000000E+00 0.  1.
<mgrwt>
<rscale>  0 0.89731886E+02</rscale>
<asrwt>0</asrwt>
<pdfrwt beam="2">  1        2 0.43383878E-01 0.89731886E+02</pdfrwt>
<pdfrwt beam="1">  1       -2 0.10981926E-02 0.89731886E+02</pdfrwt>
<totfact> 0.18320464E+05</totfact>
</mgrwt>
</event>
<event>
 5    1  0.4023633E+001  0.9615565E+02  0.7546771E-02  0.1288594E+00
         -2   -1    0    0    0  501 -0.00000000000E+00  0.00000000000E+00  0.35427480462E+01  0.35427480462E+01  0.00000000000E+00 0.  1.
          2   -1    0    0  501    0  0.00000000000E+00 -0.00000000000E+00 -0.65245322474E+03  0.65245322474E+03  0.00000000000E+00 0. -1.
         23    2    1    2    0    0  0.00000000000E+00  0.00000000000E+00 -0.64891047670E+03  0.65599597279E+03  0.96155652714E+02 0.  0.
          2    1    3    3  502    0  0.25511640681E+02  0.39353293223E+02 -0.39663942493E+03  0.39940250238E+03  0.00000000000E+00 0. -1.
         -2    1    3    3    0  502 -0.25511640681E+02 -0.39353293223E+02 -0.25227105177E+03  0.25659347041E+03  0.00000000000E+00 0.  1.
<mgrwt>
<rscale>  0 0.96155653E+02</rscale>
<asrwt>0</asrwt>
<pdfrwt beam="2">  1        2 0.10037744E+00 0.96155653E+02</pdfrwt>
<pdfrwt beam="1">  1       -2 0.54503805E-03 0.96155653E+02</pdfrwt>
<totfact> 0.20248258E+05</totfact>
</mgrwt>
</event>
<event>
 5    1  0.4023633E+001  0.8895475E+02  0.7546771E-02  0.1305403E+00
         -4   -1    0    0    0  501 -0.00000000000E+00  0.00000000000E+00  0.99552033715E+01  0.99552033715E+01  0.00000000000E+00 0.  1.
          4   -1    0    0  501    0  0.00000000000E+00 -0.00000000000E+00 -0.19871385438E+03  0.19871385438E+03  0.00000000000E+00 0. -1.
         23    2    1    2    0    0  0.00000000000E+00  0.00000000000E+00 -0.18875865100E+03  0.20866905775E+03  0.88954748789E+02 0.  0.
          2    1    3    3  502    0 -0.30728297541E+02  0.27255937525E+02 -0.54354748258E+02  0.68128944351E+02  0.00000000000E+00 0. -1.
         -2    1    3    3    0  502  0.30728297541E+02 -0.27255937525E+02 -0.13440390275E+03  0.14054011340E+03  0.00000000000E+00 0.  1.
<mgrwt>
<rscale>  0 0.88954749E+02</rscale>
<asrwt>0</asrwt>
<pdfrwt beam="2">  1        4 0.30571361E-01 0.88954749E+02</pdfrwt>
<pdfrwt beam="1">  1       -4 0.15315698E-02 0.88954749E+02</pdfrwt>
<totfact> 0.22459306E+04</totfact>
</mgrwt>
</event>
<event>
 5    1  0.4023633E+001  0.9054542E+02  0.7546771E-02  0.1301536E+00
          2   -1    0    0  501    0  0.00000000000E+00  0.00000000000E+00  0.21475846008E+04  0.21475846008E+04  0.00000000000E+00 0. -1.
         -2   -1    0    0    0  501 -0.00000000000E+00 -0.00000000000E+00 -0.95438311375E+00  0.95438311375E+00  0.00000000000E+00 0.  1.
         23    2    1    2    0    0  0.00000000000E+00  0.00000000000E+00  0.21466302177E+04  0.21485389839E+04  0.90545424586E+02 0.  0.
          2    1    3    3  502    0  0.38537001948E+02  0.55272821692E+01  0.52499524079E+03  0.52643675235E+03  0.00000000000E+00 0.  1.
         -2    1    3    3    0  502 -0.38537001948E+02 -0.55272821692E+01  0.16216349769E+04  0.16221022316E+04  0.00000000000E+00 0. -1.
<mgrwt>
<rscale>  0 0.90545425E+02</rscale>
<asrwt>0</asrwt>
<pdfrwt beam="1">  1        2 0.33039376E+00 0.90545425E+02</pdfrwt>
<pdfrwt beam="2">  1       -2 0.14682989E-03 0.90545425E+02</pdfrwt>
<totfact> 0.18633193E+05</totfact>
</mgrwt>
</event>
<event>
 5    1  0.4023633E+001  0.9197326E+02  0.7546771E-02  0.1298142E+00
          1   -1    0    0  501    0  0.00000000000E+00  0.00000000000E+00  0.54199826610E+03  0.54199826610E+03  0.00000000000E+00 0. -1.
         -1   -1    0    0    0  501 -0.00000000000E+00 -0.00000000000E+00 -0.39018025767E+01  0.39018025767E+01  0.00000000000E+00 0.  1.
         23    2    1    2    0    0  0.00000000000E+00  0.00000000000E+00  0.53809646352E+03  0.54590006867E+03  0.91973262011E+02 0.  0.
          2    1    3    3  502    0 -0.18876241322E+02 -0.14373937292E+02  0.50286524229E+03  0.50342464626E+03  0.00000000000E+00 0. -1.
         -2    1    3    3    0  502  0.18876241322E+02  0.14373937292E+02  0.35231221230E+02  0.42475422413E+02  0.00000000000E+00 0.  1.
<mgrwt>
<rscale>  0 0.91973262E+02</rscale>
<asrwt>0</asrwt>
<pdfrwt beam="1">  1        1 0.83384289E-01 0.91973262E+02</pdfrwt>
<pdfrwt beam="2">  1       -1 0.60027775E-03 0.91973262E+02</pdfrwt>
<totfact> 0.13726888E+05</totfact>
</mgrwt>
</event>
<event>
 5    1  0.4023633E+001  0.9200853E+02  0.7546771E-02  0.1298059E+00
          1   -1    0    0  501    0  0.00000000000E+00  0.00000000000E+00  0.67795252580E+02  0.67795252580E+02  0.00000000000E+00 0. -1.
         -1   -1    0    0    0  501 -0.00000000000E+00 -0.00000000000E+00 -0.31217412762E+02  0.31217412762E+02  0.00000000000E+00 0.  1.
         23    2    1    2    0    0  0.00000000000E+00  0.00000000000E+00  0.36577839818E+02  0.99012665343E+02  0.92008529673E+02 0.  0.
          2    1    3    3  502    0 -0.34992764359E+02  0.18248658362E+02  0.43729323799E+02  0.58904675956E+02  0.00000000000E+00 0. -1.
         -2    1    3    3    0  502  0.34992764359E+02 -0.18248658362E+02 -0.71514839814E+01  0.40107989387E+02  0.00000000000E+00 0.  1.
<mgrwt>
<rscale>  0 0.92008530E+02</rscale>
<asrwt>0</asrwt>
<pdfrwt beam="1">  1        1 0.10430039E-01 0.92008530E+02</pdfrwt>
<pdfrwt beam="2">  1       -1 0.48026789E-02 0.92008530E+02</pdfrwt>
<totfact> 0.95747084E+04</totfact>
</mgrwt>
</event>
<event>
 5    1  0.4023633E+001  0.9140476E+02  0.7546771E-02  0.1299485E+00
          2   -1    0    0  501    0  0.00000000000E+00  0.00000000000E+00  0.24501684497E+03  0.24501684497E+03  0.00000000000E+00 0. -1.
         -2   -1    0    0    0  501 -0.00000000000E+00 -0.00000000000E+00 -0.85247503062E+01  0.85247503062E+01  0.00000000000E+00 0.  1.
         23    2    1    2    0    0  0.00000000000E+00  0.00000000000E+00  0.23649209466E+03  0.25354159527E+03  0.91404757517E+02 0.  0.
          2    1    3    3  502    0  0.75634933601E+01  0.19529421086E+02  0.23092321085E+03  0.23187094262E+03  0.00000000000E+00 0. -1.
         -2    1    3    3    0  502 -0.75634933601E+01 -0.19529421086E+02  0.55688838108E+01  0.21670652659E+02  0.00000000000E+00 0.  1.
<mgrwt>
<rscale>  0 0.91404758E+02</rscale>
<asrwt>0</asrwt>
<pdfrwt beam="1">  1        2 0.37694894E-01 0.91404758E+02</pdfrwt>
<pdfrwt beam="2">  1       -2 0.13115002E-02 0.91404758E+02</pdfrwt>
<totfact> 0.16550337E+05</totfact>
</mgrwt>
</event>
<event>
 5    1  0.4023633E+001  0.9242712E+02  0.7546771E-02  0.1297078E+00
          2   -1    0    0  501    0  0.00000000000E+00  0.00000000000E+00  0.43740589426E+02  0.43740589426E+02  0.00000000000E+00 0. -1.
         -2   -1    0    0    0  501 -0.00000000000E+00 -0.00000000000E+00 -0.48826347419E+02  0.48826347419E+02  0.00000000000E+00 0.  1.
         23    2    1    2    0    0  0.00000000000E+00  0.00000000000E+00 -0.50857579931E+01  0.92566936846E+02  0.92427121899E+02 0.  0.
          2    1    3    3  502    0 -0.41309813626E+02 -0.18561284596E+02  0.66727374702E+01  0.45777149464E+02  0.00000000000E+00 0. -1.
         -2    1    3    3    0  502  0.41309813626E+02  0.18561284596E+02 -0.11758495463E+02  0.46789787382E+02  0.00000000000E+00 0.  1.
<mgrwt>
<rscale>  0 0.92427122E+02</rscale>
<asrwt>0</asrwt>
<pdfrwt beam="1">  1        2 0.67293214E-02 0.92427122E+02</pdfrwt>
<pdfrwt beam="2">  1       -2 0.75117458E-02 0.92427122E+02</pdfrwt>
<totfact> 0.93860437E+04</totfact>
</mgrwt>
</event>
<event>
 5    1  0.4023633E+001  0.9110174E+02  0.7546771E-02  0.1300205E+00
          1   -1    0    0  501    0  0.00000000000E+00  0.00000000000E+00  0.13165490677E+02  0.13165490677E+02  0.00000000000E+00 0. -1.
         -1   -1    0    0    0  501 -0.00000000000E+00 -0.00000000000E+00 -0.15760002131E+03  0.15760002131E+03  0.00000000000E+00 0.  1.
         23    2    1    2    0    0  0.00000000000E+00  0.00000000000E+00 -0.14443453063E+03  0.17076551199E+03  0.91101736786E+02 0.  0.
          2    1    3    3  502    0 -0.41996219188E+02  0.88678201005E+00 -0.39192227718E+02  0.57449974081E+02  0.00000000000E+00 0. -1.
         -2    1    3    3    0  502  0.41996219188E+02 -0.88678201005E+00 -0.10524230292E+03  0.11331553791E+03  0.00000000000E+00 0.  1.
<mgrwt>
<rscale>  0 0.91101737E+02</rscale>
<asrwt>0</asrwt>
<pdfrwt beam="1">  1        1 0.20254602E-02 0.91101737E+02</pdfrwt>
<pdfrwt beam="2">  1       -1 0.24246156E-01 0.91101737E+02</pdfrwt>
<totfact> 0.74072757E+04</totfact>
</mgrwt>
</event>
<event>
 5    1  0.4023633E+001  0.9157374E+02  0.7546771E-02  0.1299085E+00
          1   -1    0    0  501    0  0.00000000000E+00  0.00000000000E+00  0.12230659929E+04  0.12230659929E+04  0.00000000000E+00 0. -1.
         -1   -1    0    0    0  501 -0.00000000000E+00 -0.00000000000E+00 -0.17140836028E+01  0.17140836028E+01  0.00000000000E+00 0.  1.
         23    2    1    2    0    0  0.00000000000E+00  0.00000000000E+00  0.12213519093E+04  0.12247800765E+04  0.91573737796E+02 0.  0.
          2    1    3    3  502    0 -0.11876832333E+02  0.39392551799E+02  0.87937460417E+03  0.88033659855E+03  0.00000000000E+00 0. -1.
         -2    1    3    3    0  502  0.11876832333E+02 -0.39392551799E+02  0.34197730509E+03  0.34444347792E+03  0.00000000000E+00 0.  1.
<mgrwt>
<rscale>  0 0.91573738E+02</rscale>
<asrwt>0</asrwt>
<pdfrwt beam="1">  1        1 0.18816330E+00 0.91573738E+02</pdfrwt>
<pdfrwt beam="2">  1       -1 0.26370615E-03 0.91573738E+02</pdfrwt>
<totfact> 0.12469645E+05</totfact>
</mgrwt>
</event>
<event>
 5    1  0.4023633E+001  0.8973712E+02  0.7546771E-02  0.1303490E+00
          2   -1    0    0  501    0  0.00000000000E+00  0.00000000000E+00  0.19247651210E+02  0.19247651210E+02  0.00000000000E+00 0.  1.
         -2   -1    0    0    0  501 -0.00000000000E+00 -0.00000000000E+00 -0.10459394419E+03  0.10459394419E+03  0.00000000000E+00 0. -1.
         23    2    1    2    0    0  0.00000000000E+00  0.00000000000E+00 -0.85346292983E+02  0.12384159540E+03  0.89737121783E+02 0.  0.
          2    1    3    3  502    0  0.18696680316E+02 -0.79518709813E+01 -0.97881814501E+02  0.99968233539E+02  0.00000000000E+00 0. -1.
         -2    1    3    3    0  502 -0.18696680316E+02  0.79518709813E+01  0.12535521518E+02  0.23873361863E+02  0.00000000000E+00 0.  1.
<mgrwt>
<rscale>  0 0.89737122E+02</rscale>
<asrwt>0</asrwt>
<pdfrwt beam="1">  1        2 0.29611771E-02 0.89737122E+02</pdfrwt>
<pdfrwt beam="2">  1       -2 0.16091376E-01 0.89737122E+02</pdfrwt>
<totfact> 0.81920144E+04</totfact>
</mgrwt>
</event>
<event>
 5    1  0.4023633E+001  0.9121151E+02  0.7546771E-02  0.1299944E+00
          1   -1    0    0  501    0  0.00000000000E+00  0.00000000000E+00  0.36291668882E+02  0.36291668882E+02  0.00000000000E+00 0. -1.
         -1   -1    0    0    0  501 -0.00000000000E+00 -0.00000000000E+00 -0.57310259152E+02  0.57310259152E+02  0.00000000000E+00 0.  1.
         23    2    1    2    0    0  0.00000000000E+00  0.00000000000E+00 -0.21018590270E+02  0.93601928034E+02  0.91211511307E+02 0.  0.
          2    1    3    3  502    0 -0.35963760311E+02  0.26592699410E+02 -0.19648951470E+02  0.48853300927E+02  0.00000000000E+00 0.  1.
         -2    1    3    3    0  502  0.35963760311E+02 -0.26592699410E+02 -0.13696387995E+01  0.44748627108E+02  0.00000000000E+00 0. -1.
<mgrwt>
<rscale>  0 0.91211511E+02</rscale>
<asrwt>0</asrwt>
<pdfrwt beam="1">  1        1 0.55833337E-02 0.91211511E+02</pdfrwt>
<pdfrwt beam="2">  1       -1 0.88169630E-02 0.91211511E+02</pdfrwt>
<totfact> 0.89227345E+04</totfact>
</mgrwt>
</event>
<event>
 5    1  0.4023633E+001  0.9382030E+02  0.7546771E-02  0.1293855E+00
          2   -1    0    0  501    0  0.00000000000E+00  0.00000000000E+00  0.17311346999E+03  0.17311346999E+03  0.00000000000E+00 0. -1.
         -2   -1    0    0    0  501 -0.00000000000E+00 -0.00000000000E+00 -0.12711675479E+02  0.12711675479E+02  0.00000000000E+00 0.  1.
         23    2    1    2    0    0  0.00000000000E+00  0.00000000000E+00  0.16040179452E+03  0.18582514547E+03  0.93820301673E+02 0.  0.
          2    1    3    3  502    0 -0.29546051983E+02  0.34120717629E+02  0.10551679903E+03  0.11476492250E+03  0.00000000000E+00 0. -1.
         -2    1    3    3    0  502  0.29546051983E+02 -0.34120717629E+02  0.54884995490E+02  0.71060222975E+02  0.00000000000E+00 0.  1.
<mgrwt>
<rscale>  0 0.93820302E+02</rscale>
<asrwt>0</asrwt>
<pdfrwt beam="1">  1        2 0.26632840E-01 0.93820302E+02</pdfrwt>
<pdfrwt beam="2">  1       -2 0.19556425E-02 0.93820302E+02</pdfrwt>
<totfact> 0.13596255E+05</totfact>
</mgrwt>
</event>
<event>
 5    1  0.4023633E+001  0.8984877E+02  0.7546771E-02  0.1303218E+00
         -1   -1    0    0    0  501 -0.00000000000E+00  0.00000000000E+00  0.37580957806E+01  0.37580957806E+01  0.00000000000E+00 0.  1.
          1   -1    0    0  501    0  0.00000000000E+00 -0.00000000000E+00 -0.53702738923E+03  0.53702738923E+03  0.00000000000E+00 0. -1.
         23    2    1    2    0    0  0.00000000000E+00  0.00000000000E+00 -0.53326929345E+03  0.54078548501E+03  0.89848769954E+02 0.  0.
          2    1    3    3  502    0  0.24052366508E+00  0.43453913931E+02 -0.33523356415E+03  0.33803822715E+03  0.00000000000E+00 0. -1.
         -2    1    3    3    0  502 -0.24052366508E+00 -0.43453913931E+02 -0.19803572931E+03  0.20274725786E+03  0.00000000000E+00 0.  1.
<mgrwt>
<rscale>  0 0.89848770E+02</rscale>
<asrwt>0</asrwt>
<pdfrwt beam="2">  1        1 0.82619552E-01 0.89848770E+02</pdfrwt>
<pdfrwt beam="1">  1       -1 0.57816890E-03 0.89848770E+02</pdfrwt>
<totfact> 0.14590088E+05</totfact>
</mgrwt>
</event>
<event>
 5    1  0.4023633E+001  0.9225830E+02  0.7546771E-02  0.1297473E+00
         -3   -1    0    0    0  501 -0.00000000000E+00  0.00000000000E+00  0.11761364788E+04  0.11761364788E+04  0.00000000000E+00 0.  1.
          3   -1    0    0  501    0  0.00000000000E+00 -0.00000000000E+00 -0.18092274350E+01  0.18092274350E+01  0.00000000000E+00 0. -1.
         23    2    1    2    0    0  0.00000000000E+00  0.00000000000E+00  0.11743272513E+04  0.11779457062E+04  0.92258297940E+02 0.  0.
          2    1    3    3  502    0 -0.30770209880E+02 -0.32160134564E+02  0.74187062075E+03  0.74320461382E+03  0.00000000000E+00 0. -1.
         -2    1    3    3    0  502  0.30770209880E+02  0.32160134564E+02  0.43245663060E+03  0.43474109240E+03  0.00000000000E+00 0.  1.
<mgrwt>
<rscale>  0 0.92258298E+02</rscale>
<asrwt>0</asrwt>
<pdfrwt beam="2">  1        3 0.27834362E-03 0.92258298E+02</pdfrwt>
<pdfrwt beam="1">  1       -3 0.18094346E+00 0.92258298E+02</pdfrwt>
<totfact> 0.80729370E+03</totfact>
</mgrwt>
</event>
<event>
 5    1  0.4023633E+001  0.7180725E+02  0.7546771E-02  0.1354053E+00
         -1   -1    0    0    0  501 -0.00000000000E+00  0.00000000000E+00  0.46150439597E+01  0.46150439597E+01  0.00000000000E+00 0.  1.
          1   -1    0    0  501    0  0.00000000000E+00 -0.00000000000E+00 -0.27931917776E+03  0.27931917776E+03  0.00000000000E+00 0. -1.
         23    2    1    2    0    0  0.00000000000E+00  0.00000000000E+00 -0.27470413380E+03  0.28393422172E+03  0.71807249889E+02 0.  0.
          2    1    3    3  502    0 -0.34077235212E+02 -0.21055483946E+01 -0.93431286144E+02  0.99474099766E+02  0.00000000000E+00 0. -1.
         -2    1    3    3    0  502  0.34077235212E+02  0.21055483946E+01 -0.18127284766E+03  0.18446012195E+03  0.00000000000E+00 0.  1.
<mgrwt>
<rscale>  0 0.71807250E+02</rscale>
<asrwt>0</asrwt>
<pdfrwt beam="2">  1        1 0.42972193E-01 0.71807250E+02</pdfrwt>
<pdfrwt beam="1">  1       -1 0.71000656E-03 0.71807250E+02</pdfrwt>
<totfact> 0.23699918E+05</totfact>
</mgrwt>
</event>
<event>
 5    1  0.4023633E+001  0.9222975E+02  0.7546771E-02  0.1297540E+00
         -1   -1    0    0    0  501 -0.00000000000E+00  0.00000000000E+00  0.19815247340E+01  0.19815247340E+01  0.00000000000E+00 0.  1.
          1   -1    0    0  501    0  0.00000000000E+00 -0.00000000000E+00 -0.10732047600E+04  0.10732047600E+04  0.00000000000E+00 0. -1.
         23    2    1    2    0    0  0.00000000000E+00  0.00000000000E+00 -0.10712232353E+04  0.10751862848E+04  0.92229751742E+02 0.  0.
          2    1    3    3  502    0 -0.22808062123E+02 -0.33083246550E+02 -0.79936238687E+03  0.80037174765E+03  0.00000000000E+00 0. -1.
         -2    1    3    3    0  502  0.22808062123E+02  0.33083246550E+02 -0.27186084843E+03  0.27481453711E+03  0.00000000000E+00 0.  1.
<mgrwt>
<rscale>  0 0.92229752E+02</rscale>
<asrwt>0</asrwt>
<pdfrwt beam="2">  1        1 0.16510832E+00 0.92229752E+02</pdfrwt>
<pdfrwt beam="1">  1       -1 0.30485015E-03 0.92229752E+02</pdfrwt>
<totfact> 0.12916776E+05</totfact>
</mgrwt>
</event>
<event>
 5    1  0.4023633E+001  0.8500578E+02  0.7546771E-02  0.1315417E+00
          1   -1    0    0  501    0  0.00000000000E+00  0.00000000000E+00  0.11448460929E+02  0.11448460929E+02  0.00000000000E+00 0. -1.
         -1   -1    0    0    0  501 -0.00000000000E+00 -0.00000000000E+00 -0.15779373856E+03  0.15779373856E+03  0.00000000000E+00 0.  1.
         23    2    1    2    0    0  0.00000000000E+00  0.00000000000E+00 -0.14634527763E+03  0.16924219949E+03  0.85005775116E+02 0.  0.
          2    1    3    3  502    0 -0.19104718326E+02 -0.35594883876E+02 -0.99473482454E+02  0.10736367976E+03  0.00000000000E+00 0. -1.
         -2    1    3    3    0  502  0.19104718326E+02  0.35594883876E+02 -0.46871795173E+02  0.61878519724E+02  0.00000000000E+00 0.  1.
<mgrwt>
<rscale>  0 0.85005775E+02</rscale>
<asrwt>0</asrwt>
<pdfrwt beam="1">  1        1 0.17613017E-02 0.85005775E+02</pdfrwt>
<pdfrwt beam="2">  1       -1 0.24275959E-01 0.85005775E+02</pdfrwt>
<totfact> 0.88602923E+04</totfact>
</mgrwt>
</event>
<event>
 5    1  0.4023633E+001  0.8080407E+02  0.7546771E-02  0.1326785E+00
          2   -1    0    0  501    0  0.00000000000E+00  0.00000000000E+00  0.74837126736E+03  0.74837126736E+03  0.00000000000E+00 0. -1.
         -2   -1    0    0    0  501 -0.00000000000E+00 -0.00000000000E+00 -0.21811694899E+01  0.21811694899E+01  0.00000000000E+00 0.  1.
         23    2    1    2    0    0  0.00000000000E+00  0.00000000000E+00  0.74619009787E+03  0.75055243685E+03  0.80804073547E+02 0.  0.
          2    1    3    3  502    0  0.14661132071E+01  0.37484567103E+02  0.51244873868E+03  0.51381996072E+03  0.00000000000E+00 0. -1.
         -2    1    3    3    0  502 -0.14661132071E+01 -0.37484567103E+02  0.23374135919E+03  0.23673247613E+03  0.00000000000E+00 0.  1.
<mgrwt>
<rscale>  0 0.80804074E+02</rscale>
<asrwt>0</asrwt>
<pdfrwt beam="1">  1        2 0.11513384E+00 0.80804074E+02</pdfrwt>
<pdfrwt beam="2">  1       -2 0.33556513E-03 0.80804074E+02</pdfrwt>
<totfact> 0.33022718E+05</totfact>
</mgrwt>
</event>
<event>
 5    1  0.4023633E+001  0.9022887E+02  0.7546771E-02  0.1302298E+00
         -1   -1    0    0    0  501 -0.00000000000E+00  0.00000000000E+00  0.29520055396E+02  0.29520055396E+02  0.00000000000E+00 0.  1.
          1   -1    0    0  501    0  0.00000000000E+00 -0.00000000000E+00 -0.68946754906E+02  0.68946754906E+02  0.00000000000E+00 0. -1.
         23    2    1    2    0    0  0.00000000000E+00  0.00000000000E+00 -0.39426699510E+02  0.98466810303E+02  0.90228865098E+02 0.  0.
          2    1    3    3  502    0  0.29212938666E+02  0.28877066615E+02 -0.40072211981E+02  0.57385215298E+02  0.00000000000E+00 0. -1.
         -2    1    3    3    0  502 -0.29212938666E+02 -0.28877066615E+02  0.64551247123E+00  0.41081595005E+02  0.00000000000E+00 0.  1.
<mgrwt>
<rscale>  0 0.90228865E+02</rscale>
<asrwt>0</asrwt>
<pdfrwt beam="2">  1        1 0.10607193E-01 0.90228865E+02</pdfrwt>
<pdfrwt beam="1">  1       -1 0.45415471E-02 0.90228865E+02</pdfrwt>
<totfact> 0.10131260E+05</totfact>
</mgrwt>
</event>
<event>
 5    1  0.4023633E+001  0.9012316E+02  0.7546771E-02  0.1302554E+00
          3   -1    0    0  501    0  0.00000000000E+00  0.00000000000E+00  0.31923885980E+02  0.31923885980E+02  0.00000000000E+00 0. -1.
         -3   -1    0    0    0  501 -0.00000000000E+00 -0.00000000000E+00 -0.63605854943E+02  0.63605854943E+02  0.00000000000E+00 0.  1.
         23    2    1    2    0    0  0.00000000000E+00  0.00000000000E+00 -0.31681968963E+02  0.95529740923E+02  0.90123161526E+02 0.  0.
          2    1    3    3  502    0  0.13103197758E+02 -0.35091596857E+02  0.10710300752E+02  0.38959267237E+02  0.00000000000E+00 0. -1.
         -2    1    3    3    0  502 -0.13103197758E+02  0.35091596857E+02 -0.42392269714E+02  0.56570473685E+02  0.00000000000E+00 0.  1.
<mgrwt>
<rscale>  0 0.90123162E+02</rscale>
<asrwt>0</asrwt>
<pdfrwt beam="1">  1        3 0.49113671E-02 0.90123162E+02</pdfrwt>
<pdfrwt beam="2">  1       -3 0.97855160E-02 0.90123162E+02</pdfrwt>
<totfact> 0.36130571E+04</totfact>
</mgrwt>
</event>
<event>
 4    1  0.4023633E+001  0.2057877E+03  0.7546771E-02  0.1144946E+00
         -1   -1    0    0    0  501 -0.00000000000E+00  0.00000000000E+00  0.27244168817E+02  0.27244168817E+02  0.00000000000E+00 0.  1.
          1   -1    0    0  501    0  0.00000000000E+00 -0.00000000000E+00 -0.38860222280E+03  0.38860222280E+03  0.00000000000E+00 0. -1.
          2    1    1    2  502    0  0.10096901480E+03 -0.12523643449E+02 -0.21169355549E+03  0.23487389176E+03  0.00000000000E+00 0. -1.
         -2    1    1    2    0  502 -0.10096901480E+03  0.12523643449E+02 -0.14966449849E+03  0.18097249985E+03  0.00000000000E+00 0.  1.
<mgrwt>
<rscale>  0 0.20578770E+03</rscale>
<asrwt>0</asrwt>
<pdfrwt beam="2">  1        1 0.59784951E-01 0.20578770E+03</pdfrwt>
<pdfrwt beam="1">  1       -1 0.41914110E-02 0.20578770E+03</pdfrwt>
<totfact> 0.14048439E+04</totfact>
</mgrwt>
</event>
<event>
 5    1  0.4023633E+001  0.9156141E+02  0.7546771E-02  0.1299114E+00
         -2   -1    0    0    0  501 -0.00000000000E+00  0.00000000000E+00  0.12460183817E+03  0.12460183817E+03  0.00000000000E+00 0. -1.
          2   -1    0    0  501    0  0.00000000000E+00 -0.00000000000E+00 -0.16820562411E+02  0.16820562411E+02  0.00000000000E+00 0.  1.
         23    2    1    2    0    0  0.00000000000E+00  0.00000000000E+00  0.10778127576E+03  0.14142240058E+03  0.91561410988E+02 0.  0.
          2    1    3    3  502    0  0.14468682878E+02 -0.42496154144E+02  0.40023323502E+02  0.60142599922E+02  0.00000000000E+00 0.  1.
         -2    1    3    3    0  502 -0.14468682878E+02  0.42496154144E+02  0.67757952259E+02  0.81279800661E+02  0.00000000000E+00 0. -1.
<mgrwt>
<rscale>  0 0.91561411E+02</rscale>
<asrwt>0</asrwt>
<pdfrwt beam="2">  1        2 0.25877789E-02 0.91561411E+02</pdfrwt>
<pdfrwt beam="1">  1       -2 0.19169513E-01 0.91561411E+02</pdfrwt>
<totfact> 0.73710078E+04</totfact>
</mgrwt>
</event>
<event>
 5    1  0.4023633E+001  0.9239657E+02  0.7546771E-02  0.1297150E+00
          2   -1    0    0  501    0  0.00000000000E+00  0.00000000000E+00  0.35565977404E+03  0.35565977404E+03  0.00000000000E+00 0. -1.
         -2   -1    0    0    0  501 -0.00000000000E+00 -0.00000000000E+00 -0.60009075725E+01  0.60009075725E+01  0.00000000000E+00 0.  1.
         23    2    1    2    0    0  0.00000000000E+00  0.00000000000E+00  0.34965886646E+03  0.36166068161E+03  0.92396567712E+02 0.  0.
          2    1    3    3  502    0  0.41761824576E+02 -0.16506980040E+02  0.21730389173E+03  0.22189527201E+03  0.00000000000E+00 0. -1.
         -2    1    3    3    0  502 -0.41761824576E+02  0.16506980040E+02  0.13235497474E+03  0.13976540960E+03  0.00000000000E+00 0.  1.
<mgrwt>
<rscale>  0 0.92396568E+02</rscale>
<asrwt>0</asrwt>
<pdfrwt beam="1">  1        2 0.54716871E-01 0.92396568E+02</pdfrwt>
<pdfrwt beam="2">  1       -2 0.92321683E-03 0.92396568E+02</pdfrwt>
<totfact> 0.18466268E+05</totfact>
</mgrwt>
</event>
<event>
 5    1  0.4023633E+001  0.9266255E+02  0.7546771E-02  0.1296529E+00
          2   -1    0    0  501    0  0.00000000000E+00  0.00000000000E+00  0.76435035365E+03  0.76435035365E+03  0.00000000000E+00 0. -1.
         -2   -1    0    0    0  501 -0.00000000000E+00 -0.00000000000E+00 -0.28083810370E+01  0.28083810370E+01  0.00000000000E+00 0.  1.
         23    2    1    2    0    0  0.00000000000E+00  0.00000000000E+00  0.76154197262E+03  0.76715873469E+03  0.92662549906E+02 0.  0.
          2    1    3    3  502    0  0.41474510543E+02  0.51414559446E+01  0.21518619204E+03  0.21920690418E+03  0.00000000000E+00 0. -1.
         -2    1    3    3    0  502 -0.41474510543E+02 -0.51414559446E+01  0.54635578057E+03  0.54795183051E+03  0.00000000000E+00 0.  1.
<mgrwt>
<rscale>  0 0.92662550E+02</rscale>
<asrwt>0</asrwt>
<pdfrwt beam="1">  1        2 0.11759220E+00 0.92662550E+02</pdfrwt>
<pdfrwt beam="2">  1       -2 0.43205923E-03 0.92662550E+02</pdfrwt>
<totfact> 0.23158681E+05</totfact>
</mgrwt>
</event>
<event>
 5    1  0.4023633E+001  0.9159446E+02  0.7546771E-02  0.1299036E+00
         -1   -1    0    0    0  501 -0.00000000000E+00  0.00000000000E+00  0.15048213349E+01  0.15048213349E+01  0.00000000000E+00 0.  1.
          1   -1    0    0  501    0  0.00000000000E+00 -0.00000000000E+00 -0.13937776376E+04  0.13937776376E+04  0.00000000000E+00 0. -1.
         23    2    1    2    0    0  0.00000000000E+00  0.00000000000E+00 -0.13922728163E+04  0.13952824589E+04  0.91594461081E+02 0.  0.
          2    1    3    3  502    0  0.60274561267E+01  0.37130915497E+02 -0.10940574513E+04  0.10947039517E+04  0.00000000000E+00 0. -1.
         -2    1    3    3    0  502 -0.60274561267E+01 -0.37130915497E+02 -0.29821536497E+03  0.30057850725E+03  0.00000000000E+00 0.  1.
<mgrwt>
<rscale>  0 0.91594461E+02</rscale>
<asrwt>0</asrwt>
<pdfrwt beam="2">  1        1 0.21442688E+00 0.91594461E+02</pdfrwt>
<pdfrwt beam="1">  1       -1 0.23151146E-03 0.91594461E+02</pdfrwt>
<totfact> 0.11538878E+05</totfact>
</mgrwt>
</event>
<event>
 5    1  0.4023633E+001  0.9278074E+02  0.7546771E-02  0.1296254E+00
         -2   -1    0    0    0  501 -0.00000000000E+00  0.00000000000E+00  0.16850166130E+02  0.16850166130E+02  0.00000000000E+00 0.  1.
          2   -1    0    0  501    0  0.00000000000E+00 -0.00000000000E+00 -0.12771780907E+03  0.12771780907E+03  0.00000000000E+00 0. -1.
         23    2    1    2    0    0  0.00000000000E+00  0.00000000000E+00 -0.11086764294E+03  0.14456797520E+03  0.92780737236E+02 0.  0.
          2    1    3    3  502    0  0.12526062364E+02 -0.44301629718E+02 -0.64320799049E+02  0.79099316206E+02  0.00000000000E+00 0.  1.
         -2    1    3    3    0  502 -0.12526062364E+02  0.44301629718E+02 -0.46546843891E+02  0.65468658993E+02  0.00000000000E+00 0. -1.
<mgrwt>
<rscale>  0 0.92780737E+02</rscale>
<asrwt>0</asrwt>
<pdfrwt beam="2">  1        2 0.19648894E-01 0.92780737E+02</pdfrwt>
<pdfrwt beam="1">  1       -2 0.25923332E-02 0.92780737E+02</pdfrwt>
<totfact> 0.12634154E+05</totfact>
</mgrwt>
</event>
<event>
 5    1  0.4023633E+001  0.9103434E+02  0.7546771E-02  0.1300366E+00
          4   -1    0    0  501    0  0.00000000000E+00  0.00000000000E+00  0.23177044703E+01  0.23177044703E+01  0.00000000000E+00 0.  1.
         -4   -1    0    0    0  501 -0.00000000000E+00 -0.00000000000E+00 -0.89390726509E+03  0.89390726509E+03  0.00000000000E+00 0. -1.
         23    2    1    2    0    0  0.00000000000E+00  0.00000000000E+00 -0.89158956062E+03  0.89622496956E+03  0.91034342186E+02 0.  0.
          2    1    3    3  502    0 -0.21022840798E+02  0.29082658743E+02 -0.72146141965E+03  0.72235333523E+03  0.00000000000E+00 0. -1.
         -2    1    3    3    0  502  0.21022840798E+02 -0.29082658743E+02 -0.17012814096E+03  0.17387163432E+03  0.00000000000E+00 0.  1.
<mgrwt>
<rscale>  0 0.91034342E+02</rscale>
<asrwt>0</asrwt>
<pdfrwt beam="1">  1        4 0.35656963E-03 0.91034342E+02</pdfrwt>
<pdfrwt beam="2">  1       -4 0.13752431E+00 0.91034342E+02</pdfrwt>
<totfact> 0.80136371E+03</totfact>
</mgrwt>
</event>
<event>
 5    1  0.4023633E+001  0.9506833E+02  0.7546771E-02  0.1291022E+00
          1   -1    0    0  501    0  0.00000000000E+00  0.00000000000E+00  0.17857344081E+04  0.17857344081E+04  0.00000000000E+00 0. -1.
         -1   -1    0    0    0  501 -0.00000000000E+00 -0.00000000000E+00 -0.12653038425E+01  0.12653038425E+01  0.00000000000E+00 0.  1.
         23    2    1    2    0    0  0.00000000000E+00  0.00000000000E+00  0.17844691043E+04  0.17869997119E+04  0.95068325077E+02 0.  0.
          2    1    3    3  502    0 -0.32672646010E+02  0.93933634947E+01  0.15167251063E+04  0.15171060560E+04  0.00000000000E+00 0. -1.
         -2    1    3    3    0  502  0.32672646010E+02 -0.93933634947E+01  0.26774399797E+03  0.26989365595E+03  0.00000000000E+00 0.  1.
<mgrwt>
<rscale>  0 0.95068325E+02</rscale>
<asrwt>0</asrwt>
<pdfrwt beam="1">  1        1 0.27472635E+00 0.95068325E+02</pdfrwt>
<pdfrwt beam="2">  1       -1 0.19466356E-03 0.95068325E+02</pdfrwt>
<totfact> 0.83107046E+04</totfact>
</mgrwt>
</event>
<event>
 5    1  0.4023633E+001  0.9539653E+02  0.7546771E-02  0.1290285E+00
         -1   -1    0    0    0  501 -0.00000000000E+00  0.00000000000E+00  0.10537029184E+02  0.10537029184E+02  0.00000000000E+00 0.  1.
          1   -1    0    0  501    0  0.00000000000E+00 -0.00000000000E+00 -0.21591707656E+03  0.21591707656E+03  0.00000000000E+00 0. -1.
         23    2    1    2    0    0  0.00000000000E+00  0.00000000000E+00 -0.20538004738E+03  0.22645410574E+03  0.95396531113E+02 0.  0.
          2    1    3    3  502    0  0.43110657787E+02 -0.19681705040E+02 -0.11552319109E+03  0.12486595215E+03  0.00000000000E+00 0. -1.
         -2    1    3    3    0  502 -0.43110657787E+02  0.19681705040E+02 -0.89856856287E+02  0.10158815359E+03  0.00000000000E+00 0.  1.
<mgrwt>
<rscale>  0 0.95396531E+02</rscale>
<asrwt>0</asrwt>
<pdfrwt beam="2">  1        1 0.33218009E-01 0.95396531E+02</pdfrwt>
<pdfrwt beam="1">  1       -1 0.16210815E-02 0.95396531E+02</pdfrwt>
<totfact> 0.10642842E+05</totfact>
</mgrwt>
</event>
<event>
 5    1  0.4023633E+001  0.9084962E+02  0.7546771E-02  0.1300807E+00
         -1   -1    0    0    0  501 -0.00000000000E+00  0.00000000000E+00  0.54152543300E+02  0.54152543300E+02  0.00000000000E+00 0.  1.
          1   -1    0    0  501    0  0.00000000000E+00 -0.00000000000E+00 -0.38103723208E+02  0.38103723208E+02  0.00000000000E+00 0. -1.
         23    2    1    2    0    0  0.00000000000E+00  0.00000000000E+00  0.16048820092E+02  0.92256266508E+02  0.90849623464E+02 0.  0.
          2    1    3    3  502    0  0.18487579743E+02  0.81867199476E+01  0.49330998101E+02  0.53313791480E+02  0.00000000000E+00 0.  1.
         -2    1    3    3    0  502 -0.18487579743E+02 -0.81867199476E+01 -0.33282178010E+02  0.38942475028E+02  0.00000000000E+00 0. -1.
<mgrwt>
<rscale>  0 0.90849623E+02</rscale>
<asrwt>0</asrwt>
<pdfrwt beam="2">  1        1 0.58621112E-02 0.90849623E+02</pdfrwt>
<pdfrwt beam="1">  1       -1 0.83311605E-02 0.90849623E+02</pdfrwt>
<totfact> 0.90915281E+04</totfact>
</mgrwt>
</event>
<event>
 5    1  0.4023633E+001  0.9299839E+02  0.7546771E-02  0.1295749E+00
          2   -1    0    0  501    0  0.00000000000E+00  0.00000000000E+00  0.26568691349E+03  0.26568691349E+03  0.00000000000E+00 0. -1.
         -2   -1    0    0    0  501 -0.00000000000E+00 -0.00000000000E+00 -0.81380567559E+01  0.81380567559E+01  0.00000000000E+00 0.  1.
         23    2    1    2    0    0  0.00000000000E+00  0.00000000000E+00  0.25754885674E+03  0.27382497025E+03  0.92998390982E+02 0.  0.
          2    1    3    3  502    0  0.32862461000E+02  0.12729144887E+02  0.21809250618E+03  0.22092151033E+03  0.00000000000E+00 0. -1.
         -2    1    3    3    0  502 -0.32862461000E+02 -0.12729144887E+02  0.39456350555E+02  0.52903459921E+02  0.00000000000E+00 0.  1.
<mgrwt>
<rscale>  0 0.92998391E+02</rscale>
<asrwt>0</asrwt>
<pdfrwt beam="1">  1        2 0.40874903E-01 0.92998391E+02</pdfrwt>
<pdfrwt beam="2">  1       -2 0.12520089E-02 0.92998391E+02</pdfrwt>
<totfact> 0.16283828E+05</totfact>
</mgrwt>
</event>
<event>
 5    1  0.4023633E+001  0.9087634E+02  0.7546771E-02  0.1300743E+00
          1   -1    0    0  501    0  0.00000000000E+00  0.00000000000E+00  0.32677496715E+01  0.32677496715E+01  0.00000000000E+00 0. -1.
         -1   -1    0    0    0  501 -0.00000000000E+00 -0.00000000000E+00 -0.63181930757E+03  0.63181930757E+03  0.00000000000E+00 0.  1.
         23    2    1    2    0    0  0.00000000000E+00  0.00000000000E+00 -0.62855155789E+03  0.63508705724E+03  0.90876340920E+02 0.  0.
          2    1    3    3  502    0 -0.23912204284E+02 -0.24709099993E+01 -0.44813330030E+02  0.50854040727E+02  0.00000000000E+00 0. -1.
         -2    1    3    3    0  502  0.23912204284E+02  0.24709099993E+01 -0.58373822786E+03  0.58423301651E+03  0.00000000000E+00 0.  1.
<mgrwt>
<rscale>  0 0.90876341E+02</rscale>
<asrwt>0</asrwt>
<pdfrwt beam="1">  1        1 0.50273069E-03 0.90876341E+02</pdfrwt>
<pdfrwt beam="2">  1       -1 0.97202976E-01 0.90876341E+02</pdfrwt>
<totfact> 0.40383080E+04</totfact>
</mgrwt>
</event>
<event>
 5    1  0.4023633E+001  0.8910186E+02  0.7546771E-02  0.1305041E+00
         -1   -1    0    0    0  501 -0.00000000000E+00  0.00000000000E+00  0.28272233194E+02  0.28272233194E+02  0.00000000000E+00 0.  1.
          1   -1    0    0  501    0  0.00000000000E+00 -0.00000000000E+00 -0.70202631432E+02  0.70202631432E+02  0.00000000000E+00 0. -1.
         23    2    1    2    0    0  0.00000000000E+00  0.00000000000E+00 -0.41930398238E+02  0.98474864626E+02  0.89101855574E+02 0.  0.
          2    1    3    3  502    0  0.21718943421E+02 -0.41717853934E+01  0.21776951589E+02  0.31037910968E+02  0.00000000000E+00 0.  1.
         -2    1    3    3    0  502 -0.21718943421E+02  0.41717853934E+01 -0.63707349827E+02  0.67436953658E+02  0.00000000000E+00 0. -1.
<mgrwt>
<rscale>  0 0.89101856E+02</rscale>
<asrwt>0</asrwt>
<pdfrwt beam="2">  1        1 0.10800405E-01 0.89101856E+02</pdfrwt>
<pdfrwt beam="1">  1       -1 0.43495744E-02 0.89101856E+02</pdfrwt>
<totfact> 0.10516402E+05</totfact>
</mgrwt>
</event>
<event>
 5    1  0.4023633E+001  0.8969996E+02  0.7546771E-02  0.1303580E+00
          2   -1    0    0  501    0  0.00000000000E+00  0.00000000000E+00  0.18831159986E+02  0.18831159986E+02  0.00000000000E+00 0.  1.
         -2   -1    0    0    0  501 -0.00000000000E+00 -0.00000000000E+00 -0.10681872835E+03  0.10681872835E+03  0.00000000000E+00 0. -1.
         23    2    1    2    0    0  0.00000000000E+00  0.00000000000E+00 -0.87987568365E+02  0.12564988834E+03  0.89699956813E+02 0.  0.
          2    1    3    3  502    0 -0.12244422792E+02 -0.22494525555E+02  0.75806189271E+01  0.26709461858E+02  0.00000000000E+00 0.  1.
         -2    1    3    3    0  502  0.12244422792E+02  0.22494525555E+02 -0.95568187292E+02  0.98940426479E+02  0.00000000000E+00 0. -1.
<mgrwt>
<rscale>  0 0.89699957E+02</rscale>
<asrwt>0</asrwt>
<pdfrwt beam="1">  1        2 0.28971015E-02 0.89699957E+02</pdfrwt>
<pdfrwt beam="2">  1       -2 0.16433651E-01 0.89699957E+02</pdfrwt>
<totfact> 0.81482946E+04</totfact>
</mgrwt>
</event>
<event>
 5    1  0.4023633E+001  0.9118784E+02  0.7546771E-02  0.1300000E+00
          2   -1    0    0  501    0  0.00000000000E+00  0.00000000000E+00  0.34630871046E+02  0.34630871046E+02  0.00000000000E+00 0. -1.
         -2   -1    0    0    0  501 -0.00000000000E+00 -0.00000000000E+00 -0.60027524034E+02  0.60027524034E+02  0.00000000000E+00 0.  1.
         23    2    1    2    0    0  0.00000000000E+00  0.00000000000E+00 -0.25396652988E+02  0.94658395081E+02  0.91187837875E+02 0.  0.
          2    1    3    3  502    0 -0.24892281249E+02  0.30637441722E+02  0.10985061253E+02  0.40974993249E+02  0.00000000000E+00 0. -1.
         -2    1    3    3    0  502  0.24892281249E+02 -0.30637441722E+02 -0.36381714241E+02  0.53683401831E+02  0.00000000000E+00 0.  1.
<mgrwt>
<rscale>  0 0.91187838E+02</rscale>
<asrwt>0</asrwt>
<pdfrwt beam="1">  1        2 0.53278264E-02 0.91187838E+02</pdfrwt>
<pdfrwt beam="2">  1       -2 0.92350035E-02 0.91187838E+02</pdfrwt>
<totfact> 0.91850206E+04</totfact>
</mgrwt>
</event>
<event>
 5    1  0.4023633E+001  0.9230966E+02  0.7546771E-02  0.1297353E+00
          1   -1    0    0  501    0  0.00000000000E+00  0.00000000000E+00  0.74131481823E+03  0.74131481823E+03  0.00000000000E+00 0. -1.
         -1   -1    0    0    0  501 -0.00000000000E+00 -0.00000000000E+00 -0.28736352007E+01  0.28736352007E+01  0.00000000000E+00 0.  1.
         23    2    1    2    0    0  0.00000000000E+00  0.00000000000E+00  0.73844118303E+03  0.74418845343E+03  0.92309660523E+02 0.  0.
          2    1    3    3  502    0  0.11109180488E+02  0.21837114980E+02  0.53879358406E+02  0.59188332837E+02  0.00000000000E+00 0.  1.
         -2    1    3    3    0  502 -0.11109180488E+02 -0.21837114980E+02  0.68456182462E+03  0.68500012059E+03  0.00000000000E+00 0. -1.
<mgrwt>
<rscale>  0 0.92309661E+02</rscale>
<asrwt>0</asrwt>
<pdfrwt beam="1">  1        1 0.11404828E+00 0.92309661E+02</pdfrwt>
<pdfrwt beam="2">  1       -1 0.44209831E-03 0.92309661E+02</pdfrwt>
<totfact> 0.13741405E+05</totfact>
</mgrwt>
</event>
<event>
 5    1  0.4023633E+001  0.9133768E+02  0.7546771E-02  0.1299644E+00
         -1   -1    0    0    0  501 -0.00000000000E+00  0.00000000000E+00  0.59500956835E+01  0.59500956835E+01  0.00000000000E+00 0.  1.
          1   -1    0    0  501    0  0.00000000000E+00 -0.00000000000E+00 -0.35052261817E+03  0.35052261817E+03  0.00000000000E+00 0. -1.
         23    2    1    2    0    0  0.00000000000E+00  0.00000000000E+00 -0.34457252249E+03  0.35647271386E+03  0.91337683732E+02 0.  0.
          2    1    3    3  502    0  0.30913403484E+02  0.29792627168E+02 -0.23305023417E+03  0.23697183545E+03  0.00000000000E+00 0. -1.
         -2    1    3    3    0  502 -0.30913403484E+02 -0.29792627168E+02 -0.11152228832E+03  0.11950087841E+03  0.00000000000E+00 0.  1.
<mgrwt>
<rscale>  0 0.91337684E+02</rscale>
<asrwt>0</asrwt>
<pdfrwt beam="2">  1        1 0.53926571E-01 0.91337684E+02</pdfrwt>
<pdfrwt beam="1">  1       -1 0.91539910E-03 0.91337684E+02</pdfrwt>
<totfact> 0.13125062E+05</totfact>
</mgrwt>
</event>
<event>
 5    1  0.4023633E+001  0.7362382E+02  0.7546771E-02  0.1348186E+00
         -1   -1    0    0    0  501 -0.00000000000E+00  0.00000000000E+00  0.54424958255E+02  0.54424958255E+02  0.00000000000E+00 0.  1.
          1   -1    0    0  501    0  0.00000000000E+00 -0.00000000000E+00 -0.24898812364E+02  0.24898812364E+02  0.00000000000E+00 0. -1.
         23    2    1    2    0    0  0.00000000000E+00  0.00000000000E+00  0.29526145891E+02  0.79323770619E+02  0.73623822870E+02 0.  0.
          2    1    3    3  502    0 -0.30091195645E+02  0.13693057329E+02 -0.26810486855E+01  0.33168778941E+02  0.00000000000E+00 0. -1.
         -2    1    3    3    0  502  0.30091195645E+02 -0.13693057329E+02  0.32207194577E+02  0.46154991679E+02  0.00000000000E+00 0.  1.
<mgrwt>
<rscale>  0 0.73623823E+02</rscale>
<asrwt>0</asrwt>
<pdfrwt beam="2">  1        1 0.38305865E-02 0.73623823E+02</pdfrwt>
<pdfrwt beam="1">  1       -1 0.83730704E-02 0.73623823E+02</pdfrwt>
<totfact> 0.15436784E+05</totfact>
</mgrwt>
</event>
<event>
 5    1  0.4023633E+001  0.8896997E+02  0.7546771E-02  0.1305365E+00
         -2   -1    0    0    0  501 -0.00000000000E+00  0.00000000000E+00  0.25217220075E+01  0.25217220075E+01  0.00000000000E+00 0.  1.
          2   -1    0    0  501    0  0.00000000000E+00 -0.00000000000E+00 -0.78474704108E+03  0.78474704108E+03  0.00000000000E+00 0. -1.
         23    2    1    2    0    0  0.00000000000E+00  0.00000000000E+00 -0.78222531907E+03  0.78726876309E+03  0.88969969850E+02 0.  0.
          2    1    3    3  502    0 -0.98059246946E+00  0.22511693599E+02 -0.73051269897E+03  0.73086013797E+03  0.00000000000E+00 0. -1.
         -2    1    3    3    0  502  0.98059246946E+00 -0.22511693599E+02 -0.51712620099E+02  0.56408625118E+02  0.00000000000E+00 0.  1.
<mgrwt>
<rscale>  0 0.88969970E+02</rscale>
<asrwt>0</asrwt>
<pdfrwt beam="2">  1        2 0.12073028E+00 0.88969970E+02</pdfrwt>
<pdfrwt beam="1">  1       -2 0.38795734E-03 0.88969970E+02</pdfrwt>
<totfact> 0.25907534E+05</totfact>
</mgrwt>
</event>
<event>
 5    1  0.4023633E+001  0.9121507E+02  0.7546771E-02  0.1299936E+00
         -1   -1    0    0    0  501 -0.00000000000E+00  0.00000000000E+00  0.11575291840E+02  0.11575291840E+02  0.00000000000E+00 0.  1.
          1   -1    0    0  501    0  0.00000000000E+00 -0.00000000000E+00 -0.17969717788E+03  0.17969717788E+03  0.00000000000E+00 0. -1.
         23    2    1    2    0    0  0.00000000000E+00  0.00000000000E+00 -0.16812188604E+03  0.19127246972E+03  0.91215070612E+02 0.  0.
          2    1    3    3  502    0 -0.10249233271E+02 -0.17450749548E+02 -0.16976580218E+03  0.17096784210E+03  0.00000000000E+00 0. -1.
         -2    1    3    3    0  502  0.10249233271E+02  0.17450749548E+02  0.16439161410E+01  0.20304627619E+02  0.00000000000E+00 0.  1.
<mgrwt>
<rscale>  0 0.91215071E+02</rscale>
<asrwt>0</asrwt>
<pdfrwt beam="2">  1        1 0.27645720E-01 0.91215071E+02</pdfrwt>
<pdfrwt beam="1">  1       -1 0.17808141E-02 0.91215071E+02</pdfrwt>
<totfact> 0.11585809E+05</totfact>
</mgrwt>
</event>
<event>
 5    1  0.4023633E+001  0.9114273E+02  0.7546771E-02  0.1300108E+00
          1   -1    0    0  501    0  0.00000000000E+00  0.00000000000E+00  0.17850684553E+03  0.17850684553E+03  0.00000000000E+00 0. -1.
         -1   -1    0    0    0  501 -0.00000000000E+00 -0.00000000000E+00 -0.11634004196E+02  0.11634004196E+02  0.00000000000E+00 0.  1.
         23    2    1    2    0    0  0.00000000000E+00  0.00000000000E+00  0.16687284134E+03  0.19014084973E+03  0.91142731799E+02 0.  0.
          2    1    3    3  502    0 -0.32692546440E+02  0.19058287653E+02  0.13640786477E+03  0.14155962168E+03  0.00000000000E+00 0. -1.
         -2    1    3    3    0  502  0.32692546440E+02 -0.19058287653E+02  0.30464976571E+02  0.48581228046E+02  0.00000000000E+00 0.  1.
<mgrwt>
<rscale>  0 0.91142732E+02</rscale>
<asrwt>0</asrwt>
<pdfrwt beam="1">  1        1 0.27462590E-01 0.91142732E+02</pdfrwt>
<pdfrwt beam="2">  1       -1 0.17898469E-02 0.91142732E+02</pdfrwt>
<totfact> 0.11595820E+05</totfact>
</mgrwt>
</event>
<event>
 5    1  0.4023633E+001  0.9987076E+02  0.7546771E-02  0.1280568E+00
         -2   -1    0    0    0  501 -0.00000000000E+00  0.00000000000E+00  0.48306184278E+01  0.48306184278E+01  0.00000000000E+00 0.  1.
          2   -1    0    0  501    0  0.00000000000E+00 -0.00000000000E+00 -0.51619525096E+03  0.51619525096E+03  0.00000000000E+00 0. -1.
         23    2    1    2    0    0  0.00000000000E+00  0.00000000000E+00 -0.51136463253E+03  0.52102586939E+03  0.99870762321E+02 0.  0.
          2    1    3    3  502    0 -0.35086878778E+02  0.19253511719E+01 -0.44077532595E+03  0.44217381651E+03  0.00000000000E+00 0. -1.
         -2    1    3    3    0  502  0.35086878778E+02 -0.19253511719E+01 -0.70589306581E+02  0.78852052878E+02  0.00000000000E+00 0.  1.
<mgrwt>
<rscale>  0 0.99870762E+02</rscale>
<asrwt>0</asrwt>
<pdfrwt beam="2">  1        2 0.79414608E-01 0.99870762E+02</pdfrwt>
<pdfrwt beam="1">  1       -2 0.74317249E-03 0.99870762E+02</pdfrwt>
<totfact> 0.17089470E+05</totfact>
</mgrwt>
</event>
<event>
 5    1  0.4023633E+001  0.9069079E+02  0.7546771E-02  0.1301187E+00
          2   -1    0    0  501    0  0.00000000000E+00  0.00000000000E+00  0.21025347967E+03  0.21025347967E+03  0.00000000000E+00 0.  1.
         -2   -1    0    0    0  501 -0.00000000000E+00 -0.00000000000E+00 -0.97796466477E+01  0.97796466477E+01  0.00000000000E+00 0. -1.
         23    2    1    2    0    0  0.00000000000E+00  0.00000000000E+00  0.20047383302E+03  0.22003312632E+03  0.90690787572E+02 0.  0.
          2    1    3    3  502    0  0.44611316976E+02 -0.79547607161E+01  0.96208477835E+02  0.10634622244E+03  0.00000000000E+00 0.  1.
         -2    1    3    3    0  502 -0.44611316976E+02  0.79547607161E+01  0.10426535519E+03  0.11368690387E+03  0.00000000000E+00 0. -1.
<mgrwt>
<rscale>  0 0.90690788E+02</rscale>
<asrwt>0</asrwt>
<pdfrwt beam="1">  1        2 0.32346686E-01 0.90690788E+02</pdfrwt>
<pdfrwt beam="2">  1       -2 0.15045612E-02 0.90690788E+02</pdfrwt>
<totfact> 0.15979074E+05</totfact>
</mgrwt>
</event>
<event>
 5    1  0.4023633E+001  0.9141527E+02  0.7546771E-02  0.1299460E+00
          2   -1    0    0  501    0  0.00000000000E+00  0.00000000000E+00  0.11263300825E+04  0.11263300825E+04  0.00000000000E+00 0. -1.
         -2   -1    0    0    0  501 -0.00000000000E+00 -0.00000000000E+00 -0.18548628221E+01  0.18548628221E+01  0.00000000000E+00 0.  1.
         23    2    1    2    0    0  0.00000000000E+00  0.00000000000E+00  0.11244752197E+04  0.11281849453E+04  0.91415267771E+02 0.  0.
          2    1    3    3  502    0  0.20368648874E+02  0.39761485799E+02  0.44301115541E+03  0.44525806161E+03  0.00000000000E+00 0. -1.
         -2    1    3    3    0  502 -0.20368648874E+02 -0.39761485799E+02  0.68146406427E+03  0.68292688372E+03  0.00000000000E+00 0.  1.
<mgrwt>
<rscale>  0 0.91415268E+02</rscale>
<asrwt>0</asrwt>
<pdfrwt beam="1">  1        2 0.17328101E+00 0.91415268E+02</pdfrwt>
<pdfrwt beam="2">  1       -2 0.28536441E-03 0.91415268E+02</pdfrwt>
<totfact> 0.24823518E+05</totfact>
</mgrwt>
</event>
<event>
 5    1  0.4023633E+001  0.9167358E+02  0.7546771E-02  0.1298849E+00
         -2   -1    0    0    0  501 -0.00000000000E+00  0.00000000000E+00  0.51846031346E+01  0.51846031346E+01  0.00000000000E+00 0.  1.
          2   -1    0    0  501    0  0.00000000000E+00 -0.00000000000E+00 -0.40524056406E+03  0.40524056406E+03  0.00000000000E+00 0. -1.
         23    2    1    2    0    0  0.00000000000E+00  0.00000000000E+00 -0.40005596093E+03  0.41042516720E+03  0.91673583953E+02 0.  0.
          2    1    3    3  502    0 -0.15051343691E+02 -0.43065078040E+02 -0.21998347680E+03  0.22466391334E+03  0.00000000000E+00 0. -1.
         -2    1    3    3    0  502  0.15051343691E+02  0.43065078040E+02 -0.18007248413E+03  0.18576125386E+03  0.00000000000E+00 0.  1.
<mgrwt>
<rscale>  0 0.91673584E+02</rscale>
<asrwt>0</asrwt>
<pdfrwt beam="2">  1        2 0.62344720E-01 0.91673584E+02</pdfrwt>
<pdfrwt beam="1">  1       -2 0.79763102E-03 0.91673584E+02</pdfrwt>
<totfact> 0.19768027E+05</totfact>
</mgrwt>
</event>
<event>
 5    1  0.4023633E+001  0.9043903E+02  0.7546771E-02  0.1301792E+00
          2   -1    0    0  501    0  0.00000000000E+00  0.00000000000E+00  0.23697505832E+02  0.23697505832E+02  0.00000000000E+00 0. -1.
         -2   -1    0    0    0  501 -0.00000000000E+00 -0.00000000000E+00 -0.86287747966E+02  0.86287747966E+02  0.00000000000E+00 0.  1.
         23    2    1    2    0    0  0.00000000000E+00  0.00000000000E+00 -0.62590242134E+02  0.10998525380E+03  0.90439027210E+02 0.  0.
          2    1    3    3  502    0  0.21002870829E+02  0.75697033144E-01  0.17405800330E+02  0.27277980098E+02  0.00000000000E+00 0. -1.
         -2    1    3    3    0  502 -0.21002870829E+02 -0.75697033144E-01 -0.79996042464E+02  0.82707273700E+02  0.00000000000E+00 0.  1.
<mgrwt>
<rscale>  0 0.90439027E+02</rscale>
<asrwt>0</asrwt>
<pdfrwt beam="1">  1        2 0.36457701E-02 0.90439027E+02</pdfrwt>
<pdfrwt beam="2">  1       -2 0.13275038E-01 0.90439027E+02</pdfrwt>
<totfact> 0.84985019E+04</totfact>
</mgrwt>
</event>
<event>
 5    1  0.4023633E+001  0.8209461E+02  0.7546771E-02  0.1323210E+00
          2   -1    0    0  501    0  0.00000000000E+00  0.00000000000E+00  0.11425286136E+04  0.11425286136E+04  0.00000000000E+00 0. -1.
         -2   -1    0    0    0  501 -0.00000000000E+00 -0.00000000000E+00 -0.14746950944E+01  0.14746950944E+01  0.00000000000E+00 0.  1.
         23    2    1    2    0    0  0.00000000000E+00  0.00000000000E+00  0.11410539185E+04  0.11440033087E+04  0.82094612288E+02 0.  0.
          2    1    3    3  502    0  0.18163541474E+02 -0.22915591682E+02  0.97195760983E+03  0.97239736419E+03  0.00000000000E+00 0. -1.
         -2    1    3    3    0  502 -0.18163541474E+02  0.22915591682E+02  0.16909630871E+03  0.17160594454E+03  0.00000000000E+00 0.  1.
<mgrwt>
<rscale>  0 0.82094612E+02</rscale>
<asrwt>0</asrwt>
<pdfrwt beam="1">  1        2 0.17577293E+00 0.82094612E+02</pdfrwt>
<pdfrwt beam="2">  1       -2 0.22687708E-03 0.82094612E+02</pdfrwt>
<totfact> 0.32873515E+05</totfact>
</mgrwt>
</event>
<event>
 5    1  0.4023633E+001  0.9114913E+02  0.7546771E-02  0.1300093E+00
          1   -1    0    0  501    0  0.00000000000E+00  0.00000000000E+00  0.75490350087E+03  0.75490350087E+03  0.00000000000E+00 0. -1.
         -1   -1    0    0    0  501 -0.00000000000E+00 -0.00000000000E+00 -0.27513995305E+01  0.27513995305E+01  0.00000000000E+00 0.  1.
         23    2    1    2    0    0  0.00000000000E+00  0.00000000000E+00  0.75215210134E+03  0.75765490040E+03  0.91149133575E+02 0.  0.
          2    1    3    3  502    0  0.42266823864E+02  0.10279187560E+02  0.48910287454E+03  0.49103336749E+03  0.00000000000E+00 0. -1.
         -2    1    3    3    0  502 -0.42266823864E+02 -0.10279187560E+02  0.26304922679E+03  0.26662153291E+03  0.00000000000E+00 0.  1.
<mgrwt>
<rscale>  0 0.91149134E+02</rscale>
<asrwt>0</asrwt>
<pdfrwt beam="1">  1        1 0.11613883E+00 0.91149134E+02</pdfrwt>
<pdfrwt beam="2">  1       -1 0.42329284E-03 0.91149134E+02</pdfrwt>
<totfact> 0.14197639E+05</totfact>
</mgrwt>
</event>
<event>
 5    1  0.4023633E+001  0.8570877E+02  0.7546771E-02  0.1313589E+00
         -2   -1    0    0    0  501 -0.00000000000E+00  0.00000000000E+00  0.66478605131E+00  0.66478605131E+00  0.00000000000E+00 0.  1.
          2   -1    0    0  501    0  0.00000000000E+00 -0.00000000000E+00 -0.27625402334E+04  0.27625402334E+04  0.00000000000E+00 0. -1.
         23    2    1    2    0    0  0.00000000000E+00  0.00000000000E+00 -0.27618754474E+04  0.27632050195E+04  0.85708767658E+02 0.  0.
          2    1    3    3  502    0  0.38930390130E+02  0.91891652107E+01 -0.18767155156E+04  0.18771417481E+04  0.00000000000E+00 0. -1.
         -2    1    3    3    0  502 -0.38930390130E+02 -0.91891652107E+01 -0.88515993182E+03  0.88606327140E+03  0.00000000000E+00 0.  1.
<mgrwt>
<rscale>  0 0.85708768E+02</rscale>
<asrwt>0</asrwt>
<pdfrwt beam="2">  1        2 0.42499926E+00 0.85708768E+02</pdfrwt>
<pdfrwt beam="1">  1       -2 0.10227644E-03 0.85708768E+02</pdfrwt>
<totfact> 0.14541930E+05</totfact>
</mgrwt>
</event>
<event>
 5    1  0.4023633E+001  0.9763543E+02  0.7546771E-02  0.1285348E+00
          1   -1    0    0  501    0  0.00000000000E+00  0.00000000000E+00  0.18779573392E+04  0.18779573392E+04  0.00000000000E+00 0. -1.
         -1   -1    0    0    0  501 -0.00000000000E+00 -0.00000000000E+00 -0.12690221456E+01  0.12690221456E+01  0.00000000000E+00 0.  1.
         23    2    1    2    0    0  0.00000000000E+00  0.00000000000E+00  0.18766883170E+04  0.18792263613E+04  0.97635433157E+02 0.  0.
          2    1    3    3  502    0 -0.32858417461E+02 -0.28851666831E+02  0.13560944367E+04  0.13567992539E+04  0.00000000000E+00 0. -1.
         -2    1    3    3    0  502  0.32858417461E+02  0.28851666831E+02  0.52059388038E+03  0.52242710742E+03  0.00000000000E+00 0.  1.
<mgrwt>
<rscale>  0 0.97635433E+02</rscale>
<asrwt>0</asrwt>
<pdfrwt beam="1">  1        1 0.28891429E+00 0.97635433E+02</pdfrwt>
<pdfrwt beam="2">  1       -1 0.19523568E-03 0.97635433E+02</pdfrwt>
<totfact> 0.72646287E+04</totfact>
</mgrwt>
</event>
<event>
 5    1  0.4023633E+001  0.9093613E+02  0.7546771E-02  0.1300600E+00
         -1   -1    0    0    0  501 -0.00000000000E+00  0.00000000000E+00  0.23284945447E+02  0.23284945447E+02  0.00000000000E+00 0.  1.
          1   -1    0    0  501    0  0.00000000000E+00 -0.00000000000E+00 -0.88784620105E+02  0.88784620105E+02  0.00000000000E+00 0. -1.
         23    2    1    2    0    0  0.00000000000E+00  0.00000000000E+00 -0.65499674658E+02  0.11206956555E+03  0.90936132217E+02 0.  0.
          2    1    3    3  502    0 -0.13401988383E+02 -0.41065509344E+02 -0.15262118652E+02  0.45813989305E+02  0.00000000000E+00 0. -1.
         -2    1    3    3    0  502  0.13401988383E+02  0.41065509344E+02 -0.50237556006E+02  0.66255576246E+02  0.00000000000E+00 0.  1.
<mgrwt>
<rscale>  0 0.90936132E+02</rscale>
<asrwt>0</asrwt>
<pdfrwt beam="2">  1        1 0.13659172E-01 0.90936132E+02</pdfrwt>
<pdfrwt beam="1">  1       -1 0.35822993E-02 0.90936132E+02</pdfrwt>
<totfact> 0.10317813E+05</totfact>
</mgrwt>
</event>
<event>
 5    1  0.4023633E+001  0.8870193E+02  0.7546771E-02  0.1306026E+00
         -4   -1    0    0    0  501 -0.00000000000E+00  0.00000000000E+00  0.38936060053E+02  0.38936060053E+02  0.00000000000E+00 0.  1.
          4   -1    0    0  501    0  0.00000000000E+00 -0.00000000000E+00 -0.50518926085E+02  0.50518926085E+02  0.00000000000E+00 0. -1.
         23    2    1    2    0    0  0.00000000000E+00  0.00000000000E+00 -0.11582866032E+02  0.89454986138E+02  0.88701926469E+02 0.  0.
          2    1    3    3  502    0  0.24699260283E+02 -0.34793964968E+02 -0.17991011902E+02  0.46307126513E+02  0.00000000000E+00 0. -1.
         -2    1    3    3    0  502 -0.24699260283E+02  0.34793964968E+02  0.64081458694E+01  0.43147859624E+02  0.00000000000E+00 0.  1.
<mgrwt>
<rscale>  0 0.88701926E+02</rscale>
<asrwt>0</asrwt>
<pdfrwt beam="2">  1        4 0.77721425E-02 0.88701926E+02</pdfrwt>
<pdfrwt beam="1">  1       -4 0.59901631E-02 0.88701926E+02</pdfrwt>
<totfact> 0.29224777E+04</totfact>
</mgrwt>
</event>
<event>
 5    1  0.4023633E+001  0.9246291E+02  0.7546771E-02  0.1296995E+00
         -3   -1    0    0    0  501 -0.00000000000E+00  0.00000000000E+00  0.37242871431E+01  0.37242871431E+01  0.00000000000E+00 0.  1.
          3   -1    0    0  501    0  0.00000000000E+00 -0.00000000000E+00 -0.57389443189E+03  0.57389443189E+03  0.00000000000E+00 0. -1.
         23    2    1    2    0    0  0.00000000000E+00  0.00000000000E+00 -0.57017014474E+03  0.57761871903E+03  0.92462914818E+02 0.  0.
          2    1    3    3  502    0 -0.43887496192E+02 -0.11392300283E+02 -0.34146459920E+03  0.34446185469E+03  0.00000000000E+00 0. -1.
         -2    1    3    3    0  502  0.43887496192E+02  0.11392300283E+02 -0.22870554554E+03  0.23315686434E+03  0.00000000000E+00 0.  1.
<mgrwt>
<rscale>  0 0.92462915E+02</rscale>
<asrwt>0</asrwt>
<pdfrwt beam="2">  1        3 0.88291454E-01 0.92462915E+02</pdfrwt>
<pdfrwt beam="1">  1       -3 0.57296724E-03 0.92462915E+02</pdfrwt>
<totfact> 0.15584904E+04</totfact>
</mgrwt>
</event>
<event>
 5    1  0.4023633E+001  0.9007738E+02  0.7546771E-02  0.1302664E+00
          1   -1    0    0  501    0  0.00000000000E+00  0.00000000000E+00  0.63753545973E+02  0.63753545973E+02  0.00000000000E+00 0. -1.
         -1   -1    0    0    0  501 -0.00000000000E+00 -0.00000000000E+00 -0.31817578946E+02  0.31817578946E+02  0.00000000000E+00 0.  1.
         23    2    1    2    0    0  0.00000000000E+00  0.00000000000E+00  0.31935967027E+02  0.95571124919E+02  0.90077377450E+02 0.  0.
          2    1    3    3  502    0 -0.39823805475E+02  0.12152351158E+02 -0.22510381495E+01  0.41697509446E+02  0.00000000000E+00 0.  1.
         -2    1    3    3    0  502  0.39823805475E+02 -0.12152351158E+02  0.34187005176E+02  0.53873615473E+02  0.00000000000E+00 0. -1.
<mgrwt>
<rscale>  0 0.90077377E+02</rscale>
<asrwt>0</asrwt>
<pdfrwt beam="1">  1        1 0.98082378E-02 0.90077377E+02</pdfrwt>
<pdfrwt beam="2">  1       -1 0.48950122E-02 0.90077377E+02</pdfrwt>
<totfact> 0.10057856E+05</totfact>
</mgrwt>
</event>
<event>
 5    1  0.4023633E+001  0.9165472E+02  0.7546771E-02  0.1298893E+00
          1   -1    0    0  501    0  0.00000000000E+00  0.00000000000E+00  0.13491343352E+02  0.13491343352E+02  0.00000000000E+00 0. -1.
         -1   -1    0    0    0  501 -0.00000000000E+00 -0.00000000000E+00 -0.15566625471E+03  0.15566625471E+03  0.00000000000E+00 0.  1.
         23    2    1    2    0    0  0.00000000000E+00  0.00000000000E+00 -0.14217491136E+03  0.16915759806E+03  0.91654719258E+02 0.  0.
          2    1    3    3  502    0 -0.38301041716E+01 -0.28570738597E+02 -0.53368111708E+01  0.29316179073E+02  0.00000000000E+00 0. -1.
         -2    1    3    3    0  502  0.38301041716E+01  0.28570738597E+02 -0.13683810019E+03  0.13984141899E+03  0.00000000000E+00 0.  1.
<mgrwt>
<rscale>  0 0.91654719E+02</rscale>
<asrwt>0</asrwt>
<pdfrwt beam="1">  1        1 0.20755912E-02 0.91654719E+02</pdfrwt>
<pdfrwt beam="2">  1       -1 0.23948655E-01 0.91654719E+02</pdfrwt>
<totfact> 0.73133581E+04</totfact>
</mgrwt>
</event>
<event>
 5    1  0.4023633E+001  0.9176826E+02  0.7546771E-02  0.1298625E+00
          1   -1    0    0  501    0  0.00000000000E+00  0.00000000000E+00  0.43140091638E+02  0.43140091638E+02  0.00000000000E+00 0. -1.
         -1   -1    0    0    0  501 -0.00000000000E+00 -0.00000000000E+00 -0.48802710152E+02  0.48802710152E+02  0.00000000000E+00 0.  1.
         23    2    1    2    0    0  0.00000000000E+00  0.00000000000E+00 -0.56626185138E+01  0.91942801789E+02  0.91768260049E+02 0.  0.
          2    1    3    3  502    0  0.18859735189E+02  0.15369738211E+02  0.36145574356E+02  0.43570873409E+02  0.00000000000E+00 0. -1.
         -2    1    3    3    0  502 -0.18859735189E+02 -0.15369738211E+02 -0.41808192870E+02  0.48371928380E+02  0.00000000000E+00 0.  1.
<mgrwt>
<rscale>  0 0.91768260E+02</rscale>
<asrwt>0</asrwt>
<pdfrwt beam="1">  1        1 0.66369372E-02 0.91768260E+02</pdfrwt>
<pdfrwt beam="2">  1       -1 0.75081093E-02 0.91768260E+02</pdfrwt>
<totfact> 0.90050690E+04</totfact>
</mgrwt>
</event>
<event>
 5    1  0.4023633E+001  0.9493225E+02  0.7546771E-02  0.1291329E+00
         -3   -1    0    0    0  501 -0.00000000000E+00  0.00000000000E+00  0.90502322566E+02  0.90502322566E+02  0.00000000000E+00 0.  1.
          3   -1    0    0  501    0  0.00000000000E+00 -0.00000000000E+00 -0.24894752237E+02  0.24894752237E+02  0.00000000000E+00 0. -1.
         23    2    1    2    0    0  0.00000000000E+00  0.00000000000E+00  0.65607570329E+02  0.11539707480E+03  0.94932247359E+02 0.  0.
          2    1    3    3  502    0 -0.26541537883E+02 -0.34377926611E+02  0.56082494139E+02  0.70933357598E+02  0.00000000000E+00 0.  1.
         -2    1    3    3    0  502  0.26541537883E+02  0.34377926611E+02  0.95250761894E+01  0.44463717205E+02  0.00000000000E+00 0. -1.
<mgrwt>
<rscale>  0 0.94932247E+02</rscale>
<asrwt>0</asrwt>
<pdfrwt beam="2">  1        3 0.38299619E-02 0.94932247E+02</pdfrwt>
<pdfrwt beam="1">  1       -3 0.13923434E-01 0.94932247E+02</pdfrwt>
<totfact> 0.30066833E+04</totfact>
</mgrwt>
</event>
<event>
 5    1  0.4023633E+001  0.9074658E+02  0.7546771E-02  0.1301054E+00
         -1   -1    0    0    0  501 -0.00000000000E+00  0.00000000000E+00  0.15115992921E+03  0.15115992921E+03  0.00000000000E+00 0.  1.
          1   -1    0    0  501    0  0.00000000000E+00 -0.00000000000E+00 -0.13619583190E+02  0.13619583190E+02  0.00000000000E+00 0. -1.
         23    2    1    2    0    0  0.00000000000E+00  0.00000000000E+00  0.13754034602E+03  0.16477951240E+03  0.90746575274E+02 0.  0.
          2    1    3    3  502    0 -0.39422742776E+02 -0.21163648540E+02  0.55099253983E+02  0.70978732427E+02  0.00000000000E+00 0. -1.
         -2    1    3    3    0  502  0.39422742776E+02  0.21163648540E+02  0.82441092040E+02  0.93800779976E+02  0.00000000000E+00 0.  1.
<mgrwt>
<rscale>  0 0.90746575E+02</rscale>
<asrwt>0</asrwt>
<pdfrwt beam="2">  1        1 0.20953206E-02 0.90746575E+02</pdfrwt>
<pdfrwt beam="1">  1       -1 0.23255373E-01 0.90746575E+02</pdfrwt>
<totfact> 0.75575303E+04</totfact>
</mgrwt>
</event>
<event>
 5    1  0.4023633E+001  0.9133372E+02  0.7546771E-02  0.1299654E+00
          1   -1    0    0  501    0  0.00000000000E+00  0.00000000000E+00  0.80846457805E+02  0.80846457805E+02  0.00000000000E+00 0. -1.
         -1   -1    0    0    0  501 -0.00000000000E+00 -0.00000000000E+00 -0.25795341756E+02  0.25795341756E+02  0.00000000000E+00 0.  1.
         23    2    1    2    0    0  0.00000000000E+00  0.00000000000E+00  0.55051116048E+02  0.10664179956E+03  0.91333717954E+02 0.  0.
          2    1    3    3  502    0 -0.15874132896E+02  0.30453724521E+02 -0.76200540102E+01  0.35177871674E+02  0.00000000000E+00 0.  1.
         -2    1    3    3    0  502  0.15874132896E+02 -0.30453724521E+02  0.62671170059E+02  0.71463927886E+02  0.00000000000E+00 0. -1.
<mgrwt>
<rscale>  0 0.91333718E+02</rscale>
<asrwt>0</asrwt>
<pdfrwt beam="1">  1        1 0.12437916E-01 0.91333718E+02</pdfrwt>
<pdfrwt beam="2">  1       -1 0.39685142E-02 0.91333718E+02</pdfrwt>
<totfact> 0.10043645E+05</totfact>
</mgrwt>
</event>
<event>
 5    1  0.4023633E+001  0.1022205E+03  0.7546771E-02  0.1275695E+00
          1   -1    0    0  501    0  0.00000000000E+00  0.00000000000E+00  0.46840085867E+03  0.46840085867E+03  0.00000000000E+00 0. -1.
         -1   -1    0    0    0  501 -0.00000000000E+00 -0.00000000000E+00 -0.55769700444E+01  0.55769700444E+01  0.00000000000E+00 0.  1.
         23    2    1    2    0    0  0.00000000000E+00  0.00000000000E+00  0.46282388862E+03  0.47397782871E+03  0.10222049809E+03 0.  0.
          2    1    3    3  502    0 -0.44924122825E+02  0.24097913874E+02  0.21445659527E+03  0.22043256910E+03  0.00000000000E+00 0. -1.
         -2    1    3    3    0  502  0.44924122825E+02 -0.24097913874E+02  0.24836729335E+03  0.25354525961E+03  0.00000000000E+00 0.  1.
<mgrwt>
<rscale>  0 0.10222050E+03</rscale>
<asrwt>0</asrwt>
<pdfrwt beam="1">  1        1 0.72061640E-01 0.10222050E+03</pdfrwt>
<pdfrwt beam="2">  1       -1 0.85799576E-03 0.10222050E+03</pdfrwt>
<totfact> 0.10182054E+05</totfact>
</mgrwt>
</event>
<event>
 5    1  0.4023633E+001  0.8150459E+02  0.7546771E-02  0.1324835E+00
          2   -1    0    0  501    0  0.00000000000E+00  0.00000000000E+00  0.18940274738E+02  0.18940274738E+02  0.00000000000E+00 0. -1.
         -2   -1    0    0    0  501 -0.00000000000E+00 -0.00000000000E+00 -0.87683493305E+02  0.87683493305E+02  0.00000000000E+00 0.  1.
         23    2    1    2    0    0  0.00000000000E+00  0.00000000000E+00 -0.68743218567E+02  0.10662376804E+03  0.81504587679E+02 0.  0.
          2    1    3    3  502    0  0.79413085769E+01 -0.36626653008E+02 -0.55309790509E+02  0.66811294095E+02  0.00000000000E+00 0. -1.
         -2    1    3    3    0  502 -0.79413085769E+01  0.36626653008E+02 -0.13433428058E+02  0.39812473948E+02  0.00000000000E+00 0.  1.
<mgrwt>
<rscale>  0 0.81504588E+02</rscale>
<asrwt>0</asrwt>
<pdfrwt beam="1">  1        2 0.29138885E-02 0.81504588E+02</pdfrwt>
<pdfrwt beam="2">  1       -2 0.13489768E-01 0.81504588E+02</pdfrwt>
<totfact> 0.10941442E+05</totfact>
</mgrwt>
</event>
<event>
 5    1  0.4023633E+001  0.7407680E+02  0.7546771E-02  0.1346754E+00
          1   -1    0    0  501    0  0.00000000000E+00  0.00000000000E+00  0.91048974860E+03  0.91048974860E+03  0.00000000000E+00 0. -1.
         -1   -1    0    0    0  501 -0.00000000000E+00 -0.00000000000E+00 -0.15067091074E+01  0.15067091074E+01  0.00000000000E+00 0.  1.
         23    2    1    2    0    0  0.00000000000E+00  0.00000000000E+00  0.90898303949E+03  0.91199645771E+03  0.74076803291E+02 0.  0.
          2    1    3    3  502    0  0.44972481476E+01  0.34876118557E+02  0.59768346286E+03  0.59871703723E+03  0.00000000000E+00 0. -1.
         -2    1    3    3    0  502 -0.44972481476E+01 -0.34876118557E+02  0.31129957663E+03  0.31327942048E+03  0.00000000000E+00 0.  1.
<mgrwt>
<rscale>  0 0.74076803E+02</rscale>
<asrwt>0</asrwt>
<pdfrwt beam="1">  1        1 0.14007491E+00 0.74076803E+02</pdfrwt>
<pdfrwt beam="2">  1       -1 0.23180213E-03 0.74076803E+02</pdfrwt>
<totfact> 0.23916279E+05</totfact>
</mgrwt>
</event>
<event>
 5    1  0.4023633E+001  0.9446708E+02  0.7546771E-02  0.1292381E+00
          1   -1    0    0  501    0  0.00000000000E+00  0.00000000000E+00  0.19854994888E+03  0.19854994888E+03  0.00000000000E+00 0. -1.
         -1   -1    0    0    0  501 -0.00000000000E+00 -0.00000000000E+00 -0.11236503013E+02  0.11236503013E+02  0.00000000000E+00 0.  1.
         23    2    1    2    0    0  0.00000000000E+00  0.00000000000E+00  0.18731344587E+03  0.20978645189E+03  0.94467075721E+02 0.  0.
          2    1    3    3  502    0 -0.31922837821E+02  0.26811423022E+02  0.14296942444E+03  0.14892339072E+03  0.00000000000E+00 0. -1.
         -2    1    3    3    0  502  0.31922837821E+02 -0.26811423022E+02  0.44344021428E+02  0.60863061173E+02  0.00000000000E+00 0.  1.
<mgrwt>
<rscale>  0 0.94467076E+02</rscale>
<asrwt>0</asrwt>
<pdfrwt beam="1">  1        1 0.30546143E-01 0.94467076E+02</pdfrwt>
<pdfrwt beam="2">  1       -1 0.17286929E-02 0.94467076E+02</pdfrwt>
<totfact> 0.10748698E+05</totfact>
</mgrwt>
</event>
<event>
 5    1  0.4023633E+001  0.9283734E+02  0.7546771E-02  0.1296123E+00
          1   -1    0    0  501    0  0.00000000000E+00  0.00000000000E+00  0.62168538576E+03  0.62168538576E+03  0.00000000000E+00 0. -1.
         -1   -1    0    0    0  501 -0.00000000000E+00 -0.00000000000E+00 -0.34658897014E+01  0.34658897014E+01  0.00000000000E+00 0.  1.
         23    2    1    2    0    0  0.00000000000E+00  0.00000000000E+00  0.61821949606E+03  0.62515127547E+03  0.92837341109E+02 0.  0.
          2    1    3    3  502    0 -0.85791306945E+01 -0.30164518872E+02  0.78659745918E+02  0.84680902866E+02  0.00000000000E+00 0.  1.
         -2    1    3    3    0  502  0.85791306945E+01  0.30164518872E+02  0.53955975014E+03  0.54047037260E+03  0.00000000000E+00 0. -1.
<mgrwt>
<rscale>  0 0.92837341E+02</rscale>
<asrwt>0</asrwt>
<pdfrwt beam="1">  1        1 0.95643817E-01 0.92837341E+02</pdfrwt>
<pdfrwt beam="2">  1       -1 0.53321429E-03 0.92837341E+02</pdfrwt>
<totfact> 0.13523005E+05</totfact>
</mgrwt>
</event>
<event>
 5    1  0.4023633E+001  0.9254914E+02  0.7546771E-02  0.1296793E+00
         -1   -1    0    0    0  501 -0.00000000000E+00  0.00000000000E+00  0.15589272603E+01  0.15589272603E+01  0.00000000000E+00 0.  1.
          1   -1    0    0  501    0  0.00000000000E+00 -0.00000000000E+00 -0.13735958102E+04  0.13735958102E+04  0.00000000000E+00 0. -1.
         23    2    1    2    0    0  0.00000000000E+00  0.00000000000E+00 -0.13720368829E+04  0.13751547374E+04  0.92549142688E+02 0.  0.
          2    1    3    3  502    0  0.33165561787E+02  0.83089667960E+01 -0.11493467242E+04  0.11498551586E+04  0.00000000000E+00 0. -1.
         -2    1    3    3    0  502 -0.33165561787E+02 -0.83089667960E+01 -0.22269015874E+03  0.22529957882E+03  0.00000000000E+00 0.  1.
<mgrwt>
<rscale>  0 0.92549143E+02</rscale>
<asrwt>0</asrwt>
<pdfrwt beam="2">  1        1 0.21132192E+00 0.92549143E+02</pdfrwt>
<pdfrwt beam="1">  1       -1 0.23983554E-03 0.92549143E+02</pdfrwt>
<totfact> 0.11337904E+05</totfact>
</mgrwt>
</event>
<event>
 5    1  0.4023633E+001  0.8978321E+02  0.7546771E-02  0.1303378E+00
         -2   -1    0    0    0  501 -0.00000000000E+00  0.00000000000E+00  0.20231075071E+02  0.20231075071E+02  0.00000000000E+00 0.  1.
          2   -1    0    0  501    0  0.00000000000E+00 -0.00000000000E+00 -0.99611924736E+02  0.99611924736E+02  0.00000000000E+00 0. -1.
         23    2    1    2    0    0  0.00000000000E+00  0.00000000000E+00 -0.79380849665E+02  0.11984299981E+03  0.89783212848E+02 0.  0.
          2    1    3    3  502    0  0.20168561607E+02 -0.75492941390E+01 -0.92267028034E+02  0.94746858425E+02  0.00000000000E+00 0. -1.
         -2    1    3    3    0  502 -0.20168561607E+02  0.75492941390E+01  0.12886178369E+02  0.25096141382E+02  0.00000000000E+00 0.  1.
<mgrwt>
<rscale>  0 0.89783213E+02</rscale>
<asrwt>0</asrwt>
<pdfrwt beam="2">  1        2 0.15324911E-01 0.89783213E+02</pdfrwt>
<pdfrwt beam="1">  1       -2 0.31124732E-02 0.89783213E+02</pdfrwt>
<totfact> 0.12782934E+05</totfact>
</mgrwt>
</event>
<event>
 5    1  0.4023633E+001  0.8318675E+02  0.7546771E-02  0.1320244E+00
          1   -1    0    0  501    0  0.00000000000E+00  0.00000000000E+00  0.51379293761E+03  0.51379293761E+03  0.00000000000E+00 0. -1.
         -1   -1    0    0    0  501 -0.00000000000E+00 -0.00000000000E+00 -0.33671325106E+01  0.33671325106E+01  0.00000000000E+00 0.  1.
         23    2    1    2    0    0  0.00000000000E+00  0.00000000000E+00  0.51042580510E+03  0.51716007012E+03  0.83186751444E+02 0.  0.
          2    1    3    3  502    0  0.90609922085E+01 -0.26417306842E+02  0.63593175411E+02  0.69455508345E+02  0.00000000000E+00 0.  1.
         -2    1    3    3    0  502 -0.90609922085E+01  0.26417306842E+02  0.44683262969E+03  0.44770456178E+03  0.00000000000E+00 0. -1.
<mgrwt>
<rscale>  0 0.83186751E+02</rscale>
<asrwt>0</asrwt>
<pdfrwt beam="1">  1        1 0.79045005E-01 0.83186751E+02</pdfrwt>
<pdfrwt beam="2">  1       -1 0.51802079E-03 0.83186751E+02</pdfrwt>
<totfact> 0.17791779E+05</totfact>
</mgrwt>
</event>
<event>
 5    1  0.4023633E+001  0.9093820E+02  0.7546771E-02  0.1300595E+00
          1   -1    0    0  501    0  0.00000000000E+00  0.00000000000E+00  0.78302801768E+02  0.78302801768E+02  0.00000000000E+00 0. -1.
         -1   -1    0    0    0  501 -0.00000000000E+00 -0.00000000000E+00 -0.26403131757E+02  0.26403131757E+02  0.00000000000E+00 0.  1.
         23    2    1    2    0    0  0.00000000000E+00  0.00000000000E+00  0.51899670012E+02  0.10470593353E+03  0.90938203018E+02 0.  0.
          2    1    3    3  502    0 -0.17601803946E+02 -0.17288761570E+02  0.69925261705E+02  0.74150300089E+02  0.00000000000E+00 0. -1.
         -2    1    3    3    0  502  0.17601803946E+02  0.17288761570E+02 -0.18025591694E+02  0.30555633436E+02  0.00000000000E+00 0.  1.
<mgrwt>
<rscale>  0 0.90938203E+02</rscale>
<asrwt>0</asrwt>
<pdfrwt beam="1">  1        1 0.12046585E-01 0.90938203E+02</pdfrwt>
<pdfrwt beam="2">  1       -1 0.40620203E-02 0.90938203E+02</pdfrwt>
<totfact> 0.10112988E+05</totfact>
</mgrwt>
</event>
<event>
 5    1  0.4023633E+001  0.7670225E+02  0.7546771E-02  0.1338679E+00
          2   -1    0    0  501    0  0.00000000000E+00  0.00000000000E+00  0.74998827526E+02  0.74998827526E+02  0.00000000000E+00 0. -1.
         -2   -1    0    0    0  501 -0.00000000000E+00 -0.00000000000E+00 -0.19611089351E+02  0.19611089351E+02  0.00000000000E+00 0.  1.
         23    2    1    2    0    0  0.00000000000E+00  0.00000000000E+00  0.55387738175E+02  0.94609916877E+02  0.76702247889E+02 0.  0.
          2    1    3    3  502    0  0.16781470409E+02  0.19780216708E+02  0.62536589059E+02  0.67703025732E+02  0.00000000000E+00 0. -1.
         -2    1    3    3    0  502 -0.16781470409E+02 -0.19780216708E+02 -0.71488508842E+01  0.26906891145E+02  0.00000000000E+00 0.  1.
<mgrwt>
<rscale>  0 0.76702248E+02</rscale>
<asrwt>0</asrwt>
<pdfrwt beam="1">  1        2 0.11538281E-01 0.76702248E+02</pdfrwt>
<pdfrwt beam="2">  1       -2 0.30170907E-02 0.76702248E+02</pdfrwt>
<totfact> 0.18136394E+05</totfact>
</mgrwt>
</event>
<event>
 5    1  0.4023633E+001  0.9233179E+02  0.7546771E-02  0.1297301E+00
          2   -1    0    0  501    0  0.00000000000E+00  0.00000000000E+00  0.15407056458E+03  0.15407056458E+03  0.00000000000E+00 0.  1.
         -2   -1    0    0    0  501 -0.00000000000E+00 -0.00000000000E+00 -0.13833206556E+02  0.13833206556E+02  0.00000000000E+00 0. -1.
         23    2    1    2    0    0  0.00000000000E+00  0.00000000000E+00  0.14023735802E+03  0.16790377113E+03  0.92331791793E+02 0.  0.
          2    1    3    3  502    0  0.35297185627E+02  0.27938040342E+02  0.51496800043E+02  0.68398434383E+02  0.00000000000E+00 0. -1.
         -2    1    3    3    0  502 -0.35297185627E+02 -0.27938040342E+02  0.88740557977E+02  0.99505336749E+02  0.00000000000E+00 0.  1.
<mgrwt>
<rscale>  0 0.92331792E+02</rscale>
<asrwt>0</asrwt>
<pdfrwt beam="1">  1        2 0.23703163E-01 0.92331792E+02</pdfrwt>
<pdfrwt beam="2">  1       -2 0.21281857E-02 0.92331792E+02</pdfrwt>
<totfact> 0.13634996E+05</totfact>
</mgrwt>
</event>
<event>
 5    1  0.4023633E+001  0.9181185E+02  0.7546771E-02  0.1298522E+00
          3   -1    0    0  501    0  0.00000000000E+00  0.00000000000E+00  0.10706007885E+03  0.10706007885E+03  0.00000000000E+00 0. -1.
         -3   -1    0    0    0  501 -0.00000000000E+00 -0.00000000000E+00 -0.19683843872E+02  0.19683843872E+02  0.00000000000E+00 0.  1.
         23    2    1    2    0    0  0.00000000000E+00  0.00000000000E+00  0.87376234981E+02  0.12674392273E+03  0.91811848409E+02 0.  0.
          2    1    3    3  502    0 -0.36282473295E+02  0.62630703166E+01  0.81537043923E+02  0.89464705051E+02  0.00000000000E+00 0. -1.
         -2    1    3    3    0  502  0.36282473295E+02 -0.62630703166E+01  0.58391910577E+01  0.37279217674E+02  0.00000000000E+00 0.  1.
<mgrwt>
<rscale>  0 0.91811848E+02</rscale>
<asrwt>0</asrwt>
<pdfrwt beam="1">  1        3 0.16470781E-01 0.91811848E+02</pdfrwt>
<pdfrwt beam="2">  1       -3 0.30282837E-02 0.91811848E+02</pdfrwt>
<totfact> 0.32178144E+04</totfact>
</mgrwt>
</event>
<event>
 5    1  0.4023633E+001  0.9295606E+02  0.7546771E-02  0.1295847E+00
          1   -1    0    0  501    0  0.00000000000E+00  0.00000000000E+00  0.97148131539E+01  0.97148131539E+01  0.00000000000E+00 0. -1.
         -1   -1    0    0    0  501 -0.00000000000E+00 -0.00000000000E+00 -0.22236219161E+03  0.22236219161E+03  0.00000000000E+00 0.  1.
         23    2    1    2    0    0  0.00000000000E+00  0.00000000000E+00 -0.21264737846E+03  0.23207700476E+03  0.92956057231E+02 0.  0.
          2    1    3    3  502    0 -0.33396127131E+02  0.15425921743E+02 -0.17724501756E+03  0.18102225449E+03  0.00000000000E+00 0.  1.
         -2    1    3    3    0  502  0.33396127131E+02 -0.15425921743E+02 -0.35402360893E+02  0.51054750276E+02  0.00000000000E+00 0. -1.
<mgrwt>
<rscale>  0 0.92956057E+02</rscale>
<asrwt>0</asrwt>
<pdfrwt beam="1">  1        1 0.14945867E-02 0.92956057E+02</pdfrwt>
<pdfrwt beam="2">  1       -1 0.34209567E-01 0.92956057E+02</pdfrwt>
<totfact> 0.63957924E+04</totfact>
</mgrwt>
</event>
<event>
 5    1  0.4023633E+001  0.9415736E+02  0.7546771E-02  0.1293085E+00
         -1   -1    0    0    0  501 -0.00000000000E+00  0.00000000000E+00  0.48246237632E+01  0.48246237632E+01  0.00000000000E+00 0.  1.
          1   -1    0    0  501    0  0.00000000000E+00 -0.00000000000E+00 -0.45939377546E+03  0.45939377546E+03  0.00000000000E+00 0. -1.
         23    2    1    2    0    0  0.00000000000E+00  0.00000000000E+00 -0.45456915170E+03  0.46421839923E+03  0.94157360324E+02 0.  0.
          2    1    3    3  502    0 -0.22020065494E+01 -0.31336809608E+02 -0.40016368830E+03  0.40139484539E+03  0.00000000000E+00 0. -1.
         -2    1    3    3    0  502  0.22020065494E+01  0.31336809608E+02 -0.54405463399E+02  0.62823553839E+02  0.00000000000E+00 0.  1.
<mgrwt>
<rscale>  0 0.94157360E+02</rscale>
<asrwt>0</asrwt>
<pdfrwt beam="2">  1        1 0.70675985E-01 0.94157360E+02</pdfrwt>
<pdfrwt beam="1">  1       -1 0.74224961E-03 0.94157360E+02</pdfrwt>
<totfact> 0.12647193E+05</totfact>
</mgrwt>
</event>
<event>
 5    1  0.4023633E+001  0.8846858E+02  0.7546771E-02  0.1306603E+00
         -1   -1    0    0    0  501 -0.00000000000E+00  0.00000000000E+00  0.56199081474E+01  0.56199081474E+01  0.00000000000E+00 0.  1.
          1   -1    0    0  501    0  0.00000000000E+00 -0.00000000000E+00 -0.34816804238E+03  0.34816804238E+03  0.00000000000E+00 0. -1.
         23    2    1    2    0    0  0.00000000000E+00  0.00000000000E+00 -0.34254813423E+03  0.35378795052E+03  0.88468580141E+02 0.  0.
          2    1    3    3  502    0 -0.34837081603E+02 -0.26955323320E+01 -0.27974895986E+03  0.28192262891E+03  0.00000000000E+00 0. -1.
         -2    1    3    3    0  502  0.34837081603E+02  0.26955323320E+01 -0.62799174370E+02  0.71865321614E+02  0.00000000000E+00 0.  1.
<mgrwt>
<rscale>  0 0.88468580E+02</rscale>
<asrwt>0</asrwt>
<pdfrwt beam="2">  1        1 0.53564318E-01 0.88468580E+02</pdfrwt>
<pdfrwt beam="1">  1       -1 0.86460119E-03 0.88468580E+02</pdfrwt>
<totfact> 0.14268236E+05</totfact>
</mgrwt>
</event>
<event>
 5    1  0.4023633E+001  0.9228280E+02  0.7546771E-02  0.1297416E+00
         -1   -1    0    0    0  501 -0.00000000000E+00  0.00000000000E+00  0.33433493838E+02  0.33433493838E+02  0.00000000000E+00 0.  1.
          1   -1    0    0  501    0  0.00000000000E+00 -0.00000000000E+00 -0.63679514817E+02  0.63679514817E+02  0.00000000000E+00 0. -1.
         23    2    1    2    0    0  0.00000000000E+00  0.00000000000E+00 -0.30246020979E+02  0.97113008656E+02  0.92282797233E+02 0.  0.
          2    1    3    3  502    0 -0.32559503237E+02  0.27377123510E+02 -0.33930224690E+02  0.54414044972E+02  0.00000000000E+00 0. -1.
         -2    1    3    3    0  502  0.32559503237E+02 -0.27377123510E+02  0.36842037109E+01  0.42698963684E+02  0.00000000000E+00 0.  1.
<mgrwt>
<rscale>  0 0.92282797E+02</rscale>
<asrwt>0</asrwt>
<pdfrwt beam="2">  1        1 0.97968483E-02 0.92282797E+02</pdfrwt>
<pdfrwt beam="1">  1       -1 0.51436145E-02 0.92282797E+02</pdfrwt>
<totfact> 0.94048900E+04</totfact>
</mgrwt>
</event>
<event>
 5    1  0.4023633E+001  0.9173467E+02  0.7546771E-02  0.1298705E+00
          2   -1    0    0  501    0  0.00000000000E+00  0.00000000000E+00  0.29196619229E+02  0.29196619229E+02  0.00000000000E+00 0. -1.
         -2   -1    0    0    0  501 -0.00000000000E+00 -0.00000000000E+00 -0.72056707612E+02  0.72056707612E+02  0.00000000000E+00 0.  1.
         23    2    1    2    0    0  0.00000000000E+00  0.00000000000E+00 -0.42860088382E+02  0.10125332684E+03  0.91734666404E+02 0.  0.
          2    1    3    3  502    0  0.45438644381E+02  0.49476617687E+01 -0.25656533284E+02  0.52415717684E+02  0.00000000000E+00 0. -1.
         -2    1    3    3    0  502 -0.45438644381E+02 -0.49476617687E+01 -0.17203555099E+02  0.48837609157E+02  0.00000000000E+00 0.  1.
<mgrwt>
<rscale>  0 0.91734666E+02</rscale>
<asrwt>0</asrwt>
<pdfrwt beam="1">  1        2 0.44917876E-02 0.91734666E+02</pdfrwt>
<pdfrwt beam="2">  1       -2 0.11085647E-01 0.91734666E+02</pdfrwt>
<totfact> 0.86243405E+04</totfact>
</mgrwt>
</event>
<event>
 5    1  0.4023633E+001  0.1084587E+03  0.7546771E-02  0.1263451E+00
          2   -1    0    0  501    0  0.00000000000E+00  0.00000000000E+00  0.14898019621E+03  0.14898019621E+03  0.00000000000E+00 0.  1.
         -2   -1    0    0    0  501 -0.00000000000E+00 -0.00000000000E+00 -0.19739671318E+02  0.19739671318E+02  0.00000000000E+00 0. -1.
         23    2    1    2    0    0  0.00000000000E+00  0.00000000000E+00  0.12924052490E+03  0.16871986753E+03  0.10845865768E+03 0.  0.
          2    1    3    3  502    0 -0.53182154811E+01 -0.29279546733E+02  0.13514375035E+03  0.13838138795E+03  0.00000000000E+00 0.  1.
         -2    1    3    3    0  502  0.53182154811E+01  0.29279546733E+02 -0.59032254502E+01  0.30338479585E+02  0.00000000000E+00 0. -1.
<mgrwt>
<rscale>  0 0.10845866E+03</rscale>
<asrwt>0</asrwt>
<pdfrwt beam="1">  1        2 0.22920029E-01 0.10845866E+03</pdfrwt>
<pdfrwt beam="2">  1       -2 0.30368726E-02 0.10845866E+03</pdfrwt>
<totfact> 0.86584983E+04</totfact>
</mgrwt>
</event>
<event>
 5    1  0.4023633E+001  0.9168576E+02  0.7546771E-02  0.1298820E+00
          2   -1    0    0  501    0  0.00000000000E+00  0.00000000000E+00  0.61050417338E+03  0.61050417338E+03  0.00000000000E+00 0. -1.
         -2   -1    0    0    0  501 -0.00000000000E+00 -0.00000000000E+00 -0.34423511693E+01  0.34423511693E+01  0.00000000000E+00 0.  1.
         23    2    1    2    0    0  0.00000000000E+00  0.00000000000E+00  0.60706182221E+03  0.61394652455E+03  0.91685762364E+02 0.  0.
          2    1    3    3  502    0  0.21948385782E+02 -0.83472876734E+01  0.39887431630E+02  0.46286240418E+02  0.00000000000E+00 0.  1.
         -2    1    3    3    0  502 -0.21948385782E+02  0.83472876734E+01  0.56717439058E+03  0.56766028413E+03  0.00000000000E+00 0. -1.
<mgrwt>
<rscale>  0 0.91685762E+02</rscale>
<asrwt>0</asrwt>
<pdfrwt beam="1">  1        2 0.93923633E-01 0.91685762E+02</pdfrwt>
<pdfrwt beam="2">  1       -2 0.52959297E-03 0.91685762E+02</pdfrwt>
<totfact> 0.22562021E+05</totfact>
</mgrwt>
</event>
<event>
 5    1  0.4023633E+001  0.8435498E+02  0.7546771E-02  0.1317128E+00
          2   -1    0    0  501    0  0.00000000000E+00  0.00000000000E+00  0.77866911619E+03  0.77866911619E+03  0.00000000000E+00 0.  1.
         -2   -1    0    0    0  501 -0.00000000000E+00 -0.00000000000E+00 -0.22845912681E+01  0.22845912681E+01  0.00000000000E+00 0. -1.
         23    2    1    2    0    0  0.00000000000E+00  0.00000000000E+00  0.77638452492E+03  0.78095370746E+03  0.84354980021E+02 0.  0.
          2    1    3    3  502    0 -0.35415927563E+02  0.10258213217E+02  0.19859150677E+03  0.20198540894E+03  0.00000000000E+00 0. -1.
         -2    1    3    3    0  502  0.35415927563E+02 -0.10258213217E+02  0.57779301815E+03  0.57896829852E+03  0.00000000000E+00 0.  1.
<mgrwt>
<rscale>  0 0.84354980E+02</rscale>
<asrwt>0</asrwt>
<pdfrwt beam="1">  1        2 0.11979504E+00 0.84354980E+02</pdfrwt>
<pdfrwt beam="2">  1       -2 0.35147620E-03 0.84354980E+02</pdfrwt>
<totfact> 0.29747376E+05</totfact>
</mgrwt>
</event>
<event>
 5    1  0.4023633E+001  0.9662369E+02  0.7546771E-02  0.1287560E+00
          1   -1    0    0  501    0  0.00000000000E+00  0.00000000000E+00  0.16146882649E+04  0.16146882649E+04  0.00000000000E+00 0. -1.
         -1   -1    0    0    0  501 -0.00000000000E+00 -0.00000000000E+00 -0.14455014158E+01  0.14455014158E+01  0.00000000000E+00 0.  1.
         23    2    1    2    0    0  0.00000000000E+00  0.00000000000E+00  0.16132427635E+04  0.16161337663E+04  0.96623685979E+02 0.  0.
          2    1    3    3  502    0  0.70441627334E+01 -0.39384160236E+02  0.35368719819E+03  0.35594292586E+03  0.00000000000E+00 0.  1.
         -2    1    3    3    0  502 -0.70441627334E+01  0.39384160236E+02  0.12595555653E+04  0.12601908405E+04  0.00000000000E+00 0. -1.
<mgrwt>
<rscale>  0 0.96623686E+02</rscale>
<asrwt>0</asrwt>
<pdfrwt beam="1">  1        1 0.24841214E+00 0.96623686E+02</pdfrwt>
<pdfrwt beam="2">  1       -1 0.22238612E-03 0.96623686E+02</pdfrwt>
<totfact> 0.88715341E+04</totfact>
</mgrwt>
</event>
<event>
 5    1  0.4023633E+001  0.9060139E+02  0.7546771E-02  0.1301402E+00
          2   -1    0    0  501    0  0.00000000000E+00  0.00000000000E+00  0.31531940983E+02  0.31531940983E+02  0.00000000000E+00 0. -1.
         -2   -1    0    0    0  501 -0.00000000000E+00 -0.00000000000E+00 -0.65081720655E+02  0.65081720655E+02  0.00000000000E+00 0.  1.
         23    2    1    2    0    0  0.00000000000E+00  0.00000000000E+00 -0.33549779672E+02  0.96613661639E+02  0.90601390162E+02 0.  0.
          2    1    3    3  502    0  0.33139563392E+02  0.29907588832E+02 -0.24997514143E+02  0.51162195466E+02  0.00000000000E+00 0. -1.
         -2    1    3    3    0  502 -0.33139563392E+02 -0.29907588832E+02 -0.85522655287E+01  0.45451466173E+02  0.00000000000E+00 0.  1.
<mgrwt>
<rscale>  0 0.90601390E+02</rscale>
<asrwt>0</asrwt>
<pdfrwt beam="1">  1        2 0.48510679E-02 0.90601390E+02</pdfrwt>
<pdfrwt beam="2">  1       -2 0.10012572E-01 0.90601390E+02</pdfrwt>
<totfact> 0.91335579E+04</totfact>
</mgrwt>
</event>
<event>
 5    1  0.4023633E+001  0.9131826E+02  0.7546771E-02  0.1299690E+00
          1   -1    0    0  501    0  0.00000000000E+00  0.00000000000E+00  0.11599302046E+03  0.11599302046E+03  0.00000000000E+00 0. -1.
         -1   -1    0    0    0  501 -0.00000000000E+00 -0.00000000000E+00 -0.17973117243E+02  0.17973117243E+02  0.00000000000E+00 0.  1.
         23    2    1    2    0    0  0.00000000000E+00  0.00000000000E+00  0.98019903218E+02  0.13396613770E+03  0.91318260083E+02 0.  0.
          2    1    3    3  502    0 -0.15277488482E+02 -0.32340949458E+02  0.90643932321E+02  0.97445682987E+02  0.00000000000E+00 0. -1.
         -2    1    3    3    0  502  0.15277488482E+02  0.32340949458E+02  0.73759708973E+01  0.36520454718E+02  0.00000000000E+00 0.  1.
<mgrwt>
<rscale>  0 0.91318260E+02</rscale>
<asrwt>0</asrwt>
<pdfrwt beam="1">  1        1 0.17845080E-01 0.91318260E+02</pdfrwt>
<pdfrwt beam="2">  1       -1 0.27650950E-02 0.91318260E+02</pdfrwt>
<totfact> 0.10665749E+05</totfact>
</mgrwt>
</event>
<event>
 5    1  0.4023633E+001  0.9188139E+02  0.7546771E-02  0.1298359E+00
         -1   -1    0    0    0  501 -0.00000000000E+00  0.00000000000E+00  0.12247334867E+01  0.12247334867E+01  0.00000000000E+00 0.  1.
          1   -1    0    0  501    0  0.00000000000E+00 -0.00000000000E+00 -0.17232709495E+04  0.17232709495E+04  0.00000000000E+00 0. -1.
         23    2    1    2    0    0  0.00000000000E+00  0.00000000000E+00 -0.17220462160E+04  0.17244956830E+04  0.91881393949E+02 0.  0.
          2    1    3    3  502    0 -0.24539605315E+02  0.31933709948E+02 -0.12758896520E+04  0.12765251107E+04  0.00000000000E+00 0. -1.
         -2    1    3    3    0  502  0.24539605315E+02 -0.31933709948E+02 -0.44615656396E+03  0.44797057228E+03  0.00000000000E+00 0.  1.
<mgrwt>
<rscale>  0 0.91881394E+02</rscale>
<asrwt>0</asrwt>
<pdfrwt beam="2">  1        1 0.26511961E+00 0.91881394E+02</pdfrwt>
<pdfrwt beam="1">  1       -1 0.18841983E-03 0.91881394E+02</pdfrwt>
<totfact> 0.94795483E+04</totfact>
</mgrwt>
</event>
<event>
 5    1  0.4023633E+001  0.9284538E+02  0.7546771E-02  0.1296104E+00
         -1   -1    0    0    0  501 -0.00000000000E+00  0.00000000000E+00  0.31403402386E+03  0.31403402386E+03  0.00000000000E+00 0.  1.
          1   -1    0    0  501    0  0.00000000000E+00 -0.00000000000E+00 -0.68625240010E+01  0.68625240010E+01  0.00000000000E+00 0. -1.
         23    2    1    2    0    0  0.00000000000E+00  0.00000000000E+00  0.30717149986E+03  0.32089654787E+03  0.92845377395E+02 0.  0.
          2    1    3    3  502    0 -0.20929993379E+02  0.30261095705E+02  0.55750914155E+02  0.66797926354E+02  0.00000000000E+00 0. -1.
         -2    1    3    3    0  502  0.20929993379E+02 -0.30261095705E+02  0.25142058571E+03  0.25409862151E+03  0.00000000000E+00 0.  1.
<mgrwt>
<rscale>  0 0.92845377E+02</rscale>
<asrwt>0</asrwt>
<pdfrwt beam="2">  1        1 0.10557732E-02 0.92845377E+02</pdfrwt>
<pdfrwt beam="1">  1       -1 0.48312915E-01 0.92845377E+02</pdfrwt>
<totfact> 0.56725527E+04</totfact>
</mgrwt>
</event>
<event>
 5    1  0.4023633E+001  0.9061403E+02  0.7546771E-02  0.1301372E+00
         -1   -1    0    0    0  501 -0.00000000000E+00  0.00000000000E+00  0.15282507238E+03  0.15282507238E+03  0.00000000000E+00 0.  1.
          1   -1    0    0  501    0  0.00000000000E+00 -0.00000000000E+00 -0.13431863984E+02  0.13431863984E+02  0.00000000000E+00 0. -1.
         23    2    1    2    0    0  0.00000000000E+00  0.00000000000E+00  0.13939320840E+03  0.16625693637E+03  0.90614029499E+02 0.  0.
          2    1    3    3  502    0 -0.16418433239E+02  0.33472137167E+02  0.22461167369E+02  0.43525313970E+02  0.00000000000E+00 0. -1.
         -2    1    3    3    0  502  0.16418433239E+02 -0.33472137167E+02  0.11693204103E+03  0.12273162240E+03  0.00000000000E+00 0.  1.
<mgrwt>
<rscale>  0 0.90614029E+02</rscale>
<asrwt>0</asrwt>
<pdfrwt beam="2">  1        1 0.20664407E-02 0.90614029E+02</pdfrwt>
<pdfrwt beam="1">  1       -1 0.23511548E-01 0.90614029E+02</pdfrwt>
<totfact> 0.75666459E+04</totfact>
</mgrwt>
</event>
<event>
 5    1  0.4023633E+001  0.8982809E+02  0.7546771E-02  0.1303269E+00
          1   -1    0    0  501    0  0.00000000000E+00  0.00000000000E+00  0.57556483851E+03  0.57556483851E+03  0.00000000000E+00 0. -1.
         -1   -1    0    0    0  501 -0.00000000000E+00 -0.00000000000E+00 -0.35048549373E+01  0.35048549373E+01  0.00000000000E+00 0.  1.
         23    2    1    2    0    0  0.00000000000E+00  0.00000000000E+00  0.57205998357E+03  0.57906969345E+03  0.89828086164E+02 0.  0.
          2    1    3    3  502    0  0.41455871551E+02 -0.61399513450E+01  0.18188826372E+03  0.18665376709E+03  0.00000000000E+00 0.  1.
         -2    1    3    3    0  502 -0.41455871551E+02  0.61399513450E+01  0.39017171985E+03  0.39241592636E+03  0.00000000000E+00 0. -1.
<mgrwt>
<rscale>  0 0.89828086E+02</rscale>
<asrwt>0</asrwt>
<pdfrwt beam="1">  1        1 0.88548362E-01 0.89828086E+02</pdfrwt>
<pdfrwt beam="2">  1       -1 0.53920891E-03 0.89828086E+02</pdfrwt>
<totfact> 0.14686693E+05</totfact>
</mgrwt>
</event>
<event>
 5    1  0.4023633E+001  0.9232880E+02  0.7546771E-02  0.1297308E+00
          1   -1    0    0  501    0  0.00000000000E+00  0.00000000000E+00  0.49620935496E+02  0.49620935496E+02  0.00000000000E+00 0. -1.
         -1   -1    0    0    0  501 -0.00000000000E+00 -0.00000000000E+00 -0.42948642164E+02  0.42948642164E+02  0.00000000000E+00 0.  1.
         23    2    1    2    0    0  0.00000000000E+00  0.00000000000E+00  0.66722933320E+01  0.92569577660E+02  0.92328799461E+02 0.  0.
          2    1    3    3  502    0 -0.41902911696E+02  0.19368572082E+02  0.29398826064E+01  0.46256226638E+02  0.00000000000E+00 0. -1.
         -2    1    3    3    0  502  0.41902911696E+02 -0.19368572082E+02  0.37324107257E+01  0.46313351022E+02  0.00000000000E+00 0.  1.
<mgrwt>
<rscale>  0 0.92328799E+02</rscale>
<asrwt>0</asrwt>
<pdfrwt beam="1">  1        1 0.76339901E-02 0.92328799E+02</pdfrwt>
<pdfrwt beam="2">  1       -1 0.66074834E-02 0.92328799E+02</pdfrwt>
<totfact> 0.90419662E+04</totfact>
</mgrwt>
</event>
<event>
 5    1  0.4023633E+001  0.8749228E+02  0.7546771E-02  0.1309041E+00
          1   -1    0    0  501    0  0.00000000000E+00  0.00000000000E+00  0.52813400543E+02  0.52813400543E+02  0.00000000000E+00 0. -1.
         -1   -1    0    0    0  501 -0.00000000000E+00 -0.00000000000E+00 -0.36235590583E+02  0.36235590583E+02  0.00000000000E+00 0.  1.
         23    2    1    2    0    0  0.00000000000E+00  0.00000000000E+00  0.16577809961E+02  0.89048991126E+02  0.87492279874E+02 0.  0.
          2    1    3    3  502    0 -0.13731335378E+02 -0.21841176886E+02  0.44246497303E+02  0.51218542566E+02  0.00000000000E+00 0. -1.
         -2    1    3    3    0  502  0.13731335378E+02  0.21841176886E+02 -0.27668687342E+02  0.37830448560E+02  0.00000000000E+00 0.  1.
<mgrwt>
<rscale>  0 0.87492280E+02</rscale>
<asrwt>0</asrwt>
<pdfrwt beam="1">  1        1 0.81251386E-02 0.87492280E+02</pdfrwt>
<pdfrwt beam="2">  1       -1 0.55747062E-02 0.87492280E+02</pdfrwt>
<totfact> 0.10601145E+05</totfact>
</mgrwt>
</event>
<event>
 5    1  0.4023633E+001  0.9158924E+02  0.7546771E-02  0.1299048E+00
          2   -1    0    0  501    0  0.00000000000E+00  0.00000000000E+00  0.21633626013E+03  0.21633626013E+03  0.00000000000E+00 0. -1.
         -2   -1    0    0    0  501 -0.00000000000E+00 -0.00000000000E+00 -0.96939246477E+01  0.96939246477E+01  0.00000000000E+00 0.  1.
         23    2    1    2    0    0  0.00000000000E+00  0.00000000000E+00  0.20664233548E+03  0.22603018478E+03  0.91589244004E+02 0.  0.
          2    1    3    3  502    0 -0.29540520500E+02  0.78523858796E+01  0.18747674383E+03  0.18995218291E+03  0.00000000000E+00 0. -1.
         -2    1    3    3    0  502  0.29540520500E+02 -0.78523858796E+01  0.19165591655E+02  0.36078001870E+02  0.00000000000E+00 0.  1.
<mgrwt>
<rscale>  0 0.91589244E+02</rscale>
<asrwt>0</asrwt>
<pdfrwt beam="1">  1        2 0.33282498E-01 0.91589244E+02</pdfrwt>
<pdfrwt beam="2">  1       -2 0.14913732E-02 0.91589244E+02</pdfrwt>
<totfact> 0.15723894E+05</totfact>
</mgrwt>
</event>
<event>
 5    1  0.4023633E+001  0.9155888E+02  0.7546771E-02  0.1299120E+00
         -2   -1    0    0    0  501 -0.00000000000E+00  0.00000000000E+00  0.36592479502E+01  0.36592479502E+01  0.00000000000E+00 0. -1.
          2   -1    0    0  501    0  0.00000000000E+00 -0.00000000000E+00 -0.57272886740E+03  0.57272886740E+03  0.00000000000E+00 0.  1.
         23    2    1    2    0    0  0.00000000000E+00  0.00000000000E+00 -0.56906961945E+03  0.57638811535E+03  0.91558875792E+02 0.  0.
          2    1    3    3  502    0 -0.16002711977E+02  0.18124542923E+02 -0.39813727929E+02  0.46580240214E+02  0.00000000000E+00 0. -1.
         -2    1    3    3    0  502  0.16002711977E+02 -0.18124542923E+02 -0.52925589152E+03  0.52980787514E+03  0.00000000000E+00 0.  1.
<mgrwt>
<rscale>  0 0.91558876E+02</rscale>
<asrwt>0</asrwt>
<pdfrwt beam="2">  1        2 0.88112150E-01 0.91558876E+02</pdfrwt>
<pdfrwt beam="1">  1       -2 0.56296112E-03 0.91558876E+02</pdfrwt>
<totfact> 0.22232745E+05</totfact>
</mgrwt>
</event>
<event>
 5    1  0.4023633E+001  0.9285389E+02  0.7546771E-02  0.1296084E+00
          3   -1    0    0  501    0  0.00000000000E+00  0.00000000000E+00  0.10628912834E+02  0.10628912834E+02  0.00000000000E+00 0. -1.
         -3   -1    0    0    0  501 -0.00000000000E+00 -0.00000000000E+00 -0.20279225025E+03  0.20279225025E+03  0.00000000000E+00 0.  1.
         23    2    1    2    0    0  0.00000000000E+00  0.00000000000E+00 -0.19216333741E+03  0.21342116308E+03  0.92853888477E+02 0.  0.
          2    1    3    3  502    0  0.30712669314E+02  0.32785166546E+02 -0.69146872618E+02  0.82458627169E+02  0.00000000000E+00 0. -1.
         -2    1    3    3    0  502 -0.30712669314E+02 -0.32785166546E+02 -0.12301646479E+03  0.13096253591E+03  0.00000000000E+00 0.  1.
<mgrwt>
<rscale>  0 0.92853888E+02</rscale>
<asrwt>0</asrwt>
<pdfrwt beam="1">  1        3 0.16352175E-02 0.92853888E+02</pdfrwt>
<pdfrwt beam="2">  1       -3 0.31198806E-01 0.92853888E+02</pdfrwt>
<totfact> 0.26480277E+04</totfact>
</mgrwt>
</event>
<event>
 5    1  0.4023633E+001  0.9696553E+02  0.7546771E-02  0.1286810E+00
          2   -1    0    0  501    0  0.00000000000E+00  0.00000000000E+00  0.11587993517E+04  0.11587993517E+04  0.00000000000E+00 0.  1.
         -2   -1    0    0    0  501 -0.00000000000E+00 -0.00000000000E+00 -0.20284604811E+01  0.20284604811E+01  0.00000000000E+00 0. -1.
         23    2    1    2    0    0  0.00000000000E+00  0.00000000000E+00  0.11567708912E+04  0.11608278122E+04  0.96965533886E+02 0.  0.
          2    1    3    3  502    0 -0.15740003220E+02 -0.19557742043E+02  0.81843716355E+02  0.85607516504E+02  0.00000000000E+00 0. -1.
         -2    1    3    3    0  502  0.15740003220E+02  0.19557742043E+02  0.10749271749E+04  0.10752202957E+04  0.00000000000E+00 0.  1.
<mgrwt>
<rscale>  0 0.96965534E+02</rscale>
<asrwt>0</asrwt>
<pdfrwt beam="1">  1        2 0.17827629E+00 0.96965534E+02</pdfrwt>
<pdfrwt beam="2">  1       -2 0.31207177E-03 0.96965534E+02</pdfrwt>
<totfact> 0.21206800E+05</totfact>
</mgrwt>
</event>
<event>
 5    1  0.4023633E+001  0.9161915E+02  0.7546771E-02  0.1298977E+00
         -1   -1    0    0    0  501 -0.00000000000E+00  0.00000000000E+00  0.13186198511E+03  0.13186198511E+03  0.00000000000E+00 0.  1.
          1   -1    0    0  501    0  0.00000000000E+00 -0.00000000000E+00 -0.15914497689E+02  0.15914497689E+02  0.00000000000E+00 0. -1.
         23    2    1    2    0    0  0.00000000000E+00  0.00000000000E+00  0.11594748742E+03  0.14777648280E+03  0.91619152088E+02 0.  0.
          2    1    3    3  502    0  0.19266519312E+02 -0.15936289542E+02 -0.39379219032E+01  0.25311485925E+02  0.00000000000E+00 0. -1.
         -2    1    3    3    0  502 -0.19266519312E+02  0.15936289542E+02  0.11988540932E+03  0.12246499687E+03  0.00000000000E+00 0.  1.
<mgrwt>
<rscale>  0 0.91619152E+02</rscale>
<asrwt>0</asrwt>
<pdfrwt beam="2">  1        1 0.24483843E-02 0.91619152E+02</pdfrwt>
<pdfrwt beam="1">  1       -1 0.20286459E-01 0.91619152E+02</pdfrwt>
<totfact> 0.76028718E+04</totfact>
</mgrwt>
</event>
<event>
 5    1  0.4023633E+001  0.9106190E+02  0.7546771E-02  0.1300300E+00
         -2   -1    0    0    0  501 -0.00000000000E+00  0.00000000000E+00  0.76004379148E+01  0.76004379148E+01  0.00000000000E+00 0.  1.
          2   -1    0    0  501    0  0.00000000000E+00 -0.00000000000E+00 -0.27275628403E+03  0.27275628403E+03  0.00000000000E+00 0. -1.
         23    2    1    2    0    0  0.00000000000E+00  0.00000000000E+00 -0.26515584612E+03  0.28035672195E+03  0.91061895492E+02 0.  0.
          2    1    3    3  502    0 -0.22388634090E+02  0.39638454469E+02 -0.13017493312E+03  0.13790566059E+03  0.00000000000E+00 0. -1.
         -2    1    3    3    0  502  0.22388634090E+02 -0.39638454469E+02 -0.13498091299E+03  0.14245106136E+03  0.00000000000E+00 0.  1.
<mgrwt>
<rscale>  0 0.91061895E+02</rscale>
<asrwt>0</asrwt>
<pdfrwt beam="2">  1        2 0.41962509E-01 0.91061895E+02</pdfrwt>
<pdfrwt beam="1">  1       -2 0.11692980E-02 0.91061895E+02</pdfrwt>
<totfact> 0.17397858E+05</totfact>
</mgrwt>
</event>
<event>
 5    1  0.4023633E+001  0.9507465E+02  0.7546771E-02  0.1291008E+00
         -1   -1    0    0    0  501 -0.00000000000E+00  0.00000000000E+00  0.11492023050E+02  0.11492023050E+02  0.00000000000E+00 0.  1.
          1   -1    0    0  501    0  0.00000000000E+00 -0.00000000000E+00 -0.19664048947E+03  0.19664048947E+03  0.00000000000E+00 0. -1.
         23    2    1    2    0    0  0.00000000000E+00  0.00000000000E+00 -0.18514846642E+03  0.20813251252E+03  0.95074645149E+02 0.  0.
          2    1    3    3  502    0  0.33874765350E+02 -0.28069076475E+02 -0.13200469582E+03  0.13914241805E+03  0.00000000000E+00 0. -1.
         -2    1    3    3    0  502 -0.33874765350E+02  0.28069076475E+02 -0.53143770599E+02  0.68990094471E+02  0.00000000000E+00 0.  1.
<mgrwt>
<rscale>  0 0.95074645E+02</rscale>
<asrwt>0</asrwt>
<pdfrwt beam="2">  1        1 0.30252383E-01 0.95074645E+02</pdfrwt>
<pdfrwt beam="1">  1       -1 0.17680036E-02 0.95074645E+02</pdfrwt>
<totfact> 0.10544589E+05</totfact>
</mgrwt>
</event>
<event>
 5    1  0.4023633E+001  0.9183699E+02  0.7546771E-02  0.1298463E+00
         -1   -1    0    0    0  501 -0.00000000000E+00  0.00000000000E+00  0.35824941356E+01  0.35824941356E+01  0.00000000000E+00 0.  1.
          1   -1    0    0  501    0  0.00000000000E+00 -0.00000000000E+00 -0.58855868279E+03  0.58855868279E+03  0.00000000000E+00 0. -1.
         23    2    1    2    0    0  0.00000000000E+00  0.00000000000E+00 -0.58497618866E+03  0.59214117693E+03  0.91836986656E+02 0.  0.
          2    1    3    3  502    0 -0.12318139582E+02 -0.28070444093E+02 -0.51292370677E+03  0.51383890021E+03  0.00000000000E+00 0. -1.
         -2    1    3    3    0  502  0.12318139582E+02  0.28070444093E+02 -0.72052481881E+02  0.78302276720E+02  0.00000000000E+00 0.  1.
<mgrwt>
<rscale>  0 0.91836987E+02</rscale>
<asrwt>0</asrwt>
<pdfrwt beam="2">  1        1 0.90547510E-01 0.91836987E+02</pdfrwt>
<pdfrwt beam="1">  1       -1 0.55115282E-03 0.91836987E+02</pdfrwt>
<totfact> 0.13873807E+05</totfact>
</mgrwt>
</event>
<event>
 5    1  0.4023633E+001  0.9197374E+02  0.7546771E-02  0.1298141E+00
          2   -1    0    0  501    0  0.00000000000E+00  0.00000000000E+00  0.54100919959E+02  0.54100919959E+02  0.00000000000E+00 0.  1.
         -2   -1    0    0    0  501 -0.00000000000E+00 -0.00000000000E+00 -0.39089765702E+02  0.39089765702E+02  0.00000000000E+00 0. -1.
         23    2    1    2    0    0  0.00000000000E+00  0.00000000000E+00  0.15011154256E+02  0.93190685661E+02  0.91973741589E+02 0.  0.
          2    1    3    3  502    0 -0.34879703413E+02  0.28543468717E+02  0.16762596597E+02  0.48086463388E+02  0.00000000000E+00 0. -1.
         -2    1    3    3    0  502  0.34879703413E+02 -0.28543468717E+02 -0.17514423403E+01  0.45104222273E+02  0.00000000000E+00 0.  1.
<mgrwt>
<rscale>  0 0.91973742E+02</rscale>
<asrwt>0</asrwt>
<pdfrwt beam="1">  1        2 0.83232184E-02 0.91973742E+02</pdfrwt>
<pdfrwt beam="2">  1       -2 0.60138101E-02 0.91973742E+02</pdfrwt>
<totfact> 0.10066918E+05</totfact>
</mgrwt>
</event>
<event>
 5    1  0.4023633E+001  0.9094154E+02  0.7546771E-02  0.1300588E+00
          1   -1    0    0  501    0  0.00000000000E+00  0.00000000000E+00  0.83890644485E+03  0.83890644485E+03  0.00000000000E+00 0. -1.
         -1   -1    0    0    0  501 -0.00000000000E+00 -0.00000000000E+00 -0.24646261494E+01  0.24646261494E+01  0.00000000000E+00 0.  1.
         23    2    1    2    0    0  0.00000000000E+00  0.00000000000E+00  0.83644181871E+03  0.84137107100E+03  0.90941536405E+02 0.  0.
          2    1    3    3  502    0 -0.41774936071E+02  0.80736073322E+01  0.56661390351E+03  0.56820915522E+03  0.00000000000E+00 0. -1.
         -2    1    3    3    0  502  0.41774936071E+02 -0.80736073322E+01  0.26982791519E+03  0.27316191579E+03  0.00000000000E+00 0.  1.
<mgrwt>
<rscale>  0 0.90941536E+02</rscale>
<asrwt>0</asrwt>
<pdfrwt beam="1">  1        1 0.12906230E+00 0.90941536E+02</pdfrwt>
<pdfrwt beam="2">  1       -1 0.37917392E-03 0.90941536E+02</pdfrwt>
<totfact> 0.14157169E+05</totfact>
</mgrwt>
</event>
<event>
 5    1  0.4023633E+001  0.9167298E+02  0.7546771E-02  0.1298850E+00
          1   -1    0    0  501    0  0.00000000000E+00  0.00000000000E+00  0.83385781042E+03  0.83385781042E+03  0.00000000000E+00 0. -1.
         -1   -1    0    0    0  501 -0.00000000000E+00 -0.00000000000E+00 -0.25195950837E+01  0.25195950837E+01  0.00000000000E+00 0.  1.
         23    2    1    2    0    0  0.00000000000E+00  0.00000000000E+00  0.83133821533E+03  0.83637740550E+03  0.91672984889E+02 0.  0.
          2    1    3    3  502    0 -0.28702095495E+02  0.34360705756E+02  0.50530042885E+03  0.50727999348E+03  0.00000000000E+00 0. -1.
         -2    1    3    3    0  502  0.28702095495E+02 -0.34360705756E+02  0.32603778649E+03  0.32909741203E+03  0.00000000000E+00 0.  1.
<mgrwt>
<rscale>  0 0.91672985E+02</rscale>
<asrwt>0</asrwt>
<pdfrwt beam="1">  1        1 0.12828560E+00 0.91672985E+02</pdfrwt>
<pdfrwt beam="2">  1       -1 0.38763068E-03 0.91672985E+02</pdfrwt>
<totfact> 0.13870283E+05</totfact>
</mgrwt>
</event>
<event>
 5    1  0.4023633E+001  0.9225549E+02  0.7546771E-02  0.1297480E+00
          2   -1    0    0  501    0  0.00000000000E+00  0.00000000000E+00  0.26328915887E+02  0.26328915887E+02  0.00000000000E+00 0. -1.
         -2   -1    0    0    0  501 -0.00000000000E+00 -0.00000000000E+00 -0.80814899075E+02  0.80814899075E+02  0.00000000000E+00 0.  1.
         23    2    1    2    0    0  0.00000000000E+00  0.00000000000E+00 -0.54485983188E+02  0.10714381496E+03  0.92255486127E+02 0.  0.
          2    1    3    3  502    0 -0.42052276418E+02 -0.42984171432E+01 -0.57999026862E+01  0.42667425667E+02  0.00000000000E+00 0. -1.
         -2    1    3    3    0  502  0.42052276418E+02  0.42984171432E+01 -0.48686080502E+02  0.64476389295E+02  0.00000000000E+00 0.  1.
<mgrwt>
<rscale>  0 0.92255486E+02</rscale>
<asrwt>0</asrwt>
<pdfrwt beam="1">  1        2 0.40506024E-02 0.92255486E+02</pdfrwt>
<pdfrwt beam="2">  1       -2 0.12433062E-01 0.92255486E+02</pdfrwt>
<totfact> 0.82420718E+04</totfact>
</mgrwt>
</event>
<event>
 5    1  0.4023633E+001  0.9395609E+02  0.7546771E-02  0.1293545E+00
         -2   -1    0    0    0  501 -0.00000000000E+00  0.00000000000E+00  0.16505799162E+02  0.16505799162E+02  0.00000000000E+00 0.  1.
          2   -1    0    0  501    0  0.00000000000E+00 -0.00000000000E+00 -0.13370673818E+03  0.13370673818E+03  0.00000000000E+00 0. -1.
         23    2    1    2    0    0  0.00000000000E+00  0.00000000000E+00 -0.11720093902E+03  0.15021253734E+03  0.93956086912E+02 0.  0.
          2    1    3    3  502    0 -0.38705109804E+02 -0.24850449334E+02 -0.73877235247E+02  0.87025721743E+02  0.00000000000E+00 0. -1.
         -2    1    3    3    0  502  0.38705109804E+02  0.24850449334E+02 -0.43323703768E+02  0.63186815596E+02  0.00000000000E+00 0.  1.
<mgrwt>
<rscale>  0 0.93956087E+02</rscale>
<asrwt>0</asrwt>
<pdfrwt beam="2">  1        2 0.20570267E-01 0.93956087E+02</pdfrwt>
<pdfrwt beam="1">  1       -2 0.25393538E-02 0.93956087E+02</pdfrwt>
<totfact> 0.12392688E+05</totfact>
</mgrwt>
</event>
<event>
 5    1  0.4023633E+001  0.7017478E+02  0.7546771E-02  0.1359500E+00
         -2   -1    0    0    0  501 -0.00000000000E+00  0.00000000000E+00  0.80572690866E+02  0.80572690866E+02  0.00000000000E+00 0. -1.
          2   -1    0    0  501    0  0.00000000000E+00 -0.00000000000E+00 -0.15279679305E+02  0.15279679305E+02  0.00000000000E+00 0.  1.
         23    2    1    2    0    0  0.00000000000E+00  0.00000000000E+00  0.65293011561E+02  0.95852370171E+02  0.70174778296E+02 0.  0.
          2    1    3    3  502    0  0.21720157373E+02 -0.26897545144E+02  0.40828484570E+02  0.53499610498E+02  0.00000000000E+00 0. -1.
         -2    1    3    3    0  502 -0.21720157373E+02  0.26897545144E+02  0.24464526990E+02  0.42352759674E+02  0.00000000000E+00 0.  1.
<mgrwt>
<rscale>  0 0.70174778E+02</rscale>
<asrwt>0</asrwt>
<pdfrwt beam="2">  1        2 0.23507199E-02 0.70174778E+02</pdfrwt>
<pdfrwt beam="1">  1       -2 0.12395798E-01 0.70174778E+02</pdfrwt>
<totfact> 0.16184401E+05</totfact>
</mgrwt>
</event>
<event>
 5    1  0.4023633E+001  0.9301697E+02  0.7546771E-02  0.1295706E+00
          1   -1    0    0  501    0  0.00000000000E+00  0.00000000000E+00  0.15973667067E+04  0.15973667067E+04  0.00000000000E+00 0. -1.
         -1   -1    0    0    0  501 -0.00000000000E+00 -0.00000000000E+00 -0.13541279863E+01  0.13541279863E+01  0.00000000000E+00 0.  1.
         23    2    1    2    0    0  0.00000000000E+00  0.00000000000E+00  0.15960125787E+04  0.15987208346E+04  0.93016965374E+02 0.  0.
          2    1    3    3  502    0 -0.39677071045E+02 -0.17954349781E+02  0.10785406027E+04  0.10794195016E+04  0.00000000000E+00 0. -1.
         -2    1    3    3    0  502  0.39677071045E+02  0.17954349781E+02  0.51747197595E+03  0.51930133307E+03  0.00000000000E+00 0.  1.
<mgrwt>
<rscale>  0 0.93016965E+02</rscale>
<asrwt>0</asrwt>
<pdfrwt beam="1">  1        1 0.24574722E+00 0.93016965E+02</pdfrwt>
<pdfrwt beam="2">  1       -1 0.20832866E-03 0.93016965E+02</pdfrwt>
<totfact> 0.99171662E+04</totfact>
</mgrwt>
</event>
<event>
 5    1  0.4023633E+001  0.9049265E+02  0.7546771E-02  0.1301663E+00
          2   -1    0    0  501    0  0.00000000000E+00  0.00000000000E+00  0.59928077388E+01  0.59928077388E+01  0.00000000000E+00 0. -1.
         -2   -1    0    0    0  501 -0.00000000000E+00 -0.00000000000E+00 -0.34161450134E+03  0.34161450134E+03  0.00000000000E+00 0.  1.
         23    2    1    2    0    0  0.00000000000E+00  0.00000000000E+00 -0.33562169360E+03  0.34760730907E+03  0.90492652238E+02 0.  0.
          2    1    3    3  502    0 -0.20243183023E+02 -0.21815269189E+02 -0.36895000127E+02  0.47401829744E+02  0.00000000000E+00 0. -1.
         -2    1    3    3    0  502  0.20243183023E+02  0.21815269189E+02 -0.29872669347E+03  0.30020547933E+03  0.00000000000E+00 0.  1.
<mgrwt>
<rscale>  0 0.90492652E+02</rscale>
<asrwt>0</asrwt>
<pdfrwt beam="1">  1        2 0.92197010E-03 0.90492652E+02</pdfrwt>
<pdfrwt beam="2">  1       -2 0.52556095E-01 0.90492652E+02</pdfrwt>
<totfact> 0.48184550E+04</totfact>
</mgrwt>
</event>
<event>
 5    1  0.4023633E+001  0.9202794E+02  0.7546771E-02  0.1298014E+00
         -1   -1    0    0    0  501 -0.00000000000E+00  0.00000000000E+00  0.73791976910E+01  0.73791976910E+01  0.00000000000E+00 0.  1.
          1   -1    0    0  501    0  0.00000000000E+00 -0.00000000000E+00 -0.28692625041E+03  0.28692625041E+03  0.00000000000E+00 0. -1.
         23    2    1    2    0    0  0.00000000000E+00  0.00000000000E+00 -0.27954705272E+03  0.29430544810E+03  0.92027941942E+02 0.  0.
          2    1    3    3  502    0  0.33032989065E+02  0.46061476139E+01 -0.24115018563E+03  0.24344569619E+03  0.00000000000E+00 0. -1.
         -2    1    3    3    0  502 -0.33032989065E+02 -0.46061476139E+01 -0.38396867084E+02  0.50859751910E+02  0.00000000000E+00 0.  1.
<mgrwt>
<rscale>  0 0.92027942E+02</rscale>
<asrwt>0</asrwt>
<pdfrwt beam="2">  1        1 0.44142504E-01 0.92027942E+02</pdfrwt>
<pdfrwt beam="1">  1       -1 0.11352611E-02 0.92027942E+02</pdfrwt>
<totfact> 0.12392014E+05</totfact>
</mgrwt>
</event>
<event>
 5    1  0.4023633E+001  0.9409281E+02  0.7546771E-02  0.1293232E+00
         -1   -1    0    0    0  501 -0.00000000000E+00  0.00000000000E+00  0.34915760261E+03  0.34915760261E+03  0.00000000000E+00 0.  1.
          1   -1    0    0  501    0  0.00000000000E+00 -0.00000000000E+00 -0.63391550120E+01  0.63391550120E+01  0.00000000000E+00 0. -1.
         23    2    1    2    0    0  0.00000000000E+00  0.00000000000E+00  0.34281844759E+03  0.35549675762E+03  0.94092808791E+02 0.  0.
          2    1    3    3  502    0 -0.15622260105E+02  0.34472014499E+02  0.65824333504E+02  0.75929030520E+02  0.00000000000E+00 0. -1.
         -2    1    3    3    0  502  0.15622260105E+02 -0.34472014499E+02  0.27699411409E+03  0.27956772710E+03  0.00000000000E+00 0.  1.
<mgrwt>
<rscale>  0 0.94092809E+02</rscale>
<asrwt>0</asrwt>
<pdfrwt beam="2">  1        1 0.97525489E-03 0.94092809E+02</pdfrwt>
<pdfrwt beam="1">  1       -1 0.53716539E-01 0.94092809E+02</pdfrwt>
<totfact> 0.52343998E+04</totfact>
</mgrwt>
</event>
<event>
 5    1  0.4023633E+001  0.8840953E+02  0.7546771E-02  0.1306750E+00
         -2   -1    0    0    0  501 -0.00000000000E+00  0.00000000000E+00  0.20327548833E+02  0.20327548833E+02  0.00000000000E+00 0.  1.
          2   -1    0    0  501    0  0.00000000000E+00 -0.00000000000E+00 -0.96128715338E+02  0.96128715338E+02  0.00000000000E+00 0. -1.
         23    2    1    2    0    0  0.00000000000E+00  0.00000000000E+00 -0.75801166505E+02  0.11645626417E+03  0.88409527887E+02 0.  0.
          2    1    3    3  502    0 -0.14959958318E+02 -0.41326623481E+02 -0.31670319621E+02  0.54172865035E+02  0.00000000000E+00 0.  1.
         -2    1    3    3    0  502  0.14959958318E+02  0.41326623481E+02 -0.44130846884E+02  0.62283399136E+02  0.00000000000E+00 0. -1.
<mgrwt>
<rscale>  0 0.88409528E+02</rscale>
<asrwt>0</asrwt>
<pdfrwt beam="2">  1        2 0.14789033E-01 0.88409528E+02</pdfrwt>
<pdfrwt beam="1">  1       -2 0.31273152E-02 0.88409528E+02</pdfrwt>
<totfact> 0.13193569E+05</totfact>
</mgrwt>
</event>
<event>
 5    1  0.4023633E+001  0.8825307E+02  0.7546771E-02  0.1307138E+00
         -1   -1    0    0    0  501 -0.00000000000E+00  0.00000000000E+00  0.33582345191E+02  0.33582345191E+02  0.00000000000E+00 0.  1.
          1   -1    0    0  501    0  0.00000000000E+00 -0.00000000000E+00 -0.57981392106E+02  0.57981392106E+02  0.00000000000E+00 0. -1.
         23    2    1    2    0    0  0.00000000000E+00  0.00000000000E+00 -0.24399046915E+02  0.91563737297E+02  0.88253070753E+02 0.  0.
          2    1    3    3  502    0  0.87684682828E+01  0.33321200415E+02 -0.40801090035E+02  0.53403346161E+02  0.00000000000E+00 0. -1.
         -2    1    3    3    0  502 -0.87684682828E+01 -0.33321200415E+02  0.16402043120E+02  0.38160391136E+02  0.00000000000E+00 0.  1.
<mgrwt>
<rscale>  0 0.88253071E+02</rscale>
<asrwt>0</asrwt>
<pdfrwt beam="2">  1        1 0.89202140E-02 0.88253071E+02</pdfrwt>
<pdfrwt beam="1">  1       -1 0.51665147E-02 0.88253071E+02</pdfrwt>
<totfact> 0.10492695E+05</totfact>
</mgrwt>
</event>
<event>
 5    1  0.4023633E+001  0.8669201E+02  0.7546771E-02  0.1311066E+00
          1   -1    0    0  501    0  0.00000000000E+00  0.00000000000E+00  0.48464118049E+03  0.48464118049E+03  0.00000000000E+00 0. -1.
         -1   -1    0    0    0  501 -0.00000000000E+00 -0.00000000000E+00 -0.38768400698E+01  0.38768400698E+01  0.00000000000E+00 0.  1.
         23    2    1    2    0    0  0.00000000000E+00  0.00000000000E+00  0.48076434042E+03  0.48851802056E+03  0.86692014580E+02 0.  0.
          2    1    3    3  502    0 -0.18865910904E+02  0.26162163075E+02  0.40355645807E+03  0.40484342186E+03  0.00000000000E+00 0. -1.
         -2    1    3    3    0  502  0.18865910904E+02 -0.26162163075E+02  0.77207882349E+02  0.83674598701E+02  0.00000000000E+00 0.  1.
<mgrwt>
<rscale>  0 0.86692015E+02</rscale>
<asrwt>0</asrwt>
<pdfrwt beam="1">  1        1 0.74560134E-01 0.86692015E+02</pdfrwt>
<pdfrwt beam="2">  1       -1 0.59643732E-03 0.86692015E+02</pdfrwt>
<totfact> 0.15852131E+05</totfact>
</mgrwt>
</event>
<event>
 5    1  0.4023633E+001  0.7604722E+02  0.7546771E-02  0.1340658E+00
         -2   -1    0    0    0  501 -0.00000000000E+00  0.00000000000E+00  0.99483029076E+01  0.99483029076E+01  0.00000000000E+00 0.  1.
          2   -1    0    0  501    0  0.00000000000E+00 -0.00000000000E+00 -0.14533082143E+03  0.14533082143E+03  0.00000000000E+00 0. -1.
         23    2    1    2    0    0  0.00000000000E+00  0.00000000000E+00 -0.13538251852E+03  0.15527912434E+03  0.76047223050E+02 0.  0.
          2    1    3    3  502    0 -0.47044423709E+01  0.37672665056E+02 -0.71990642441E+02  0.81388046232E+02  0.00000000000E+00 0. -1.
         -2    1    3    3    0  502  0.47044423709E+01 -0.37672665056E+02 -0.63391876082E+02  0.73891078106E+02  0.00000000000E+00 0.  1.
<mgrwt>
<rscale>  0 0.76047223E+02</rscale>
<asrwt>0</asrwt>
<pdfrwt beam="2">  1        2 0.22358588E-01 0.76047223E+02</pdfrwt>
<pdfrwt beam="1">  1       -2 0.15305082E-02 0.76047223E+02</pdfrwt>
<totfact> 0.22511743E+05</totfact>
</mgrwt>
</event>
<event>
 5    1  0.4023633E+001  0.9079981E+02  0.7546771E-02  0.1300926E+00
          1   -1    0    0  501    0  0.00000000000E+00  0.00000000000E+00  0.22023638788E+01  0.22023638788E+01  0.00000000000E+00 0. -1.
         -1   -1    0    0    0  501 -0.00000000000E+00 -0.00000000000E+00 -0.93588132953E+03  0.93588132953E+03  0.00000000000E+00 0.  1.
         23    2    1    2    0    0  0.00000000000E+00  0.00000000000E+00 -0.93367896565E+03  0.93808369341E+03  0.90799806937E+02 0.  0.
          2    1    3    3  502    0  0.58418064918E+01  0.28072491413E+02 -0.10318808453E+03  0.10709795640E+03  0.00000000000E+00 0. -1.
         -2    1    3    3    0  502 -0.58418064918E+01 -0.28072491413E+02 -0.83049088112E+03  0.83098573700E+03  0.00000000000E+00 0.  1.
<mgrwt>
<rscale>  0 0.90799807E+02</rscale>
<asrwt>0</asrwt>
<pdfrwt beam="1">  1        1 0.33882474E-03 0.90799807E+02</pdfrwt>
<pdfrwt beam="2">  1       -1 0.14398194E+00 0.90799807E+02</pdfrwt>
<totfact> 0.28015792E+04</totfact>
</mgrwt>
</event>
<event>
 5    1  0.4023633E+001  0.9196574E+02  0.7546771E-02  0.1298160E+00
          2   -1    0    0  501    0  0.00000000000E+00  0.00000000000E+00  0.26947220327E+02  0.26947220327E+02  0.00000000000E+00 0. -1.
         -2   -1    0    0    0  501 -0.00000000000E+00 -0.00000000000E+00 -0.78465402248E+02  0.78465402248E+02  0.00000000000E+00 0.  1.
         23    2    1    2    0    0  0.00000000000E+00  0.00000000000E+00 -0.51518181921E+02  0.10541262257E+03  0.91965743240E+02 0.  0.
          2    1    3    3  502    0 -0.98984706994E+01  0.20670917140E+02  0.19933950301E+02  0.30374807196E+02  0.00000000000E+00 0. -1.
         -2    1    3    3    0  502  0.98984706994E+01 -0.20670917140E+02 -0.71452132222E+02  0.75037815378E+02  0.00000000000E+00 0.  1.
<mgrwt>
<rscale>  0 0.91965743E+02</rscale>
<asrwt>0</asrwt>
<pdfrwt beam="1">  1        2 0.41457262E-02 0.91965743E+02</pdfrwt>
<pdfrwt beam="2">  1       -2 0.12071600E-01 0.91965743E+02</pdfrwt>
<totfact> 0.83743016E+04</totfact>
</mgrwt>
</event>
<event>
 5    1  0.4023633E+001  0.9143142E+02  0.7546771E-02  0.1299422E+00
          1   -1    0    0  501    0  0.00000000000E+00  0.00000000000E+00  0.11956702733E+02  0.11956702733E+02  0.00000000000E+00 0. -1.
         -1   -1    0    0    0  501 -0.00000000000E+00 -0.00000000000E+00 -0.17479117896E+03  0.17479117896E+03  0.00000000000E+00 0.  1.
         23    2    1    2    0    0  0.00000000000E+00  0.00000000000E+00 -0.16283447622E+03  0.18674788169E+03  0.91431420577E+02 0.  0.
          2    1    3    3  502    0  0.35572792825E+02 -0.21279969065E+02 -0.42040808184E+02  0.59039734294E+02  0.00000000000E+00 0. -1.
         -2    1    3    3    0  502 -0.35572792825E+02  0.21279969065E+02 -0.12079366804E+03  0.12770814740E+03  0.00000000000E+00 0.  1.
<mgrwt>
<rscale>  0 0.91431421E+02</rscale>
<asrwt>0</asrwt>
<pdfrwt beam="1">  1        1 0.18394928E-02 0.91431421E+02</pdfrwt>
<pdfrwt beam="2">  1       -1 0.26890949E-01 0.91431421E+02</pdfrwt>
<totfact> 0.71501260E+04</totfact>
</mgrwt>
</event>
<event>
 5    1  0.4023633E+001  0.9170515E+02  0.7546771E-02  0.1298774E+00
          1   -1    0    0  501    0  0.00000000000E+00  0.00000000000E+00  0.17190770509E+03  0.17190770509E+03  0.00000000000E+00 0. -1.
         -1   -1    0    0    0  501 -0.00000000000E+00 -0.00000000000E+00 -0.12230158174E+02  0.12230158174E+02  0.00000000000E+00 0.  1.
         23    2    1    2    0    0  0.00000000000E+00  0.00000000000E+00  0.15967754692E+03  0.18413786326E+03  0.91705145430E+02 0.  0.
          2    1    3    3  502    0  0.14769731688E+02  0.25222317725E+02  0.15077734877E+03  0.15358424134E+03  0.00000000000E+00 0. -1.
         -2    1    3    3    0  502 -0.14769731688E+02 -0.25222317725E+02  0.89001981434E+01  0.30553621922E+02  0.00000000000E+00 0.  1.
<mgrwt>
<rscale>  0 0.91705145E+02</rscale>
<asrwt>0</asrwt>
<pdfrwt beam="1">  1        1 0.26447338E-01 0.91705145E+02</pdfrwt>
<pdfrwt beam="2">  1       -1 0.18815629E-02 0.91705145E+02</pdfrwt>
<totfact> 0.11324165E+05</totfact>
</mgrwt>
</event>
<event>
 5    1  0.4023633E+001  0.8842343E+02  0.7546771E-02  0.1306715E+00
          2   -1    0    0  501    0  0.00000000000E+00  0.00000000000E+00  0.28307275081E+02  0.28307275081E+02  0.00000000000E+00 0. -1.
         -2   -1    0    0    0  501 -0.00000000000E+00 -0.00000000000E+00 -0.69052062088E+02  0.69052062088E+02  0.00000000000E+00 0.  1.
         23    2    1    2    0    0  0.00000000000E+00  0.00000000000E+00 -0.40744787007E+02  0.97359337168E+02  0.88423429393E+02 0.  0.
          2    1    3    3  502    0 -0.44124131456E+02  0.20852019341E+01 -0.22399259584E+02  0.49527910049E+02  0.00000000000E+00 0. -1.
         -2    1    3    3    0  502  0.44124131456E+02 -0.20852019341E+01 -0.18345527422E+02  0.47831427119E+02  0.00000000000E+00 0.  1.
<mgrwt>
<rscale>  0 0.88423429E+02</rscale>
<asrwt>0</asrwt>
<pdfrwt beam="1">  1        2 0.43549655E-02 0.88423429E+02</pdfrwt>
<pdfrwt beam="2">  1       -2 0.10623394E-01 0.88423429E+02</pdfrwt>
<totfact> 0.95401061E+04</totfact>
</mgrwt>
</event>
<event>
 5    1  0.4023633E+001  0.9261155E+02  0.7546771E-02  0.1296648E+00
         -2   -1    0    0    0  501 -0.00000000000E+00  0.00000000000E+00  0.99865299802E+01  0.99865299802E+01  0.00000000000E+00 0.  1.
          2   -1    0    0  501    0  0.00000000000E+00 -0.00000000000E+00 -0.21471169171E+03  0.21471169171E+03  0.00000000000E+00 0. -1.
         23    2    1    2    0    0  0.00000000000E+00  0.00000000000E+00 -0.20472516173E+03  0.22469822169E+03  0.92611548877E+02 0.  0.
          2    1    3    3  502    0  0.31732290072E+02  0.42860821928E+01 -0.18352093521E+03  0.18629343089E+03  0.00000000000E+00 0. -1.
         -2    1    3    3    0  502 -0.31732290072E+02 -0.42860821928E+01 -0.21204226518E+02  0.38404790795E+02  0.00000000000E+00 0.  1.
<mgrwt>
<rscale>  0 0.92611549E+02</rscale>
<asrwt>0</asrwt>
<pdfrwt beam="2">  1        2 0.33032564E-01 0.92611549E+02</pdfrwt>
<pdfrwt beam="1">  1       -2 0.15363894E-02 0.92611549E+02</pdfrwt>
<totfact> 0.15218854E+05</totfact>
</mgrwt>
</event>
<event>
 5    1  0.4023633E+001  0.8401671E+02  0.7546771E-02  0.1318024E+00
          1   -1    0    0  501    0  0.00000000000E+00  0.00000000000E+00  0.46384308224E+03  0.46384308224E+03  0.00000000000E+00 0. -1.
         -1   -1    0    0    0  501 -0.00000000000E+00 -0.00000000000E+00 -0.38045233141E+01  0.38045233141E+01  0.00000000000E+00 0.  1.
         23    2    1    2    0    0  0.00000000000E+00  0.00000000000E+00  0.46003855893E+03  0.46764760556E+03  0.84016708349E+02 0.  0.
          2    1    3    3  502    0 -0.31984567303E+02 -0.26078514873E+02  0.27370551231E+03  0.27679922138E+03  0.00000000000E+00 0.  1.
         -2    1    3    3    0  502  0.31984567303E+02  0.26078514873E+02  0.18633304662E+03  0.19084838418E+03  0.00000000000E+00 0. -1.
<mgrwt>
<rscale>  0 0.84016708E+02</rscale>
<asrwt>0</asrwt>
<pdfrwt beam="1">  1        1 0.71360430E-01 0.84016708E+02</pdfrwt>
<pdfrwt beam="2">  1       -1 0.58531165E-03 0.84016708E+02</pdfrwt>
<totfact> 0.17118331E+05</totfact>
</mgrwt>
</event>
<event>
 5    1  0.4023633E+001  0.8992293E+02  0.7546771E-02  0.1303038E+00
         -2   -1    0    0    0  501 -0.00000000000E+00  0.00000000000E+00  0.28855947755E+01  0.28855947755E+01  0.00000000000E+00 0.  1.
          2   -1    0    0  501    0  0.00000000000E+00 -0.00000000000E+00 -0.70056034349E+03  0.70056034349E+03  0.00000000000E+00 0. -1.
         23    2    1    2    0    0  0.00000000000E+00  0.00000000000E+00 -0.69767474871E+03  0.70344593827E+03  0.89922928492E+02 0.  0.
          2    1    3    3  502    0 -0.25039846846E+02  0.37137042450E+02 -0.37951559696E+03  0.38214950240E+03  0.00000000000E+00 0. -1.
         -2    1    3    3    0  502  0.25039846846E+02 -0.37137042450E+02 -0.31815915176E+03  0.32129643586E+03  0.00000000000E+00 0.  1.
<mgrwt>
<rscale>  0 0.89922928E+02</rscale>
<asrwt>0</asrwt>
<pdfrwt beam="2">  1        2 0.10777853E+00 0.89922928E+02</pdfrwt>
<pdfrwt beam="1">  1       -2 0.44393759E-03 0.89922928E+02</pdfrwt>
<totfact> 0.24600303E+05</totfact>
</mgrwt>
</event>
<event>
 5    1  0.4023633E+001  0.9082626E+02  0.7546771E-02  0.1300863E+00
         -1   -1    0    0    0  501 -0.00000000000E+00  0.00000000000E+00  0.12783399738E+01  0.12783399738E+01  0.00000000000E+00 0. -1.
          1   -1    0    0  501    0  0.00000000000E+00 -0.00000000000E+00 -0.16133051643E+04  0.16133051643E+04  0.00000000000E+00 0.  1.
         23    2    1    2    0    0  0.00000000000E+00  0.00000000000E+00 -0.16120268243E+04  0.16145835043E+04  0.90826262314E+02 0.  0.
          2    1    3    3  502    0  0.31236101242E+02  0.26850435995E+02 -0.46606031730E+03  0.46787697026E+03  0.00000000000E+00 0. -1.
         -2    1    3    3    0  502 -0.31236101242E+02 -0.26850435995E+02 -0.11459665070E+04  0.11467065340E+04  0.00000000000E+00 0.  1.
<mgrwt>
<rscale>  0 0.90826262E+02</rscale>
<asrwt>0</asrwt>
<pdfrwt beam="2">  1        1 0.24820161E+00 0.90826262E+02</pdfrwt>
<pdfrwt beam="1">  1       -1 0.19666704E-03 0.90826262E+02</pdfrwt>
<totfact> 0.10464258E+05</totfact>
</mgrwt>
</event>
<event>
 5    1  0.4023633E+001  0.9156404E+02  0.7546771E-02  0.1299108E+00
         -2   -1    0    0    0  501 -0.00000000000E+00  0.00000000000E+00  0.32715181860E+01  0.32715181860E+01  0.00000000000E+00 0.  1.
          2   -1    0    0  501    0  0.00000000000E+00 -0.00000000000E+00 -0.64067909747E+03  0.64067909747E+03  0.00000000000E+00 0. -1.
         23    2    1    2    0    0  0.00000000000E+00  0.00000000000E+00 -0.63740757928E+03  0.64395061566E+03  0.91564039203E+02 0.  0.
          2    1    3    3  502    0  0.29201483914E+02 -0.20171083241E+02 -0.52209542546E+03  0.52330032729E+03  0.00000000000E+00 0. -1.
         -2    1    3    3    0  502 -0.29201483914E+02  0.20171083241E+02 -0.11531215383E+03  0.12065028836E+03  0.00000000000E+00 0.  1.
<mgrwt>
<rscale>  0 0.91564039E+02</rscale>
<asrwt>0</asrwt>
<pdfrwt beam="2">  1        2 0.98566023E-01 0.91564039E+02</pdfrwt>
<pdfrwt beam="1">  1       -2 0.50331045E-03 0.91564039E+02</pdfrwt>
<totfact> 0.22939602E+05</totfact>
</mgrwt>
</event>
<event>
 5    1  0.4023633E+001  0.9003384E+02  0.7546771E-02  0.1302770E+00
         -1   -1    0    0    0  501 -0.00000000000E+00  0.00000000000E+00  0.27930229804E+01  0.27930229804E+01  0.00000000000E+00 0.  1.
          1   -1    0    0  501    0  0.00000000000E+00 -0.00000000000E+00 -0.72556619430E+03  0.72556619430E+03  0.00000000000E+00 0. -1.
         23    2    1    2    0    0  0.00000000000E+00  0.00000000000E+00 -0.72277317132E+03  0.72835921728E+03  0.90033839293E+02 0.  0.
          2    1    3    3  502    0 -0.31100344439E+02 -0.15814288085E+01 -0.62437362417E+03  0.62514970599E+03  0.00000000000E+00 0. -1.
         -2    1    3    3    0  502  0.31100344439E+02  0.15814288085E+01 -0.98399547146E+02  0.10320951129E+03  0.00000000000E+00 0.  1.
<mgrwt>
<rscale>  0 0.90033839E+02</rscale>
<asrwt>0</asrwt>
<pdfrwt beam="2">  1        1 0.11162558E+00 0.90033839E+02</pdfrwt>
<pdfrwt beam="1">  1       -1 0.42969580E-03 0.90033839E+02</pdfrwt>
<totfact> 0.14689765E+05</totfact>
</mgrwt>
</event>
<event>
 5    1  0.4023633E+001  0.9167893E+02  0.7546771E-02  0.1298836E+00
          2   -1    0    0  501    0  0.00000000000E+00  0.00000000000E+00  0.62406969483E+01  0.62406969483E+01  0.00000000000E+00 0. -1.
         -2   -1    0    0    0  501 -0.00000000000E+00 -0.00000000000E+00 -0.33670225200E+03  0.33670225200E+03  0.00000000000E+00 0.  1.
         23    2    1    2    0    0  0.00000000000E+00  0.00000000000E+00 -0.33046155505E+03  0.34294294895E+03  0.91678933600E+02 0.  0.
          2    1    3    3  502    0  0.38108598384E+02 -0.78178835056E+01 -0.74533601350E+02  0.84075218129E+02  0.00000000000E+00 0. -1.
         -2    1    3    3    0  502 -0.38108598384E+02  0.78178835056E+01 -0.25592795370E+03  0.25886773082E+03  0.00000000000E+00 0.  1.
<mgrwt>
<rscale>  0 0.91678934E+02</rscale>
<asrwt>0</asrwt>
<pdfrwt beam="1">  1        2 0.96010719E-03 0.91678934E+02</pdfrwt>
<pdfrwt beam="2">  1       -2 0.51800348E-01 0.91678934E+02</pdfrwt>
<totfact> 0.47005504E+04</totfact>
</mgrwt>
</event>
<event>
 5    1  0.4023633E+001  0.9364190E+02  0.7546771E-02  0.1294264E+00
          1   -1    0    0  501    0  0.00000000000E+00  0.00000000000E+00  0.78760484564E+03  0.78760484564E+03  0.00000000000E+00 0. -1.
         -1   -1    0    0    0  501 -0.00000000000E+00 -0.00000000000E+00 -0.27833769769E+01  0.27833769769E+01  0.00000000000E+00 0.  1.
         23    2    1    2    0    0  0.00000000000E+00  0.00000000000E+00  0.78482146866E+03  0.79038822262E+03  0.93641896484E+02 0.  0.
          2    1    3    3  502    0 -0.10096870844E+02  0.29187584431E+02  0.68943374039E+03  0.69012516566E+03  0.00000000000E+00 0. -1.
         -2    1    3    3    0  502  0.10096870844E+02 -0.29187584431E+02  0.95387728271E+02  0.10026305696E+03  0.00000000000E+00 0.  1.
<mgrwt>
<rscale>  0 0.93641896E+02</rscale>
<asrwt>0</asrwt>
<pdfrwt beam="1">  1        1 0.12116980E+00 0.93641896E+02</pdfrwt>
<pdfrwt beam="2">  1       -1 0.42821247E-03 0.93641896E+02</pdfrwt>
<totfact> 0.13183263E+05</totfact>
</mgrwt>
</event>
<event>
 5    1  0.4023633E+001  0.9297274E+02  0.7546771E-02  0.1295808E+00
         -1   -1    0    0    0  501 -0.00000000000E+00  0.00000000000E+00  0.33755353244E+03  0.33755353244E+03  0.00000000000E+00 0.  1.
          1   -1    0    0  501    0  0.00000000000E+00 -0.00000000000E+00 -0.64018956413E+01  0.64018956413E+01  0.00000000000E+00 0. -1.
         23    2    1    2    0    0  0.00000000000E+00  0.00000000000E+00  0.33115163680E+03  0.34395542808E+03  0.92972737682E+02 0.  0.
          2    1    3    3  502    0 -0.22091926714E+02 -0.10585801889E+02  0.31173628587E+03  0.31269733666E+03  0.00000000000E+00 0.  1.
         -2    1    3    3    0  502  0.22091926714E+02  0.10585801889E+02  0.19415350933E+02  0.31258091423E+02  0.00000000000E+00 0. -1.
<mgrwt>
<rscale>  0 0.92972738E+02</rscale>
<asrwt>0</asrwt>
<pdfrwt beam="2">  1        1 0.98490729E-03 0.92972738E+02</pdfrwt>
<pdfrwt beam="1">  1       -1 0.51931299E-01 0.92972738E+02</pdfrwt>
<totfact> 0.54826148E+04</totfact>
</mgrwt>
</event>
<event>
 5    1  0.4023633E+001  0.9173989E+02  0.7546771E-02  0.1298692E+00
         -2   -1    0    0    0  501 -0.00000000000E+00  0.00000000000E+00  0.27135333709E+02  0.27135333709E+02  0.00000000000E+00 0.  1.
          2   -1    0    0  501    0  0.00000000000E+00 -0.00000000000E+00 -0.77539186245E+02  0.77539186245E+02  0.00000000000E+00 0. -1.
         23    2    1    2    0    0  0.00000000000E+00  0.00000000000E+00 -0.50403852536E+02  0.10467451995E+03  0.91739886512E+02 0.  0.
          2    1    3    3  502    0  0.15224797696E+02  0.15777531125E+02 -0.71173116775E+02  0.74473737013E+02  0.00000000000E+00 0. -1.
         -2    1    3    3    0  502 -0.15224797696E+02 -0.15777531125E+02  0.20769264239E+02  0.30200782942E+02  0.00000000000E+00 0.  1.
<mgrwt>
<rscale>  0 0.91739887E+02</rscale>
<asrwt>0</asrwt>
<pdfrwt beam="2">  1        2 0.11929105E-01 0.91739887E+02</pdfrwt>
<pdfrwt beam="1">  1       -2 0.41746668E-02 0.91739887E+02</pdfrwt>
<totfact> 0.11190117E+05</totfact>
</mgrwt>
</event>
<event>
 5    1  0.4023633E+001  0.9974651E+02  0.7546771E-02  0.1280830E+00
         -2   -1    0    0    0  501 -0.00000000000E+00  0.00000000000E+00  0.94247031160E+02  0.94247031160E+02  0.00000000000E+00 0.  1.
          2   -1    0    0  501    0  0.00000000000E+00 -0.00000000000E+00 -0.26391724650E+02  0.26391724650E+02  0.00000000000E+00 0. -1.
         23    2    1    2    0    0  0.00000000000E+00  0.00000000000E+00  0.67855306509E+02  0.12063875581E+03  0.99746512630E+02 0.  0.
          2    1    3    3  502    0 -0.34453165492E+02 -0.25168881224E+02  0.26954430854E+01  0.42752293598E+02  0.00000000000E+00 0. -1.
         -2    1    3    3    0  502  0.34453165492E+02  0.25168881224E+02  0.65159863424E+02  0.77886462212E+02  0.00000000000E+00 0.  1.
<mgrwt>
<rscale>  0 0.99746513E+02</rscale>
<asrwt>0</asrwt>
<pdfrwt beam="2">  1        2 0.40602654E-02 0.99746513E+02</pdfrwt>
<pdfrwt beam="1">  1       -2 0.14499543E-01 0.99746513E+02</pdfrwt>
<totfact> 0.65002748E+04</totfact>
</mgrwt>
</event>
<event>
 5    1  0.4023633E+001  0.9033163E+02  0.7546771E-02  0.1302051E+00
          1   -1    0    0  501    0  0.00000000000E+00  0.00000000000E+00  0.18160106155E+03  0.18160106155E+03  0.00000000000E+00 0. -1.
         -1   -1    0    0    0  501 -0.00000000000E+00 -0.00000000000E+00 -0.11233144981E+02  0.11233144981E+02  0.00000000000E+00 0.  1.
         23    2    1    2    0    0  0.00000000000E+00  0.00000000000E+00  0.17036791657E+03  0.19283420653E+03  0.90331634615E+02 0.  0.
          2    1    3    3  502    0 -0.16234027523E+02 -0.12692505099E+02  0.17098090644E+03  0.17221821536E+03  0.00000000000E+00 0. -1.
         -2    1    3    3    0  502  0.16234027523E+02  0.12692505099E+02 -0.61298987067E+00  0.20615991169E+02  0.00000000000E+00 0.  1.
<mgrwt>
<rscale>  0 0.90331635E+02</rscale>
<asrwt>0</asrwt>
<pdfrwt beam="1">  1        1 0.27938623E-01 0.90331635E+02</pdfrwt>
<pdfrwt beam="2">  1       -1 0.17281763E-02 0.90331635E+02</pdfrwt>
<totfact> 0.11916460E+05</totfact>
</mgrwt>
</event>
<event>
 5    1  0.4023633E+001  0.7303666E+02  0.7546771E-02  0.1350061E+00
          2   -1    0    0  501    0  0.00000000000E+00  0.00000000000E+00  0.19213128454E+04  0.19213128454E+04  0.00000000000E+00 0. -1.
         -2   -1    0    0    0  501 -0.00000000000E+00 -0.00000000000E+00 -0.69410261619E+00  0.69410261619E+00  0.00000000000E+00 0.  1.
         23    2    1    2    0    0  0.00000000000E+00  0.00000000000E+00  0.19206187428E+04  0.19220069480E+04  0.73036655797E+02 0.  0.
          2    1    3    3  502    0 -0.21848854731E+02  0.18784766089E+02  0.15507121768E+04  0.15509798500E+04  0.00000000000E+00 0. -1.
         -2    1    3    3    0  502  0.21848854731E+02 -0.18784766089E+02  0.36990656601E+03  0.37102709802E+03  0.00000000000E+00 0.  1.
<mgrwt>
<rscale>  0 0.73036656E+02</rscale>
<asrwt>0</asrwt>
<pdfrwt beam="1">  1        2 0.29558233E+00 0.73036656E+02</pdfrwt>
<pdfrwt beam="2">  1       -2 0.10678656E-03 0.73036656E+02</pdfrwt>
<totfact> 0.36414131E+05</totfact>
</mgrwt>
</event>
<event>
 5    1  0.4023633E+001  0.9211269E+02  0.7546771E-02  0.1297815E+00
         -1   -1    0    0    0  501 -0.00000000000E+00  0.00000000000E+00  0.25462905583E+01  0.25462905583E+01  0.00000000000E+00 0.  1.
          1   -1    0    0  501    0  0.00000000000E+00 -0.00000000000E+00 -0.83304982201E+03  0.83304982201E+03  0.00000000000E+00 0. -1.
         23    2    1    2    0    0  0.00000000000E+00  0.00000000000E+00 -0.83050353146E+03  0.83559611257E+03  0.92112689602E+02 0.  0.
          2    1    3    3  502    0 -0.29569642981E+02 -0.16772137087E+02 -0.69712721631E+03  0.69795560324E+03  0.00000000000E+00 0. -1.
         -2    1    3    3    0  502  0.29569642981E+02  0.16772137087E+02 -0.13337631514E+03  0.13764050933E+03  0.00000000000E+00 0.  1.
<mgrwt>
<rscale>  0 0.92112690E+02</rscale>
<asrwt>0</asrwt>
<pdfrwt beam="2">  1        1 0.12816162E+00 0.92112690E+02</pdfrwt>
<pdfrwt beam="1">  1       -1 0.39173667E-03 0.92112690E+02</pdfrwt>
<totfact> 0.13697318E+05</totfact>
</mgrwt>
</event>
<event>
 5    1  0.4023633E+001  0.9113160E+02  0.7546771E-02  0.1300134E+00
         -2   -1    0    0    0  501 -0.00000000000E+00  0.00000000000E+00  0.43157721259E+02  0.43157721259E+02  0.00000000000E+00 0.  1.
          2   -1    0    0  501    0  0.00000000000E+00 -0.00000000000E+00 -0.48108244698E+02  0.48108244698E+02  0.00000000000E+00 0. -1.
         23    2    1    2    0    0  0.00000000000E+00  0.00000000000E+00 -0.49505234386E+01  0.91265965957E+02  0.91131601872E+02 0.  0.
          2    1    3    3  502    0  0.75166997977E+01  0.19824746713E+02 -0.42867355687E+02  0.47823964094E+02  0.00000000000E+00 0. -1.
         -2    1    3    3    0  502 -0.75166997977E+01 -0.19824746713E+02  0.37916832248E+02  0.43442001863E+02  0.00000000000E+00 0.  1.
<mgrwt>
<rscale>  0 0.91131602E+02</rscale>
<asrwt>0</asrwt>
<pdfrwt beam="2">  1        2 0.74012684E-02 0.91131602E+02</pdfrwt>
<pdfrwt beam="1">  1       -2 0.66396495E-02 0.91131602E+02</pdfrwt>
<totfact> 0.10020695E+05</totfact>
</mgrwt>
</event>
<event>
 5    1  0.4023633E+001  0.9141514E+02  0.7546771E-02  0.1299460E+00
          1   -1    0    0  501    0  0.00000000000E+00  0.00000000000E+00  0.13210256602E+04  0.13210256602E+04  0.00000000000E+00 0. -1.
         -1   -1    0    0    0  501 -0.00000000000E+00 -0.00000000000E+00 -0.15814847831E+01  0.15814847831E+01  0.00000000000E+00 0.  1.
         23    2    1    2    0    0  0.00000000000E+00  0.00000000000E+00  0.13194441754E+04  0.13226071450E+04  0.91415140534E+02 0.  0.
          2    1    3    3  502    0 -0.13840927292E+02 -0.42221230426E+02  0.81486105198E+03  0.81607152726E+03  0.00000000000E+00 0. -1.
         -2    1    3    3    0  502  0.13840927292E+02  0.42221230426E+02  0.50458312342E+03  0.50653561771E+03  0.00000000000E+00 0.  1.
<mgrwt>
<rscale>  0 0.91415141E+02</rscale>
<asrwt>0</asrwt>
<pdfrwt beam="1">  1        1 0.20323383E+00 0.91415141E+02</pdfrwt>
<pdfrwt beam="2">  1       -1 0.24330641E-03 0.91415141E+02</pdfrwt>
<totfact> 0.12008084E+05</totfact>
</mgrwt>
</event>
<event>
 5    1  0.4023633E+001  0.9174579E+02  0.7546771E-02  0.1298678E+00
          1   -1    0    0  501    0  0.00000000000E+00  0.00000000000E+00  0.13863500777E+01  0.13863500777E+01  0.00000000000E+00 0. -1.
         -1   -1    0    0    0  501 -0.00000000000E+00 -0.00000000000E+00 -0.15178869402E+04  0.15178869402E+04  0.00000000000E+00 0.  1.
         23    2    1    2    0    0  0.00000000000E+00  0.00000000000E+00 -0.15165005902E+04  0.15192732903E+04  0.91745793964E+02 0.  0.
          2    1    3    3  502    0 -0.11500840212E+02 -0.41281689300E+02 -0.10292795810E+04  0.10301712979E+04  0.00000000000E+00 0. -1.
         -2    1    3    3    0  502  0.11500840212E+02  0.41281689300E+02 -0.48722100916E+03  0.48910199239E+03  0.00000000000E+00 0.  1.
<mgrwt>
<rscale>  0 0.91745794E+02</rscale>
<asrwt>0</asrwt>
<pdfrwt beam="1">  1        1 0.21328385E-03 0.91745794E+02</pdfrwt>
<pdfrwt beam="2">  1       -1 0.23352192E+00 0.91745794E+02</pdfrwt>
<totfact> 0.13260205E+04</totfact>
</mgrwt>
</event>
<event>
 5    1  0.4023633E+001  0.9120494E+02  0.7546771E-02  0.1299960E+00
         -1   -1    0    0    0  501 -0.00000000000E+00  0.00000000000E+00  0.11423703422E+02  0.11423703422E+02  0.00000000000E+00 0.  1.
          1   -1    0    0  501    0  0.00000000000E+00 -0.00000000000E+00 -0.18204125653E+03  0.18204125653E+03  0.00000000000E+00 0. -1.
         23    2    1    2    0    0  0.00000000000E+00  0.00000000000E+00 -0.17061755311E+03  0.19346495995E+03  0.91204941206E+02 0.  0.
          2    1    3    3  502    0  0.20790029959E+02  0.39413397168E+02 -0.10586856834E+03  0.11486424589E+03  0.00000000000E+00 0. -1.
         -2    1    3    3    0  502 -0.20790029959E+02 -0.39413397168E+02 -0.64748984765E+02  0.78600714056E+02  0.00000000000E+00 0.  1.
<mgrwt>
<rscale>  0 0.91204941E+02</rscale>
<asrwt>0</asrwt>
<pdfrwt beam="2">  1        1 0.28006347E-01 0.91204941E+02</pdfrwt>
<pdfrwt beam="1">  1       -1 0.17574928E-02 0.91204941E+02</pdfrwt>
<totfact> 0.11618060E+05</totfact>
</mgrwt>
</event>
<event>
 5    1  0.4023633E+001  0.9073529E+02  0.7546771E-02  0.1301081E+00
          1   -1    0    0  501    0  0.00000000000E+00  0.00000000000E+00  0.26257566839E+03  0.26257566839E+03  0.00000000000E+00 0.  1.
         -1   -1    0    0    0  501 -0.00000000000E+00 -0.00000000000E+00 -0.78385912437E+01  0.78385912437E+01  0.00000000000E+00 0. -1.
         23    2    1    2    0    0  0.00000000000E+00  0.00000000000E+00  0.25473707714E+03  0.27041425963E+03  0.90735292693E+02 0.  0.
          2    1    3    3  502    0  0.19526028621E+01  0.27039431277E+02  0.23578099673E+03  0.23733440947E+03  0.00000000000E+00 0. -1.
         -2    1    3    3    0  502 -0.19526028621E+01 -0.27039431277E+02  0.18956080415E+02  0.33079850157E+02  0.00000000000E+00 0.  1.
<mgrwt>
<rscale>  0 0.90735293E+02</rscale>
<asrwt>0</asrwt>
<pdfrwt beam="1">  1        1 0.40396250E-01 0.90735293E+02</pdfrwt>
<pdfrwt beam="2">  1       -1 0.12059373E-02 0.90735293E+02</pdfrwt>
<totfact> 0.12648824E+05</totfact>
</mgrwt>
</event>
<event>
 5    1  0.4023633E+001  0.8095947E+02  0.7546771E-02  0.1326350E+00
          2   -1    0    0  501    0  0.00000000000E+00  0.00000000000E+00  0.16024767021E+02  0.16024767021E+02  0.00000000000E+00 0. -1.
         -2   -1    0    0    0  501 -0.00000000000E+00 -0.00000000000E+00 -0.10225478092E+03  0.10225478092E+03  0.00000000000E+00 0.  1.
         23    2    1    2    0    0  0.00000000000E+00  0.00000000000E+00 -0.86230013901E+02  0.11827954794E+03  0.80959472357E+02 0.  0.
          2    1    3    3  502    0  0.76148264186E+00 -0.36652483498E+02 -0.18037952760E+02  0.40857706031E+02  0.00000000000E+00 0. -1.
         -2    1    3    3    0  502 -0.76148264186E+00  0.36652483498E+02 -0.68192061141E+02  0.77421841912E+02  0.00000000000E+00 0.  1.
<mgrwt>
<rscale>  0 0.80959472E+02</rscale>
<asrwt>0</asrwt>
<pdfrwt beam="1">  1        2 0.24653488E-02 0.80959472E+02</pdfrwt>
<pdfrwt beam="2">  1       -2 0.15731505E-01 0.80959472E+02</pdfrwt>
<totfact> 0.10658991E+05</totfact>
</mgrwt>
</event>
<event>
 5    1  0.4023633E+001  0.8860369E+02  0.7546771E-02  0.1306269E+00
          1   -1    0    0  501    0  0.00000000000E+00  0.00000000000E+00  0.15880024810E+03  0.15880024810E+03  0.00000000000E+00 0. -1.
         -1   -1    0    0    0  501 -0.00000000000E+00 -0.00000000000E+00 -0.12359258306E+02  0.12359258306E+02  0.00000000000E+00 0.  1.
         23    2    1    2    0    0  0.00000000000E+00  0.00000000000E+00  0.14644098979E+03  0.17115950640E+03  0.88603685822E+02 0.  0.
          2    1    3    3  502    0  0.11246889860E+02  0.38860116060E+02  0.38339187045E+02  0.55735934684E+02  0.00000000000E+00 0. -1.
         -2    1    3    3    0  502 -0.11246889860E+02 -0.38860116060E+02  0.10810180274E+03  0.11542357172E+03  0.00000000000E+00 0.  1.
<mgrwt>
<rscale>  0 0.88603686E+02</rscale>
<asrwt>0</asrwt>
<pdfrwt beam="1">  1        1 0.24430806E-01 0.88603686E+02</pdfrwt>
<pdfrwt beam="2">  1       -1 0.19014245E-02 0.88603686E+02</pdfrwt>
<totfact> 0.12238467E+05</totfact>
</mgrwt>
</event>
<event>
 5    1  0.4023633E+001  0.9003362E+02  0.7546771E-02  0.1302770E+00
         -2   -1    0    0    0  501 -0.00000000000E+00  0.00000000000E+00  0.19616520473E+01  0.19616520473E+01  0.00000000000E+00 0. -1.
          2   -1    0    0  501    0  0.00000000000E+00 -0.00000000000E+00 -0.10330646066E+04  0.10330646066E+04  0.00000000000E+00 0.  1.
         23    2    1    2    0    0  0.00000000000E+00  0.00000000000E+00 -0.10311029546E+04  0.10350262587E+04  0.90033622622E+02 0.  0.
          2    1    3    3  502    0 -0.39903828957E+02 -0.96399903418E+00 -0.27626113477E+03  0.27912982543E+03  0.00000000000E+00 0. -1.
         -2    1    3    3    0  502  0.39903828957E+02  0.96399903418E+00 -0.75484181982E+03  0.75589643325E+03  0.00000000000E+00 0.  1.
<mgrwt>
<rscale>  0 0.90033623E+02</rscale>
<asrwt>0</asrwt>
<pdfrwt beam="2">  1        2 0.15893310E+00 0.90033623E+02</pdfrwt>
<pdfrwt beam="1">  1       -2 0.30179247E-03 0.90033623E+02</pdfrwt>
<totfact> 0.25871951E+05</totfact>
</mgrwt>
</event>
<event>
 5    1  0.4023633E+001  0.9023825E+02  0.7546771E-02  0.1302276E+00
          2   -1    0    0  501    0  0.00000000000E+00  0.00000000000E+00  0.32793795534E+04  0.32793795534E+04  0.00000000000E+00 0. -1.
         -2   -1    0    0    0  501 -0.00000000000E+00 -0.00000000000E+00 -0.62076851199E+00  0.62076851199E+00  0.00000000000E+00 0.  1.
         23    2    1    2    0    0  0.00000000000E+00  0.00000000000E+00  0.32787587849E+04  0.32800003219E+04  0.90238252768E+02 0.  0.
          2    1    3    3  502    0  0.21155998182E+02  0.36339369828E+02  0.22339918142E+04  0.22343875116E+04  0.00000000000E+00 0. -1.
         -2    1    3    3    0  502 -0.21155998182E+02 -0.36339369828E+02  0.10447669707E+04  0.10456128103E+04  0.00000000000E+00 0.  1.
<mgrwt>
<rscale>  0 0.90238253E+02</rscale>
<asrwt>0</asrwt>
<pdfrwt beam="1">  1        2 0.50450606E+00 0.90238253E+02</pdfrwt>
<pdfrwt beam="2">  1       -2 0.95505474E-04 0.90238253E+02</pdfrwt>
<totfact> 0.81233062E+04</totfact>
</mgrwt>
</event>
<event>
 5    1  0.4023633E+001  0.9194673E+02  0.7546771E-02  0.1298205E+00
         -2   -1    0    0    0  501 -0.00000000000E+00  0.00000000000E+00  0.94157770667E+00  0.94157770667E+00  0.00000000000E+00 0.  1.
          2   -1    0    0  501    0  0.00000000000E+00 -0.00000000000E+00 -0.22446903078E+04  0.22446903078E+04  0.00000000000E+00 0. -1.
         23    2    1    2    0    0  0.00000000000E+00  0.00000000000E+00 -0.22437487301E+04  0.22456318855E+04  0.91946731365E+02 0.  0.
          2    1    3    3  502    0  0.29411913743E+02  0.32578511152E+02 -0.78777602314E+03  0.78899777103E+03  0.00000000000E+00 0.  1.
         -2    1    3    3    0  502 -0.29411913743E+02 -0.32578511152E+02 -0.14559727069E+04  0.14566341145E+04  0.00000000000E+00 0. -1.
<mgrwt>
<rscale>  0 0.91946731E+02</rscale>
<asrwt>0</asrwt>
<pdfrwt beam="2">  1        2 0.34533930E+00 0.91946731E+02</pdfrwt>
<pdfrwt beam="1">  1       -2 0.14485713E-03 0.91946731E+02</pdfrwt>
<totfact> 0.16972572E+05</totfact>
</mgrwt>
</event>
<event>
 5    1  0.4023633E+001  0.9117617E+02  0.7546771E-02  0.1300028E+00
         -1   -1    0    0    0  501 -0.00000000000E+00  0.00000000000E+00  0.13008673613E+02  0.13008673613E+02  0.00000000000E+00 0.  1.
          1   -1    0    0  501    0  0.00000000000E+00 -0.00000000000E+00 -0.15976058902E+03  0.15976058902E+03  0.00000000000E+00 0. -1.
         23    2    1    2    0    0  0.00000000000E+00  0.00000000000E+00 -0.14675191540E+03  0.17276926263E+03  0.91176167035E+02 0.  0.
          2    1    3    3  502    0 -0.27644399397E+02  0.28248067664E+02 -0.11642416928E+03  0.12295020674E+03  0.00000000000E+00 0. -1.
         -2    1    3    3    0  502  0.27644399397E+02 -0.28248067664E+02 -0.30327746119E+02  0.49819055887E+02  0.00000000000E+00 0.  1.
<mgrwt>
<rscale>  0 0.91176167E+02</rscale>
<asrwt>0</asrwt>
<pdfrwt beam="2">  1        1 0.24578554E-01 0.91176167E+02</pdfrwt>
<pdfrwt beam="1">  1       -1 0.20013343E-02 0.91176167E+02</pdfrwt>
<totfact> 0.11345076E+05</totfact>
</mgrwt>
</event>
<event>
 5    1  0.4023633E+001  0.9170269E+02  0.7546771E-02  0.1298780E+00
         -2   -1    0    0    0  501 -0.00000000000E+00  0.00000000000E+00  0.15597717573E+01  0.15597717573E+01  0.00000000000E+00 0.  1.
          2   -1    0    0  501    0  0.00000000000E+00 -0.00000000000E+00 -0.13478547637E+04  0.13478547637E+04  0.00000000000E+00 0. -1.
         23    2    1    2    0    0  0.00000000000E+00  0.00000000000E+00 -0.13462949919E+04  0.13494145354E+04  0.91702689019E+02 0.  0.
          2    1    3    3  502    0 -0.35998722380E+02 -0.28375674226E+02 -0.68965789770E+03  0.69117950112E+03  0.00000000000E+00 0. -1.
         -2    1    3    3    0  502  0.35998722380E+02  0.28375674226E+02 -0.65663709420E+03  0.65823503430E+03  0.00000000000E+00 0.  1.
<mgrwt>
<rscale>  0 0.91702689E+02</rscale>
<asrwt>0</asrwt>
<pdfrwt beam="2">  1        2 0.20736258E+00 0.91702689E+02</pdfrwt>
<pdfrwt beam="1">  1       -2 0.23996453E-03 0.91702689E+02</pdfrwt>
<totfact> 0.24012601E+05</totfact>
</mgrwt>
</event>
<event>
 5    1  0.4023633E+001  0.9151270E+02  0.7546771E-02  0.1299229E+00
          1   -1    0    0  501    0  0.00000000000E+00  0.00000000000E+00  0.16152383171E+03  0.16152383171E+03  0.00000000000E+00 0. -1.
         -1   -1    0    0    0  501 -0.00000000000E+00 -0.00000000000E+00 -0.12961823273E+02  0.12961823273E+02  0.00000000000E+00 0.  1.
         23    2    1    2    0    0  0.00000000000E+00  0.00000000000E+00  0.14856200844E+03  0.17448565499E+03  0.91512695535E+02 0.  0.
          2    1    3    3  502    0 -0.14351802846E+02  0.18457838068E+02  0.14927393991E+03  0.15109392830E+03  0.00000000000E+00 0. -1.
         -2    1    3    3    0  502  0.14351802846E+02 -0.18457838068E+02 -0.71193147185E+00  0.23391726690E+02  0.00000000000E+00 0.  1.
<mgrwt>
<rscale>  0 0.91512696E+02</rscale>
<asrwt>0</asrwt>
<pdfrwt beam="1">  1        1 0.24849819E-01 0.91512696E+02</pdfrwt>
<pdfrwt beam="2">  1       -1 0.19941268E-02 0.91512696E+02</pdfrwt>
<totfact> 0.11255941E+05</totfact>
</mgrwt>
</event>
<event>
 5    1  0.4023633E+001  0.9079371E+02  0.7546771E-02  0.1300941E+00
         -1   -1    0    0    0  501 -0.00000000000E+00  0.00000000000E+00  0.57088189950E+00  0.57088189950E+00  0.00000000000E+00 0.  1.
          1   -1    0    0  501    0  0.00000000000E+00 -0.00000000000E+00 -0.36099837469E+04  0.36099837469E+04  0.00000000000E+00 0. -1.
         23    2    1    2    0    0  0.00000000000E+00  0.00000000000E+00 -0.36094128650E+04  0.36105546288E+04  0.90793708562E+02 0.  0.
          2    1    3    3  502    0 -0.43515665384E+02 -0.11226367100E+02 -0.20600497198E+04  0.20605398546E+04  0.00000000000E+00 0. -1.
         -2    1    3    3    0  502  0.43515665384E+02  0.11226367100E+02 -0.15493631452E+04  0.15500147741E+04  0.00000000000E+00 0.  1.
<mgrwt>
<rscale>  0 0.90793709E+02</rscale>
<asrwt>0</asrwt>
<pdfrwt beam="2">  1        1 0.55539075E+00 0.90793709E+02</pdfrwt>
<pdfrwt beam="1">  1       -1 0.87826619E-04 0.90793709E+02</pdfrwt>
<totfact> 0.15092498E+04</totfact>
</mgrwt>
</event>
<event>
 5    1  0.4023633E+001  0.8984186E+02  0.7546771E-02  0.1303235E+00
         -1   -1    0    0    0  501 -0.00000000000E+00  0.00000000000E+00  0.13203798589E+03  0.13203798589E+03  0.00000000000E+00 0.  1.
          1   -1    0    0  501    0  0.00000000000E+00 -0.00000000000E+00 -0.15282645564E+02  0.15282645564E+02  0.00000000000E+00 0. -1.
         23    2    1    2    0    0  0.00000000000E+00  0.00000000000E+00  0.11675534032E+03  0.14732063145E+03  0.89841855265E+02 0.  0.
          2    1    3    3  502    0 -0.35559254808E+02 -0.88578097046E+01  0.10097933413E+03  0.10742321591E+03  0.00000000000E+00 0.  1.
         -2    1    3    3    0  502  0.35559254808E+02  0.88578097046E+01  0.15776006188E+02  0.39897415536E+02  0.00000000000E+00 0. -1.
<mgrwt>
<rscale>  0 0.89841855E+02</rscale>
<asrwt>0</asrwt>
<pdfrwt beam="2">  1        1 0.23511763E-02 0.89841855E+02</pdfrwt>
<pdfrwt beam="1">  1       -1 0.20313535E-01 0.89841855E+02</pdfrwt>
<totfact> 0.79960164E+04</totfact>
</mgrwt>
</event>
<event>
 5    1  0.4023633E+001  0.9283580E+02  0.7546771E-02  0.1296126E+00
          2   -1    0    0  501    0  0.00000000000E+00  0.00000000000E+00  0.83800707663E+03  0.83800707663E+03  0.00000000000E+00 0. -1.
         -2   -1    0    0    0  501 -0.00000000000E+00 -0.00000000000E+00 -0.25711258486E+01  0.25711258486E+01  0.00000000000E+00 0.  1.
         23    2    1    2    0    0  0.00000000000E+00  0.00000000000E+00  0.83543595078E+03  0.84057820248E+03  0.92835804646E+02 0.  0.
          2    1    3    3  502    0 -0.80741498204E+01 -0.36659309574E+02  0.66494370099E+03  0.66600241918E+03  0.00000000000E+00 0. -1.
         -2    1    3    3    0  502  0.80741498204E+01  0.36659309574E+02  0.17049224979E+03  0.17457578329E+03  0.00000000000E+00 0.  1.
<mgrwt>
<rscale>  0 0.92835805E+02</rscale>
<asrwt>0</asrwt>
<pdfrwt beam="1">  1        2 0.12892395E+00 0.92835805E+02</pdfrwt>
<pdfrwt beam="2">  1       -2 0.39555849E-03 0.92835805E+02</pdfrwt>
<totfact> 0.23419678E+05</totfact>
</mgrwt>
</event>
<event>
 5    1  0.4023633E+001  0.8865037E+02  0.7546771E-02  0.1306153E+00
          1   -1    0    0  501    0  0.00000000000E+00  0.00000000000E+00  0.10783439314E+04  0.10783439314E+04  0.00000000000E+00 0. -1.
         -1   -1    0    0    0  501 -0.00000000000E+00 -0.00000000000E+00 -0.18219809193E+01  0.18219809193E+01  0.00000000000E+00 0.  1.
         23    2    1    2    0    0  0.00000000000E+00  0.00000000000E+00  0.10765219505E+04  0.10801659123E+04  0.88650370953E+02 0.  0.
          2    1    3    3  502    0  0.35372053375E+02 -0.18314060434E+02  0.77519825904E+03  0.77622092718E+03  0.00000000000E+00 0. -1.
         -2    1    3    3    0  502 -0.35372053375E+02  0.18314060434E+02  0.30132369145E+03  0.30394498515E+03  0.00000000000E+00 0.  1.
<mgrwt>
<rscale>  0 0.88650371E+02</rscale>
<asrwt>0</asrwt>
<pdfrwt beam="1">  1        1 0.16589856E+00 0.88650371E+02</pdfrwt>
<pdfrwt beam="2">  1       -1 0.28030562E-03 0.88650371E+02</pdfrwt>
<totfact> 0.14317328E+05</totfact>
</mgrwt>
</event>
<event>
 5    1  0.4023633E+001  0.9758533E+02  0.7546771E-02  0.1285457E+00
          1   -1    0    0  501    0  0.00000000000E+00  0.00000000000E+00  0.77844304241E+03  0.77844304241E+03  0.00000000000E+00 0. -1.
         -1   -1    0    0    0  501 -0.00000000000E+00 -0.00000000000E+00 -0.30583148738E+01  0.30583148738E+01  0.00000000000E+00 0.  1.
         23    2    1    2    0    0  0.00000000000E+00  0.00000000000E+00  0.77538472753E+03  0.78150135728E+03  0.97585325433E+02 0.  0.
          2    1    3    3  502    0  0.46387055693E+01  0.42547297111E+02  0.57532363875E+03  0.57691340719E+03  0.00000000000E+00 0. -1.
         -2    1    3    3    0  502 -0.46387055693E+01 -0.42547297111E+02  0.20006108878E+03  0.20458795010E+03  0.00000000000E+00 0.  1.
<mgrwt>
<rscale>  0 0.97585325E+02</rscale>
<asrwt>0</asrwt>
<pdfrwt beam="1">  1        1 0.11976031E+00 0.97585325E+02</pdfrwt>
<pdfrwt beam="2">  1       -1 0.47051060E-03 0.97585325E+02</pdfrwt>
<totfact> 0.11825292E+05</totfact>
</mgrwt>
</event>
<event>
 5    1  0.4023633E+001  0.9710791E+02  0.7546771E-02  0.1286498E+00
         -2   -1    0    0    0  501 -0.00000000000E+00  0.00000000000E+00  0.32814078253E+02  0.32814078253E+02  0.00000000000E+00 0.  1.
          2   -1    0    0  501    0  0.00000000000E+00 -0.00000000000E+00 -0.71843748006E+02  0.71843748006E+02  0.00000000000E+00 0. -1.
         23    2    1    2    0    0  0.00000000000E+00  0.00000000000E+00 -0.39029669752E+02  0.10465782626E+03  0.97107906353E+02 0.  0.
          2    1    3    3  502    0  0.45060311942E+02 -0.94377491810E+01 -0.36140942448E+02  0.58529228108E+02  0.00000000000E+00 0.  1.
         -2    1    3    3    0  502 -0.45060311942E+02  0.94377491810E+01 -0.28887273044E+01  0.46128598151E+02  0.00000000000E+00 0. -1.
<mgrwt>
<rscale>  0 0.97107906E+02</rscale>
<asrwt>0</asrwt>
<pdfrwt beam="2">  1        2 0.11052884E-01 0.97107906E+02</pdfrwt>
<pdfrwt beam="1">  1       -2 0.50483198E-02 0.97107906E+02</pdfrwt>
<totfact> 0.93331283E+04</totfact>
</mgrwt>
</event>
<event>
 5    1  0.4023633E+001  0.9311927E+02  0.7546771E-02  0.1295469E+00
         -1   -1    0    0    0  501 -0.00000000000E+00  0.00000000000E+00  0.20794390219E+01  0.20794390219E+01  0.00000000000E+00 0.  1.
          1   -1    0    0  501    0  0.00000000000E+00 -0.00000000000E+00 -0.10424925905E+04  0.10424925905E+04  0.00000000000E+00 0. -1.
         23    2    1    2    0    0  0.00000000000E+00  0.00000000000E+00 -0.10404131514E+04  0.10445720295E+04  0.93119273465E+02 0.  0.
          2    1    3    3  502    0 -0.18815792124E+01  0.43835451864E+02 -0.69496775555E+03  0.69635139724E+03  0.00000000000E+00 0. -1.
         -2    1    3    3    0  502  0.18815792124E+01 -0.43835451864E+02 -0.34544539590E+03  0.34822063226E+03  0.00000000000E+00 0.  1.
<mgrwt>
<rscale>  0 0.93119273E+02</rscale>
<asrwt>0</asrwt>
<pdfrwt beam="2">  1        1 0.16038292E+00 0.93119273E+02</pdfrwt>
<pdfrwt beam="1">  1       -1 0.31991480E-03 0.93119273E+02</pdfrwt>
<totfact> 0.12711218E+05</totfact>
</mgrwt>
</event>
<event>
 5    1  0.4023633E+001  0.9196578E+02  0.7546771E-02  0.1298160E+00
         -1   -1    0    0    0  501 -0.00000000000E+00  0.00000000000E+00  0.17830844583E+02  0.17830844583E+02  0.00000000000E+00 0.  1.
          1   -1    0    0  501    0  0.00000000000E+00 -0.00000000000E+00 -0.11858249153E+03  0.11858249153E+03  0.00000000000E+00 0. -1.
         23    2    1    2    0    0  0.00000000000E+00  0.00000000000E+00 -0.10075164695E+03  0.13641333612E+03  0.91965775739E+02 0.  0.
          2    1    3    3  502    0 -0.29240072185E+02 -0.12161383264E+02 -0.99828989343E+02  0.10473160066E+03  0.00000000000E+00 0. -1.
         -2    1    3    3    0  502  0.29240072185E+02  0.12161383264E+02 -0.92265760713E+00  0.31681735453E+02  0.00000000000E+00 0.  1.
<mgrwt>
<rscale>  0 0.91965776E+02</rscale>
<asrwt>0</asrwt>
<pdfrwt beam="2">  1        1 0.18243461E-01 0.91965776E+02</pdfrwt>
<pdfrwt beam="1">  1       -1 0.27432068E-02 0.91965776E+02</pdfrwt>
<totfact> 0.10502943E+05</totfact>
</mgrwt>
</event>
<event>
 5    1  0.4023633E+001  0.9385690E+02  0.7546771E-02  0.1293772E+00
         -1   -1    0    0    0  501 -0.00000000000E+00  0.00000000000E+00  0.12530653315E+04  0.12530653315E+04  0.00000000000E+00 0.  1.
          1   -1    0    0  501    0  0.00000000000E+00 -0.00000000000E+00 -0.17575137591E+01  0.17575137591E+01  0.00000000000E+00 0. -1.
         23    2    1    2    0    0  0.00000000000E+00  0.00000000000E+00  0.12513078177E+04  0.12548228452E+04  0.93856903019E+02 0.  0.
          2    1    3    3  502    0 -0.29266902061E+02 -0.36596107975E+02  0.59169191410E+03  0.59354456267E+03  0.00000000000E+00 0. -1.
         -2    1    3    3    0  502  0.29266902061E+02  0.36596107975E+02  0.65961590361E+03  0.66127828255E+03  0.00000000000E+00 0.  1.
<mgrwt>
<rscale>  0 0.93856903E+02</rscale>
<asrwt>0</asrwt>
<pdfrwt beam="2">  1        1 0.27038773E-03 0.93856903E+02</pdfrwt>
<pdfrwt beam="1">  1       -1 0.19277857E+00 0.93856903E+02</pdfrwt>
<totfact> 0.17438564E+04</totfact>
</mgrwt>
</event>
<event>
 5    1  0.4023633E+001  0.9010134E+02  0.7546771E-02  0.1302606E+00
         -1   -1    0    0    0  501 -0.00000000000E+00  0.00000000000E+00  0.24786449441E+03  0.24786449441E+03  0.00000000000E+00 0.  1.
          1   -1    0    0  501    0  0.00000000000E+00 -0.00000000000E+00 -0.81881945555E+01  0.81881945555E+01  0.00000000000E+00 0. -1.
         23    2    1    2    0    0  0.00000000000E+00  0.00000000000E+00  0.23967629986E+03  0.25605268897E+03  0.90101336364E+02 0.  0.
          2    1    3    3  502    0  0.34387426965E+02  0.84479140101E+01  0.40689211618E+02  0.53939543254E+02  0.00000000000E+00 0.  1.
         -2    1    3    3    0  502 -0.34387426965E+02 -0.84479140101E+01  0.19898708824E+03  0.20211314571E+03  0.00000000000E+00 0. -1.
<mgrwt>
<rscale>  0 0.90101336E+02</rscale>
<asrwt>0</asrwt>
<pdfrwt beam="2">  1        1 0.12597224E-02 0.90101336E+02</pdfrwt>
<pdfrwt beam="1">  1       -1 0.38132993E-01 0.90101336E+02</pdfrwt>
<totfact> 0.66994780E+04</totfact>
</mgrwt>
</event>
<event>
 5    1  0.4023633E+001  0.9163153E+02  0.7546771E-02  0.1298948E+00
         -1   -1    0    0    0  501 -0.00000000000E+00  0.00000000000E+00  0.31031406245E+01  0.31031406245E+01  0.00000000000E+00 0.  1.
          1   -1    0    0  501    0  0.00000000000E+00 -0.00000000000E+00 -0.67643862726E+03  0.67643862726E+03  0.00000000000E+00 0. -1.
         23    2    1    2    0    0  0.00000000000E+00  0.00000000000E+00 -0.67333548664E+03  0.67954176788E+03  0.91631526981E+02 0.  0.
          2    1    3    3  502    0  0.14454857432E+02 -0.30467887310E+02 -0.10666939954E+03  0.11187312394E+03  0.00000000000E+00 0. -1.
         -2    1    3    3    0  502 -0.14454857432E+02  0.30467887310E+02 -0.56666608709E+03  0.56766864395E+03  0.00000000000E+00 0.  1.
<mgrwt>
<rscale>  0 0.91631527E+02</rscale>
<asrwt>0</asrwt>
<pdfrwt beam="2">  1        1 0.10406752E+00 0.91631527E+02</pdfrwt>
<pdfrwt beam="1">  1       -1 0.47740607E-03 0.91631527E+02</pdfrwt>
<totfact> 0.14031884E+05</totfact>
</mgrwt>
</event>
<event>
 5    1  0.4023633E+001  0.9243765E+02  0.7546771E-02  0.1297054E+00
         -1   -1    0    0    0  501 -0.00000000000E+00  0.00000000000E+00  0.58239615088E+01  0.58239615088E+01  0.00000000000E+00 0.  1.
          1   -1    0    0  501    0  0.00000000000E+00 -0.00000000000E+00 -0.36679154607E+03  0.36679154607E+03  0.00000000000E+00 0. -1.
         23    2    1    2    0    0  0.00000000000E+00  0.00000000000E+00 -0.36096758456E+03  0.37261550758E+03  0.92437651334E+02 0.  0.
          2    1    3    3  502    0 -0.32109496392E+02  0.25272964250E+02 -0.26754179312E+03  0.27064433034E+03  0.00000000000E+00 0. -1.
         -2    1    3    3    0  502  0.32109496392E+02 -0.25272964250E+02 -0.93425791436E+02  0.10197117723E+03  0.00000000000E+00 0.  1.
<mgrwt>
<rscale>  0 0.92437651E+02</rscale>
<asrwt>0</asrwt>
<pdfrwt beam="2">  1        1 0.56429458E-01 0.92437651E+02</pdfrwt>
<pdfrwt beam="1">  1       -1 0.89599425E-03 0.92437651E+02</pdfrwt>
<totfact> 0.12815482E+05</totfact>
</mgrwt>
</event>
<event>
 5    1  0.4023633E+001  0.9056769E+02  0.7546771E-02  0.1301483E+00
          2   -1    0    0  501    0  0.00000000000E+00  0.00000000000E+00  0.15210741414E+04  0.15210741414E+04  0.00000000000E+00 0. -1.
         -2   -1    0    0    0  501 -0.00000000000E+00 -0.00000000000E+00 -0.13481436582E+01  0.13481436582E+01  0.00000000000E+00 0.  1.
         23    2    1    2    0    0  0.00000000000E+00  0.00000000000E+00  0.15197259977E+04  0.15224222851E+04  0.90567686454E+02 0.  0.
          2    1    3    3  502    0 -0.40618913118E+02  0.17319337358E+02  0.59111856962E+03  0.59276556824E+03  0.00000000000E+00 0. -1.
         -2    1    3    3    0  502  0.40618913118E+02 -0.17319337358E+02  0.92860742813E+03  0.92965671682E+03  0.00000000000E+00 0.  1.
<mgrwt>
<rscale>  0 0.90567686E+02</rscale>
<asrwt>0</asrwt>
<pdfrwt beam="1">  1        2 0.23401003E+00 0.90567686E+02</pdfrwt>
<pdfrwt beam="2">  1       -2 0.20740793E-03 0.90567686E+02</pdfrwt>
<totfact> 0.23887162E+05</totfact>
</mgrwt>
</event>
<event>
 5    1  0.4023633E+001  0.8650543E+02  0.7546771E-02  0.1311542E+00
         -2   -1    0    0    0  501 -0.00000000000E+00  0.00000000000E+00  0.85536208086E+01  0.85536208086E+01  0.00000000000E+00 0.  1.
          2   -1    0    0  501    0  0.00000000000E+00 -0.00000000000E+00 -0.21871410410E+03  0.21871410410E+03  0.00000000000E+00 0. -1.
         23    2    1    2    0    0  0.00000000000E+00  0.00000000000E+00 -0.21016048329E+03  0.22726772490E+03  0.86505433631E+02 0.  0.
          2    1    3    3  502    0  0.42057076107E+02  0.19883162937E+01 -0.13109443326E+03  0.13768987430E+03  0.00000000000E+00 0. -1.
         -2    1    3    3    0  502 -0.42057076107E+02 -0.19883162937E+01 -0.79066050023E+02  0.89577850603E+02  0.00000000000E+00 0.  1.
<mgrwt>
<rscale>  0 0.86505434E+02</rscale>
<asrwt>0</asrwt>
<pdfrwt beam="2">  1        2 0.33648327E-01 0.86505434E+02</pdfrwt>
<pdfrwt beam="1">  1       -2 0.13159416E-02 0.86505434E+02</pdfrwt>
<totfact> 0.18395068E+05</totfact>
</mgrwt>
</event>
<event>
 5    1  0.4023633E+001  0.9150815E+02  0.7546771E-02  0.1299240E+00
         -2   -1    0    0    0  501 -0.00000000000E+00  0.00000000000E+00  0.30116350814E+01  0.30116350814E+01  0.00000000000E+00 0.  1.
          2   -1    0    0  501    0  0.00000000000E+00 -0.00000000000E+00 -0.69511581724E+03  0.69511581724E+03  0.00000000000E+00 0. -1.
         23    2    1    2    0    0  0.00000000000E+00  0.00000000000E+00 -0.69210418216E+03  0.69812745232E+03  0.91508145667E+02 0.  0.
          2    1    3    3  502    0  0.38931590941E+02 -0.68117830760E-01 -0.52943099015E+03  0.53086047766E+03  0.00000000000E+00 0. -1.
         -2    1    3    3    0  502 -0.38931590941E+02  0.68117830760E-01 -0.16267319201E+03  0.16726697466E+03  0.00000000000E+00 0.  1.
<mgrwt>
<rscale>  0 0.91508146E+02</rscale>
<asrwt>0</asrwt>
<pdfrwt beam="2">  1        2 0.10694091E+00 0.91508146E+02</pdfrwt>
<pdfrwt beam="1">  1       -2 0.46332840E-03 0.91508146E+02</pdfrwt>
<totfact> 0.23449921E+05</totfact>
</mgrwt>
</event>
<event>
 5    1  0.4023633E+001  0.9028819E+02  0.7546771E-02  0.1302155E+00
         -2   -1    0    0    0  501 -0.00000000000E+00  0.00000000000E+00  0.15965101432E+01  0.15965101432E+01  0.00000000000E+00 0.  1.
          2   -1    0    0  501    0  0.00000000000E+00 -0.00000000000E+00 -0.12765276637E+04  0.12765276637E+04  0.00000000000E+00 0. -1.
         23    2    1    2    0    0  0.00000000000E+00  0.00000000000E+00 -0.12749311536E+04  0.12781241739E+04  0.90288191105E+02 0.  0.
          2    1    3    3  502    0 -0.11015694807E+02  0.20640527553E+02 -0.11840087443E+04  0.11842398759E+04  0.00000000000E+00 0. -1.
         -2    1    3    3    0  502  0.11015694807E+02 -0.20640527553E+02 -0.90922409256E+02  0.93884298020E+02  0.00000000000E+00 0.  1.
<mgrwt>
<rscale>  0 0.90288191E+02</rscale>
<asrwt>0</asrwt>
<pdfrwt beam="2">  1        2 0.19638924E+00 0.90288191E+02</pdfrwt>
<pdfrwt beam="1">  1       -2 0.24561648E-03 0.90288191E+02</pdfrwt>
<totfact> 0.25295754E+05</totfact>
</mgrwt>
</event>
<event>
 5    1  0.4023633E+001  0.8956872E+02  0.7546771E-02  0.1303899E+00
          1   -1    0    0  501    0  0.00000000000E+00  0.00000000000E+00  0.56681364533E+03  0.56681364533E+03  0.00000000000E+00 0. -1.
         -1   -1    0    0    0  501 -0.00000000000E+00 -0.00000000000E+00 -0.35384448842E+01  0.35384448842E+01  0.00000000000E+00 0.  1.
         23    2    1    2    0    0  0.00000000000E+00  0.00000000000E+00  0.56327520044E+03  0.57035209021E+03  0.89568718727E+02 0.  0.
          2    1    3    3  502    0 -0.20500826722E+02 -0.37741345406E+02  0.20085338843E+03  0.20539419829E+03  0.00000000000E+00 0. -1.
         -2    1    3    3    0  502  0.20500826722E+02  0.37741345406E+02  0.36242181202E+03  0.36495789192E+03  0.00000000000E+00 0.  1.
<mgrwt>
<rscale>  0 0.89568719E+02</rscale>
<asrwt>0</asrwt>
<pdfrwt beam="1">  1        1 0.87202027E-01 0.89568719E+02</pdfrwt>
<pdfrwt beam="2">  1       -1 0.54437659E-03 0.89568719E+02</pdfrwt>
<totfact> 0.14781792E+05</totfact>
</mgrwt>
</event>
<event>
 5    1  0.4023633E+001  0.9170821E+02  0.7546771E-02  0.1298767E+00
         -1   -1    0    0    0  501 -0.00000000000E+00  0.00000000000E+00  0.81798913917E+03  0.81798913917E+03  0.00000000000E+00 0.  1.
          1   -1    0    0  501    0  0.00000000000E+00 -0.00000000000E+00 -0.25704482820E+01  0.25704482820E+01  0.00000000000E+00 0. -1.
         23    2    1    2    0    0  0.00000000000E+00  0.00000000000E+00  0.81541869089E+03  0.82055958745E+03  0.91708206338E+02 0.  0.
          2    1    3    3  502    0  0.48092602190E+01  0.43688833424E+02  0.29078917559E+03  0.29409214167E+03  0.00000000000E+00 0. -1.
         -2    1    3    3    0  502 -0.48092602190E+01 -0.43688833424E+02  0.52462951530E+03  0.52646744579E+03  0.00000000000E+00 0.  1.
<mgrwt>
<rscale>  0 0.91708206E+02</rscale>
<asrwt>0</asrwt>
<pdfrwt beam="2">  1        1 0.39545424E-03 0.91708206E+02</pdfrwt>
<pdfrwt beam="1">  1       -1 0.12584428E+00 0.91708206E+02</pdfrwt>
<totfact> 0.31464860E+04</totfact>
</mgrwt>
</event>
<event>
 5    1  0.4023633E+001  0.9005673E+02  0.7546771E-02  0.1302714E+00
         -2   -1    0    0    0  501 -0.00000000000E+00  0.00000000000E+00  0.72786624677E+01  0.72786624677E+01  0.00000000000E+00 0.  1.
          2   -1    0    0  501    0  0.00000000000E+00 -0.00000000000E+00 -0.27856127038E+03  0.27856127038E+03  0.00000000000E+00 0. -1.
         23    2    1    2    0    0  0.00000000000E+00  0.00000000000E+00 -0.27128260791E+03  0.28583993285E+03  0.90056725760E+02 0.  0.
          2    1    3    3  502    0 -0.39322591148E+01  0.38255678217E+02 -0.20998295974E+03  0.21347553246E+03  0.00000000000E+00 0. -1.
         -2    1    3    3    0  502  0.39322591148E+01 -0.38255678217E+02 -0.61299648177E+02  0.72364400393E+02  0.00000000000E+00 0.  1.
<mgrwt>
<rscale>  0 0.90056726E+02</rscale>
<asrwt>0</asrwt>
<pdfrwt beam="2">  1        2 0.42855572E-01 0.90056726E+02</pdfrwt>
<pdfrwt beam="1">  1       -2 0.11197944E-02 0.90056726E+02</pdfrwt>
<totfact> 0.18062218E+05</totfact>
</mgrwt>
</event>
<event>
 5    1  0.4023633E+001  0.1201598E+03  0.7546771E-02  0.1242834E+00
         -2   -1    0    0    0  501 -0.00000000000E+00  0.00000000000E+00  0.17538385389E+01  0.17538385389E+01  0.00000000000E+00 0.  1.
          2   -1    0    0  501    0  0.00000000000E+00 -0.00000000000E+00 -0.20581097040E+04  0.20581097040E+04  0.00000000000E+00 0. -1.
         23    2    1    2    0    0  0.00000000000E+00  0.00000000000E+00 -0.20563558655E+04  0.20598635426E+04  0.12015976226E+03 0.  0.
          2    1    3    3  502    0  0.57262173320E+02  0.14618255400E+02 -0.84279699268E+03  0.84486651061E+03  0.00000000000E+00 0.  1.
         -2    1    3    3    0  502 -0.57262173320E+02 -0.14618255400E+02 -0.12135588728E+04  0.12149970320E+04  0.00000000000E+00 0. -1.
<mgrwt>
<rscale>  0 0.12015976E+03</rscale>
<asrwt>0</asrwt>
<pdfrwt beam="2">  1        2 0.31663112E+00 0.12015976E+03</pdfrwt>
<pdfrwt beam="1">  1       -2 0.26982229E-03 0.12015976E+03</pdfrwt>
<totfact> 0.91393426E+04</totfact>
</mgrwt>
</event>
<event>
 5    1  0.4023633E+001  0.9198742E+02  0.7546771E-02  0.1298109E+00
          1   -1    0    0  501    0  0.00000000000E+00  0.00000000000E+00  0.15723731119E+02  0.15723731119E+02  0.00000000000E+00 0. -1.
         -1   -1    0    0    0  501 -0.00000000000E+00 -0.00000000000E+00 -0.13453687057E+03  0.13453687057E+03  0.00000000000E+00 0.  1.
         23    2    1    2    0    0  0.00000000000E+00  0.00000000000E+00 -0.11881313945E+03  0.15026060169E+03  0.91987424759E+02 0.  0.
          2    1    3    3  502    0  0.37886911033E+02  0.64492768267E+01 -0.10067962627E+03  0.10776547845E+03  0.00000000000E+00 0. -1.
         -2    1    3    3    0  502 -0.37886911033E+02 -0.64492768267E+01 -0.18133513186E+02  0.42495123246E+02  0.00000000000E+00 0.  1.
<mgrwt>
<rscale>  0 0.91987425E+02</rscale>
<asrwt>0</asrwt>
<pdfrwt beam="1">  1        1 0.24190355E-02 0.91987425E+02</pdfrwt>
<pdfrwt beam="2">  1       -1 0.20697980E-01 0.91987425E+02</pdfrwt>
<totfact> 0.74913309E+04</totfact>
</mgrwt>
</event>
<event>
 5    1  0.4023633E+001  0.9098157E+02  0.7546771E-02  0.1300492E+00
         -3   -1    0    0    0  501 -0.00000000000E+00  0.00000000000E+00  0.21306936660E+02  0.21306936660E+02  0.00000000000E+00 0.  1.
          3   -1    0    0  501    0  0.00000000000E+00 -0.00000000000E+00 -0.97123830940E+02  0.97123830940E+02  0.00000000000E+00 0. -1.
         23    2    1    2    0    0  0.00000000000E+00  0.00000000000E+00 -0.75816894279E+02  0.11843076760E+03  0.90981565474E+02 0.  0.
          2    1    3    3  502    0 -0.20368307992E+02  0.40095010557E+02 -0.28990754892E+02  0.53506464200E+02  0.00000000000E+00 0. -1.
         -2    1    3    3    0  502  0.20368307992E+02 -0.40095010557E+02 -0.46826139387E+02  0.64924303400E+02  0.00000000000E+00 0.  1.
<mgrwt>
<rscale>  0 0.90981565E+02</rscale>
<asrwt>0</asrwt>
<pdfrwt beam="2">  1        3 0.14942128E-01 0.90981565E+02</pdfrwt>
<pdfrwt beam="1">  1       -3 0.32779902E-02 0.90981565E+02</pdfrwt>
<totfact> 0.33548883E+04</totfact>
</mgrwt>
</event>
<event>
 5    1  0.4023633E+001  0.9106988E+02  0.7546771E-02  0.1300281E+00
         -2   -1    0    0    0  501 -0.00000000000E+00  0.00000000000E+00  0.98255947373E+02  0.98255947373E+02  0.00000000000E+00 0.  1.
          2   -1    0    0  501    0  0.00000000000E+00 -0.00000000000E+00 -0.21102345342E+02  0.21102345342E+02  0.00000000000E+00 0. -1.
         23    2    1    2    0    0  0.00000000000E+00  0.00000000000E+00  0.77153602031E+02  0.11935829271E+03  0.91069883789E+02 0.  0.
          2    1    3    3  502    0  0.41563234608E+02 -0.83711347158E+01  0.16808911244E+02  0.45608309163E+02  0.00000000000E+00 0. -1.
         -2    1    3    3    0  502 -0.41563234608E+02  0.83711347158E+01  0.60344690788E+02  0.73749983551E+02  0.00000000000E+00 0.  1.
<mgrwt>
<rscale>  0 0.91069884E+02</rscale>
<asrwt>0</asrwt>
<pdfrwt beam="2">  1        2 0.32465147E-02 0.91069884E+02</pdfrwt>
<pdfrwt beam="1">  1       -2 0.15116299E-01 0.91069884E+02</pdfrwt>
<totfact> 0.80459590E+04</totfact>
</mgrwt>
</event>
<event>
 5    1  0.4023633E+001  0.9122077E+02  0.7546771E-02  0.1299922E+00
          1   -1    0    0  501    0  0.00000000000E+00  0.00000000000E+00  0.10583533354E+02  0.10583533354E+02  0.00000000000E+00 0. -1.
         -1   -1    0    0    0  501 -0.00000000000E+00 -0.00000000000E+00 -0.19656074895E+03  0.19656074895E+03  0.00000000000E+00 0.  1.
         23    2    1    2    0    0  0.00000000000E+00  0.00000000000E+00 -0.18597721560E+03  0.20714428230E+03  0.91220770499E+02 0.  0.
          2    1    3    3  502    0 -0.53602376936E+01  0.28830248229E+02 -0.13660176016E+02  0.32349895979E+02  0.00000000000E+00 0. -1.
         -2    1    3    3    0  502  0.53602376936E+01 -0.28830248229E+02 -0.17231703958E+03  0.17479438633E+03  0.00000000000E+00 0.  1.
<mgrwt>
<rscale>  0 0.91220770E+02</rscale>
<asrwt>0</asrwt>
<pdfrwt beam="1">  1        1 0.16282359E-02 0.91220770E+02</pdfrwt>
<pdfrwt beam="2">  1       -1 0.30240116E-01 0.91220770E+02</pdfrwt>
<totfact> 0.69680190E+04</totfact>
</mgrwt>
</event>
<event>
 5    1  0.4023633E+001  0.9219552E+02  0.7546771E-02  0.1297620E+00
          1   -1    0    0  501    0  0.00000000000E+00  0.00000000000E+00  0.89138229697E+01  0.89138229697E+01  0.00000000000E+00 0. -1.
         -1   -1    0    0    0  501 -0.00000000000E+00 -0.00000000000E+00 -0.23839415712E+03  0.23839415712E+03  0.00000000000E+00 0.  1.
         23    2    1    2    0    0  0.00000000000E+00  0.00000000000E+00 -0.22948033415E+03  0.24730798009E+03  0.92195516454E+02 0.  0.
          2    1    3    3  502    0 -0.30405406156E+02 -0.12254143042E+02 -0.27805005374E+02  0.42985707730E+02  0.00000000000E+00 0. -1.
         -2    1    3    3    0  502  0.30405406156E+02  0.12254143042E+02 -0.20167532877E+03  0.20432227236E+03  0.00000000000E+00 0.  1.
<mgrwt>
<rscale>  0 0.92195516E+02</rscale>
<asrwt>0</asrwt>
<pdfrwt beam="1">  1        1 0.13713575E-02 0.92195516E+02</pdfrwt>
<pdfrwt beam="2">  1       -1 0.36676021E-01 0.92195516E+02</pdfrwt>
<totfact> 0.63914438E+04</totfact>
</mgrwt>
</event>
<event>
 5    1  0.4023633E+001  0.9039085E+02  0.7546771E-02  0.1301908E+00
          2   -1    0    0  501    0  0.00000000000E+00  0.00000000000E+00  0.46077687247E+03  0.46077687247E+03  0.00000000000E+00 0. -1.
         -2   -1    0    0    0  501 -0.00000000000E+00 -0.00000000000E+00 -0.44330051530E+01  0.44330051530E+01  0.00000000000E+00 0.  1.
         23    2    1    2    0    0  0.00000000000E+00  0.00000000000E+00  0.45634386731E+03  0.46520987762E+03  0.90390845776E+02 0.  0.
          2    1    3    3  502    0 -0.28005052655E+02 -0.34820372237E+02  0.26303452164E+03  0.26680311256E+03  0.00000000000E+00 0. -1.
         -2    1    3    3    0  502  0.28005052655E+02  0.34820372237E+02  0.19330934568E+03  0.19840676506E+03  0.00000000000E+00 0.  1.
<mgrwt>
<rscale>  0 0.90390846E+02</rscale>
<asrwt>0</asrwt>
<pdfrwt beam="1">  1        2 0.70888712E-01 0.90390846E+02</pdfrwt>
<pdfrwt beam="2">  1       -2 0.68200116E-03 0.90390846E+02</pdfrwt>
<totfact> 0.21458847E+05</totfact>
</mgrwt>
</event>
<event>
 5    1  0.4023633E+001  0.9564384E+02  0.7546771E-02  0.1289733E+00
          2   -1    0    0  501    0  0.00000000000E+00  0.00000000000E+00  0.87759015960E+03  0.87759015960E+03  0.00000000000E+00 0. -1.
         -2   -1    0    0    0  501 -0.00000000000E+00 -0.00000000000E+00 -0.26059272114E+01  0.26059272114E+01  0.00000000000E+00 0.  1.
         23    2    1    2    0    0  0.00000000000E+00  0.00000000000E+00  0.87498423239E+03  0.88019608681E+03  0.95643840938E+02 0.  0.
          2    1    3    3  502    0  0.54559388829E+01 -0.47361186290E+02  0.40295156700E+03  0.40576201718E+03  0.00000000000E+00 0. -1.
         -2    1    3    3    0  502 -0.54559388829E+01  0.47361186290E+02  0.47203266539E+03  0.47443406963E+03  0.00000000000E+00 0.  1.
<mgrwt>
<rscale>  0 0.95643841E+02</rscale>
<asrwt>0</asrwt>
<pdfrwt beam="1">  1        2 0.13501364E+00 0.95643841E+02</pdfrwt>
<pdfrwt beam="2">  1       -2 0.40091258E-03 0.95643841E+02</pdfrwt>
<totfact> 0.21786372E+05</totfact>
</mgrwt>
</event>
<event>
 5    1  0.4023633E+001  0.9198771E+02  0.7546771E-02  0.1298108E+00
         -3   -1    0    0    0  501 -0.00000000000E+00  0.00000000000E+00  0.26909676843E+02  0.26909676843E+02  0.00000000000E+00 0.  1.
          3   -1    0    0  501    0  0.00000000000E+00 -0.00000000000E+00 -0.78612421365E+02  0.78612421365E+02  0.00000000000E+00 0. -1.
         23    2    1    2    0    0  0.00000000000E+00  0.00000000000E+00 -0.51702744522E+02  0.10552209821E+03  0.91987713414E+02 0.  0.
          2    1    3    3  502    0 -0.24701284091E+02  0.36849590903E+02 -0.39778008528E+02  0.59584693906E+02  0.00000000000E+00 0. -1.
         -2    1    3    3    0  502  0.24701284091E+02 -0.36849590903E+02 -0.11924735994E+02  0.45937404302E+02  0.00000000000E+00 0.  1.
<mgrwt>
<rscale>  0 0.91987713E+02</rscale>
<asrwt>0</asrwt>
<pdfrwt beam="2">  1        3 0.12094218E-01 0.91987713E+02</pdfrwt>
<pdfrwt beam="1">  1       -3 0.41399504E-02 0.91987713E+02</pdfrwt>
<totfact> 0.33449402E+04</totfact>
</mgrwt>
</event>
<event>
 5    1  0.4023633E+001  0.9176672E+02  0.7546771E-02  0.1298629E+00
          1   -1    0    0  501    0  0.00000000000E+00  0.00000000000E+00  0.33931363118E+03  0.33931363118E+03  0.00000000000E+00 0. -1.
         -1   -1    0    0    0  501 -0.00000000000E+00 -0.00000000000E+00 -0.62045334914E+01  0.62045334914E+01  0.00000000000E+00 0.  1.
         23    2    1    2    0    0  0.00000000000E+00  0.00000000000E+00  0.33310909768E+03  0.34551816467E+03  0.91766721391E+02 0.  0.
          2    1    3    3  502    0  0.72569894237E+01 -0.24688843502E+02  0.30958577354E+03  0.31065343080E+03  0.00000000000E+00 0. -1.
         -2    1    3    3    0  502 -0.72569894237E+01  0.24688843502E+02  0.23523324149E+02  0.34864733872E+02  0.00000000000E+00 0.  1.
<mgrwt>
<rscale>  0 0.91766721E+02</rscale>
<asrwt>0</asrwt>
<pdfrwt beam="1">  1        1 0.52202083E-01 0.91766721E+02</pdfrwt>
<pdfrwt beam="2">  1       -1 0.95454388E-03 0.91766721E+02</pdfrwt>
<totfact> 0.12886661E+05</totfact>
</mgrwt>
</event>
<event>
 5    1  0.4023633E+001  0.9337343E+02  0.7546771E-02  0.1294882E+00
          1   -1    0    0  501    0  0.00000000000E+00  0.00000000000E+00  0.13071688546E+04  0.13071688546E+04  0.00000000000E+00 0. -1.
         -1   -1    0    0    0  501 -0.00000000000E+00 -0.00000000000E+00 -0.16674581646E+01  0.16674581646E+01  0.00000000000E+00 0.  1.
         23    2    1    2    0    0  0.00000000000E+00  0.00000000000E+00  0.13055013964E+04  0.13088363128E+04  0.93373430463E+02 0.  0.
          2    1    3    3  502    0  0.19905438325E+02 -0.22628453866E+02  0.11525538863E+04  0.11529478454E+04  0.00000000000E+00 0. -1.
         -2    1    3    3    0  502 -0.19905438325E+02  0.22628453866E+02  0.15294751018E+03  0.15588846740E+03  0.00000000000E+00 0.  1.
<mgrwt>
<rscale>  0 0.93373430E+02</rscale>
<asrwt>0</asrwt>
<pdfrwt beam="1">  1        1 0.20110208E+00 0.93373430E+02</pdfrwt>
<pdfrwt beam="2">  1       -1 0.25653307E-03 0.93373430E+02</pdfrwt>
<totfact> 0.11424343E+05</totfact>
</mgrwt>
</event>
<event>
 5    1  0.4023633E+001  0.9153219E+02  0.7546771E-02  0.1299183E+00
          1   -1    0    0  501    0  0.00000000000E+00  0.00000000000E+00  0.18196543227E+04  0.18196543227E+04  0.00000000000E+00 0. -1.
         -1   -1    0    0    0  501 -0.00000000000E+00 -0.00000000000E+00 -0.11510622083E+01  0.11510622083E+01  0.00000000000E+00 0.  1.
         23    2    1    2    0    0  0.00000000000E+00  0.00000000000E+00  0.18185032605E+04  0.18208053849E+04  0.91532187192E+02 0.  0.
          2    1    3    3  502    0 -0.26563044900E+02  0.33414179535E+02  0.12375881620E+04  0.12383240939E+04  0.00000000000E+00 0. -1.
         -2    1    3    3    0  502  0.26563044900E+02 -0.33414179535E+02  0.58091509848E+03  0.58248129102E+03  0.00000000000E+00 0.  1.
<mgrwt>
<rscale>  0 0.91532187E+02</rscale>
<asrwt>0</asrwt>
<pdfrwt beam="1">  1        1 0.27994452E+00 0.91532187E+02</pdfrwt>
<pdfrwt beam="2">  1       -1 0.17708795E-03 0.91532187E+02</pdfrwt>
<totfact> 0.89828230E+04</totfact>
</mgrwt>
</event>
<event>
 5    1  0.4023633E+001  0.9018067E+02  0.7546771E-02  0.1302415E+00
          1   -1    0    0  501    0  0.00000000000E+00  0.00000000000E+00  0.47239907624E+03  0.47239907624E+03  0.00000000000E+00 0. -1.
         -1   -1    0    0    0  501 -0.00000000000E+00 -0.00000000000E+00 -0.43038576429E+01  0.43038576429E+01  0.00000000000E+00 0.  1.
         23    2    1    2    0    0  0.00000000000E+00  0.00000000000E+00  0.46809521859E+03  0.47670293388E+03  0.90180671427E+02 0.  0.
          2    1    3    3  502    0  0.25963261956E+02  0.12724893519E+01  0.42880448091E+03  0.42959165850E+03  0.00000000000E+00 0. -1.
         -2    1    3    3    0  502 -0.25963261956E+02 -0.12724893519E+01  0.39290737684E+02  0.47111275384E+02  0.00000000000E+00 0.  1.
<mgrwt>
<rscale>  0 0.90180671E+02</rscale>
<asrwt>0</asrwt>
<pdfrwt beam="1">  1        1 0.72676740E-01 0.90180671E+02</pdfrwt>
<pdfrwt beam="2">  1       -1 0.66213232E-03 0.90180671E+02</pdfrwt>
<totfact> 0.14236155E+05</totfact>
</mgrwt>
</event>
<event>
 5    1  0.4023633E+001  0.8893354E+02  0.7546771E-02  0.1305455E+00
         -3   -1    0    0    0  501 -0.00000000000E+00  0.00000000000E+00  0.48393703726E+01  0.48393703726E+01  0.00000000000E+00 0.  1.
          3   -1    0    0  501    0  0.00000000000E+00 -0.00000000000E+00 -0.40858490470E+03  0.40858490470E+03  0.00000000000E+00 0. -1.
         23    2    1    2    0    0  0.00000000000E+00  0.00000000000E+00 -0.40374553432E+03  0.41342427507E+03  0.88933541085E+02 0.  0.
          2    1    3    3  502    0 -0.40838960937E+02 -0.30046045200E+01 -0.28245013907E+03  0.28540309992E+03  0.00000000000E+00 0. -1.
         -2    1    3    3    0  502  0.40838960937E+02  0.30046045200E+01 -0.12129539525E+03  0.12802117515E+03  0.00000000000E+00 0.  1.
<mgrwt>
<rscale>  0 0.88933541E+02</rscale>
<asrwt>0</asrwt>
<pdfrwt beam="2">  1        3 0.62859215E-01 0.88933541E+02</pdfrwt>
<pdfrwt beam="1">  1       -3 0.74451854E-03 0.88933541E+02</pdfrwt>
<totfact> 0.21604462E+04</totfact>
</mgrwt>
</event>
<event>
 5    1  0.4023633E+001  0.8985472E+02  0.7546771E-02  0.1303204E+00
          1   -1    0    0  501    0  0.00000000000E+00  0.00000000000E+00  0.63703135708E+01  0.63703135708E+01  0.00000000000E+00 0. -1.
         -1   -1    0    0    0  501 -0.00000000000E+00 -0.00000000000E+00 -0.31685529974E+03  0.31685529974E+03  0.00000000000E+00 0.  1.
         23    2    1    2    0    0  0.00000000000E+00  0.00000000000E+00 -0.31048498617E+03  0.32322561331E+03  0.89854718650E+02 0.  0.
          2    1    3    3  502    0 -0.36476476478E+02 -0.22490707745E+02 -0.10669993617E+03  0.11498365819E+03  0.00000000000E+00 0. -1.
         -2    1    3    3    0  502  0.36476476478E+02  0.22490707745E+02 -0.20378505000E+03  0.20824195513E+03  0.00000000000E+00 0.  1.
<mgrwt>
<rscale>  0 0.89854719E+02</rscale>
<asrwt>0</asrwt>
<pdfrwt beam="1">  1        1 0.98004833E-03 0.89854719E+02</pdfrwt>
<pdfrwt beam="2">  1       -1 0.48746965E-01 0.89854719E+02</pdfrwt>
<totfact> 0.61573559E+04</totfact>
</mgrwt>
</event>
<event>
 5    1  0.4023633E+001  0.9304805E+02  0.7546771E-02  0.1295634E+00
         -2   -1    0    0    0  501 -0.00000000000E+00  0.00000000000E+00  0.28883996048E+01  0.28883996048E+01  0.00000000000E+00 0.  1.
          2   -1    0    0  501    0  0.00000000000E+00 -0.00000000000E+00 -0.74937176607E+03  0.74937176607E+03  0.00000000000E+00 0. -1.
         23    2    1    2    0    0  0.00000000000E+00  0.00000000000E+00 -0.74648336647E+03  0.75226016568E+03  0.93048054531E+02 0.  0.
          2    1    3    3  502    0 -0.20766035079E+02  0.41092529987E+02 -0.42727036892E+03  0.42974386836E+03  0.00000000000E+00 0. -1.
         -2    1    3    3    0  502  0.20766035079E+02 -0.41092529987E+02 -0.31921299755E+03  0.32251629732E+03  0.00000000000E+00 0.  1.
<mgrwt>
<rscale>  0 0.93048055E+02</rscale>
<asrwt>0</asrwt>
<pdfrwt beam="2">  1        2 0.11528806E+00 0.93048055E+02</pdfrwt>
<pdfrwt beam="1">  1       -2 0.44436878E-03 0.93048055E+02</pdfrwt>
<totfact> 0.22814912E+05</totfact>
</mgrwt>
</event>
<event>
 5    1  0.4023633E+001  0.8969032E+02  0.7546771E-02  0.1303603E+00
          2   -1    0    0  501    0  0.00000000000E+00  0.00000000000E+00  0.39126365829E+01  0.39126365829E+01  0.00000000000E+00 0.  1.
         -2   -1    0    0    0  501 -0.00000000000E+00 -0.00000000000E+00 -0.51399831024E+03  0.51399831024E+03  0.00000000000E+00 0. -1.
         23    2    1    2    0    0  0.00000000000E+00  0.00000000000E+00 -0.51008567366E+03  0.51791094682E+03  0.89690324834E+02 0.  0.
          2    1    3    3  502    0  0.44540450498E+02 -0.46483090935E+01 -0.26874429971E+03  0.27244991675E+03  0.00000000000E+00 0. -1.
         -2    1    3    3    0  502 -0.44540450498E+02  0.46483090935E+01 -0.24134137394E+03  0.24546103007E+03  0.00000000000E+00 0.  1.
<mgrwt>
<rscale>  0 0.89690325E+02</rscale>
<asrwt>0</asrwt>
<pdfrwt beam="1">  1        2 0.60194415E-03 0.89690325E+02</pdfrwt>
<pdfrwt beam="2">  1       -2 0.79076655E-01 0.89690325E+02</pdfrwt>
<totfact> 0.37070900E+04</totfact>
</mgrwt>
</event>
<event>
 5    1  0.4023633E+001  0.8527478E+02  0.7546771E-02  0.1314716E+00
          2   -1    0    0  501    0  0.00000000000E+00  0.00000000000E+00  0.13424902615E+02  0.13424902615E+02  0.00000000000E+00 0. -1.
         -2   -1    0    0    0  501 -0.00000000000E+00 -0.00000000000E+00 -0.13541603628E+03  0.13541603628E+03  0.00000000000E+00 0.  1.
         23    2    1    2    0    0  0.00000000000E+00  0.00000000000E+00 -0.12199113366E+03  0.14884093889E+03  0.85274781723E+02 0.  0.
          2    1    3    3  502    0 -0.20847921934E+02  0.16057326791E+02 -0.24398337221E+01  0.26427757779E+02  0.00000000000E+00 0. -1.
         -2    1    3    3    0  502  0.20847921934E+02 -0.16057326791E+02 -0.11955129994E+03  0.12241318111E+03  0.00000000000E+00 0.  1.
<mgrwt>
<rscale>  0 0.85274782E+02</rscale>
<asrwt>0</asrwt>
<pdfrwt beam="1">  1        2 0.20653696E-02 0.85274782E+02</pdfrwt>
<pdfrwt beam="2">  1       -2 0.20833236E-01 0.85274782E+02</pdfrwt>
<totfact> 0.85736511E+04</totfact>
</mgrwt>
</event>
<event>
 5    1  0.4023633E+001  0.9296444E+02  0.7546771E-02  0.1295828E+00
          2   -1    0    0  501    0  0.00000000000E+00  0.00000000000E+00  0.50198616034E+01  0.50198616034E+01  0.00000000000E+00 0. -1.
         -2   -1    0    0    0  501 -0.00000000000E+00 -0.00000000000E+00 -0.43040962627E+03  0.43040962627E+03  0.00000000000E+00 0.  1.
         23    2    1    2    0    0  0.00000000000E+00  0.00000000000E+00 -0.42538976467E+03  0.43542948788E+03  0.92964439581E+02 0.  0.
          2    1    3    3  502    0 -0.43057123393E+02 -0.52247336852E+00 -0.13070675580E+03  0.13761702244E+03  0.00000000000E+00 0. -1.
         -2    1    3    3    0  502  0.43057123393E+02  0.52247336852E+00 -0.29468300887E+03  0.29781246544E+03  0.00000000000E+00 0.  1.
<mgrwt>
<rscale>  0 0.92964440E+02</rscale>
<asrwt>0</asrwt>
<pdfrwt beam="1">  1        2 0.77228625E-03 0.92964440E+02</pdfrwt>
<pdfrwt beam="2">  1       -2 0.66216879E-01 0.92964440E+02</pdfrwt>
<totfact> 0.38590189E+04</totfact>
</mgrwt>
</event>
<event>
 5    1  0.4023633E+001  0.9142731E+02  0.7546771E-02  0.1299432E+00
         -2   -1    0    0    0  501 -0.00000000000E+00  0.00000000000E+00  0.87705032530E+00  0.87705032530E+00  0.00000000000E+00 0.  1.
          2   -1    0    0  501    0  0.00000000000E+00 -0.00000000000E+00 -0.23826888621E+04  0.23826888621E+04  0.00000000000E+00 0. -1.
         23    2    1    2    0    0  0.00000000000E+00  0.00000000000E+00 -0.23818118118E+04  0.23835659125E+04  0.91427305366E+02 0.  0.
          2    1    3    3  502    0  0.66281138961E+01  0.34915863169E+02 -0.19404932280E+04  0.19408186461E+04  0.00000000000E+00 0. -1.
         -2    1    3    3    0  502 -0.66281138961E+01 -0.34915863169E+02 -0.44131858383E+03  0.44274726632E+03  0.00000000000E+00 0.  1.
<mgrwt>
<rscale>  0 0.91427305E+02</rscale>
<asrwt>0</asrwt>
<pdfrwt beam="2">  1        2 0.36655831E+00 0.91427305E+02</pdfrwt>
<pdfrwt beam="1">  1       -2 0.13493421E-03 0.91427305E+02</pdfrwt>
<totfact> 0.15888843E+05</totfact>
</mgrwt>
</event>
<event>
 5    1  0.4023633E+001  0.9136220E+02  0.7546771E-02  0.1299586E+00
         -3   -1    0    0    0  501 -0.00000000000E+00  0.00000000000E+00  0.17936677473E+02  0.17936677473E+02  0.00000000000E+00 0.  1.
          3   -1    0    0  501    0  0.00000000000E+00 -0.00000000000E+00 -0.11634055066E+03  0.11634055066E+03  0.00000000000E+00 0. -1.
         23    2    1    2    0    0  0.00000000000E+00  0.00000000000E+00 -0.98403873191E+02  0.13427722814E+03  0.91362200811E+02 0.  0.
          2    1    3    3  502    0  0.17377251628E+02  0.34322561955E+02 -0.85404788479E+02  0.93669552302E+02  0.00000000000E+00 0. -1.
         -2    1    3    3    0  502 -0.17377251628E+02 -0.34322561955E+02 -0.12999084712E+02  0.40607675834E+02  0.00000000000E+00 0.  1.
<mgrwt>
<rscale>  0 0.91362201E+02</rscale>
<asrwt>0</asrwt>
<pdfrwt beam="2">  1        3 0.17898546E-01 0.91362201E+02</pdfrwt>
<pdfrwt beam="1">  1       -3 0.27594888E-02 0.91362201E+02</pdfrwt>
<totfact> 0.32119031E+04</totfact>
</mgrwt>
</event>
<event>
 5    1  0.4023633E+001  0.9158746E+02  0.7546771E-02  0.1299052E+00
         -2   -1    0    0    0  501 -0.00000000000E+00  0.00000000000E+00  0.59789466522E+02  0.59789466522E+02  0.00000000000E+00 0.  1.
          2   -1    0    0  501    0  0.00000000000E+00 -0.00000000000E+00 -0.35074164215E+02  0.35074164215E+02  0.00000000000E+00 0. -1.
         23    2    1    2    0    0  0.00000000000E+00  0.00000000000E+00  0.24715302307E+02  0.94863630737E+02  0.91587456939E+02 0.  0.
          2    1    3    3  502    0  0.20335615556E+02  0.35851568555E+02  0.33026235793E+02  0.52816706434E+02  0.00000000000E+00 0.  1.
         -2    1    3    3    0  502 -0.20335615556E+02 -0.35851568555E+02 -0.83109334861E+01  0.42046924303E+02  0.00000000000E+00 0. -1.
<mgrwt>
<rscale>  0 0.91587457E+02</rscale>
<asrwt>0</asrwt>
<pdfrwt beam="2">  1        2 0.53960253E-02 0.91587457E+02</pdfrwt>
<pdfrwt beam="1">  1       -2 0.91983794E-02 0.91587457E+02</pdfrwt>
<totfact> 0.90982055E+04</totfact>
</mgrwt>
</event>
<event>
 5    1  0.4023633E+001  0.9303473E+02  0.7546771E-02  0.1295665E+00
         -2   -1    0    0    0  501 -0.00000000000E+00  0.00000000000E+00  0.52996960498E+01  0.52996960498E+01  0.00000000000E+00 0.  1.
          2   -1    0    0  501    0  0.00000000000E+00 -0.00000000000E+00 -0.40829987793E+03  0.40829987793E+03  0.00000000000E+00 0. -1.
         23    2    1    2    0    0  0.00000000000E+00  0.00000000000E+00 -0.40300018188E+03  0.41359957398E+03  0.93034730079E+02 0.  0.
          2    1    3    3  502    0  0.23709271573E+02  0.20408566074E+02 -0.35455088537E+03  0.35592832066E+03  0.00000000000E+00 0. -1.
         -2    1    3    3    0  502 -0.23709271573E+02 -0.20408566074E+02 -0.48449296509E+02  0.57671253324E+02  0.00000000000E+00 0.  1.
<mgrwt>
<rscale>  0 0.93034730E+02</rscale>
<asrwt>0</asrwt>
<pdfrwt beam="2">  1        2 0.62815366E-01 0.93034730E+02</pdfrwt>
<pdfrwt beam="1">  1       -2 0.81533785E-03 0.93034730E+02</pdfrwt>
<totfact> 0.19059268E+05</totfact>
</mgrwt>
</event>
<event>
 4    1  0.4023633E+001  0.1474837E+03  0.7546771E-02  0.1203600E+00
          3   -1    0    0  501    0  0.00000000000E+00  0.00000000000E+00  0.16257205282E+02  0.16257205282E+02  0.00000000000E+00 0. -1.
         -3   -1    0    0    0  501 -0.00000000000E+00 -0.00000000000E+00 -0.33448917154E+03  0.33448917154E+03  0.00000000000E+00 0.  1.
          2    1    1    2  502    0  0.30124967275E+02 -0.36193862477E+02 -0.24157326992E+02  0.52925284900E+02  0.00000000000E+00 0. -1.
         -2    1    1    2    0  502 -0.30124967275E+02  0.36193862477E+02 -0.29407463926E+03  0.29782109192E+03  0.00000000000E+00 0.  1.
<mgrwt>
<rscale>  0 0.14748368E+03</rscale>
<asrwt>0</asrwt>
<pdfrwt beam="1">  1        3 0.25011087E-02 0.14748368E+03</pdfrwt>
<pdfrwt beam="2">  1       -3 0.51459868E-01 0.14748368E+03</pdfrwt>
<totfact> 0.58906528E+03</totfact>
</mgrwt>
</event>
<event>
 5    1  0.4023633E+001  0.9256181E+02  0.7546771E-02  0.1296764E+00
         -1   -1    0    0    0  501 -0.00000000000E+00  0.00000000000E+00  0.13471076032E+03  0.13471076032E+03  0.00000000000E+00 0.  1.
          1   -1    0    0  501    0  0.00000000000E+00 -0.00000000000E+00 -0.15900157989E+02  0.15900157989E+02  0.00000000000E+00 0. -1.
         23    2    1    2    0    0  0.00000000000E+00  0.00000000000E+00  0.11881060233E+03  0.15061091831E+03  0.92561814414E+02 0.  0.
          2    1    3    3  502    0  0.30891346838E+02 -0.31252955404E+01  0.11524911179E+03  0.11935828648E+03  0.00000000000E+00 0.  1.
         -2    1    3    3    0  502 -0.30891346838E+02  0.31252955404E+01  0.35614905407E+01  0.31252631834E+02  0.00000000000E+00 0. -1.
<mgrwt>
<rscale>  0 0.92561814E+02</rscale>
<asrwt>0</asrwt>
<pdfrwt beam="2">  1        1 0.24461782E-02 0.92561814E+02</pdfrwt>
<pdfrwt beam="1">  1       -1 0.20724732E-01 0.92561814E+02</pdfrwt>
<totfact> 0.73692256E+04</totfact>
</mgrwt>
</event>
<event>
 5    1  0.4023633E+001  0.9127485E+02  0.7546771E-02  0.1299794E+00
         -2   -1    0    0    0  501 -0.00000000000E+00  0.00000000000E+00  0.19709574331E+02  0.19709574331E+02  0.00000000000E+00 0.  1.
          2   -1    0    0  501    0  0.00000000000E+00 -0.00000000000E+00 -0.10567323537E+03  0.10567323537E+03  0.00000000000E+00 0. -1.
         23    2    1    2    0    0  0.00000000000E+00  0.00000000000E+00 -0.85963661042E+02  0.12538280970E+03  0.91274848395E+02 0.  0.
          2    1    3    3  502    0 -0.33491910953E+02 -0.33182569133E+01 -0.85322856683E+02  0.91720819887E+02  0.00000000000E+00 0. -1.
         -2    1    3    3    0  502  0.33491910953E+02  0.33182569133E+01 -0.64080435948E+00  0.33661989817E+02  0.00000000000E+00 0.  1.
<mgrwt>
<rscale>  0 0.91274848E+02</rscale>
<asrwt>0</asrwt>
<pdfrwt beam="2">  1        2 0.16257420E-01 0.91274848E+02</pdfrwt>
<pdfrwt beam="1">  1       -2 0.30322423E-02 0.91274848E+02</pdfrwt>
<totfact> 0.12440315E+05</totfact>
</mgrwt>
</event>
<event>
 5    1  0.4023633E+001  0.9304229E+02  0.7546771E-02  0.1295647E+00
         -2   -1    0    0    0  501 -0.00000000000E+00  0.00000000000E+00  0.23015712375E+01  0.23015712375E+01  0.00000000000E+00 0.  1.
          2   -1    0    0  501    0  0.00000000000E+00 -0.00000000000E+00 -0.94032158412E+03  0.94032158412E+03  0.00000000000E+00 0. -1.
         23    2    1    2    0    0  0.00000000000E+00  0.00000000000E+00 -0.93802001288E+03  0.94262315536E+03  0.93042293867E+02 0.  0.
          2    1    3    3  502    0  0.44194986239E+01 -0.34063020564E+02 -0.78687490010E+03  0.78762423131E+03  0.00000000000E+00 0. -1.
         -2    1    3    3    0  502 -0.44194986239E+01  0.34063020564E+02 -0.15114511278E+03  0.15499892404E+03  0.00000000000E+00 0.  1.
<mgrwt>
<rscale>  0 0.93042294E+02</rscale>
<asrwt>0</asrwt>
<pdfrwt beam="2">  1        2 0.14466503E+00 0.93042294E+02</pdfrwt>
<pdfrwt beam="1">  1       -2 0.35408745E-03 0.93042294E+02</pdfrwt>
<totfact> 0.23607267E+05</totfact>
</mgrwt>
</event>
<event>
 5    1  0.4023633E+001  0.7629528E+02  0.7546771E-02  0.1339906E+00
          1   -1    0    0  501    0  0.00000000000E+00  0.00000000000E+00  0.22689633854E+01  0.22689633854E+01  0.00000000000E+00 0. -1.
         -1   -1    0    0    0  501 -0.00000000000E+00 -0.00000000000E+00 -0.64136883649E+03  0.64136883649E+03  0.00000000000E+00 0.  1.
         23    2    1    2    0    0  0.00000000000E+00  0.00000000000E+00 -0.63909987311E+03  0.64363779988E+03  0.76295279186E+02 0.  0.
          2    1    3    3  502    0 -0.24550807860E+02  0.22767555780E+02 -0.16534182179E+03  0.16869801954E+03  0.00000000000E+00 0.  1.
         -2    1    3    3    0  502  0.24550807860E+02 -0.22767555780E+02 -0.47375805131E+03  0.47493978034E+03  0.00000000000E+00 0. -1.
<mgrwt>
<rscale>  0 0.76295279E+02</rscale>
<asrwt>0</asrwt>
<pdfrwt beam="1">  1        1 0.34907111E-03 0.76295279E+02</pdfrwt>
<pdfrwt beam="2">  1       -1 0.98672179E-01 0.76295279E+02</pdfrwt>
<totfact> 0.62961761E+04</totfact>
</mgrwt>
</event>
<event>
 5    1  0.4023633E+001  0.9046125E+02  0.7546771E-02  0.1301739E+00
          2   -1    0    0  501    0  0.00000000000E+00  0.00000000000E+00  0.91022509666E+01  0.91022509666E+01  0.00000000000E+00 0.  1.
         -2   -1    0    0    0  501 -0.00000000000E+00 -0.00000000000E+00 -0.22475863862E+03  0.22475863862E+03  0.00000000000E+00 0. -1.
         23    2    1    2    0    0  0.00000000000E+00  0.00000000000E+00 -0.21565638765E+03  0.23386088958E+03  0.90461252161E+02 0.  0.
          2    1    3    3  502    0  0.18991035524E+02 -0.34581811990E+02 -0.16501024143E+03  0.16966125346E+03  0.00000000000E+00 0. -1.
         -2    1    3    3    0  502 -0.18991035524E+02  0.34581811990E+02 -0.50646146225E+02  0.64199636123E+02  0.00000000000E+00 0.  1.
<mgrwt>
<rscale>  0 0.90461252E+02</rscale>
<asrwt>0</asrwt>
<pdfrwt beam="1">  1        2 0.14003464E-02 0.90461252E+02</pdfrwt>
<pdfrwt beam="2">  1       -2 0.34578251E-01 0.90461252E+02</pdfrwt>
<totfact> 0.60340745E+04</totfact>
</mgrwt>
</event>
<event>
 5    1  0.4023633E+001  0.9241844E+02  0.7546771E-02  0.1297099E+00
          2   -1    0    0  501    0  0.00000000000E+00  0.00000000000E+00  0.60184945033E+01  0.60184945033E+01  0.00000000000E+00 0. -1.
         -2   -1    0    0    0  501 -0.00000000000E+00 -0.00000000000E+00 -0.35478841373E+03  0.35478841373E+03  0.00000000000E+00 0.  1.
         23    2    1    2    0    0  0.00000000000E+00  0.00000000000E+00 -0.34876991922E+03  0.36080690823E+03  0.92418442269E+02 0.  0.
          2    1    3    3  502    0  0.34504885443E+02 -0.23976929308E+02 -0.99308010277E+02  0.10783116972E+03  0.00000000000E+00 0. -1.
         -2    1    3    3    0  502 -0.34504885443E+02  0.23976929308E+02 -0.24946190894E+03  0.25297573851E+03  0.00000000000E+00 0.  1.
<mgrwt>
<rscale>  0 0.92418442E+02</rscale>
<asrwt>0</asrwt>
<pdfrwt beam="1">  1        2 0.92592208E-03 0.92418442E+02</pdfrwt>
<pdfrwt beam="2">  1       -2 0.54582842E-01 0.92418442E+02</pdfrwt>
<totfact> 0.44577089E+04</totfact>
</mgrwt>
</event>
<event>
 5    1  0.4023633E+001  0.8913094E+02  0.7546771E-02  0.1304970E+00
          2   -1    0    0  501    0  0.00000000000E+00  0.00000000000E+00  0.52767535851E+01  0.52767535851E+01  0.00000000000E+00 0. -1.
         -2   -1    0    0    0  501 -0.00000000000E+00 -0.00000000000E+00 -0.37638317898E+03  0.37638317898E+03  0.00000000000E+00 0.  1.
         23    2    1    2    0    0  0.00000000000E+00  0.00000000000E+00 -0.37110642540E+03  0.38165993257E+03  0.89130943876E+02 0.  0.
          2    1    3    3  502    0 -0.82044084492E+01  0.22301930341E+02 -0.24115449885E+02  0.33856215649E+02  0.00000000000E+00 0. -1.
         -2    1    3    3    0  502  0.82044084492E+01 -0.22301930341E+02 -0.34699097551E+03  0.34780371692E+03  0.00000000000E+00 0.  1.
<mgrwt>
<rscale>  0 0.89130944E+02</rscale>
<asrwt>0</asrwt>
<pdfrwt beam="1">  1        2 0.81180761E-03 0.89130944E+02</pdfrwt>
<pdfrwt beam="2">  1       -2 0.57905150E-01 0.89130944E+02</pdfrwt>
<totfact> 0.47131883E+04</totfact>
</mgrwt>
</event>
<event>
 5    1  0.4023633E+001  0.9462842E+02  0.7546771E-02  0.1292015E+00
          2   -1    0    0  501    0  0.00000000000E+00  0.00000000000E+00  0.20590618829E+04  0.20590618829E+04  0.00000000000E+00 0. -1.
         -2   -1    0    0    0  501 -0.00000000000E+00 -0.00000000000E+00 -0.10872109041E+01  0.10872109041E+01  0.00000000000E+00 0.  1.
         23    2    1    2    0    0  0.00000000000E+00  0.00000000000E+00  0.20579746720E+04  0.20601490938E+04  0.94628421340E+02 0.  0.
          2    1    3    3  502    0 -0.18491129701E+02 -0.28152930392E+02  0.17524001722E+04  0.17527238439E+04  0.00000000000E+00 0. -1.
         -2    1    3    3    0  502  0.18491129701E+02  0.28152930392E+02  0.30557449976E+03  0.30742524989E+03  0.00000000000E+00 0.  1.
<mgrwt>
<rscale>  0 0.94628421E+02</rscale>
<asrwt>0</asrwt>
<pdfrwt beam="1">  1        2 0.31677563E+00 0.94628421E+02</pdfrwt>
<pdfrwt beam="2">  1       -2 0.16726486E-03 0.94628421E+02</pdfrwt>
<totfact> 0.17340360E+05</totfact>
</mgrwt>
</event>
<event>
 5    1  0.4023633E+001  0.9087182E+02  0.7546771E-02  0.1300754E+00
          3   -1    0    0  501    0  0.00000000000E+00  0.00000000000E+00  0.16039230214E+01  0.16039230214E+01  0.00000000000E+00 0. -1.
         -3   -1    0    0    0  501 -0.00000000000E+00 -0.00000000000E+00 -0.12871078164E+04  0.12871078164E+04  0.00000000000E+00 0.  1.
         23    2    1    2    0    0  0.00000000000E+00  0.00000000000E+00 -0.12855038933E+04  0.12887117394E+04  0.90871818683E+02 0.  0.
          2    1    3    3  502    0 -0.35607676475E+02  0.17040133642E+01 -0.24323927322E+03  0.24583765847E+03  0.00000000000E+00 0. -1.
         -2    1    3    3    0  502  0.35607676475E+02 -0.17040133642E+01 -0.10422646201E+04  0.10428740809E+04  0.00000000000E+00 0.  1.
<mgrwt>
<rscale>  0 0.90871819E+02</rscale>
<asrwt>0</asrwt>
<pdfrwt beam="1">  1        3 0.24675670E-03 0.90871819E+02</pdfrwt>
<pdfrwt beam="2">  1       -3 0.19801714E+00 0.90871819E+02</pdfrwt>
<totfact> 0.75316173E+03</totfact>
</mgrwt>
</event>
<event>
 5    1  0.4023633E+001  0.8777329E+02  0.7546771E-02  0.1308335E+00
         -2   -1    0    0    0  501 -0.00000000000E+00  0.00000000000E+00  0.41972101220E+02  0.41972101220E+02  0.00000000000E+00 0.  1.
          2   -1    0    0  501    0  0.00000000000E+00 -0.00000000000E+00 -0.45888523744E+02  0.45888523744E+02  0.00000000000E+00 0. -1.
         23    2    1    2    0    0  0.00000000000E+00  0.00000000000E+00 -0.39164225238E+01  0.87860624963E+02  0.87773293510E+02 0.  0.
          2    1    3    3  502    0  0.97521860051E+01  0.34043862635E+02 -0.27905963471E+02  0.45086943922E+02  0.00000000000E+00 0. -1.
         -2    1    3    3    0  502 -0.97521860051E+01 -0.34043862635E+02  0.23989540948E+02  0.42773681041E+02  0.00000000000E+00 0.  1.
<mgrwt>
<rscale>  0 0.87773294E+02</rscale>
<asrwt>0</asrwt>
<pdfrwt beam="2">  1        2 0.70597729E-02 0.87773294E+02</pdfrwt>
<pdfrwt beam="1">  1       -2 0.64572463E-02 0.87773294E+02</pdfrwt>
<totfact> 0.11018387E+05</totfact>
</mgrwt>
</event>
<event>
 5    1  0.4023633E+001  0.9164086E+02  0.7546771E-02  0.1298926E+00
          1   -1    0    0  501    0  0.00000000000E+00  0.00000000000E+00  0.71215141700E+01  0.71215141700E+01  0.00000000000E+00 0. -1.
         -1   -1    0    0    0  501 -0.00000000000E+00 -0.00000000000E+00 -0.29481256499E+03  0.29481256499E+03  0.00000000000E+00 0.  1.
         23    2    1    2    0    0  0.00000000000E+00  0.00000000000E+00 -0.28769105082E+03  0.30193407916E+03  0.91640861172E+02 0.  0.
          2    1    3    3  502    0 -0.19476290051E+02  0.13529707444E+02 -0.14670458236E+02  0.27885501655E+02  0.00000000000E+00 0. -1.
         -2    1    3    3    0  502  0.19476290051E+02 -0.13529707444E+02 -0.27302059259E+03  0.27404857751E+03  0.00000000000E+00 0.  1.
<mgrwt>
<rscale>  0 0.91640861E+02</rscale>
<asrwt>0</asrwt>
<pdfrwt beam="1">  1        1 0.10956173E-02 0.91640861E+02</pdfrwt>
<pdfrwt beam="2">  1       -1 0.45355789E-01 0.91640861E+02</pdfrwt>
<totfact> 0.60195788E+04</totfact>
</mgrwt>
</event>
<event>
 5    1  0.4023633E+001  0.8447570E+02  0.7546771E-02  0.1316809E+00
         -1   -1    0    0    0  501 -0.00000000000E+00  0.00000000000E+00  0.18179744841E+03  0.18179744841E+03  0.00000000000E+00 0.  1.
          1   -1    0    0  501    0  0.00000000000E+00 -0.00000000000E+00 -0.98133159061E+01  0.98133159061E+01  0.00000000000E+00 0. -1.
         23    2    1    2    0    0  0.00000000000E+00  0.00000000000E+00  0.17198413250E+03  0.19161076431E+03  0.84475695727E+02 0.  0.
          2    1    3    3  502    0 -0.29629751721E+02 -0.22838189884E+02  0.13047092428E+03  0.13572828440E+03  0.00000000000E+00 0. -1.
         -2    1    3    3    0  502  0.29629751721E+02  0.22838189884E+02  0.41513208219E+02  0.55882479909E+02  0.00000000000E+00 0.  1.
<mgrwt>
<rscale>  0 0.84475696E+02</rscale>
<asrwt>0</asrwt>
<pdfrwt beam="2">  1        1 0.15097410E-02 0.84475696E+02</pdfrwt>
<pdfrwt beam="1">  1       -1 0.27968836E-01 0.84475696E+02</pdfrwt>
<totfact> 0.86896654E+04</totfact>
</mgrwt>
</event>
<event>
 5    1  0.4023633E+001  0.9389820E+02  0.7546771E-02  0.1293677E+00
          1   -1    0    0  501    0  0.00000000000E+00  0.00000000000E+00  0.27027071036E+03  0.27027071036E+03  0.00000000000E+00 0. -1.
         -1   -1    0    0    0  501 -0.00000000000E+00 -0.00000000000E+00 -0.81555935656E+01  0.81555935656E+01  0.00000000000E+00 0.  1.
         23    2    1    2    0    0  0.00000000000E+00  0.00000000000E+00  0.26211511680E+03  0.27842630393E+03  0.93898201610E+02 0.  0.
          2    1    3    3  502    0 -0.31816182143E+02 -0.34523068221E+02  0.13202468820E+03  0.14012362392E+03  0.00000000000E+00 0. -1.
         -2    1    3    3    0  502  0.31816182143E+02  0.34523068221E+02  0.13009042860E+03  0.13830268001E+03  0.00000000000E+00 0.  1.
<mgrwt>
<rscale>  0 0.93898202E+02</rscale>
<asrwt>0</asrwt>
<pdfrwt beam="1">  1        1 0.41580102E-01 0.93898202E+02</pdfrwt>
<pdfrwt beam="2">  1       -1 0.12547069E-02 0.93898202E+02</pdfrwt>
<totfact> 0.11606963E+05</totfact>
</mgrwt>
</event>
<event>
 4    1  0.4023633E+001  0.1405529E+03  0.7546771E-02  0.1212587E+00
         -2   -1    0    0    0  501 -0.00000000000E+00  0.00000000000E+00  0.47015042229E+01  0.47015042229E+01  0.00000000000E+00 0.  1.
          2   -1    0    0  501    0  0.00000000000E+00 -0.00000000000E+00 -0.10504672554E+04  0.10504672554E+04  0.00000000000E+00 0. -1.
          2    1    1    2  502    0 -0.11211503029E+02  0.62993325352E+02 -0.74110053560E+03  0.74385741961E+03  0.00000000000E+00 0. -1.
         -2    1    1    2    0  502  0.11211503029E+02 -0.62993325352E+02 -0.30466521556E+03  0.31131134000E+03  0.00000000000E+00 0.  1.
<mgrwt>
<rscale>  0 0.14055285E+03</rscale>
<asrwt>0</asrwt>
<pdfrwt beam="2">  1        2 0.16161042E+00 0.14055285E+03</pdfrwt>
<pdfrwt beam="1">  1       -2 0.72330800E-03 0.14055285E+03</pdfrwt>
<totfact> 0.78195206E+04</totfact>
</mgrwt>
</event>
<event>
 5    1  0.4023633E+001  0.8491432E+02  0.7546771E-02  0.1315657E+00
         -1   -1    0    0    0  501 -0.00000000000E+00  0.00000000000E+00  0.21639014425E+03  0.21639014425E+03  0.00000000000E+00 0.  1.
          1   -1    0    0  501    0  0.00000000000E+00 -0.00000000000E+00 -0.83303727214E+01  0.83303727214E+01  0.00000000000E+00 0. -1.
         23    2    1    2    0    0  0.00000000000E+00  0.00000000000E+00  0.20805977153E+03  0.22472051697E+03  0.84914322817E+02 0.  0.
          2    1    3    3  502    0  0.33791555977E+02  0.14267802490E+02  0.47444906033E+02  0.59970480670E+02  0.00000000000E+00 0. -1.
         -2    1    3    3    0  502 -0.33791555977E+02 -0.14267802490E+02  0.16061486550E+03  0.16475003630E+03  0.00000000000E+00 0.  1.
<mgrwt>
<rscale>  0 0.84914323E+02</rscale>
<asrwt>0</asrwt>
<pdfrwt beam="2">  1        1 0.12815960E-02 0.84914323E+02</pdfrwt>
<pdfrwt beam="1">  1       -1 0.33290787E-01 0.84914323E+02</pdfrwt>
<totfact> 0.81619956E+04</totfact>
</mgrwt>
</event>
<event>
 5    1  0.4023633E+001  0.9051693E+02  0.7546771E-02  0.1301605E+00
          2   -1    0    0  501    0  0.00000000000E+00  0.00000000000E+00  0.11577251663E+04  0.11577251663E+04  0.00000000000E+00 0. -1.
         -2   -1    0    0    0  501 -0.00000000000E+00 -0.00000000000E+00 -0.17692701694E+01  0.17692701694E+01  0.00000000000E+00 0.  1.
         23    2    1    2    0    0  0.00000000000E+00  0.00000000000E+00  0.11559558961E+04  0.11594944364E+04  0.90516928826E+02 0.  0.
          2    1    3    3  502    0 -0.37497753721E+02  0.21665435490E+02  0.74639305795E+03  0.74764835958E+03  0.00000000000E+00 0. -1.
         -2    1    3    3    0  502  0.37497753721E+02 -0.21665435490E+02  0.40956283814E+03  0.41184607684E+03  0.00000000000E+00 0.  1.
<mgrwt>
<rscale>  0 0.90516929E+02</rscale>
<asrwt>0</asrwt>
<pdfrwt beam="1">  1        2 0.17811096E+00 0.90516929E+02</pdfrwt>
<pdfrwt beam="2">  1       -2 0.27219634E-03 0.90516929E+02</pdfrwt>
<totfact> 0.25432909E+05</totfact>
</mgrwt>
</event>
<event>
 5    1  0.4023633E+001  0.9070554E+02  0.7546771E-02  0.1301152E+00
          2   -1    0    0  501    0  0.00000000000E+00  0.00000000000E+00  0.68319479046E+02  0.68319479046E+02  0.00000000000E+00 0. -1.
         -2   -1    0    0    0  501 -0.00000000000E+00 -0.00000000000E+00 -0.30106695360E+02  0.30106695360E+02  0.00000000000E+00 0.  1.
         23    2    1    2    0    0  0.00000000000E+00  0.00000000000E+00  0.38212783686E+02  0.98426174406E+02  0.90705539915E+02 0.  0.
          2    1    3    3  502    0  0.15321277671E+02  0.39506260268E+02  0.15627691928E+01  0.42401985772E+02  0.00000000000E+00 0. -1.
         -2    1    3    3    0  502 -0.15321277671E+02 -0.39506260268E+02  0.36650014493E+02  0.56024188635E+02  0.00000000000E+00 0.  1.
<mgrwt>
<rscale>  0 0.90705540E+02</rscale>
<asrwt>0</asrwt>
<pdfrwt beam="1">  1        2 0.10510689E-01 0.90705540E+02</pdfrwt>
<pdfrwt beam="2">  1       -2 0.46317993E-02 0.90705540E+02</pdfrwt>
<totfact> 0.11148474E+05</totfact>
</mgrwt>
</event>
<event>
 5    1  0.4023633E+001  0.9382830E+02  0.7546771E-02  0.1293837E+00
          1   -1    0    0  501    0  0.00000000000E+00  0.00000000000E+00  0.84219354331E+03  0.84219354331E+03  0.00000000000E+00 0.  1.
         -1   -1    0    0    0  501 -0.00000000000E+00 -0.00000000000E+00 -0.26133390632E+01  0.26133390632E+01  0.00000000000E+00 0. -1.
         23    2    1    2    0    0  0.00000000000E+00  0.00000000000E+00  0.83958020425E+03  0.84480688238E+03  0.93828296063E+02 0.  0.
          2    1    3    3  502    0 -0.71099029585E+01 -0.39361755444E+02  0.64052696124E+03  0.64177463847E+03  0.00000000000E+00 0. -1.
         -2    1    3    3    0  502  0.71099029585E+01  0.39361755444E+02  0.19905324301E+03  0.20303224390E+03  0.00000000000E+00 0.  1.
<mgrwt>
<rscale>  0 0.93828296E+02</rscale>
<asrwt>0</asrwt>
<pdfrwt beam="1">  1        1 0.12956802E+00 0.93828296E+02</pdfrwt>
<pdfrwt beam="2">  1       -1 0.40205284E-03 0.93828296E+02</pdfrwt>
<totfact> 0.13027090E+05</totfact>
</mgrwt>
</event>
<event>
 5    1  0.4023633E+001  0.8718270E+02  0.7546771E-02  0.1309821E+00
         -3   -1    0    0    0  501 -0.00000000000E+00  0.00000000000E+00  0.95553209482E+02  0.95553209482E+02  0.00000000000E+00 0.  1.
          3   -1    0    0  501    0  0.00000000000E+00 -0.00000000000E+00 -0.19886364796E+02  0.19886364796E+02  0.00000000000E+00 0. -1.
         23    2    1    2    0    0  0.00000000000E+00  0.00000000000E+00  0.75666844686E+02  0.11543957428E+03  0.87182704274E+02 0.  0.
          2    1    3    3  502    0  0.18818487807E+02 -0.16874907337E+02 -0.91922437294E+01  0.26896009476E+02  0.00000000000E+00 0. -1.
         -2    1    3    3    0  502 -0.18818487807E+02  0.16874907337E+02  0.84859088416E+02  0.88543564801E+02  0.00000000000E+00 0.  1.
<mgrwt>
<rscale>  0 0.87182704E+02</rscale>
<asrwt>0</asrwt>
<pdfrwt beam="2">  1        3 0.30594408E-02 0.87182704E+02</pdfrwt>
<pdfrwt beam="1">  1       -3 0.14700493E-01 0.87182704E+02</pdfrwt>
<totfact> 0.37888057E+04</totfact>
</mgrwt>
</event>
<event>
 5    1  0.4023633E+001  0.9130307E+02  0.7546771E-02  0.1299726E+00
         -1   -1    0    0    0  501 -0.00000000000E+00  0.00000000000E+00  0.18550319320E+01  0.18550319320E+01  0.00000000000E+00 0.  1.
          1   -1    0    0  501    0  0.00000000000E+00 -0.00000000000E+00 -0.11234645396E+04  0.11234645396E+04  0.00000000000E+00 0. -1.
         23    2    1    2    0    0  0.00000000000E+00  0.00000000000E+00 -0.11216095077E+04  0.11253195716E+04  0.91303068854E+02 0.  0.
          2    1    3    3  502    0 -0.30100292384E+02  0.81590385324E+01 -0.14990260814E+03  0.15311234254E+03  0.00000000000E+00 0. -1.
         -2    1    3    3    0  502  0.30100292384E+02 -0.81590385324E+01 -0.97170689957E+03  0.97220722904E+03  0.00000000000E+00 0.  1.
<mgrwt>
<rscale>  0 0.91303069E+02</rscale>
<asrwt>0</asrwt>
<pdfrwt beam="2">  1        1 0.17284044E+00 0.91303069E+02</pdfrwt>
<pdfrwt beam="1">  1       -1 0.28538995E-03 0.91303069E+02</pdfrwt>
<totfact> 0.13047582E+05</totfact>
</mgrwt>
</event>
<event>
 5    1  0.4023633E+001  0.8985069E+02  0.7546771E-02  0.1303214E+00
          1   -1    0    0  501    0  0.00000000000E+00  0.00000000000E+00  0.26743160323E+03  0.26743160323E+03  0.00000000000E+00 0. -1.
         -1   -1    0    0    0  501 -0.00000000000E+00 -0.00000000000E+00 -0.75469264513E+01  0.75469264513E+01  0.00000000000E+00 0.  1.
         23    2    1    2    0    0  0.00000000000E+00  0.00000000000E+00  0.25988467678E+03  0.27497852968E+03  0.89850690377E+02 0.  0.
          2    1    3    3  502    0 -0.29443054991E+02 -0.33858294002E+02  0.13679179892E+03  0.14396275148E+03  0.00000000000E+00 0. -1.
         -2    1    3    3    0  502  0.29443054991E+02  0.33858294002E+02  0.12309287785E+03  0.13101577820E+03  0.00000000000E+00 0.  1.
<mgrwt>
<rscale>  0 0.89850690E+02</rscale>
<asrwt>0</asrwt>
<pdfrwt beam="1">  1        1 0.41143316E-01 0.89850690E+02</pdfrwt>
<pdfrwt beam="2">  1       -1 0.11610658E-02 0.89850690E+02</pdfrwt>
<totfact> 0.13029870E+05</totfact>
</mgrwt>
</event>
<event>
 5    1  0.4023633E+001  0.9387061E+02  0.7546771E-02  0.1293740E+00
         -4   -1    0    0    0  501 -0.00000000000E+00  0.00000000000E+00  0.11610822037E+04  0.11610822037E+04  0.00000000000E+00 0.  1.
          4   -1    0    0  501    0  0.00000000000E+00 -0.00000000000E+00 -0.18973015293E+01  0.18973015293E+01  0.00000000000E+00 0. -1.
         23    2    1    2    0    0  0.00000000000E+00  0.00000000000E+00  0.11591849021E+04  0.11629795052E+04  0.93870613946E+02 0.  0.
          2    1    3    3  502    0  0.33482075491E+02 -0.29791625198E+02  0.40688328849E+03  0.40934411045E+03  0.00000000000E+00 0. -1.
         -2    1    3    3    0  502 -0.33482075491E+02  0.29791625198E+02  0.75230161365E+03  0.75363539474E+03  0.00000000000E+00 0.  1.
<mgrwt>
<rscale>  0 0.93870614E+02</rscale>
<asrwt>0</asrwt>
<pdfrwt beam="2">  1        4 0.29189347E-03 0.93870614E+02</pdfrwt>
<pdfrwt beam="1">  1       -4 0.17862746E+00 0.93870614E+02</pdfrwt>
<totfact> 0.55378169E+03</totfact>
</mgrwt>
</event>
<event>
 5    1  0.4023633E+001  0.9161407E+02  0.7546771E-02  0.1298989E+00
          1   -1    0    0  501    0  0.00000000000E+00  0.00000000000E+00  0.12296510627E+03  0.12296510627E+03  0.00000000000E+00 0. -1.
         -1   -1    0    0    0  501 -0.00000000000E+00 -0.00000000000E+00 -0.17064063605E+02  0.17064063605E+02  0.00000000000E+00 0.  1.
         23    2    1    2    0    0  0.00000000000E+00  0.00000000000E+00  0.10590104267E+03  0.14002916988E+03  0.91614068671E+02 0.  0.
          2    1    3    3  502    0 -0.14559582938E+01 -0.45277379210E+02  0.63331003512E+02  0.77865119845E+02  0.00000000000E+00 0. -1.
         -2    1    3    3    0  502  0.14559582938E+01  0.45277379210E+02  0.42570039156E+02  0.62164050032E+02  0.00000000000E+00 0.  1.
<mgrwt>
<rscale>  0 0.91614069E+02</rscale>
<asrwt>0</asrwt>
<pdfrwt beam="1">  1        1 0.18917708E-01 0.91614069E+02</pdfrwt>
<pdfrwt beam="2">  1       -1 0.26252406E-02 0.91614069E+02</pdfrwt>
<totfact> 0.10680308E+05</totfact>
</mgrwt>
</event>
<event>
 5    1  0.4023633E+001  0.9138308E+02  0.7546771E-02  0.1299537E+00
          1   -1    0    0  501    0  0.00000000000E+00  0.00000000000E+00  0.14701944589E+03  0.14701944589E+03  0.00000000000E+00 0. -1.
         -1   -1    0    0    0  501 -0.00000000000E+00 -0.00000000000E+00 -0.14200275372E+02  0.14200275372E+02  0.00000000000E+00 0.  1.
         23    2    1    2    0    0  0.00000000000E+00  0.00000000000E+00  0.13281917052E+03  0.16121972127E+03  0.91383075386E+02 0.  0.
          2    1    3    3  502    0  0.37670874704E+02  0.19900480662E+02  0.95537506740E+02  0.10460659217E+03  0.00000000000E+00 0.  1.
         -2    1    3    3    0  502 -0.37670874704E+02 -0.19900480662E+02  0.37281663781E+02  0.56613129094E+02  0.00000000000E+00 0. -1.
<mgrwt>
<rscale>  0 0.91383075E+02</rscale>
<asrwt>0</asrwt>
<pdfrwt beam="1">  1        1 0.22618375E-01 0.91383075E+02</pdfrwt>
<pdfrwt beam="2">  1       -1 0.21846578E-02 0.91383075E+02</pdfrwt>
<totfact> 0.11104071E+05</totfact>
</mgrwt>
</event>
<event>
 5    1  0.4023633E+001  0.8955316E+02  0.7546771E-02  0.1303937E+00
         -1   -1    0    0    0  501 -0.00000000000E+00  0.00000000000E+00  0.58875494498E+03  0.58875494498E+03  0.00000000000E+00 0.  1.
          1   -1    0    0  501    0  0.00000000000E+00 -0.00000000000E+00 -0.34053935086E+01  0.34053935086E+01  0.00000000000E+00 0. -1.
         23    2    1    2    0    0  0.00000000000E+00  0.00000000000E+00  0.58534955147E+03  0.59216033849E+03  0.89553163380E+02 0.  0.
          2    1    3    3  502    0  0.22257484361E+02 -0.18155186423E+02  0.65537932684E+02  0.71555761645E+02  0.00000000000E+00 0. -1.
         -2    1    3    3    0  502 -0.22257484361E+02  0.18155186423E+02  0.51981161879E+03  0.52060457685E+03  0.00000000000E+00 0.  1.
<mgrwt>
<rscale>  0 0.89553163E+02</rscale>
<asrwt>0</asrwt>
<pdfrwt beam="2">  1        1 0.52390716E-03 0.89553163E+02</pdfrwt>
<pdfrwt beam="1">  1       -1 0.90577603E-01 0.89553163E+02</pdfrwt>
<totfact> 0.44225992E+04</totfact>
</mgrwt>
</event>
<event>
 5    1  0.4023633E+001  0.9091538E+02  0.7546771E-02  0.1300650E+00
         -1   -1    0    0    0  501 -0.00000000000E+00  0.00000000000E+00  0.21439302537E+01  0.21439302537E+01  0.00000000000E+00 0.  1.
          1   -1    0    0  501    0  0.00000000000E+00 -0.00000000000E+00 -0.96383806015E+03  0.96383806015E+03  0.00000000000E+00 0. -1.
         23    2    1    2    0    0  0.00000000000E+00  0.00000000000E+00 -0.96169412990E+03  0.96598199040E+03  0.90915379928E+02 0.  0.
          2    1    3    3  502    0  0.16823375410E+02 -0.25603965623E+02 -0.83766784250E+03  0.83822789465E+03  0.00000000000E+00 0. -1.
         -2    1    3    3    0  502 -0.16823375410E+02  0.25603965623E+02 -0.12402628740E+03  0.12775409575E+03  0.00000000000E+00 0.  1.
<mgrwt>
<rscale>  0 0.90915380E+02</rscale>
<asrwt>0</asrwt>
<pdfrwt beam="2">  1        1 0.14828283E+00 0.90915380E+02</pdfrwt>
<pdfrwt beam="1">  1       -1 0.32983530E-03 0.90915380E+02</pdfrwt>
<totfact> 0.13831124E+05</totfact>
</mgrwt>
</event>
<event>
 5    1  0.4023633E+001  0.9343426E+02  0.7546771E-02  0.1294742E+00
          3   -1    0    0  501    0  0.00000000000E+00  0.00000000000E+00  0.26118267429E+02  0.26118267429E+02  0.00000000000E+00 0. -1.
         -3   -1    0    0    0  501 -0.00000000000E+00 -0.00000000000E+00 -0.83561823160E+02  0.83561823160E+02  0.00000000000E+00 0.  1.
         23    2    1    2    0    0  0.00000000000E+00  0.00000000000E+00 -0.57443555731E+02  0.10968009059E+03  0.93434255905E+02 0.  0.
          2    1    3    3  502    0  0.26323565160E+02 -0.37289728203E+02 -0.40403812892E+02  0.60958362908E+02  0.00000000000E+00 0. -1.
         -2    1    3    3    0  502 -0.26323565160E+02  0.37289728203E+02 -0.17039742839E+02  0.48721727681E+02  0.00000000000E+00 0.  1.
<mgrwt>
<rscale>  0 0.93434256E+02</rscale>
<asrwt>0</asrwt>
<pdfrwt beam="1">  1        3 0.40181950E-02 0.93434256E+02</pdfrwt>
<pdfrwt beam="2">  1       -3 0.12855665E-01 0.93434256E+02</pdfrwt>
<totfact> 0.31777880E+04</totfact>
</mgrwt>
</event>
<event>
 5    1  0.4023633E+001  0.9144741E+02  0.7546771E-02  0.1299384E+00
         -2   -1    0    0    0  501 -0.00000000000E+00  0.00000000000E+00  0.73506414770E+01  0.73506414770E+01  0.00000000000E+00 0.  1.
          2   -1    0    0  501    0  0.00000000000E+00 -0.00000000000E+00 -0.28441833193E+03  0.28441833193E+03  0.00000000000E+00 0. -1.
         23    2    1    2    0    0  0.00000000000E+00  0.00000000000E+00 -0.27706769046E+03  0.29176897341E+03  0.91447409751E+02 0.  0.
          2    1    3    3  502    0  0.67774257501E+01 -0.35002152981E+02 -0.22987395164E+03  0.23262226432E+03  0.00000000000E+00 0. -1.
         -2    1    3    3    0  502 -0.67774257501E+01  0.35002152981E+02 -0.47193738813E+02  0.59146709090E+02  0.00000000000E+00 0.  1.
<mgrwt>
<rscale>  0 0.91447410E+02</rscale>
<asrwt>0</asrwt>
<pdfrwt beam="2">  1        2 0.43756662E-01 0.91447410E+02</pdfrwt>
<pdfrwt beam="1">  1       -2 0.11308680E-02 0.91447410E+02</pdfrwt>
<totfact> 0.17473348E+05</totfact>
</mgrwt>
</event>
<event>
 5    1  0.4023633E+001  0.9213108E+02  0.7546771E-02  0.1297772E+00
         -4   -1    0    0    0  501 -0.00000000000E+00  0.00000000000E+00  0.45159468168E+02  0.45159468168E+02  0.00000000000E+00 0.  1.
          4   -1    0    0  501    0  0.00000000000E+00 -0.00000000000E+00 -0.46989786141E+02  0.46989786141E+02  0.00000000000E+00 0. -1.
         23    2    1    2    0    0  0.00000000000E+00  0.00000000000E+00 -0.18303179732E+01  0.92149254308E+02  0.92131075136E+02 0.  0.
          2    1    3    3  502    0 -0.95191365419E+01 -0.23815611901E+02 -0.39188051741E+02  0.46834823903E+02  0.00000000000E+00 0. -1.
         -2    1    3    3    0  502  0.95191365419E+01  0.23815611901E+02  0.37357733768E+02  0.45314430406E+02  0.00000000000E+00 0.  1.
<mgrwt>
<rscale>  0 0.92131075E+02</rscale>
<asrwt>0</asrwt>
<pdfrwt beam="2">  1        4 0.72291978E-02 0.92131075E+02</pdfrwt>
<pdfrwt beam="1">  1       -4 0.69476105E-02 0.92131075E+02</pdfrwt>
<totfact> 0.26200593E+04</totfact>
</mgrwt>
</event>
<event>
 5    1  0.4023633E+001  0.9055345E+02  0.7546771E-02  0.1301517E+00
         -1   -1    0    0    0  501 -0.00000000000E+00  0.00000000000E+00  0.57587071627E+01  0.57587071627E+01  0.00000000000E+00 0.  1.
          1   -1    0    0  501    0  0.00000000000E+00 -0.00000000000E+00 -0.35597954111E+03  0.35597954111E+03  0.00000000000E+00 0. -1.
         23    2    1    2    0    0  0.00000000000E+00  0.00000000000E+00 -0.35022083395E+03  0.36173824828E+03  0.90553452351E+02 0.  0.
          2    1    3    3  502    0 -0.35659611310E+02  0.26637329714E+02 -0.14196923787E+03  0.14878312980E+03  0.00000000000E+00 0. -1.
         -2    1    3    3    0  502  0.35659611310E+02 -0.26637329714E+02 -0.20825159608E+03  0.21295511847E+03  0.00000000000E+00 0.  1.
<mgrwt>
<rscale>  0 0.90553452E+02</rscale>
<asrwt>0</asrwt>
<pdfrwt beam="2">  1        1 0.54766083E-01 0.90553452E+02</pdfrwt>
<pdfrwt beam="1">  1       -1 0.88595496E-03 0.90553452E+02</pdfrwt>
<totfact> 0.13466232E+05</totfact>
</mgrwt>
</event>
<event>
 5    1  0.4023633E+001  0.8328909E+02  0.7546771E-02  0.1319968E+00
          1   -1    0    0  501    0  0.00000000000E+00  0.00000000000E+00  0.29512162654E+03  0.29512162654E+03  0.00000000000E+00 0. -1.
         -1   -1    0    0    0  501 -0.00000000000E+00 -0.00000000000E+00 -0.58764526703E+01  0.58764526703E+01  0.00000000000E+00 0.  1.
         23    2    1    2    0    0  0.00000000000E+00  0.00000000000E+00  0.28924517387E+03  0.30099807921E+03  0.83289093412E+02 0.  0.
          2    1    3    3  502    0  0.73544671414E+01  0.38799181598E+02  0.19240309506E+03  0.19641388869E+03  0.00000000000E+00 0. -1.
         -2    1    3    3    0  502 -0.73544671414E+01 -0.38799181598E+02  0.96842078807E+02  0.10458419052E+03  0.00000000000E+00 0.  1.
<mgrwt>
<rscale>  0 0.83289093E+02</rscale>
<asrwt>0</asrwt>
<pdfrwt beam="1">  1        1 0.45403316E-01 0.83289093E+02</pdfrwt>
<pdfrwt beam="2">  1       -1 0.90406987E-03 0.83289093E+02</pdfrwt>
<totfact> 0.16235142E+05</totfact>
</mgrwt>
</event>
<event>
 5    1  0.4023633E+001  0.9223954E+02  0.7546771E-02  0.1297517E+00
          2   -1    0    0  501    0  0.00000000000E+00  0.00000000000E+00  0.12158924705E+04  0.12158924705E+04  0.00000000000E+00 0. -1.
         -2   -1    0    0    0  501 -0.00000000000E+00 -0.00000000000E+00 -0.17493594340E+01  0.17493594340E+01  0.00000000000E+00 0.  1.
         23    2    1    2    0    0  0.00000000000E+00  0.00000000000E+00  0.12141431110E+04  0.12176418299E+04  0.92239535211E+02 0.  0.
          2    1    3    3  502    0  0.64961102635E+01 -0.35770348175E+02  0.98168687896E+03  0.98235983508E+03  0.00000000000E+00 0. -1.
         -2    1    3    3    0  502 -0.64961102635E+01  0.35770348175E+02  0.23245623206E+03  0.23528199481E+03  0.00000000000E+00 0.  1.
<mgrwt>
<rscale>  0 0.92239535E+02</rscale>
<asrwt>0</asrwt>
<pdfrwt beam="1">  1        2 0.18705970E+00 0.92239535E+02</pdfrwt>
<pdfrwt beam="2">  1       -2 0.26913319E-03 0.92239535E+02</pdfrwt>
<totfact> 0.24083932E+05</totfact>
</mgrwt>
</event>
<event>
 5    1  0.4023633E+001  0.9129349E+02  0.7546771E-02  0.1299749E+00
          2   -1    0    0  501    0  0.00000000000E+00  0.00000000000E+00  0.79366070624E+03  0.79366070624E+03  0.00000000000E+00 0. -1.
         -2   -1    0    0    0  501 -0.00000000000E+00 -0.00000000000E+00 -0.26253348413E+01  0.26253348413E+01  0.00000000000E+00 0.  1.
         23    2    1    2    0    0  0.00000000000E+00  0.00000000000E+00  0.79103537140E+03  0.79628604108E+03  0.91293485074E+02 0.  0.
          2    1    3    3  502    0  0.35366073834E+02  0.18177320729E+02  0.59103091385E+03  0.59236704440E+03  0.00000000000E+00 0. -1.
         -2    1    3    3    0  502 -0.35366073834E+02 -0.18177320729E+02  0.20000445755E+03  0.20391899668E+03  0.00000000000E+00 0.  1.
<mgrwt>
<rscale>  0 0.91293485E+02</rscale>
<asrwt>0</asrwt>
<pdfrwt beam="1">  1        2 0.12210146E+00 0.91293485E+02</pdfrwt>
<pdfrwt beam="2">  1       -2 0.40389830E-03 0.91293485E+02</pdfrwt>
<totfact> 0.24257653E+05</totfact>
</mgrwt>
</event>
<event>
 5    1  0.4023633E+001  0.9138535E+02  0.7546771E-02  0.1299531E+00
          3   -1    0    0  501    0  0.00000000000E+00  0.00000000000E+00  0.71362926726E+02  0.71362926726E+02  0.00000000000E+00 0. -1.
         -3   -1    0    0    0  501 -0.00000000000E+00 -0.00000000000E+00 -0.29256377488E+02  0.29256377488E+02  0.00000000000E+00 0.  1.
         23    2    1    2    0    0  0.00000000000E+00  0.00000000000E+00  0.42106549239E+02  0.10061930421E+03  0.91385353814E+02 0.  0.
          2    1    3    3  502    0 -0.41762463541E+02  0.16026518413E+02  0.31315340471E+02  0.54604058478E+02  0.00000000000E+00 0. -1.
         -2    1    3    3    0  502  0.41762463541E+02 -0.16026518413E+02  0.10791208767E+02  0.46015245736E+02  0.00000000000E+00 0.  1.
<mgrwt>
<rscale>  0 0.91385354E+02</rscale>
<asrwt>0</asrwt>
<pdfrwt beam="1">  1        3 0.10978912E-01 0.91385354E+02</pdfrwt>
<pdfrwt beam="2">  1       -3 0.45009812E-02 0.91385354E+02</pdfrwt>
<totfact> 0.34410183E+04</totfact>
</mgrwt>
</event>
<event>
 5    1  0.4023633E+001  0.9463733E+02  0.7546771E-02  0.1291995E+00
         -2   -1    0    0    0  501 -0.00000000000E+00  0.00000000000E+00  0.42488018545E+02  0.42488018545E+02  0.00000000000E+00 0.  1.
          2   -1    0    0  501    0  0.00000000000E+00 -0.00000000000E+00 -0.52698526718E+02  0.52698526718E+02  0.00000000000E+00 0. -1.
         23    2    1    2    0    0  0.00000000000E+00  0.00000000000E+00 -0.10210508173E+02  0.95186545264E+02  0.94637328376E+02 0.  0.
          2    1    3    3  502    0  0.16437543862E+02 -0.13782445776E+02 -0.47527118762E+02  0.52143798074E+02  0.00000000000E+00 0. -1.
         -2    1    3    3    0  502 -0.16437543862E+02  0.13782445776E+02  0.37316610589E+02  0.43042747190E+02  0.00000000000E+00 0.  1.
<mgrwt>
<rscale>  0 0.94637328E+02</rscale>
<asrwt>0</asrwt>
<pdfrwt beam="2">  1        2 0.81074657E-02 0.94637328E+02</pdfrwt>
<pdfrwt beam="1">  1       -2 0.65366182E-02 0.94637328E+02</pdfrwt>
<totfact> 0.92138677E+04</totfact>
</mgrwt>
</event>
<event>
 5    1  0.4023633E+001  0.9369277E+02  0.7546771E-02  0.1294148E+00
          1   -1    0    0  501    0  0.00000000000E+00  0.00000000000E+00  0.24458391724E+02  0.24458391724E+02  0.00000000000E+00 0. -1.
         -1   -1    0    0    0  501 -0.00000000000E+00 -0.00000000000E+00 -0.89727236796E+02  0.89727236796E+02  0.00000000000E+00 0.  1.
         23    2    1    2    0    0  0.00000000000E+00  0.00000000000E+00 -0.65268845073E+02  0.11418562852E+03  0.93692772525E+02 0.  0.
          2    1    3    3  502    0 -0.19909800687E+02 -0.40348962981E+02 -0.16737434009E+02  0.48006048309E+02  0.00000000000E+00 0. -1.
         -2    1    3    3    0  502  0.19909800687E+02  0.40348962981E+02 -0.48531411064E+02  0.66179580211E+02  0.00000000000E+00 0.  1.
<mgrwt>
<rscale>  0 0.93692773E+02</rscale>
<asrwt>0</asrwt>
<pdfrwt beam="1">  1        1 0.37628294E-02 0.93692773E+02</pdfrwt>
<pdfrwt beam="2">  1       -1 0.13804190E-01 0.93692773E+02</pdfrwt>
<totfact> 0.77376634E+04</totfact>
</mgrwt>
</event>
<event>
 5    1  0.4023633E+001  0.8574198E+02  0.7546771E-02  0.1313504E+00
          1   -1    0    0  501    0  0.00000000000E+00  0.00000000000E+00  0.99899000531E+01  0.99899000531E+01  0.00000000000E+00 0. -1.
         -1   -1    0    0    0  501 -0.00000000000E+00 -0.00000000000E+00 -0.18397799294E+03  0.18397799294E+03  0.00000000000E+00 0.  1.
         23    2    1    2    0    0  0.00000000000E+00  0.00000000000E+00 -0.17398809289E+03  0.19396789300E+03  0.85741979485E+02 0.  0.
          2    1    3    3  502    0 -0.56106631170E+01 -0.42350222924E+02 -0.95119457176E+02  0.10427239355E+03  0.00000000000E+00 0. -1.
         -2    1    3    3    0  502  0.56106631170E+01  0.42350222924E+02 -0.78868635715E+02  0.89695499452E+02  0.00000000000E+00 0.  1.
<mgrwt>
<rscale>  0 0.85741979E+02</rscale>
<asrwt>0</asrwt>
<pdfrwt beam="1">  1        1 0.15369077E-02 0.85741979E+02</pdfrwt>
<pdfrwt beam="2">  1       -1 0.28304307E-01 0.85741979E+02</pdfrwt>
<totfact> 0.83345656E+04</totfact>
</mgrwt>
</event>
<event>
 5    1  0.4023633E+001  0.6377099E+02  0.7546771E-02  0.1382655E+00
         -1   -1    0    0    0  501 -0.00000000000E+00  0.00000000000E+00  0.44668851011E+02  0.44668851011E+02  0.00000000000E+00 0.  1.
          1   -1    0    0  501    0  0.00000000000E+00 -0.00000000000E+00 -0.22760487888E+02  0.22760487888E+02  0.00000000000E+00 0. -1.
         23    2    1    2    0    0  0.00000000000E+00  0.00000000000E+00  0.21908363123E+02  0.67429338899E+02  0.63770991599E+02 0.  0.
          2    1    3    3  502    0  0.55085252622E+01 -0.27976026794E+02 -0.41362977500E+01  0.28811644952E+02  0.00000000000E+00 0. -1.
         -2    1    3    3    0  502 -0.55085252622E+01  0.27976026794E+02  0.26044660873E+02  0.38617693947E+02  0.00000000000E+00 0.  1.
<mgrwt>
<rscale>  0 0.63770992E+02</rscale>
<asrwt>0</asrwt>
<pdfrwt beam="2">  1        1 0.35016135E-02 0.63770992E+02</pdfrwt>
<pdfrwt beam="1">  1       -1 0.68721309E-02 0.63770992E+02</pdfrwt>
<totfact> 0.22672038E+05</totfact>
</mgrwt>
</event>
<event>
 5    1  0.4023633E+001  0.9122492E+02  0.7546771E-02  0.1299912E+00
          2   -1    0    0  501    0  0.00000000000E+00  0.00000000000E+00  0.11676535860E+04  0.11676535860E+04  0.00000000000E+00 0. -1.
         -2   -1    0    0    0  501 -0.00000000000E+00 -0.00000000000E+00 -0.17817752817E+01  0.17817752817E+01  0.00000000000E+00 0.  1.
         23    2    1    2    0    0  0.00000000000E+00  0.00000000000E+00  0.11658718108E+04  0.11694353613E+04  0.91224915395E+02 0.  0.
          2    1    3    3  502    0  0.90099015240E+01 -0.37002328590E+02  0.90473381909E+03  0.90553499880E+03  0.00000000000E+00 0. -1.
         -2    1    3    3    0  502 -0.90099015240E+01  0.37002328590E+02  0.26113799167E+03  0.26390036252E+03  0.00000000000E+00 0.  1.
<mgrwt>
<rscale>  0 0.91224915E+02</rscale>
<asrwt>0</asrwt>
<pdfrwt beam="1">  1        2 0.17963840E+00 0.91224915E+02</pdfrwt>
<pdfrwt beam="2">  1       -2 0.27412021E-03 0.91224915E+02</pdfrwt>
<totfact> 0.24899723E+05</totfact>
</mgrwt>
</event>
<event>
 5    1  0.4023633E+001  0.7403710E+02  0.7546771E-02  0.1346879E+00
          2   -1    0    0  501    0  0.00000000000E+00  0.00000000000E+00  0.34019814057E+03  0.34019814057E+03  0.00000000000E+00 0. -1.
         -2   -1    0    0    0  501 -0.00000000000E+00 -0.00000000000E+00 -0.40281613026E+01  0.40281613026E+01  0.00000000000E+00 0.  1.
         23    2    1    2    0    0  0.00000000000E+00  0.00000000000E+00  0.33616997927E+03  0.34422630188E+03  0.74037098406E+02 0.  0.
          2    1    3    3  502    0 -0.27847500562E+02  0.15875924628E+02  0.25417314270E+03  0.25618648431E+03  0.00000000000E+00 0. -1.
         -2    1    3    3    0  502  0.27847500562E+02 -0.15875924628E+02  0.81996836567E+02  0.88039817568E+02  0.00000000000E+00 0.  1.
<mgrwt>
<rscale>  0 0.74037098E+02</rscale>
<asrwt>0</asrwt>
<pdfrwt beam="1">  1        2 0.52338153E-01 0.74037098E+02</pdfrwt>
<pdfrwt beam="2">  1       -2 0.61971739E-03 0.74037098E+02</pdfrwt>
<totfact> 0.32557205E+05</totfact>
</mgrwt>
</event>
<event>
 5    1  0.4023633E+001  0.8556293E+02  0.7546771E-02  0.1313967E+00
         -1   -1    0    0    0  501 -0.00000000000E+00  0.00000000000E+00  0.67577144070E+01  0.67577144070E+01  0.00000000000E+00 0.  1.
          1   -1    0    0  501    0  0.00000000000E+00 -0.00000000000E+00 -0.27083915327E+03  0.27083915327E+03  0.00000000000E+00 0. -1.
         23    2    1    2    0    0  0.00000000000E+00  0.00000000000E+00 -0.26408143887E+03  0.27759686768E+03  0.85562927674E+02 0.  0.
          2    1    3    3  502    0  0.34298022624E+02  0.18366452325E+02 -0.74315489734E+02  0.83883686980E+02  0.00000000000E+00 0.  1.
         -2    1    3    3    0  502 -0.34298022624E+02 -0.18366452325E+02 -0.18976594913E+03  0.19371318070E+03  0.00000000000E+00 0. -1.
<mgrwt>
<rscale>  0 0.85562928E+02</rscale>
<asrwt>0</asrwt>
<pdfrwt beam="2">  1        1 0.41667563E-01 0.85562928E+02</pdfrwt>
<pdfrwt beam="1">  1       -1 0.10396483E-02 0.85562928E+02</pdfrwt>
<totfact> 0.14873502E+05</totfact>
</mgrwt>
</event>
<event>
 5    1  0.4023633E+001  0.8991934E+02  0.7546771E-02  0.1303047E+00
          2   -1    0    0  501    0  0.00000000000E+00  0.00000000000E+00  0.43216033193E+03  0.43216033193E+03  0.00000000000E+00 0. -1.
         -2   -1    0    0    0  501 -0.00000000000E+00 -0.00000000000E+00 -0.46773657233E+01  0.46773657233E+01  0.00000000000E+00 0.  1.
         23    2    1    2    0    0  0.00000000000E+00  0.00000000000E+00  0.42748296620E+03  0.43683769765E+03  0.89919339934E+02 0.  0.
          2    1    3    3  502    0 -0.49175966556E+00 -0.43199422441E+02  0.27421270867E+03  0.27759510357E+03  0.00000000000E+00 0. -1.
         -2    1    3    3    0  502  0.49175966556E+00  0.43199422441E+02  0.15327025753E+03  0.15924259408E+03  0.00000000000E+00 0.  1.
<mgrwt>
<rscale>  0 0.89919340E+02</rscale>
<asrwt>0</asrwt>
<pdfrwt beam="1">  1        2 0.66486173E-01 0.89919340E+02</pdfrwt>
<pdfrwt beam="2">  1       -2 0.71959507E-03 0.89919340E+02</pdfrwt>
<totfact> 0.21283910E+05</totfact>
</mgrwt>
</event>
<event>
 5    1  0.4023633E+001  0.8994798E+02  0.7546771E-02  0.1302978E+00
         -1   -1    0    0    0  501 -0.00000000000E+00  0.00000000000E+00  0.30297900760E+01  0.30297900760E+01  0.00000000000E+00 0.  1.
          1   -1    0    0  501    0  0.00000000000E+00 -0.00000000000E+00 -0.66759069620E+03  0.66759069620E+03  0.00000000000E+00 0. -1.
         23    2    1    2    0    0  0.00000000000E+00  0.00000000000E+00 -0.66456090612E+03  0.67062048627E+03  0.89947977546E+02 0.  0.
          2    1    3    3  502    0  0.41668136870E+02  0.16342903574E+02 -0.36506457468E+03  0.36779813460E+03  0.00000000000E+00 0.  1.
         -2    1    3    3    0  502 -0.41668136870E+02 -0.16342903574E+02 -0.29949633144E+03  0.30282235168E+03  0.00000000000E+00 0. -1.
<mgrwt>
<rscale>  0 0.89947978E+02</rscale>
<asrwt>0</asrwt>
<pdfrwt beam="2">  1        1 0.10270629E+00 0.89947978E+02</pdfrwt>
<pdfrwt beam="1">  1       -1 0.46612142E-03 0.89947978E+02</pdfrwt>
<totfact> 0.14734946E+05</totfact>
</mgrwt>
</event>
<event>
 5    1  0.4023633E+001  0.9206926E+02  0.7546771E-02  0.1297917E+00
         -1   -1    0    0    0  501 -0.00000000000E+00  0.00000000000E+00  0.15813093669E+02  0.15813093669E+02  0.00000000000E+00 0.  1.
          1   -1    0    0  501    0  0.00000000000E+00 -0.00000000000E+00 -0.13401469735E+03  0.13401469735E+03  0.00000000000E+00 0. -1.
         23    2    1    2    0    0  0.00000000000E+00  0.00000000000E+00 -0.11820160368E+03  0.14982779102E+03  0.92069255721E+02 0.  0.
          2    1    3    3  502    0 -0.19396107597E+02  0.25196515606E+02 -0.11327217964E+03  0.11765058465E+03  0.00000000000E+00 0. -1.
         -2    1    3    3    0  502  0.19396107597E+02 -0.25196515606E+02 -0.49294240490E+01  0.32177206374E+02  0.00000000000E+00 0.  1.
<mgrwt>
<rscale>  0 0.92069256E+02</rscale>
<asrwt>0</asrwt>
<pdfrwt beam="2">  1        1 0.20617645E-01 0.92069256E+02</pdfrwt>
<pdfrwt beam="1">  1       -1 0.24327837E-02 0.92069256E+02</pdfrwt>
<totfact> 0.10700141E+05</totfact>
</mgrwt>
</event>
<event>
 5    1  0.4023633E+001  0.9249693E+02  0.7546771E-02  0.1296915E+00
          1   -1    0    0  501    0  0.00000000000E+00  0.00000000000E+00  0.31867458877E+03  0.31867458877E+03  0.00000000000E+00 0. -1.
         -1   -1    0    0    0  501 -0.00000000000E+00 -0.00000000000E+00 -0.67119264910E+01  0.67119264910E+01  0.00000000000E+00 0.  1.
         23    2    1    2    0    0  0.00000000000E+00  0.00000000000E+00  0.31196266228E+03  0.32538651526E+03  0.92496927828E+02 0.  0.
          2    1    3    3  502    0 -0.21328829345E+02  0.33055339861E+02  0.24152602166E+03  0.24470879345E+03  0.00000000000E+00 0. -1.
         -2    1    3    3    0  502  0.21328829345E+02 -0.33055339861E+02  0.70436640626E+02  0.80677721815E+02  0.00000000000E+00 0.  1.
<mgrwt>
<rscale>  0 0.92496928E+02</rscale>
<asrwt>0</asrwt>
<pdfrwt beam="1">  1        1 0.49026848E-01 0.92496928E+02</pdfrwt>
<pdfrwt beam="2">  1       -1 0.10326043E-02 0.92496928E+02</pdfrwt>
<totfact> 0.12471869E+05</totfact>
</mgrwt>
</event>
<event>
 5    1  0.4023633E+001  0.9801723E+02  0.7546771E-02  0.1284522E+00
         -2   -1    0    0    0  501 -0.00000000000E+00  0.00000000000E+00  0.62916970165E+00  0.62916970165E+00  0.00000000000E+00 0.  1.
          2   -1    0    0  501    0  0.00000000000E+00 -0.00000000000E+00 -0.38174824901E+04  0.38174824901E+04  0.00000000000E+00 0. -1.
         23    2    1    2    0    0  0.00000000000E+00  0.00000000000E+00 -0.38168533204E+04  0.38181116598E+04  0.98017229493E+02 0.  0.
          2    1    3    3  502    0  0.45612898388E+02 -0.98497373433E+01 -0.24918067947E+04  0.24922436992E+04  0.00000000000E+00 0. -1.
         -2    1    3    3    0  502 -0.45612898388E+02  0.98497373433E+01 -0.13250465257E+04  0.13258679606E+04  0.00000000000E+00 0.  1.
<mgrwt>
<rscale>  0 0.98017229E+02</rscale>
<asrwt>0</asrwt>
<pdfrwt beam="2">  1        2 0.58730152E+00 0.98017229E+02</pdfrwt>
<pdfrwt beam="1">  1       -2 0.96795912E-04 0.98017229E+02</pdfrwt>
<totfact> 0.35878736E+04</totfact>
</mgrwt>
</event>
<event>
 5    1  0.4023633E+001  0.9029966E+02  0.7546771E-02  0.1302128E+00
          2   -1    0    0  501    0  0.00000000000E+00  0.00000000000E+00  0.49893606037E+02  0.49893606037E+02  0.00000000000E+00 0. -1.
         -2   -1    0    0    0  501 -0.00000000000E+00 -0.00000000000E+00 -0.40857077573E+02  0.40857077573E+02  0.00000000000E+00 0.  1.
         23    2    1    2    0    0  0.00000000000E+00  0.00000000000E+00  0.90365284640E+01  0.90750683610E+02  0.90299655199E+02 0.  0.
          2    1    3    3  502    0 -0.22529408278E+02 -0.16439983290E+02  0.40201377497E+02  0.48928499268E+02  0.00000000000E+00 0. -1.
         -2    1    3    3    0  502  0.22529408278E+02  0.16439983290E+02 -0.31164849033E+02  0.41822184342E+02  0.00000000000E+00 0.  1.
<mgrwt>
<rscale>  0 0.90299655E+02</rscale>
<asrwt>0</asrwt>
<pdfrwt beam="1">  1        2 0.76759394E-02 0.90299655E+02</pdfrwt>
<pdfrwt beam="2">  1       -2 0.62857042E-02 0.90299655E+02</pdfrwt>
<totfact> 0.10384092E+05</totfact>
</mgrwt>
</event>
<event>
 5    1  0.4023633E+001  0.1022949E+03  0.7546771E-02  0.1275543E+00
         -2   -1    0    0    0  501 -0.00000000000E+00  0.00000000000E+00  0.12031812857E+01  0.12031812857E+01  0.00000000000E+00 0.  1.
          2   -1    0    0  501    0  0.00000000000E+00 -0.00000000000E+00 -0.21742886501E+04  0.21742886501E+04  0.00000000000E+00 0. -1.
         23    2    1    2    0    0  0.00000000000E+00  0.00000000000E+00 -0.21730854688E+04  0.21754918314E+04  0.10229493464E+03 0.  0.
          2    1    3    3  502    0  0.20138084231E+02  0.35395705502E+02 -0.17446703848E+04  0.17451455956E+04  0.00000000000E+00 0. -1.
         -2    1    3    3    0  502 -0.20138084231E+02 -0.35395705502E+02 -0.42841508407E+03  0.43034623579E+03  0.00000000000E+00 0.  1.
<mgrwt>
<rscale>  0 0.10229493E+03</rscale>
<asrwt>0</asrwt>
<pdfrwt beam="2">  1        2 0.33450767E+00 0.10229493E+03</pdfrwt>
<pdfrwt beam="1">  1       -2 0.18510386E-03 0.10229493E+03</pdfrwt>
<totfact> 0.13280548E+05</totfact>
</mgrwt>
</event>
<event>
 5    1  0.4023633E+001  0.8940511E+02  0.7546771E-02  0.1304299E+00
         -2   -1    0    0    0  501 -0.00000000000E+00  0.00000000000E+00  0.59749773306E+01  0.59749773306E+01  0.00000000000E+00 0.  1.
          2   -1    0    0  501    0  0.00000000000E+00 -0.00000000000E+00 -0.33444790035E+03  0.33444790035E+03  0.00000000000E+00 0. -1.
         23    2    1    2    0    0  0.00000000000E+00  0.00000000000E+00 -0.32847292302E+03  0.34042287768E+03  0.89405114459E+02 0.  0.
          2    1    3    3  502    0 -0.43260520381E+02  0.95014930248E+01 -0.18726173403E+03  0.19242844910E+03  0.00000000000E+00 0. -1.
         -2    1    3    3    0  502  0.43260520381E+02 -0.95014930248E+01 -0.14121118899E+03  0.14799442858E+03  0.00000000000E+00 0.  1.
<mgrwt>
<rscale>  0 0.89405114E+02</rscale>
<asrwt>0</asrwt>
<pdfrwt beam="2">  1        2 0.51453553E-01 0.89405114E+02</pdfrwt>
<pdfrwt beam="1">  1       -2 0.91922674E-03 0.89405114E+02</pdfrwt>
<totfact> 0.19706485E+05</totfact>
</mgrwt>
</event>
<event>
 5    1  0.4023633E+001  0.7895388E+02  0.7546771E-02  0.1332047E+00
          2   -1    0    0  501    0  0.00000000000E+00  0.00000000000E+00  0.33837693548E+04  0.33837693548E+04  0.00000000000E+00 0. -1.
         -2   -1    0    0    0  501 -0.00000000000E+00 -0.00000000000E+00 -0.46056001470E+00  0.46056001470E+00  0.00000000000E+00 0.  1.
         23    2    1    2    0    0  0.00000000000E+00  0.00000000000E+00  0.33833087948E+04  0.33842299148E+04  0.78953881824E+02 0.  0.
          2    1    3    3  502    0 -0.22501146371E+02  0.29133196728E+02  0.23029410282E+04  0.23032352082E+04  0.00000000000E+00 0. -1.
         -2    1    3    3    0  502  0.22501146371E+02 -0.29133196728E+02  0.10803677666E+04  0.10809947066E+04  0.00000000000E+00 0.  1.
<mgrwt>
<rscale>  0 0.78953882E+02</rscale>
<asrwt>0</asrwt>
<pdfrwt beam="1">  1        2 0.52055999E+00 0.78953882E+02</pdfrwt>
<pdfrwt beam="2">  1       -2 0.70858096E-04 0.78953882E+02</pdfrwt>
<totfact> 0.10455879E+05</totfact>
</mgrwt>
</event>
<event>
 5    1  0.4023633E+001  0.9058114E+02  0.7546771E-02  0.1301450E+00
         -1   -1    0    0    0  501 -0.00000000000E+00  0.00000000000E+00  0.18845569341E+02  0.18845569341E+02  0.00000000000E+00 0.  1.
          1   -1    0    0  501    0  0.00000000000E+00 -0.00000000000E+00 -0.10884444590E+03  0.10884444590E+03  0.00000000000E+00 0. -1.
         23    2    1    2    0    0  0.00000000000E+00  0.00000000000E+00 -0.89998876562E+02  0.12769001524E+03  0.90581136063E+02 0.  0.
          2    1    3    3  502    0  0.62083705998E+01 -0.44821724819E+02 -0.42286161988E+02  0.61932627725E+02  0.00000000000E+00 0. -1.
         -2    1    3    3    0  502 -0.62083705998E+01  0.44821724819E+02 -0.47712714574E+02  0.65757387518E+02  0.00000000000E+00 0.  1.
<mgrwt>
<rscale>  0 0.90581136E+02</rscale>
<asrwt>0</asrwt>
<pdfrwt beam="2">  1        1 0.16745299E-01 0.90581136E+02</pdfrwt>
<pdfrwt beam="1">  1       -1 0.28993184E-02 0.90581136E+02</pdfrwt>
<totfact> 0.10785327E+05</totfact>
</mgrwt>
</event>
<event>
 5    1  0.4023633E+001  0.8927731E+02  0.7546771E-02  0.1304611E+00
         -2   -1    0    0    0  501 -0.00000000000E+00  0.00000000000E+00  0.24454467364E+02  0.24454467364E+02  0.00000000000E+00 0.  1.
          2   -1    0    0  501    0  0.00000000000E+00 -0.00000000000E+00 -0.81482435853E+02  0.81482435853E+02  0.00000000000E+00 0. -1.
         23    2    1    2    0    0  0.00000000000E+00  0.00000000000E+00 -0.57027968489E+02  0.10593690322E+03  0.89277311078E+02 0.  0.
          2    1    3    3  502    0  0.35630981306E+02 -0.26636847649E+02 -0.32877253077E+02  0.55317287094E+02  0.00000000000E+00 0.  1.
         -2    1    3    3    0  502 -0.35630981306E+02  0.26636847649E+02 -0.24150715412E+02  0.50619616123E+02  0.00000000000E+00 0. -1.
<mgrwt>
<rscale>  0 0.89277311E+02</rscale>
<asrwt>0</asrwt>
<pdfrwt beam="2">  1        2 0.12535759E-01 0.89277311E+02</pdfrwt>
<pdfrwt beam="1">  1       -2 0.37622258E-02 0.89277311E+02</pdfrwt>
<totfact> 0.12239597E+05</totfact>
</mgrwt>
</event>
<event>
 5    1  0.4023633E+001  0.9234122E+02  0.7546771E-02  0.1297279E+00
          1   -1    0    0  501    0  0.00000000000E+00  0.00000000000E+00  0.10921197519E+03  0.10921197519E+03  0.00000000000E+00 0. -1.
         -1   -1    0    0    0  501 -0.00000000000E+00 -0.00000000000E+00 -0.19519153457E+02  0.19519153457E+02  0.00000000000E+00 0.  1.
         23    2    1    2    0    0  0.00000000000E+00  0.00000000000E+00  0.89692821737E+02  0.12873112865E+03  0.92341221633E+02 0.  0.
          2    1    3    3  502    0 -0.11470684822E+02  0.37285878244E+02  0.79275183602E+02  0.88353653358E+02  0.00000000000E+00 0. -1.
         -2    1    3    3    0  502  0.11470684822E+02 -0.37285878244E+02  0.10417638136E+02  0.40377475293E+02  0.00000000000E+00 0.  1.
<mgrwt>
<rscale>  0 0.92341222E+02</rscale>
<asrwt>0</asrwt>
<pdfrwt beam="1">  1        1 0.16801842E-01 0.92341222E+02</pdfrwt>
<pdfrwt beam="2">  1       -1 0.30029468E-02 0.92341222E+02</pdfrwt>
<totfact> 0.10240833E+05</totfact>
</mgrwt>
</event>
<event>
 5    1  0.4023633E+001  0.8732644E+02  0.7546771E-02  0.1309458E+00
          4   -1    0    0  501    0  0.00000000000E+00  0.00000000000E+00  0.15816277090E+03  0.15816277090E+03  0.00000000000E+00 0. -1.
         -4   -1    0    0    0  501 -0.00000000000E+00 -0.00000000000E+00 -0.12053890840E+02  0.12053890840E+02  0.00000000000E+00 0.  1.
         23    2    1    2    0    0  0.00000000000E+00  0.00000000000E+00  0.14610888006E+03  0.17021666174E+03  0.87326439875E+02 0.  0.
          2    1    3    3  502    0 -0.40543418322E+02 -0.14860942717E+02  0.85665684269E+02  0.95933444893E+02  0.00000000000E+00 0. -1.
         -2    1    3    3    0  502  0.40543418322E+02  0.14860942717E+02  0.60443195789E+02  0.74283216845E+02  0.00000000000E+00 0.  1.
<mgrwt>
<rscale>  0 0.87326440E+02</rscale>
<asrwt>0</asrwt>
<pdfrwt beam="1">  1        4 0.24332732E-01 0.87326440E+02</pdfrwt>
<pdfrwt beam="2">  1       -4 0.18544449E-02 0.87326440E+02</pdfrwt>
<totfact> 0.25471255E+04</totfact>
</mgrwt>
</event>
<event>
 4    1  0.4023633E+001  0.1323783E+03  0.7546771E-02  0.1223969E+00
          1   -1    0    0  501    0  0.00000000000E+00  0.00000000000E+00  0.62268452889E+02  0.62268452889E+02  0.00000000000E+00 0. -1.
         -1   -1    0    0    0  501 -0.00000000000E+00 -0.00000000000E+00 -0.70356687662E+02  0.70356687662E+02  0.00000000000E+00 0.  1.
          2    1    1    2  502    0  0.25764241562E+02  0.32396981610E+02  0.47701415797E+02  0.63156833595E+02  0.00000000000E+00 0. -1.
         -2    1    1    2    0  502 -0.25764241562E+02 -0.32396981610E+02 -0.55789650570E+02  0.69468306956E+02  0.00000000000E+00 0.  1.
<mgrwt>
<rscale>  0 0.13237828E+03</rscale>
<asrwt>0</asrwt>
<pdfrwt beam="1">  1        1 0.95797620E-02 0.13237828E+03</pdfrwt>
<pdfrwt beam="2">  1       -1 0.10824106E-01 0.13237828E+03</pdfrwt>
<totfact> 0.33420804E+04</totfact>
</mgrwt>
</event>
<event>
 5    1  0.4023633E+001  0.8785815E+02  0.7546771E-02  0.1308123E+00
         -2   -1    0    0    0  501 -0.00000000000E+00  0.00000000000E+00  0.78376168476E+01  0.78376168476E+01  0.00000000000E+00 0.  1.
          2   -1    0    0  501    0  0.00000000000E+00 -0.00000000000E+00 -0.24621814252E+03  0.24621814252E+03  0.00000000000E+00 0. -1.
         23    2    1    2    0    0  0.00000000000E+00  0.00000000000E+00 -0.23838052568E+03  0.25405575937E+03  0.87858146168E+02 0.  0.
          2    1    3    3  502    0  0.41227160155E+02 -0.12291052515E+02 -0.14489428638E+03  0.15114596564E+03  0.00000000000E+00 0. -1.
         -2    1    3    3    0  502 -0.41227160155E+02  0.12291052515E+02 -0.93486239301E+02  0.10290979373E+03  0.00000000000E+00 0.  1.
<mgrwt>
<rscale>  0 0.87858146E+02</rscale>
<asrwt>0</asrwt>
<pdfrwt beam="2">  1        2 0.37879714E-01 0.87858146E+02</pdfrwt>
<pdfrwt beam="1">  1       -2 0.12057872E-02 0.87858146E+02</pdfrwt>
<totfact> 0.18429765E+05</totfact>
</mgrwt>
</event>
<event>
 5    1  0.4023633E+001  0.9307783E+02  0.7546771E-02  0.1295565E+00
         -2   -1    0    0    0  501 -0.00000000000E+00  0.00000000000E+00  0.68399693578E+02  0.68399693578E+02  0.00000000000E+00 0.  1.
          2   -1    0    0  501    0  0.00000000000E+00 -0.00000000000E+00 -0.31664919803E+02  0.31664919803E+02  0.00000000000E+00 0. -1.
         23    2    1    2    0    0  0.00000000000E+00  0.00000000000E+00  0.36734773776E+02  0.10006461338E+03  0.93077834347E+02 0.  0.
          2    1    3    3  502    0  0.12530064096E+02 -0.20266145241E+02 -0.24610320754E+02  0.34254737435E+02  0.00000000000E+00 0. -1.
         -2    1    3    3    0  502 -0.12530064096E+02  0.20266145241E+02  0.61345094529E+02  0.65809875946E+02  0.00000000000E+00 0.  1.
<mgrwt>
<rscale>  0 0.93077834E+02</rscale>
<asrwt>0</asrwt>
<pdfrwt beam="2">  1        2 0.48715261E-02 0.93077834E+02</pdfrwt>
<pdfrwt beam="1">  1       -2 0.10523030E-01 0.93077834E+02</pdfrwt>
<totfact> 0.84421330E+04</totfact>
</mgrwt>
</event>
<event>
 5    1  0.4023633E+001  0.9047050E+02  0.7546771E-02  0.1301716E+00
         -1   -1    0    0    0  501 -0.00000000000E+00  0.00000000000E+00  0.11867596525E+03  0.11867596525E+03  0.00000000000E+00 0.  1.
          1   -1    0    0  501    0  0.00000000000E+00 -0.00000000000E+00 -0.17242141090E+02  0.17242141090E+02  0.00000000000E+00 0. -1.
         23    2    1    2    0    0  0.00000000000E+00  0.00000000000E+00  0.10143382416E+03  0.13591810634E+03  0.90470497661E+02 0.  0.
          2    1    3    3  502    0  0.20594780042E+02  0.10504518686E+02 -0.76959627079E+01  0.24366323477E+02  0.00000000000E+00 0. -1.
         -2    1    3    3    0  502 -0.20594780042E+02 -0.10504518686E+02  0.10912978687E+03  0.11155178286E+03  0.00000000000E+00 0.  1.
<mgrwt>
<rscale>  0 0.90470498E+02</rscale>
<asrwt>0</asrwt>
<pdfrwt beam="2">  1        1 0.26526372E-02 0.90470498E+02</pdfrwt>
<pdfrwt beam="1">  1       -1 0.18257840E-01 0.90470498E+02</pdfrwt>
<totfact> 0.80305391E+04</totfact>
</mgrwt>
</event>
<event>
 5    1  0.4023633E+001  0.9861178E+02  0.7546771E-02  0.1283243E+00
          2   -1    0    0  501    0  0.00000000000E+00  0.00000000000E+00  0.24888583188E+02  0.24888583188E+02  0.00000000000E+00 0. -1.
         -2   -1    0    0    0  501 -0.00000000000E+00 -0.00000000000E+00 -0.97678144166E+02  0.97678144166E+02  0.00000000000E+00 0.  1.
         23    2    1    2    0    0  0.00000000000E+00  0.00000000000E+00 -0.72789560978E+02  0.12256672735E+03  0.98611776512E+02 0.  0.
          2    1    3    3  502    0 -0.38756793706E+02 -0.25664459697E+02 -0.15959502941E+02  0.49147322246E+02  0.00000000000E+00 0. -1.
         -2    1    3    3    0  502  0.38756793706E+02  0.25664459697E+02 -0.56830058037E+02  0.73419405107E+02  0.00000000000E+00 0.  1.
<mgrwt>
<rscale>  0 0.98611777E+02</rscale>
<asrwt>0</asrwt>
<pdfrwt beam="1">  1        2 0.38290129E-02 0.98611777E+02</pdfrwt>
<pdfrwt beam="2">  1       -2 0.15027406E-01 0.98611777E+02</pdfrwt>
<totfact> 0.66143998E+04</totfact>
</mgrwt>
</event>
<event>
 5    1  0.4023633E+001  0.9085838E+02  0.7546771E-02  0.1300786E+00
          1   -1    0    0  501    0  0.00000000000E+00  0.00000000000E+00  0.48576041495E+02  0.48576041495E+02  0.00000000000E+00 0. -1.
         -1   -1    0    0    0  501 -0.00000000000E+00 -0.00000000000E+00 -0.42486197594E+02  0.42486197594E+02  0.00000000000E+00 0.  1.
         23    2    1    2    0    0  0.00000000000E+00  0.00000000000E+00  0.60898439011E+01  0.91062239088E+02  0.90858379850E+02 0.  0.
          2    1    3    3  502    0  0.15386361015E+01 -0.41014824824E+02 -0.16472549717E+02  0.44225876482E+02  0.00000000000E+00 0.  1.
         -2    1    3    3    0  502 -0.15386361015E+01  0.41014824824E+02  0.22562393618E+02  0.46836362606E+02  0.00000000000E+00 0. -1.
<mgrwt>
<rscale>  0 0.90858380E+02</rscale>
<asrwt>0</asrwt>
<pdfrwt beam="1">  1        1 0.74732372E-02 0.90858380E+02</pdfrwt>
<pdfrwt beam="2">  1       -1 0.65363381E-02 0.90858380E+02</pdfrwt>
<totfact> 0.94276552E+04</totfact>
</mgrwt>
</event>
<event>
 5    1  0.4023633E+001  0.8806151E+02  0.7546771E-02  0.1307615E+00
          1   -1    0    0  501    0  0.00000000000E+00  0.00000000000E+00  0.85090457208E+03  0.85090457208E+03  0.00000000000E+00 0. -1.
         -1   -1    0    0    0  501 -0.00000000000E+00 -0.00000000000E+00 -0.22784074561E+01  0.22784074561E+01  0.00000000000E+00 0.  1.
         23    2    1    2    0    0  0.00000000000E+00  0.00000000000E+00  0.84862616463E+03  0.85318297954E+03  0.88061508538E+02 0.  0.
          2    1    3    3  502    0  0.42075917863E+02  0.58563900764E+01  0.53647681607E+03  0.53815616168E+03  0.00000000000E+00 0. -1.
         -2    1    3    3    0  502 -0.42075917863E+02 -0.58563900764E+01  0.31214934856E+03  0.31502681786E+03  0.00000000000E+00 0.  1.
<mgrwt>
<rscale>  0 0.88061509E+02</rscale>
<asrwt>0</asrwt>
<pdfrwt beam="1">  1        1 0.13090814E+00 0.88061509E+02</pdfrwt>
<pdfrwt beam="2">  1       -1 0.35052490E-03 0.88061509E+02</pdfrwt>
<totfact> 0.15384656E+05</totfact>
</mgrwt>
</event>
<event>
 5    1  0.4023633E+001  0.6145863E+02  0.7546771E-02  0.1391811E+00
         -1   -1    0    0    0  501 -0.00000000000E+00  0.00000000000E+00  0.40649911188E+03  0.40649911188E+03  0.00000000000E+00 0.  1.
          1   -1    0    0  501    0  0.00000000000E+00 -0.00000000000E+00 -0.23229834691E+01  0.23229834691E+01  0.00000000000E+00 0. -1.
         23    2    1    2    0    0  0.00000000000E+00  0.00000000000E+00  0.40417612841E+03  0.40882209535E+03  0.61458627290E+02 0.  0.
          2    1    3    3  502    0  0.23616156994E+02 -0.38060794232E+01  0.73775080440E+02  0.77556248012E+02  0.00000000000E+00 0. -1.
         -2    1    3    3    0  502 -0.23616156994E+02  0.38060794232E+01  0.33040104797E+03  0.33126584734E+03  0.00000000000E+00 0.  1.
<mgrwt>
<rscale>  0 0.61458627E+02</rscale>
<asrwt>0</asrwt>
<pdfrwt beam="2">  1        1 0.35738240E-03 0.61458627E+02</pdfrwt>
<pdfrwt beam="1">  1       -1 0.62538268E-01 0.61458627E+02</pdfrwt>
<totfact> 0.14610022E+05</totfact>
</mgrwt>
</event>
<event>
 5    1  0.4023633E+001  0.9089982E+02  0.7546771E-02  0.1300687E+00
          2   -1    0    0  501    0  0.00000000000E+00  0.00000000000E+00  0.81779841855E+02  0.81779841855E+02  0.00000000000E+00 0. -1.
         -2   -1    0    0    0  501 -0.00000000000E+00 -0.00000000000E+00 -0.25259212058E+02  0.25259212058E+02  0.00000000000E+00 0.  1.
         23    2    1    2    0    0  0.00000000000E+00  0.00000000000E+00  0.56520629796E+02  0.10703905391E+03  0.90899821067E+02 0.  0.
          2    1    3    3  502    0  0.35827457255E+02  0.26493663673E+02  0.17716578372E+02  0.47952039137E+02  0.00000000000E+00 0.  1.
         -2    1    3    3    0  502 -0.35827457255E+02 -0.26493663673E+02  0.38804051424E+02  0.59087014776E+02  0.00000000000E+00 0. -1.
<mgrwt>
<rscale>  0 0.90899821E+02</rscale>
<asrwt>0</asrwt>
<pdfrwt beam="1">  1        2 0.12581514E-01 0.90899821E+02</pdfrwt>
<pdfrwt beam="2">  1       -2 0.38860327E-02 0.90899821E+02</pdfrwt>
<totfact> 0.11656344E+05</totfact>
</mgrwt>
</event>
<event>
 5    1  0.4023633E+001  0.9256592E+02  0.7546771E-02  0.1296754E+00
          1   -1    0    0  501    0  0.00000000000E+00  0.00000000000E+00  0.78599947991E+03  0.78599947991E+03  0.00000000000E+00 0. -1.
         -1   -1    0    0    0  501 -0.00000000000E+00 -0.00000000000E+00 -0.27253354265E+01  0.27253354265E+01  0.00000000000E+00 0.  1.
         23    2    1    2    0    0  0.00000000000E+00  0.00000000000E+00  0.78327414449E+03  0.78872481534E+03  0.92565916574E+02 0.  0.
          2    1    3    3  502    0  0.34287064745E+02  0.45067763347E+01  0.65373615479E+03  0.65465019202E+03  0.00000000000E+00 0. -1.
         -2    1    3    3    0  502 -0.34287064745E+02 -0.45067763347E+01  0.12953798970E+03  0.13407462332E+03  0.00000000000E+00 0.  1.
<mgrwt>
<rscale>  0 0.92565917E+02</rscale>
<asrwt>0</asrwt>
<pdfrwt beam="1">  1        1 0.12092282E+00 0.92565917E+02</pdfrwt>
<pdfrwt beam="2">  1       -1 0.41928300E-03 0.92565917E+02</pdfrwt>
<totfact> 0.13595284E+05</totfact>
</mgrwt>
</event>
<event>
 5    1  0.4023633E+001  0.9489671E+02  0.7546771E-02  0.1291409E+00
         -1   -1    0    0    0  501 -0.00000000000E+00  0.00000000000E+00  0.12597486927E+01  0.12597486927E+01  0.00000000000E+00 0.  1.
          1   -1    0    0  501    0  0.00000000000E+00 -0.00000000000E+00 -0.17871394010E+04  0.17871394010E+04  0.00000000000E+00 0. -1.
         23    2    1    2    0    0  0.00000000000E+00  0.00000000000E+00 -0.17858796523E+04  0.17883991497E+04  0.94896712779E+02 0.  0.
          2    1    3    3  502    0  0.36242083021E+02  0.14722735815E+02 -0.38686966604E+03  0.38884236656E+03  0.00000000000E+00 0. -1.
         -2    1    3    3    0  502 -0.36242083021E+02 -0.14722735815E+02 -0.13990099862E+04  0.13995567831E+04  0.00000000000E+00 0.  1.
<mgrwt>
<rscale>  0 0.94896713E+02</rscale>
<asrwt>0</asrwt>
<pdfrwt beam="2">  1        1 0.27494468E+00 0.94896713E+02</pdfrwt>
<pdfrwt beam="1">  1       -1 0.19380738E-03 0.94896713E+02</pdfrwt>
<totfact> 0.83428281E+04</totfact>
</mgrwt>
</event>
<event>
 5    1  0.4023633E+001  0.8984783E+02  0.7546771E-02  0.1303221E+00
         -3   -1    0    0    0  501 -0.00000000000E+00  0.00000000000E+00  0.31366236721E+02  0.31366236721E+02  0.00000000000E+00 0.  1.
          3   -1    0    0  501    0  0.00000000000E+00 -0.00000000000E+00 -0.64341730729E+02  0.64341730729E+02  0.00000000000E+00 0. -1.
         23    2    1    2    0    0  0.00000000000E+00  0.00000000000E+00 -0.32975494007E+02  0.95707967450E+02  0.89847825952E+02 0.  0.
          2    1    3    3  502    0  0.34718816937E+02 -0.27733966623E+02 -0.23520542538E+02  0.50277083005E+02  0.00000000000E+00 0. -1.
         -2    1    3    3    0  502 -0.34718816937E+02  0.27733966623E+02 -0.94549514687E+01  0.45430884445E+02  0.00000000000E+00 0.  1.
<mgrwt>
<rscale>  0 0.89847826E+02</rscale>
<asrwt>0</asrwt>
<pdfrwt beam="2">  1        3 0.98987278E-02 0.89847826E+02</pdfrwt>
<pdfrwt beam="1">  1       -3 0.48255749E-02 0.89847826E+02</pdfrwt>
<totfact> 0.36416612E+04</totfact>
</mgrwt>
</event>
<event>
 5    1  0.4023633E+001  0.9096817E+02  0.7546771E-02  0.1300524E+00
          1   -1    0    0  501    0  0.00000000000E+00  0.00000000000E+00  0.23619568944E+04  0.23619568944E+04  0.00000000000E+00 0. -1.
         -1   -1    0    0    0  501 -0.00000000000E+00 -0.00000000000E+00 -0.87588469084E+00  0.87588469084E+00  0.00000000000E+00 0.  1.
         23    2    1    2    0    0  0.00000000000E+00  0.00000000000E+00  0.23610810097E+04  0.23628327791E+04  0.90968167711E+02 0.  0.
          2    1    3    3  502    0 -0.50694915963E+01  0.41941966927E+02  0.16182464896E+04  0.16187978655E+04  0.00000000000E+00 0. -1.
         -2    1    3    3    0  502  0.50694915963E+01 -0.41941966927E+02  0.74283452006E+03  0.74403491352E+03  0.00000000000E+00 0.  1.
<mgrwt>
<rscale>  0 0.90968168E+02</rscale>
<asrwt>0</asrwt>
<pdfrwt beam="1">  1        1 0.36337288E+00 0.90968168E+02</pdfrwt>
<pdfrwt beam="2">  1       -1 0.13475338E-03 0.90968168E+02</pdfrwt>
<totfact> 0.59650899E+04</totfact>
</mgrwt>
</event>
<event>
 5    1  0.4023633E+001  0.9555298E+02  0.7546771E-02  0.1289935E+00
          4   -1    0    0  501    0  0.00000000000E+00  0.00000000000E+00  0.16168768023E+03  0.16168768023E+03  0.00000000000E+00 0. -1.
         -4   -1    0    0    0  501 -0.00000000000E+00 -0.00000000000E+00 -0.14117295766E+02  0.14117295766E+02  0.00000000000E+00 0.  1.
         23    2    1    2    0    0  0.00000000000E+00  0.00000000000E+00  0.14757038447E+03  0.17580497600E+03  0.95552975956E+02 0.  0.
          2    1    3    3  502    0 -0.19580972345E+02  0.11261516076E+02  0.15124251765E+03  0.15292002932E+03  0.00000000000E+00 0. -1.
         -2    1    3    3    0  502  0.19580972345E+02 -0.11261516076E+02 -0.36721331838E+01  0.22884946677E+02  0.00000000000E+00 0.  1.
<mgrwt>
<rscale>  0 0.95552976E+02</rscale>
<asrwt>0</asrwt>
<pdfrwt beam="1">  1        4 0.24875026E-01 0.95552976E+02</pdfrwt>
<pdfrwt beam="2">  1       -4 0.21718918E-02 0.95552976E+02</pdfrwt>
<totfact> 0.19776117E+04</totfact>
</mgrwt>
</event>
<event>
 5    1  0.4023633E+001  0.9320944E+02  0.7546771E-02  0.1295261E+00
         -3   -1    0    0    0  501 -0.00000000000E+00  0.00000000000E+00  0.14755840589E+02  0.14755840589E+02  0.00000000000E+00 0.  1.
          3   -1    0    0  501    0  0.00000000000E+00 -0.00000000000E+00 -0.14719593144E+03  0.14719593144E+03  0.00000000000E+00 0. -1.
         23    2    1    2    0    0  0.00000000000E+00  0.00000000000E+00 -0.13244009085E+03  0.16195177203E+03  0.93209435139E+02 0.  0.
          2    1    3    3  502    0 -0.40170651669E+02  0.19664610331E+02 -0.88982114215E+02  0.99590134076E+02  0.00000000000E+00 0. -1.
         -2    1    3    3    0  502  0.40170651669E+02 -0.19664610331E+02 -0.43457976634E+02  0.62361637953E+02  0.00000000000E+00 0.  1.
<mgrwt>
<rscale>  0 0.93209435E+02</rscale>
<asrwt>0</asrwt>
<pdfrwt beam="2">  1        3 0.22645528E-01 0.93209435E+02</pdfrwt>
<pdfrwt beam="1">  1       -3 0.22701293E-02 0.93209435E+02</pdfrwt>
<totfact> 0.28815244E+04</totfact>
</mgrwt>
</event>
<event>
 5    1  0.4023633E+001  0.9108841E+02  0.7546771E-02  0.1300237E+00
         -2   -1    0    0    0  501 -0.00000000000E+00  0.00000000000E+00  0.24180720246E+01  0.24180720246E+01  0.00000000000E+00 0.  1.
          2   -1    0    0  501    0  0.00000000000E+00 -0.00000000000E+00 -0.85782172146E+03  0.85782172146E+03  0.00000000000E+00 0. -1.
         23    2    1    2    0    0  0.00000000000E+00  0.00000000000E+00 -0.85540364944E+03  0.86023979349E+03  0.91088412144E+02 0.  0.
          2    1    3    3  502    0 -0.38630328019E+02  0.21555730208E+02 -0.32540835707E+03  0.32840150821E+03  0.00000000000E+00 0. -1.
         -2    1    3    3    0  502  0.38630328019E+02 -0.21555730208E+02 -0.52999529237E+03  0.53183828527E+03  0.00000000000E+00 0.  1.
<mgrwt>
<rscale>  0 0.91088412E+02</rscale>
<asrwt>0</asrwt>
<pdfrwt beam="2">  1        2 0.13197268E+00 0.91088412E+02</pdfrwt>
<pdfrwt beam="1">  1       -2 0.37201077E-03 0.91088412E+02</pdfrwt>
<totfact> 0.24707413E+05</totfact>
</mgrwt>
</event>
<event>
 5    1  0.4023633E+001  0.9089104E+02  0.7546771E-02  0.1300708E+00
          3   -1    0    0  501    0  0.00000000000E+00  0.00000000000E+00  0.66476663681E+01  0.66476663681E+01  0.00000000000E+00 0. -1.
         -3   -1    0    0    0  501 -0.00000000000E+00 -0.00000000000E+00 -0.31067973542E+03  0.31067973542E+03  0.00000000000E+00 0.  1.
         23    2    1    2    0    0  0.00000000000E+00  0.00000000000E+00 -0.30403206905E+03  0.31732740179E+03  0.90891038687E+02 0.  0.
          2    1    3    3  502    0  0.12017099828E+02  0.22799311244E+02 -0.21333560427E+02  0.33456540198E+02  0.00000000000E+00 0. -1.
         -2    1    3    3    0  502 -0.12017099828E+02 -0.22799311244E+02 -0.28269850862E+03  0.28387086159E+03  0.00000000000E+00 0.  1.
<mgrwt>
<rscale>  0 0.90891039E+02</rscale>
<asrwt>0</asrwt>
<pdfrwt beam="1">  1        3 0.10227179E-02 0.90891039E+02</pdfrwt>
<pdfrwt beam="2">  1       -3 0.47796884E-01 0.90891039E+02</pdfrwt>
<totfact> 0.23564633E+04</totfact>
</mgrwt>
</event>
<event>
 5    1  0.4023633E+001  0.1020002E+03  0.7546771E-02  0.1276145E+00
          2   -1    0    0  501    0  0.00000000000E+00  0.00000000000E+00  0.12488968751E+03  0.12488968751E+03  0.00000000000E+00 0. -1.
         -2   -1    0    0    0  501 -0.00000000000E+00 -0.00000000000E+00 -0.20826467613E+02  0.20826467613E+02  0.00000000000E+00 0.  1.
         23    2    1    2    0    0  0.00000000000E+00  0.00000000000E+00  0.10406321990E+03  0.14571615512E+03  0.10200021632E+03 0.  0.
          2    1    3    3  502    0  0.32071354016E+02  0.26020925161E+02  0.94778370496E+02  0.10338568474E+03  0.00000000000E+00 0. -1.
         -2    1    3    3    0  502 -0.32071354016E+02 -0.26020925161E+02  0.92848494007E+01  0.42330470386E+02  0.00000000000E+00 0.  1.
<mgrwt>
<rscale>  0 0.10200022E+03</rscale>
<asrwt>0</asrwt>
<pdfrwt beam="1">  1        2 0.19213798E-01 0.10200022E+03</pdfrwt>
<pdfrwt beam="2">  1       -2 0.32040720E-02 0.10200022E+03</pdfrwt>
<totfact> 0.96594161E+04</totfact>
</mgrwt>
</event>
<event>
 5    1  0.4023633E+001  0.8961860E+02  0.7546771E-02  0.1303778E+00
         -1   -1    0    0    0  501 -0.00000000000E+00  0.00000000000E+00  0.86919952738E+01  0.86919952738E+01  0.00000000000E+00 0.  1.
          1   -1    0    0  501    0  0.00000000000E+00 -0.00000000000E+00 -0.23100260078E+03  0.23100260078E+03  0.00000000000E+00 0. -1.
         23    2    1    2    0    0  0.00000000000E+00  0.00000000000E+00 -0.22231060551E+03  0.23969459605E+03  0.89618603297E+02 0.  0.
          2    1    3    3  502    0  0.12965829297E+02  0.42890460913E+02 -0.11225530315E+03  0.12086752025E+03  0.00000000000E+00 0. -1.
         -2    1    3    3    0  502 -0.12965829297E+02 -0.42890460913E+02 -0.11005530236E+03  0.11882707580E+03  0.00000000000E+00 0.  1.
<mgrwt>
<rscale>  0 0.89618603E+02</rscale>
<asrwt>0</asrwt>
<pdfrwt beam="2">  1        1 0.35538854E-01 0.89618603E+02</pdfrwt>
<pdfrwt beam="1">  1       -1 0.13372303E-02 0.89618603E+02</pdfrwt>
<totfact> 0.12751602E+05</totfact>
</mgrwt>
</event>
<event>
 5    1  0.4023633E+001  0.9435728E+02  0.7546771E-02  0.1292630E+00
         -1   -1    0    0    0  501 -0.00000000000E+00  0.00000000000E+00  0.95843918795E+00  0.95843918795E+00  0.00000000000E+00 0.  1.
          1   -1    0    0  501    0  0.00000000000E+00 -0.00000000000E+00 -0.23223427191E+04  0.23223427191E+04  0.00000000000E+00 0. -1.
         23    2    1    2    0    0  0.00000000000E+00  0.00000000000E+00 -0.23213842799E+04  0.23233011583E+04  0.94357284187E+02 0.  0.
          2    1    3    3  502    0 -0.15938590523E+02 -0.43795709716E+02 -0.13411616286E+04  0.13419711684E+04  0.00000000000E+00 0. -1.
         -2    1    3    3    0  502  0.15938590523E+02  0.43795709716E+02 -0.98022265133E+03  0.98132998988E+03  0.00000000000E+00 0.  1.
<mgrwt>
<rscale>  0 0.94357284E+02</rscale>
<asrwt>0</asrwt>
<pdfrwt beam="2">  1        1 0.35728103E+00 0.94357284E+02</pdfrwt>
<pdfrwt beam="1">  1       -1 0.14745320E-03 0.94357284E+02</pdfrwt>
<totfact> 0.56022565E+04</totfact>
</mgrwt>
</event>
<event>
 5    1  0.4023633E+001  0.9760925E+02  0.7546771E-02  0.1285405E+00
          2   -1    0    0  501    0  0.00000000000E+00  0.00000000000E+00  0.60907383015E+02  0.60907383015E+02  0.00000000000E+00 0. -1.
         -2   -1    0    0    0  501 -0.00000000000E+00 -0.00000000000E+00 -0.39106776523E+02  0.39106776523E+02  0.00000000000E+00 0.  1.
         23    2    1    2    0    0  0.00000000000E+00  0.00000000000E+00  0.21800606492E+02  0.10001415954E+03  0.97609249893E+02 0.  0.
          2    1    3    3  502    0 -0.42551340100E+02  0.12984340878E+02  0.31461647077E+02  0.54488942816E+02  0.00000000000E+00 0. -1.
         -2    1    3    3    0  502  0.42551340100E+02 -0.12984340878E+02 -0.96610405858E+01  0.45525216722E+02  0.00000000000E+00 0.  1.
<mgrwt>
<rscale>  0 0.97609250E+02</rscale>
<asrwt>0</asrwt>
<pdfrwt beam="1">  1        2 0.93703667E-02 0.97609250E+02</pdfrwt>
<pdfrwt beam="2">  1       -2 0.60164271E-02 0.97609250E+02</pdfrwt>
<totfact> 0.87764356E+04</totfact>
</mgrwt>
</event>
<event>
 5    1  0.4023633E+001  0.9278243E+02  0.7546771E-02  0.1296250E+00
          1   -1    0    0  501    0  0.00000000000E+00  0.00000000000E+00  0.10689868836E+02  0.10689868836E+02  0.00000000000E+00 0. -1.
         -1   -1    0    0    0  501 -0.00000000000E+00 -0.00000000000E+00 -0.20132566456E+03  0.20132566456E+03  0.00000000000E+00 0.  1.
         23    2    1    2    0    0  0.00000000000E+00  0.00000000000E+00 -0.19063579573E+03  0.21201553340E+03  0.92782432551E+02 0.  0.
          2    1    3    3  502    0 -0.31416531818E+02  0.32509191791E+02 -0.71537780187E+02  0.84625646328E+02  0.00000000000E+00 0. -1.
         -2    1    3    3    0  502  0.31416531818E+02 -0.32509191791E+02 -0.11909801554E+03  0.12738988707E+03  0.00000000000E+00 0.  1.
<mgrwt>
<rscale>  0 0.92782433E+02</rscale>
<asrwt>0</asrwt>
<pdfrwt beam="1">  1        1 0.16445953E-02 0.92782433E+02</pdfrwt>
<pdfrwt beam="2">  1       -1 0.30973178E-01 0.92782433E+02</pdfrwt>
<totfact> 0.66208009E+04</totfact>
</mgrwt>
</event>
<event>
 5    1  0.4023633E+001  0.9046777E+02  0.7546771E-02  0.1301723E+00
          1   -1    0    0  501    0  0.00000000000E+00  0.00000000000E+00  0.21359368475E+02  0.21359368475E+02  0.00000000000E+00 0. -1.
         -1   -1    0    0    0  501 -0.00000000000E+00 -0.00000000000E+00 -0.95794233914E+02  0.95794233914E+02  0.00000000000E+00 0.  1.
         23    2    1    2    0    0  0.00000000000E+00  0.00000000000E+00 -0.74434865439E+02  0.11715360239E+03  0.90467769729E+02 0.  0.
          2    1    3    3  502    0 -0.36592896939E+02 -0.24144334609E+02 -0.51644381630E+02  0.67743126249E+02  0.00000000000E+00 0.  1.
         -2    1    3    3    0  502  0.36592896939E+02  0.24144334609E+02 -0.22790483809E+02  0.49410476139E+02  0.00000000000E+00 0. -1.
<mgrwt>
<rscale>  0 0.90467770E+02</rscale>
<asrwt>0</asrwt>
<pdfrwt beam="1">  1        1 0.32860567E-02 0.90467770E+02</pdfrwt>
<pdfrwt beam="2">  1       -1 0.14737575E-01 0.90467770E+02</pdfrwt>
<totfact> 0.83679458E+04</totfact>
</mgrwt>
</event>
<event>
 5    1  0.4023633E+001  0.9426081E+02  0.7546771E-02  0.1292850E+00
         -1   -1    0    0    0  501 -0.00000000000E+00  0.00000000000E+00  0.96016378606E+01  0.96016378606E+01  0.00000000000E+00 0.  1.
          1   -1    0    0  501    0  0.00000000000E+00 -0.00000000000E+00 -0.23134335321E+03  0.23134335321E+03  0.00000000000E+00 0. -1.
         23    2    1    2    0    0  0.00000000000E+00  0.00000000000E+00 -0.22174171535E+03  0.24094499107E+03  0.94260810499E+02 0.  0.
          2    1    3    3  502    0  0.21898398269E+02  0.15194795231E+02 -0.21022772797E+03  0.21191063979E+03  0.00000000000E+00 0. -1.
         -2    1    3    3    0  502 -0.21898398269E+02 -0.15194795231E+02 -0.11513987379E+02  0.29034351280E+02  0.00000000000E+00 0.  1.
<mgrwt>
<rscale>  0 0.94260810E+02</rscale>
<asrwt>0</asrwt>
<pdfrwt beam="2">  1        1 0.35591287E-01 0.94260810E+02</pdfrwt>
<pdfrwt beam="1">  1       -1 0.14771750E-02 0.94260810E+02</pdfrwt>
<totfact> 0.11141765E+05</totfact>
</mgrwt>
</event>
<event>
 5    1  0.4023633E+001  0.9222305E+02  0.7546771E-02  0.1297556E+00
         -1   -1    0    0    0  501 -0.00000000000E+00  0.00000000000E+00  0.64293657369E+03  0.64293657369E+03  0.00000000000E+00 0.  1.
          1   -1    0    0  501    0  0.00000000000E+00 -0.00000000000E+00 -0.33071265788E+01  0.33071265788E+01  0.00000000000E+00 0. -1.
         23    2    1    2    0    0  0.00000000000E+00  0.00000000000E+00  0.63962944711E+03  0.64624370027E+03  0.92223047690E+02 0.  0.
          2    1    3    3  502    0 -0.17165206702E+02 -0.31367102896E+02  0.11578828929E+03  0.12118361029E+03  0.00000000000E+00 0. -1.
         -2    1    3    3    0  502  0.17165206702E+02  0.31367102896E+02  0.52384115782E+03  0.52506008998E+03  0.00000000000E+00 0.  1.
<mgrwt>
<rscale>  0 0.92223048E+02</rscale>
<asrwt>0</asrwt>
<pdfrwt beam="2">  1        1 0.50878922E-03 0.92223048E+02</pdfrwt>
<pdfrwt beam="1">  1       -1 0.98913220E-01 0.92223048E+02</pdfrwt>
<totfact> 0.38330798E+04</totfact>
</mgrwt>
</event>
<event>
 5    1  0.4023633E+001  0.9206640E+02  0.7546771E-02  0.1297923E+00
          2   -1    0    0  501    0  0.00000000000E+00  0.00000000000E+00  0.64879406529E+02  0.64879406529E+02  0.00000000000E+00 0. -1.
         -2   -1    0    0    0  501 -0.00000000000E+00 -0.00000000000E+00 -0.32661450561E+02  0.32661450561E+02  0.00000000000E+00 0.  1.
         23    2    1    2    0    0  0.00000000000E+00  0.00000000000E+00  0.32217955968E+02  0.97540857091E+02  0.92066400577E+02 0.  0.
          2    1    3    3  502    0  0.54837268936E+01  0.22563266977E+02  0.58220205463E+02  0.62679858021E+02  0.00000000000E+00 0. -1.
         -2    1    3    3    0  502 -0.54837268936E+01 -0.22563266977E+02 -0.26002249495E+02  0.34860999070E+02  0.00000000000E+00 0.  1.
<mgrwt>
<rscale>  0 0.92066401E+02</rscale>
<asrwt>0</asrwt>
<pdfrwt beam="1">  1        2 0.99814472E-02 0.92066401E+02</pdfrwt>
<pdfrwt beam="2">  1       -2 0.50248386E-02 0.92066401E+02</pdfrwt>
<totfact> 0.10541550E+05</totfact>
</mgrwt>
</event>
<event>
 5    1  0.4023633E+001  0.9263584E+02  0.7546771E-02  0.1296591E+00
         -2   -1    0    0    0  501 -0.00000000000E+00  0.00000000000E+00  0.86172245867E+03  0.86172245867E+03  0.00000000000E+00 0.  1.
          2   -1    0    0  501    0  0.00000000000E+00 -0.00000000000E+00 -0.24896063795E+01  0.24896063795E+01  0.00000000000E+00 0. -1.
         23    2    1    2    0    0  0.00000000000E+00  0.00000000000E+00  0.85923285229E+03  0.86421206505E+03  0.92635840374E+02 0.  0.
          2    1    3    3  502    0  0.36400896911E+02 -0.28406806025E+02  0.46373836700E+03  0.46603137765E+03  0.00000000000E+00 0. -1.
         -2    1    3    3    0  502 -0.36400896911E+02  0.28406806025E+02  0.39549448529E+03  0.39818068741E+03  0.00000000000E+00 0.  1.
<mgrwt>
<rscale>  0 0.92635840E+02</rscale>
<asrwt>0</asrwt>
<pdfrwt beam="2">  1        2 0.38301705E-03 0.92635840E+02</pdfrwt>
<pdfrwt beam="1">  1       -2 0.13257245E+00 0.92635840E+02</pdfrwt>
<totfact> 0.21172858E+04</totfact>
</mgrwt>
</event>
<event>
 5    1  0.4023633E+001  0.9091884E+02  0.7546771E-02  0.1300642E+00
         -3   -1    0    0    0  501 -0.00000000000E+00  0.00000000000E+00  0.16105618708E+03  0.16105618708E+03  0.00000000000E+00 0.  1.
          3   -1    0    0  501    0  0.00000000000E+00 -0.00000000000E+00 -0.12831291713E+02  0.12831291713E+02  0.00000000000E+00 0. -1.
         23    2    1    2    0    0  0.00000000000E+00  0.00000000000E+00  0.14822489536E+03  0.17388747879E+03  0.90918841141E+02 0.  0.
          2    1    3    3  502    0 -0.26850867090E+02  0.29611962235E+02  0.32705627663E+02  0.51647802003E+02  0.00000000000E+00 0. -1.
         -2    1    3    3    0  502  0.26850867090E+02 -0.29611962235E+02  0.11551926770E+03  0.12223967679E+03  0.00000000000E+00 0.  1.
<mgrwt>
<rscale>  0 0.90918841E+02</rscale>
<asrwt>0</asrwt>
<pdfrwt beam="2">  1        3 0.19740450E-02 0.90918841E+02</pdfrwt>
<pdfrwt beam="1">  1       -3 0.24777874E-01 0.90918841E+02</pdfrwt>
<totfact> 0.30136492E+04</totfact>
</mgrwt>
</event>
<event>
 5    1  0.4023633E+001  0.9444429E+02  0.7546771E-02  0.1292433E+00
          2   -1    0    0  501    0  0.00000000000E+00  0.00000000000E+00  0.14109759652E+03  0.14109759652E+03  0.00000000000E+00 0. -1.
         -2   -1    0    0    0  501 -0.00000000000E+00 -0.00000000000E+00 -0.15804174340E+02  0.15804174340E+02  0.00000000000E+00 0.  1.
         23    2    1    2    0    0  0.00000000000E+00  0.00000000000E+00  0.12529342218E+03  0.15690177086E+03  0.94444290760E+02 0.  0.
          2    1    3    3  502    0  0.19138302129E+02  0.42463423501E+02  0.49723205971E+02  0.68130860525E+02  0.00000000000E+00 0.  1.
         -2    1    3    3    0  502 -0.19138302129E+02 -0.42463423501E+02  0.75570216207E+02  0.88770910333E+02  0.00000000000E+00 0. -1.
<mgrwt>
<rscale>  0 0.94444291E+02</rscale>
<asrwt>0</asrwt>
<pdfrwt beam="1">  1        2 0.21707322E-01 0.94444291E+02</pdfrwt>
<pdfrwt beam="2">  1       -2 0.24314115E-02 0.94444291E+02</pdfrwt>
<totfact> 0.12440967E+05</totfact>
</mgrwt>
</event>
<event>
 5    1  0.4023633E+001  0.9190011E+02  0.7546771E-02  0.1298314E+00
          1   -1    0    0  501    0  0.00000000000E+00  0.00000000000E+00  0.19402320941E+03  0.19402320941E+03  0.00000000000E+00 0. -1.
         -1   -1    0    0    0  501 -0.00000000000E+00 -0.00000000000E+00 -0.10882241256E+02  0.10882241256E+02  0.00000000000E+00 0.  1.
         23    2    1    2    0    0  0.00000000000E+00  0.00000000000E+00  0.18314096815E+03  0.20490545066E+03  0.91900106074E+02 0.  0.
          2    1    3    3  502    0  0.30227294223E+02  0.13121642834E+02  0.16297306605E+03  0.16627112523E+03  0.00000000000E+00 0. -1.
         -2    1    3    3    0  502 -0.30227294223E+02 -0.13121642834E+02  0.20167902100E+02  0.38634325435E+02  0.00000000000E+00 0.  1.
<mgrwt>
<rscale>  0 0.91900106E+02</rscale>
<asrwt>0</asrwt>
<pdfrwt beam="1">  1        1 0.29849722E-01 0.91900106E+02</pdfrwt>
<pdfrwt beam="2">  1       -1 0.16741911E-02 0.91900106E+02</pdfrwt>
<totfact> 0.11524003E+05</totfact>
</mgrwt>
</event>
<event>
 5    1  0.4023633E+001  0.9058036E+02  0.7546771E-02  0.1301452E+00
          2   -1    0    0  501    0  0.00000000000E+00  0.00000000000E+00  0.20411216754E+03  0.20411216754E+03  0.00000000000E+00 0. -1.
         -2   -1    0    0    0  501 -0.00000000000E+00 -0.00000000000E+00 -0.10049377665E+02  0.10049377665E+02  0.00000000000E+00 0.  1.
         23    2    1    2    0    0  0.00000000000E+00  0.00000000000E+00  0.19406278988E+03  0.21416154521E+03  0.90580356760E+02 0.  0.
          2    1    3    3  502    0  0.25358728670E+01 -0.34553872371E+02  0.28067611317E+02  0.44589141639E+02  0.00000000000E+00 0.  1.
         -2    1    3    3    0  502 -0.25358728670E+01  0.34553872371E+02  0.16599517856E+03  0.16957240357E+03  0.00000000000E+00 0. -1.
<mgrwt>
<rscale>  0 0.90580357E+02</rscale>
<asrwt>0</asrwt>
<pdfrwt beam="1">  1        2 0.31401869E-01 0.90580357E+02</pdfrwt>
<pdfrwt beam="2">  1       -2 0.15460583E-02 0.90580357E+02</pdfrwt>
<totfact> 0.15859839E+05</totfact>
</mgrwt>
</event>
<event>
 5    1  0.4023633E+001  0.9095500E+02  0.7546771E-02  0.1300555E+00
          3   -1    0    0  501    0  0.00000000000E+00  0.00000000000E+00  0.16829430148E+02  0.16829430148E+02  0.00000000000E+00 0. -1.
         -3   -1    0    0    0  501 -0.00000000000E+00 -0.00000000000E+00 -0.12289203754E+03  0.12289203754E+03  0.00000000000E+00 0.  1.
         23    2    1    2    0    0  0.00000000000E+00  0.00000000000E+00 -0.10606260739E+03  0.13972146768E+03  0.90954999016E+02 0.  0.
          2    1    3    3  502    0  0.41241891083E+02  0.28576569611E+00 -0.82469032037E+02  0.92206922122E+02  0.00000000000E+00 0.  1.
         -2    1    3    3    0  502 -0.41241891083E+02 -0.28576569611E+00 -0.23593575350E+02  0.47514545561E+02  0.00000000000E+00 0. -1.
<mgrwt>
<rscale>  0 0.90954999E+02</rscale>
<asrwt>0</asrwt>
<pdfrwt beam="1">  1        3 0.25891431E-02 0.90954999E+02</pdfrwt>
<pdfrwt beam="2">  1       -3 0.18906467E-01 0.90954999E+02</pdfrwt>
<totfact> 0.32161017E+04</totfact>
</mgrwt>
</event>
<event>
 5    1  0.4023633E+001  0.9143852E+02  0.7546771E-02  0.1299405E+00
          2   -1    0    0  501    0  0.00000000000E+00  0.00000000000E+00  0.14308522383E+03  0.14308522383E+03  0.00000000000E+00 0.  1.
         -2   -1    0    0    0  501 -0.00000000000E+00 -0.00000000000E+00 -0.14608430983E+02  0.14608430983E+02  0.00000000000E+00 0. -1.
         23    2    1    2    0    0  0.00000000000E+00  0.00000000000E+00  0.12847679285E+03  0.15769365481E+03  0.91438517421E+02 0.  0.
          2    1    3    3  502    0  0.23567012184E+02  0.34605012948E+02  0.95913549822E+02  0.10465333260E+03  0.00000000000E+00 0.  1.
         -2    1    3    3    0  502 -0.23567012184E+02 -0.34605012948E+02  0.32563243025E+02  0.53040322216E+02  0.00000000000E+00 0. -1.
<mgrwt>
<rscale>  0 0.91438517E+02</rscale>
<asrwt>0</asrwt>
<pdfrwt beam="1">  1        2 0.22013110E-01 0.91438517E+02</pdfrwt>
<pdfrwt beam="2">  1       -2 0.22474510E-02 0.91438517E+02</pdfrwt>
<totfact> 0.13652682E+05</totfact>
</mgrwt>
</event>
<event>
 5    1  0.4023633E+001  0.9068634E+02  0.7546771E-02  0.1301198E+00
         -1   -1    0    0    0  501 -0.00000000000E+00  0.00000000000E+00  0.36949381150E+02  0.36949381150E+02  0.00000000000E+00 0.  1.
          1   -1    0    0  501    0  0.00000000000E+00 -0.00000000000E+00 -0.55643778293E+02  0.55643778293E+02  0.00000000000E+00 0. -1.
         23    2    1    2    0    0  0.00000000000E+00  0.00000000000E+00 -0.18694397144E+02  0.92593159443E+02  0.90686342363E+02 0.  0.
          2    1    3    3  502    0  0.41655710144E+02  0.17911009469E+02 -0.93746903749E+01  0.46302130269E+02  0.00000000000E+00 0. -1.
         -2    1    3    3    0  502 -0.41655710144E+02 -0.17911009469E+02 -0.93197067687E+01  0.46291029175E+02  0.00000000000E+00 0.  1.
<mgrwt>
<rscale>  0 0.90686342E+02</rscale>
<asrwt>0</asrwt>
<pdfrwt beam="2">  1        1 0.85605813E-02 0.90686342E+02</pdfrwt>
<pdfrwt beam="1">  1       -1 0.56845201E-02 0.90686342E+02</pdfrwt>
<totfact> 0.96721252E+04</totfact>
</mgrwt>
</event>
<event>
 5    1  0.4023633E+001  0.8807517E+02  0.7546771E-02  0.1307581E+00
          2   -1    0    0  501    0  0.00000000000E+00  0.00000000000E+00  0.11999576687E+03  0.11999576687E+03  0.00000000000E+00 0. -1.
         -2   -1    0    0    0  501 -0.00000000000E+00 -0.00000000000E+00 -0.16161477173E+02  0.16161477173E+02  0.00000000000E+00 0.  1.
         23    2    1    2    0    0  0.00000000000E+00  0.00000000000E+00  0.10383428970E+03  0.13615724404E+03  0.88075168966E+02 0.  0.
          2    1    3    3  502    0 -0.53677472339E+00  0.28875826009E+02  0.10331075878E+03  0.10727168469E+03  0.00000000000E+00 0. -1.
         -2    1    3    3    0  502  0.53677472339E+00 -0.28875826009E+02  0.52353091426E+00  0.28885559358E+02  0.00000000000E+00 0.  1.
<mgrwt>
<rscale>  0 0.88075169E+02</rscale>
<asrwt>0</asrwt>
<pdfrwt beam="1">  1        2 0.18460887E-01 0.88075169E+02</pdfrwt>
<pdfrwt beam="2">  1       -2 0.24863812E-02 0.88075169E+02</pdfrwt>
<totfact> 0.14270840E+05</totfact>
</mgrwt>
</event>
<event>
 5    1  0.4023633E+001  0.9324049E+02  0.7546771E-02  0.1295189E+00
          4   -1    0    0  501    0  0.00000000000E+00  0.00000000000E+00  0.46007861199E+03  0.46007861199E+03  0.00000000000E+00 0.  1.
         -4   -1    0    0    0  501 -0.00000000000E+00 -0.00000000000E+00 -0.47240775787E+01  0.47240775787E+01  0.00000000000E+00 0. -1.
         23    2    1    2    0    0  0.00000000000E+00  0.00000000000E+00  0.45535453441E+03  0.46480268956E+03  0.93240485956E+02 0.  0.
          2    1    3    3  502    0  0.25707483966E+02  0.17703461589E+02  0.40030184500E+03  0.40151694160E+03  0.00000000000E+00 0.  1.
         -2    1    3    3    0  502 -0.25707483966E+02 -0.17703461589E+02  0.55052689412E+02  0.63285747966E+02  0.00000000000E+00 0. -1.
<mgrwt>
<rscale>  0 0.93240486E+02</rscale>
<asrwt>0</asrwt>
<pdfrwt beam="1">  1        4 0.70781290E-01 0.93240486E+02</pdfrwt>
<pdfrwt beam="2">  1       -4 0.72678153E-03 0.93240486E+02</pdfrwt>
<totfact> 0.12956863E+04</totfact>
</mgrwt>
</event>
<event>
 5    1  0.4023633E+001  0.9139799E+02  0.7546771E-02  0.1299501E+00
          2   -1    0    0  501    0  0.00000000000E+00  0.00000000000E+00  0.14421807354E+04  0.14421807354E+04  0.00000000000E+00 0. -1.
         -2   -1    0    0    0  501 -0.00000000000E+00 -0.00000000000E+00 -0.14480836374E+01  0.14480836374E+01  0.00000000000E+00 0.  1.
         23    2    1    2    0    0  0.00000000000E+00  0.00000000000E+00  0.14407326517E+04  0.14436288190E+04  0.91397993962E+02 0.  0.
          2    1    3    3  502    0 -0.34192648428E+02  0.14540858556E+01  0.11987080845E+04  0.11991965324E+04  0.00000000000E+00 0. -1.
         -2    1    3    3    0  502  0.34192648428E+02 -0.14540858556E+01  0.24202456726E+03  0.24443228660E+03  0.00000000000E+00 0.  1.
<mgrwt>
<rscale>  0 0.91397994E+02</rscale>
<asrwt>0</asrwt>
<pdfrwt beam="1">  1        2 0.22187281E+00 0.91397994E+02</pdfrwt>
<pdfrwt beam="2">  1       -2 0.22278325E-03 0.91397994E+02</pdfrwt>
<totfact> 0.23771540E+05</totfact>
</mgrwt>
</event>
<event>
 5    1  0.4023633E+001  0.9086283E+02  0.7546771E-02  0.1300776E+00
         -1   -1    0    0    0  501 -0.00000000000E+00  0.00000000000E+00  0.97529739226E+01  0.97529739226E+01  0.00000000000E+00 0.  1.
          1   -1    0    0  501    0  0.00000000000E+00 -0.00000000000E+00 -0.21162915355E+03  0.21162915355E+03  0.00000000000E+00 0. -1.
         23    2    1    2    0    0  0.00000000000E+00  0.00000000000E+00 -0.20187617963E+03  0.22138212747E+03  0.90862833234E+02 0.  0.
          2    1    3    3  502    0  0.20916063742E+02  0.32696853646E+02 -0.15846331514E+03  0.16314774962E+03  0.00000000000E+00 0. -1.
         -2    1    3    3    0  502 -0.20916063742E+02 -0.32696853646E+02 -0.43412864484E+02  0.58234377849E+02  0.00000000000E+00 0.  1.
<mgrwt>
<rscale>  0 0.90862833E+02</rscale>
<asrwt>0</asrwt>
<pdfrwt beam="2">  1        1 0.32558330E-01 0.90862833E+02</pdfrwt>
<pdfrwt beam="1">  1       -1 0.15004576E-02 0.90862833E+02</pdfrwt>
<totfact> 0.12082555E+05</totfact>
</mgrwt>
</event>
<event>
 5    1  0.4023633E+001  0.9114720E+02  0.7546771E-02  0.1300097E+00
         -1   -1    0    0    0  501 -0.00000000000E+00  0.00000000000E+00  0.18379899262E+02  0.18379899262E+02  0.00000000000E+00 0.  1.
          1   -1    0    0  501    0  0.00000000000E+00 -0.00000000000E+00 -0.11300132793E+03  0.11300132793E+03  0.00000000000E+00 0. -1.
         23    2    1    2    0    0  0.00000000000E+00  0.00000000000E+00 -0.94621428665E+02  0.13138122719E+03  0.91147200151E+02 0.  0.
          2    1    3    3  502    0  0.24790329956E+02 -0.34014207858E+02 -0.72501583137E+02  0.83833205551E+02  0.00000000000E+00 0. -1.
         -2    1    3    3    0  502 -0.24790329956E+02  0.34014207858E+02 -0.22119845528E+02  0.47548021639E+02  0.00000000000E+00 0.  1.
<mgrwt>
<rscale>  0 0.91147200E+02</rscale>
<asrwt>0</asrwt>
<pdfrwt beam="2">  1        1 0.17384819E-01 0.91147200E+02</pdfrwt>
<pdfrwt beam="1">  1       -1 0.28276768E-02 0.91147200E+02</pdfrwt>
<totfact> 0.10672248E+05</totfact>
</mgrwt>
</event>
<event>
 5    1  0.4023633E+001  0.9185591E+02  0.7546771E-02  0.1298419E+00
          4   -1    0    0  501    0  0.00000000000E+00  0.00000000000E+00  0.54132121690E+02  0.54132121690E+02  0.00000000000E+00 0. -1.
         -4   -1    0    0    0  501 -0.00000000000E+00 -0.00000000000E+00 -0.38967195415E+02  0.38967195415E+02  0.00000000000E+00 0.  1.
         23    2    1    2    0    0  0.00000000000E+00  0.00000000000E+00  0.15164926275E+02  0.93099317105E+02  0.91855908120E+02 0.  0.
          2    1    3    3  502    0 -0.30690825677E+02  0.60376554849E+01  0.41667997548E+02  0.52101843386E+02  0.00000000000E+00 0. -1.
         -2    1    3    3    0  502  0.30690825677E+02 -0.60376554849E+01 -0.26503071273E+02  0.40997473720E+02  0.00000000000E+00 0.  1.
<mgrwt>
<rscale>  0 0.91855908E+02</rscale>
<asrwt>0</asrwt>
<pdfrwt beam="1">  1        4 0.83280187E-02 0.91855908E+02</pdfrwt>
<pdfrwt beam="2">  1       -4 0.59949532E-02 0.91855908E+02</pdfrwt>
<totfact> 0.26355761E+04</totfact>
</mgrwt>
</event>
<event>
 5    1  0.4023633E+001  0.9206786E+02  0.7546771E-02  0.1297920E+00
         -2   -1    0    0    0  501 -0.00000000000E+00  0.00000000000E+00  0.34520710863E+02  0.34520710863E+02  0.00000000000E+00 0.  1.
          2   -1    0    0  501    0  0.00000000000E+00 -0.00000000000E+00 -0.61386990379E+02  0.61386990379E+02  0.00000000000E+00 0. -1.
         23    2    1    2    0    0  0.00000000000E+00  0.00000000000E+00 -0.26866279517E+02  0.95907701242E+02  0.92067856402E+02 0.  0.
          2    1    3    3  502    0 -0.22429116254E+02  0.38034154456E+02 -0.26993759685E+02  0.51752538324E+02  0.00000000000E+00 0. -1.
         -2    1    3    3    0  502  0.22429116254E+02 -0.38034154456E+02  0.12748016873E+00  0.44155162917E+02  0.00000000000E+00 0.  1.
<mgrwt>
<rscale>  0 0.92067856E+02</rscale>
<asrwt>0</asrwt>
<pdfrwt beam="2">  1        2 0.94441524E-02 0.92067856E+02</pdfrwt>
<pdfrwt beam="1">  1       -2 0.53108786E-02 0.92067856E+02</pdfrwt>
<totfact> 0.10383379E+05</totfact>
</mgrwt>
</event>
<event>
 5    1  0.4023633E+001  0.9218220E+02  0.7546771E-02  0.1297652E+00
          1   -1    0    0  501    0  0.00000000000E+00  0.00000000000E+00  0.50418185169E+01  0.50418185169E+01  0.00000000000E+00 0. -1.
         -1   -1    0    0    0  501 -0.00000000000E+00 -0.00000000000E+00 -0.42135379419E+03  0.42135379419E+03  0.00000000000E+00 0.  1.
         23    2    1    2    0    0  0.00000000000E+00  0.00000000000E+00 -0.41631197568E+03  0.42639561271E+03  0.92182197017E+02 0.  0.
          2    1    3    3  502    0 -0.47056320897E+01 -0.22947109983E+02 -0.24544772108E+02  0.33928729239E+02  0.00000000000E+00 0. -1.
         -2    1    3    3    0  502  0.47056320897E+01  0.22947109983E+02 -0.39176720357E+03  0.39246688347E+03  0.00000000000E+00 0.  1.
<mgrwt>
<rscale>  0 0.92182197E+02</rscale>
<asrwt>0</asrwt>
<pdfrwt beam="1">  1        1 0.77566460E-03 0.92182197E+02</pdfrwt>
<pdfrwt beam="2">  1       -1 0.64823643E-01 0.92182197E+02</pdfrwt>
<totfact> 0.50405222E+04</totfact>
</mgrwt>
</event>
<event>
 5    1  0.4023633E+001  0.8979213E+02  0.7546771E-02  0.1303356E+00
          1   -1    0    0  501    0  0.00000000000E+00  0.00000000000E+00  0.30359057665E+03  0.30359057665E+03  0.00000000000E+00 0. -1.
         -1   -1    0    0    0  501 -0.00000000000E+00 -0.00000000000E+00 -0.66393912389E+01  0.66393912389E+01  0.00000000000E+00 0.  1.
         23    2    1    2    0    0  0.00000000000E+00  0.00000000000E+00  0.29695118541E+03  0.31022996789E+03  0.89792129161E+02 0.  0.
          2    1    3    3  502    0 -0.29307186146E+02 -0.71312394964E+01  0.26337072145E+03  0.26509225310E+03  0.00000000000E+00 0. -1.
         -2    1    3    3    0  502  0.29307186146E+02  0.71312394964E+01  0.33580463962E+02  0.45137714789E+02  0.00000000000E+00 0.  1.
<mgrwt>
<rscale>  0 0.89792129E+02</rscale>
<asrwt>0</asrwt>
<pdfrwt beam="1">  1        1 0.46706232E-01 0.89792129E+02</pdfrwt>
<pdfrwt beam="2">  1       -1 0.10214450E-02 0.89792129E+02</pdfrwt>
<totfact> 0.13374891E+05</totfact>
</mgrwt>
</event>
<event>
 5    1  0.4023633E+001  0.9111340E+02  0.7546771E-02  0.1300178E+00
         -1   -1    0    0    0  501 -0.00000000000E+00  0.00000000000E+00  0.62632531686E+02  0.62632531686E+02  0.00000000000E+00 0.  1.
          1   -1    0    0  501    0  0.00000000000E+00 -0.00000000000E+00 -0.33136344169E+02  0.33136344169E+02  0.00000000000E+00 0. -1.
         23    2    1    2    0    0  0.00000000000E+00  0.00000000000E+00  0.29496187517E+02  0.95768875854E+02  0.91113404636E+02 0.  0.
          2    1    3    3  502    0 -0.45441099261E+02  0.32338372977E+01  0.14486541148E+02  0.47803881433E+02  0.00000000000E+00 0. -1.
         -2    1    3    3    0  502  0.45441099261E+02 -0.32338372977E+01  0.15009646369E+02  0.47964994421E+02  0.00000000000E+00 0.  1.
<mgrwt>
<rscale>  0 0.91113405E+02</rscale>
<asrwt>0</asrwt>
<pdfrwt beam="2">  1        1 0.50978991E-02 0.91113405E+02</pdfrwt>
<pdfrwt beam="1">  1       -1 0.96357741E-02 0.91113405E+02</pdfrwt>
<totfact> 0.88242758E+04</totfact>
</mgrwt>
</event>
<event>
 5    1  0.4023633E+001  0.9119838E+02  0.7546771E-02  0.1299975E+00
          1   -1    0    0  501    0  0.00000000000E+00  0.00000000000E+00  0.48166016527E+03  0.48166016527E+03  0.00000000000E+00 0. -1.
         -1   -1    0    0    0  501 -0.00000000000E+00 -0.00000000000E+00 -0.43169155183E+01  0.43169155183E+01  0.00000000000E+00 0.  1.
         23    2    1    2    0    0  0.00000000000E+00  0.00000000000E+00  0.47734324975E+03  0.48597708079E+03  0.91198382486E+02 0.  0.
          2    1    3    3  502    0  0.11902810838E+02 -0.43413741830E+02  0.19993005066E+03  0.20493524597E+03  0.00000000000E+00 0. -1.
         -2    1    3    3    0  502 -0.11902810838E+02  0.43413741830E+02  0.27741319909E+03  0.28104183481E+03  0.00000000000E+00 0.  1.
<mgrwt>
<rscale>  0 0.91198382E+02</rscale>
<asrwt>0</asrwt>
<pdfrwt beam="1">  1        1 0.74101521E-01 0.91198382E+02</pdfrwt>
<pdfrwt beam="2">  1       -1 0.66414123E-03 0.91198382E+02</pdfrwt>
<totfact> 0.13854053E+05</totfact>
</mgrwt>
</event>
<event>
 5    1  0.4023633E+001  0.8868910E+02  0.7546771E-02  0.1306058E+00
         -2   -1    0    0    0  501 -0.00000000000E+00  0.00000000000E+00  0.22788996930E+01  0.22788996930E+01  0.00000000000E+00 0.  1.
          2   -1    0    0  501    0  0.00000000000E+00 -0.00000000000E+00 -0.86288971317E+03  0.86288971317E+03  0.00000000000E+00 0. -1.
         23    2    1    2    0    0  0.00000000000E+00  0.00000000000E+00 -0.86061081347E+03  0.86516861286E+03  0.88689099723E+02 0.  0.
          2    1    3    3  502    0  0.91753802816E+01  0.40717398195E+02 -0.28419246309E+03  0.28724110116E+03  0.00000000000E+00 0.  1.
         -2    1    3    3    0  502 -0.91753802816E+01 -0.40717398195E+02 -0.57641835038E+03  0.57792751170E+03  0.00000000000E+00 0. -1.
<mgrwt>
<rscale>  0 0.88689100E+02</rscale>
<asrwt>0</asrwt>
<pdfrwt beam="2">  1        2 0.13275227E+00 0.88689100E+02</pdfrwt>
<pdfrwt beam="1">  1       -2 0.35059994E-03 0.88689100E+02</pdfrwt>
<totfact> 0.26526067E+05</totfact>
</mgrwt>
</event>
<event>
 5    1  0.4023633E+001  0.9383698E+02  0.7546771E-02  0.1293817E+00
         -1   -1    0    0    0  501 -0.00000000000E+00  0.00000000000E+00  0.10334967148E+01  0.10334967148E+01  0.00000000000E+00 0.  1.
          1   -1    0    0  501    0  0.00000000000E+00 -0.00000000000E+00 -0.21299969598E+04  0.21299969598E+04  0.00000000000E+00 0. -1.
         23    2    1    2    0    0  0.00000000000E+00  0.00000000000E+00 -0.21289634631E+04  0.21310304565E+04  0.93836983339E+02 0.  0.
          2    1    3    3  502    0 -0.39722405075E+02  0.15825873969E+02 -0.15030932118E+04  0.15037012772E+04  0.00000000000E+00 0. -1.
         -2    1    3    3    0  502  0.39722405075E+02 -0.15825873969E+02 -0.62587025130E+03  0.62732917931E+03  0.00000000000E+00 0.  1.
<mgrwt>
<rscale>  0 0.93836983E+02</rscale>
<asrwt>0</asrwt>
<pdfrwt beam="2">  1        1 0.32768866E+00 0.93836983E+02</pdfrwt>
<pdfrwt beam="1">  1       -1 0.15900104E-03 0.93836983E+02</pdfrwt>
<totfact> 0.66771095E+04</totfact>
</mgrwt>
</event>
<event>
 5    1  0.4023633E+001  0.8924446E+02  0.7546771E-02  0.1304692E+00
          1   -1    0    0  501    0  0.00000000000E+00  0.00000000000E+00  0.31446661443E+03  0.31446661443E+03  0.00000000000E+00 0. -1.
         -1   -1    0    0    0  501 -0.00000000000E+00 -0.00000000000E+00 -0.63318120619E+01  0.63318120619E+01  0.00000000000E+00 0.  1.
         23    2    1    2    0    0  0.00000000000E+00  0.00000000000E+00  0.30813480237E+03  0.32079842649E+03  0.89244462065E+02 0.  0.
          2    1    3    3  502    0 -0.40686088869E+01  0.30696359057E+02  0.26956124958E+03  0.27133390372E+03  0.00000000000E+00 0. -1.
         -2    1    3    3    0  502  0.40686088869E+01 -0.30696359057E+02  0.38573552794E+02  0.49464522769E+02  0.00000000000E+00 0.  1.
<mgrwt>
<rscale>  0 0.89244462E+02</rscale>
<asrwt>0</asrwt>
<pdfrwt beam="1">  1        1 0.48379467E-01 0.89244462E+02</pdfrwt>
<pdfrwt beam="2">  1       -1 0.97412518E-03 0.89244462E+02</pdfrwt>
<totfact> 0.13684452E+05</totfact>
</mgrwt>
</event>
<event>
 5    1  0.4023633E+001  0.9231557E+02  0.7546771E-02  0.1297339E+00
          1   -1    0    0  501    0  0.00000000000E+00  0.00000000000E+00  0.27969662908E+02  0.27969662908E+02  0.00000000000E+00 0. -1.
         -1   -1    0    0    0  501 -0.00000000000E+00 -0.00000000000E+00 -0.76173291772E+02  0.76173291772E+02  0.00000000000E+00 0.  1.
         23    2    1    2    0    0  0.00000000000E+00  0.00000000000E+00 -0.48203628864E+02  0.10414295468E+03  0.92315573842E+02 0.  0.
          2    1    3    3  502    0 -0.38902139053E+02  0.20859132484E+02 -0.88800872075E+01  0.45025945628E+02  0.00000000000E+00 0. -1.
         -2    1    3    3    0  502  0.38902139053E+02 -0.20859132484E+02 -0.39323541656E+02  0.59117009052E+02  0.00000000000E+00 0.  1.
<mgrwt>
<rscale>  0 0.92315574E+02</rscale>
<asrwt>0</asrwt>
<pdfrwt beam="1">  1        1 0.43030252E-02 0.92315574E+02</pdfrwt>
<pdfrwt beam="2">  1       -1 0.11718968E-01 0.92315574E+02</pdfrwt>
<totfact> 0.82680580E+04</totfact>
</mgrwt>
</event>
<event>
 5    1  0.4023633E+001  0.9216252E+02  0.7546771E-02  0.1297698E+00
         -2   -1    0    0    0  501 -0.00000000000E+00  0.00000000000E+00  0.30369522416E+02  0.30369522416E+02  0.00000000000E+00 0.  1.
          2   -1    0    0  501    0  0.00000000000E+00 -0.00000000000E+00 -0.69921503919E+02  0.69921503919E+02  0.00000000000E+00 0. -1.
         23    2    1    2    0    0  0.00000000000E+00  0.00000000000E+00 -0.39551981503E+02  0.10029102634E+03  0.92162523417E+02 0.  0.
          2    1    3    3  502    0 -0.17948394484E+02 -0.20362060233E+02  0.20747120735E+02  0.34164329062E+02  0.00000000000E+00 0.  1.
         -2    1    3    3    0  502  0.17948394484E+02  0.20362060233E+02 -0.60299102238E+02  0.66126697273E+02  0.00000000000E+00 0. -1.
<mgrwt>
<rscale>  0 0.92162523E+02</rscale>
<asrwt>0</asrwt>
<pdfrwt beam="2">  1        2 0.10757154E-01 0.92162523E+02</pdfrwt>
<pdfrwt beam="1">  1       -2 0.46722342E-02 0.92162523E+02</pdfrwt>
<totfact> 0.10730181E+05</totfact>
</mgrwt>
</event>
<event>
 5    1  0.4023633E+001  0.9187275E+02  0.7546771E-02  0.1298379E+00
          2   -1    0    0  501    0  0.00000000000E+00  0.00000000000E+00  0.11976233192E+03  0.11976233192E+03  0.00000000000E+00 0. -1.
         -2   -1    0    0    0  501 -0.00000000000E+00 -0.00000000000E+00 -0.17619483489E+02  0.17619483489E+02  0.00000000000E+00 0.  1.
         23    2    1    2    0    0  0.00000000000E+00  0.00000000000E+00  0.10214284843E+03  0.13738181541E+03  0.91872747424E+02 0.  0.
          2    1    3    3  502    0  0.48027610692E+01 -0.43563224128E+02  0.71646981110E+02  0.83988754679E+02  0.00000000000E+00 0. -1.
         -2    1    3    3    0  502 -0.48027610692E+01  0.43563224128E+02  0.30495867318E+02  0.53393060727E+02  0.00000000000E+00 0.  1.
<mgrwt>
<rscale>  0 0.91872747E+02</rscale>
<asrwt>0</asrwt>
<pdfrwt beam="1">  1        2 0.18424974E-01 0.91872747E+02</pdfrwt>
<pdfrwt beam="2">  1       -2 0.27106898E-02 0.91872747E+02</pdfrwt>
<totfact> 0.12710778E+05</totfact>
</mgrwt>
</event>
<event>
 5    1  0.4023633E+001  0.9368504E+02  0.7546771E-02  0.1294165E+00
         -2   -1    0    0    0  501 -0.00000000000E+00  0.00000000000E+00  0.33276884142E+01  0.33276884142E+01  0.00000000000E+00 0.  1.
          2   -1    0    0  501    0  0.00000000000E+00 -0.00000000000E+00 -0.65938317097E+03  0.65938317097E+03  0.00000000000E+00 0. -1.
         23    2    1    2    0    0  0.00000000000E+00  0.00000000000E+00 -0.65605548255E+03  0.66271085938E+03  0.93685041251E+02 0.  0.
          2    1    3    3  502    0 -0.36543277895E+02  0.28759474406E+02 -0.28819818564E+03  0.29192586856E+03  0.00000000000E+00 0.  1.
         -2    1    3    3    0  502  0.36543277895E+02 -0.28759474406E+02 -0.36785729691E+03  0.37078499082E+03  0.00000000000E+00 0. -1.
<mgrwt>
<rscale>  0 0.93685041E+02</rscale>
<asrwt>0</asrwt>
<pdfrwt beam="2">  1        2 0.10144359E+00 0.93685041E+02</pdfrwt>
<pdfrwt beam="1">  1       -2 0.51195195E-03 0.93685041E+02</pdfrwt>
<totfact> 0.21753474E+05</totfact>
</mgrwt>
</event>
<event>
 5    1  0.4023633E+001  0.9096189E+02  0.7546771E-02  0.1300539E+00
          1   -1    0    0  501    0  0.00000000000E+00  0.00000000000E+00  0.25973453136E+03  0.25973453136E+03  0.00000000000E+00 0. -1.
         -1   -1    0    0    0  501 -0.00000000000E+00 -0.00000000000E+00 -0.79639631001E+01  0.79639631001E+01  0.00000000000E+00 0.  1.
         23    2    1    2    0    0  0.00000000000E+00  0.00000000000E+00  0.25177056826E+03  0.26769849446E+03  0.90961887043E+02 0.  0.
          2    1    3    3  502    0 -0.33818837054E+02  0.10177848192E+02  0.21022159711E+03  0.21316759187E+03  0.00000000000E+00 0. -1.
         -2    1    3    3    0  502  0.33818837054E+02 -0.10177848192E+02  0.41548971157E+02  0.54530902595E+02  0.00000000000E+00 0.  1.
<mgrwt>
<rscale>  0 0.90961887E+02</rscale>
<asrwt>0</asrwt>
<pdfrwt beam="1">  1        1 0.39959152E-01 0.90961887E+02</pdfrwt>
<pdfrwt beam="2">  1       -1 0.12252253E-02 0.90961887E+02</pdfrwt>
<totfact> 0.12538258E+05</totfact>
</mgrwt>
</event>
<event>
 5    1  0.4023633E+001  0.9024522E+02  0.7546771E-02  0.1302259E+00
          2   -1    0    0  501    0  0.00000000000E+00  0.00000000000E+00  0.23813608060E+03  0.23813608060E+03  0.00000000000E+00 0. -1.
         -2   -1    0    0    0  501 -0.00000000000E+00 -0.00000000000E+00 -0.85499422673E+01  0.85499422673E+01  0.00000000000E+00 0.  1.
         23    2    1    2    0    0  0.00000000000E+00  0.00000000000E+00  0.22958613834E+03  0.24668602287E+03  0.90245215738E+02 0.  0.
          2    1    3    3  502    0 -0.18869018928E+01 -0.40032211763E+02  0.58115682386E+02  0.70594411370E+02  0.00000000000E+00 0. -1.
         -2    1    3    3    0  502  0.18869018928E+01  0.40032211763E+02  0.17147045595E+03  0.17609161150E+03  0.00000000000E+00 0.  1.
<mgrwt>
<rscale>  0 0.90245216E+02</rscale>
<asrwt>0</asrwt>
<pdfrwt beam="1">  1        2 0.36636315E-01 0.90245216E+02</pdfrwt>
<pdfrwt beam="2">  1       -2 0.13153759E-02 0.90245216E+02</pdfrwt>
<totfact> 0.16946944E+05</totfact>
</mgrwt>
</event>
<event>
 5    1  0.4023633E+001  0.9083508E+02  0.7546771E-02  0.1300842E+00
          1   -1    0    0  501    0  0.00000000000E+00  0.00000000000E+00  0.12218301537E+04  0.12218301537E+04  0.00000000000E+00 0. -1.
         -1   -1    0    0    0  501 -0.00000000000E+00 -0.00000000000E+00 -0.16882486656E+01  0.16882486656E+01  0.00000000000E+00 0.  1.
         23    2    1    2    0    0  0.00000000000E+00  0.00000000000E+00  0.12201419050E+04  0.12235184024E+04  0.90835084115E+02 0.  0.
          2    1    3    3  502    0 -0.40488983430E+02  0.19459754703E+02  0.52000197820E+03  0.52193878679E+03  0.00000000000E+00 0. -1.
         -2    1    3    3    0  502  0.40488983430E+02 -0.19459754703E+02  0.70013992684E+03  0.70157961557E+03  0.00000000000E+00 0.  1.
<mgrwt>
<rscale>  0 0.90835084E+02</rscale>
<asrwt>0</asrwt>
<pdfrwt beam="1">  1        1 0.18797316E+00 0.90835084E+02</pdfrwt>
<pdfrwt beam="2">  1       -1 0.25973154E-03 0.90835084E+02</pdfrwt>
<totfact> 0.12745974E+05</totfact>
</mgrwt>
</event>
<event>
 5    1  0.4023633E+001  0.9059394E+02  0.7546771E-02  0.1301420E+00
          3   -1    0    0  501    0  0.00000000000E+00  0.00000000000E+00  0.68331981869E+02  0.68331981869E+02  0.00000000000E+00 0. -1.
         -3   -1    0    0    0  501 -0.00000000000E+00 -0.00000000000E+00 -0.30027161343E+02  0.30027161343E+02  0.00000000000E+00 0.  1.
         23    2    1    2    0    0  0.00000000000E+00  0.00000000000E+00  0.38304820527E+02  0.98359143212E+02  0.90593938968E+02 0.  0.
          2    1    3    3  502    0 -0.18310337824E+02 -0.25639332281E+02  0.54486894829E+02  0.62940174286E+02  0.00000000000E+00 0. -1.
         -2    1    3    3    0  502  0.18310337824E+02  0.25639332281E+02 -0.16182074302E+02  0.35418968926E+02  0.00000000000E+00 0.  1.
<mgrwt>
<rscale>  0 0.90593939E+02</rscale>
<asrwt>0</asrwt>
<pdfrwt beam="1">  1        3 0.10512613E-01 0.90593939E+02</pdfrwt>
<pdfrwt beam="2">  1       -3 0.46195633E-02 0.90593939E+02</pdfrwt>
<totfact> 0.35405123E+04</totfact>
</mgrwt>
</event>
<event>
 5    1  0.4023633E+001  0.8977631E+02  0.7546771E-02  0.1303394E+00
          3   -1    0    0  501    0  0.00000000000E+00  0.00000000000E+00  0.54027719118E+02  0.54027719118E+02  0.00000000000E+00 0. -1.
         -3   -1    0    0    0  501 -0.00000000000E+00 -0.00000000000E+00 -0.37294682703E+02  0.37294682703E+02  0.00000000000E+00 0.  1.
         23    2    1    2    0    0  0.00000000000E+00  0.00000000000E+00  0.16733036415E+02  0.91322401821E+02  0.89776314063E+02 0.  0.
          2    1    3    3  502    0 -0.17015697718E+02 -0.14452772390E+02  0.47979821914E+02  0.52919560746E+02  0.00000000000E+00 0. -1.
         -2    1    3    3    0  502  0.17015697718E+02  0.14452772390E+02 -0.31246785500E+02  0.38402841075E+02  0.00000000000E+00 0.  1.
<mgrwt>
<rscale>  0 0.89776314E+02</rscale>
<asrwt>0</asrwt>
<pdfrwt beam="1">  1        3 0.83119568E-02 0.89776314E+02</pdfrwt>
<pdfrwt beam="2">  1       -3 0.57376435E-02 0.89776314E+02</pdfrwt>
<totfact> 0.36845715E+04</totfact>
</mgrwt>
</event>
<event>
 5    1  0.4023633E+001  0.9113747E+02  0.7546771E-02  0.1300120E+00
          4   -1    0    0  501    0  0.00000000000E+00  0.00000000000E+00  0.15261781873E+02  0.15261781873E+02  0.00000000000E+00 0. -1.
         -4   -1    0    0    0  501 -0.00000000000E+00 -0.00000000000E+00 -0.13605946093E+03  0.13605946093E+03  0.00000000000E+00 0.  1.
         23    2    1    2    0    0  0.00000000000E+00  0.00000000000E+00 -0.12079767905E+03  0.15132124280E+03  0.91137474498E+02 0.  0.
          2    1    3    3  502    0  0.41523476887E+02 -0.17293123679E+02 -0.48281769999E+02  0.65987730478E+02  0.00000000000E+00 0.  1.
         -2    1    3    3    0  502 -0.41523476887E+02  0.17293123679E+02 -0.72515909053E+02  0.85333512322E+02  0.00000000000E+00 0. -1.
<mgrwt>
<rscale>  0 0.91137474E+02</rscale>
<asrwt>0</asrwt>
<pdfrwt beam="1">  1        4 0.23479665E-02 0.91137474E+02</pdfrwt>
<pdfrwt beam="2">  1       -4 0.20932224E-01 0.91137474E+02</pdfrwt>
<totfact> 0.23634482E+04</totfact>
</mgrwt>
</event>
<event>
 5    1  0.4023633E+001  0.8254586E+02  0.7546771E-02  0.1321978E+00
         -2   -1    0    0    0  501 -0.00000000000E+00  0.00000000000E+00  0.10292963061E+03  0.10292963061E+03  0.00000000000E+00 0.  1.
          2   -1    0    0  501    0  0.00000000000E+00 -0.00000000000E+00 -0.16549703598E+02  0.16549703598E+02  0.00000000000E+00 0. -1.
         23    2    1    2    0    0  0.00000000000E+00  0.00000000000E+00  0.86379927014E+02  0.11947933421E+03  0.82545863085E+02 0.  0.
          2    1    3    3  502    0  0.30827813565E+02  0.23417924760E+02  0.22481013111E+02  0.44767725426E+02  0.00000000000E+00 0. -1.
         -2    1    3    3    0  502 -0.30827813565E+02 -0.23417924760E+02  0.63898913903E+02  0.74711608785E+02  0.00000000000E+00 0.  1.
<mgrwt>
<rscale>  0 0.82545863E+02</rscale>
<asrwt>0</asrwt>
<pdfrwt beam="2">  1        2 0.25461083E-02 0.82545863E+02</pdfrwt>
<pdfrwt beam="1">  1       -2 0.15835327E-01 0.82545863E+02</pdfrwt>
<totfact> 0.10136316E+05</totfact>
</mgrwt>
</event>
<event>
 5    1  0.4023633E+001  0.8754808E+02  0.7546771E-02  0.1308900E+00
          1   -1    0    0  501    0  0.00000000000E+00  0.00000000000E+00  0.16328870291E+03  0.16328870291E+03  0.00000000000E+00 0.  1.
         -1   -1    0    0    0  501 -0.00000000000E+00 -0.00000000000E+00 -0.11734839843E+02  0.11734839843E+02  0.00000000000E+00 0. -1.
         23    2    1    2    0    0  0.00000000000E+00  0.00000000000E+00  0.15155386307E+03  0.17502354275E+03  0.87548084545E+02 0.  0.
          2    1    3    3  502    0 -0.22427107936E+02  0.23862547026E+02  0.17705573934E+02  0.37227458539E+02  0.00000000000E+00 0. -1.
         -2    1    3    3    0  502  0.22427107936E+02 -0.23862547026E+02  0.13384828913E+03  0.13779608422E+03  0.00000000000E+00 0.  1.
<mgrwt>
<rscale>  0 0.87548085E+02</rscale>
<asrwt>0</asrwt>
<pdfrwt beam="1">  1        1 0.25121337E-01 0.87548085E+02</pdfrwt>
<pdfrwt beam="2">  1       -1 0.18053601E-02 0.87548085E+02</pdfrwt>
<totfact> 0.12703209E+05</totfact>
</mgrwt>
</event>
<event>
 5    1  0.4023633E+001  0.9326661E+02  0.7546771E-02  0.1295129E+00
          2   -1    0    0  501    0  0.00000000000E+00  0.00000000000E+00  0.96135612661E+03  0.96135612661E+03  0.00000000000E+00 0. -1.
         -2   -1    0    0    0  501 -0.00000000000E+00 -0.00000000000E+00 -0.22620805622E+01  0.22620805622E+01  0.00000000000E+00 0.  1.
         23    2    1    2    0    0  0.00000000000E+00  0.00000000000E+00  0.95909404605E+03  0.96361820717E+03  0.93266607259E+02 0.  0.
          2    1    3    3  502    0 -0.23944341090E+02  0.23148119170E+02  0.81679951044E+03  0.81747819979E+03  0.00000000000E+00 0. -1.
         -2    1    3    3    0  502  0.23944341090E+02 -0.23148119170E+02  0.14229453561E+03  0.14614000738E+03  0.00000000000E+00 0.  1.
<mgrwt>
<rscale>  0 0.93266607E+02</rscale>
<asrwt>0</asrwt>
<pdfrwt beam="1">  1        2 0.14790062E+00 0.93266607E+02</pdfrwt>
<pdfrwt beam="2">  1       -2 0.34801316E-03 0.93266607E+02</pdfrwt>
<totfact> 0.23498364E+05</totfact>
</mgrwt>
</event>
<event>
 5    1  0.4023633E+001  0.9161769E+02  0.7546771E-02  0.1298981E+00
         -4   -1    0    0    0  501 -0.00000000000E+00  0.00000000000E+00  0.10405156310E+03  0.10405156310E+03  0.00000000000E+00 0.  1.
          4   -1    0    0  501    0  0.00000000000E+00 -0.00000000000E+00 -0.20167408297E+02  0.20167408297E+02  0.00000000000E+00 0. -1.
         23    2    1    2    0    0  0.00000000000E+00  0.00000000000E+00  0.83884154801E+02  0.12421897140E+03  0.91617691675E+02 0.  0.
          2    1    3    3  502    0 -0.30153748626E+02  0.21690173197E+02  0.55929538760E+01  0.37563190793E+02  0.00000000000E+00 0. -1.
         -2    1    3    3    0  502  0.30153748626E+02 -0.21690173197E+02  0.78291200925E+02  0.86655780602E+02  0.00000000000E+00 0.  1.
<mgrwt>
<rscale>  0 0.91617692E+02</rscale>
<asrwt>0</asrwt>
<pdfrwt beam="2">  1        4 0.31026783E-02 0.91617692E+02</pdfrwt>
<pdfrwt beam="1">  1       -4 0.16007932E-01 0.91617692E+02</pdfrwt>
<totfact> 0.24711012E+04</totfact>
</mgrwt>
</event>
<event>
 5    1  0.4023633E+001  0.9205367E+02  0.7546771E-02  0.1297953E+00
         -1   -1    0    0    0  501 -0.00000000000E+00  0.00000000000E+00  0.57744117725E+03  0.57744117725E+03  0.00000000000E+00 0.  1.
          1   -1    0    0  501    0  0.00000000000E+00 -0.00000000000E+00 -0.36687195928E+01  0.36687195928E+01  0.00000000000E+00 0. -1.
         23    2    1    2    0    0  0.00000000000E+00  0.00000000000E+00  0.57377245766E+03  0.58110989685E+03  0.92053674793E+02 0.  0.
          2    1    3    3  502    0  0.28665312289E+02 -0.23807814963E+02  0.11633064096E+03  0.12215289685E+03  0.00000000000E+00 0. -1.
         -2    1    3    3    0  502 -0.28665312289E+02  0.23807814963E+02  0.45744181670E+03  0.45895700000E+03  0.00000000000E+00 0.  1.
<mgrwt>
<rscale>  0 0.92053675E+02</rscale>
<asrwt>0</asrwt>
<pdfrwt beam="2">  1        1 0.56441886E-03 0.92053675E+02</pdfrwt>
<pdfrwt beam="1">  1       -1 0.88837032E-01 0.92053675E+02</pdfrwt>
<totfact> 0.41715348E+04</totfact>
</mgrwt>
</event>
<event>
 5    1  0.4023633E+001  0.9266766E+02  0.7546771E-02  0.1296517E+00
         -4   -1    0    0    0  501 -0.00000000000E+00  0.00000000000E+00  0.60336835837E+01  0.60336835837E+01  0.00000000000E+00 0.  1.
          4   -1    0    0  501    0  0.00000000000E+00 -0.00000000000E+00 -0.35580646375E+03  0.35580646375E+03  0.00000000000E+00 0. -1.
         23    2    1    2    0    0  0.00000000000E+00  0.00000000000E+00 -0.34977278016E+03  0.36184014733E+03  0.92667656046E+02 0.  0.
          2    1    3    3  502    0 -0.19968740184E+02  0.29797200666E+02 -0.28940821479E+03  0.29162259607E+03  0.00000000000E+00 0. -1.
         -2    1    3    3    0  502  0.19968740184E+02 -0.29797200666E+02 -0.60364565377E+02  0.70217551262E+02  0.00000000000E+00 0.  1.
<mgrwt>
<rscale>  0 0.92667656E+02</rscale>
<asrwt>0</asrwt>
<pdfrwt beam="2">  1        4 0.54739449E-01 0.92667656E+02</pdfrwt>
<pdfrwt beam="1">  1       -4 0.92825913E-03 0.92667656E+02</pdfrwt>
<totfact> 0.15408212E+04</totfact>
</mgrwt>
</event>
<event>
 5    1  0.4023633E+001  0.6902659E+02  0.7546771E-02  0.1363435E+00
         -1   -1    0    0    0  501 -0.00000000000E+00  0.00000000000E+00  0.54646950958E+02  0.54646950958E+02  0.00000000000E+00 0.  1.
          1   -1    0    0  501    0  0.00000000000E+00 -0.00000000000E+00 -0.21797510876E+02  0.21797510876E+02  0.00000000000E+00 0. -1.
         23    2    1    2    0    0  0.00000000000E+00  0.00000000000E+00  0.32849440083E+02  0.76444461834E+02  0.69026589307E+02 0.  0.
          2    1    3    3  502    0  0.20445852312E+02 -0.15740395905E+02 -0.89595182278E+01  0.27314207052E+02  0.00000000000E+00 0. -1.
         -2    1    3    3    0  502 -0.20445852312E+02  0.15740395905E+02  0.41808958310E+02  0.49130254782E+02  0.00000000000E+00 0.  1.
<mgrwt>
<rscale>  0 0.69026589E+02</rscale>
<asrwt>0</asrwt>
<pdfrwt beam="2">  1        1 0.33534632E-02 0.69026589E+02</pdfrwt>
<pdfrwt beam="1">  1       -1 0.84072232E-02 0.69026589E+02</pdfrwt>
<totfact> 0.18140732E+05</totfact>
</mgrwt>
</event>
<event>
 5    1  0.4023633E+001  0.9185153E+02  0.7546771E-02  0.1298429E+00
         -2   -1    0    0    0  501 -0.00000000000E+00  0.00000000000E+00  0.19651993188E+01  0.19651993188E+01  0.00000000000E+00 0.  1.
          2   -1    0    0  501    0  0.00000000000E+00 -0.00000000000E+00 -0.10732631454E+04  0.10732631454E+04  0.00000000000E+00 0. -1.
         23    2    1    2    0    0  0.00000000000E+00  0.00000000000E+00 -0.10712979460E+04  0.10752283447E+04  0.91851532425E+02 0.  0.
          2    1    3    3  502    0  0.22341820049E+02 -0.35602556619E+02 -0.31901327160E+03  0.32177036286E+03  0.00000000000E+00 0. -1.
         -2    1    3    3    0  502 -0.22341820049E+02  0.35602556619E+02 -0.75228467444E+03  0.75345798182E+03  0.00000000000E+00 0.  1.
<mgrwt>
<rscale>  0 0.91851532E+02</rscale>
<asrwt>0</asrwt>
<pdfrwt beam="2">  1        2 0.16511716E+00 0.91851532E+02</pdfrwt>
<pdfrwt beam="1">  1       -2 0.30233881E-03 0.91851532E+02</pdfrwt>
<totfact> 0.24550305E+05</totfact>
</mgrwt>
</event>
<event>
 5    1  0.4023633E+001  0.9239407E+02  0.7546771E-02  0.1297156E+00
          1   -1    0    0  501    0  0.00000000000E+00  0.00000000000E+00  0.56936676306E+02  0.56936676306E+02  0.00000000000E+00 0. -1.
         -1   -1    0    0    0  501 -0.00000000000E+00 -0.00000000000E+00 -0.37483150581E+02  0.37483150581E+02  0.00000000000E+00 0.  1.
         23    2    1    2    0    0  0.00000000000E+00  0.00000000000E+00  0.19453525726E+02  0.94419826887E+02  0.92394069324E+02 0.  0.
          2    1    3    3  502    0  0.30365351456E+02 -0.25667425927E+02  0.33764708866E+02  0.52162504614E+02  0.00000000000E+00 0. -1.
         -2    1    3    3    0  502 -0.30365351456E+02  0.25667425927E+02 -0.14311183141E+02  0.42257322273E+02  0.00000000000E+00 0.  1.
<mgrwt>
<rscale>  0 0.92394069E+02</rscale>
<asrwt>0</asrwt>
<pdfrwt beam="1">  1        1 0.87594887E-02 0.92394069E+02</pdfrwt>
<pdfrwt beam="2">  1       -1 0.57666385E-02 0.92394069E+02</pdfrwt>
<totfact> 0.92144702E+04</totfact>
</mgrwt>
</event>
<event>
 5    1  0.4023633E+001  0.9122606E+02  0.7546771E-02  0.1299909E+00
         -2   -1    0    0    0  501 -0.00000000000E+00  0.00000000000E+00  0.18312885919E+01  0.18312885919E+01  0.00000000000E+00 0.  1.
          2   -1    0    0  501    0  0.00000000000E+00 -0.00000000000E+00 -0.11361117354E+04  0.11361117354E+04  0.00000000000E+00 0. -1.
         23    2    1    2    0    0  0.00000000000E+00  0.00000000000E+00 -0.11342804468E+04  0.11379430240E+04  0.91226058999E+02 0.  0.
          2    1    3    3  502    0  0.12025181535E+02 -0.36559830783E+02 -0.87251404357E+03  0.87336245766E+03  0.00000000000E+00 0. -1.
         -2    1    3    3    0  502 -0.12025181535E+02  0.36559830783E+02 -0.26176640324E+03  0.26458056634E+03  0.00000000000E+00 0.  1.
<mgrwt>
<rscale>  0 0.91226059E+02</rscale>
<asrwt>0</asrwt>
<pdfrwt beam="2">  1        2 0.17478660E+00 0.91226059E+02</pdfrwt>
<pdfrwt beam="1">  1       -2 0.28173642E-03 0.91226059E+02</pdfrwt>
<totfact> 0.24947449E+05</totfact>
</mgrwt>
</event>
<event>
 5    1  0.4023633E+001  0.9251711E+02  0.7546771E-02  0.1296868E+00
          1   -1    0    0  501    0  0.00000000000E+00  0.00000000000E+00  0.30188745228E+02  0.30188745228E+02  0.00000000000E+00 0. -1.
         -1   -1    0    0    0  501 -0.00000000000E+00 -0.00000000000E+00 -0.70882500698E+02  0.70882500698E+02  0.00000000000E+00 0.  1.
         23    2    1    2    0    0  0.00000000000E+00  0.00000000000E+00 -0.40693755470E+02  0.10107124593E+03  0.92517106627E+02 0.  0.
          2    1    3    3  502    0 -0.24683445191E+02  0.19387858858E+01  0.22340535492E+02  0.33348626408E+02  0.00000000000E+00 0. -1.
         -2    1    3    3    0  502  0.24683445191E+02 -0.19387858858E+01 -0.63034290962E+02  0.67722619517E+02  0.00000000000E+00 0.  1.
<mgrwt>
<rscale>  0 0.92517107E+02</rscale>
<asrwt>0</asrwt>
<pdfrwt beam="1">  1        1 0.46444224E-02 0.92517107E+02</pdfrwt>
<pdfrwt beam="2">  1       -1 0.10905000E-01 0.92517107E+02</pdfrwt>
<totfact> 0.83205088E+04</totfact>
</mgrwt>
</event>
<event>
 5    1  0.4023633E+001  0.9413269E+02  0.7546771E-02  0.1293142E+00
          2   -1    0    0  501    0  0.00000000000E+00  0.00000000000E+00  0.57708516885E+02  0.57708516885E+02  0.00000000000E+00 0. -1.
         -2   -1    0    0    0  501 -0.00000000000E+00 -0.00000000000E+00 -0.38386723169E+02  0.38386723169E+02  0.00000000000E+00 0.  1.
         23    2    1    2    0    0  0.00000000000E+00  0.00000000000E+00  0.19321793717E+02  0.96095240054E+02  0.94132690648E+02 0.  0.
          2    1    3    3  502    0 -0.26027559820E+02 -0.21060704987E+01  0.49635585629E+02  0.56085298999E+02  0.00000000000E+00 0. -1.
         -2    1    3    3    0  502  0.26027559820E+02  0.21060704987E+01 -0.30313791913E+02  0.40009941055E+02  0.00000000000E+00 0.  1.
<mgrwt>
<rscale>  0 0.94132691E+02</rscale>
<asrwt>0</asrwt>
<pdfrwt beam="1">  1        2 0.88782333E-02 0.94132691E+02</pdfrwt>
<pdfrwt beam="2">  1       -2 0.59056497E-02 0.94132691E+02</pdfrwt>
<totfact> 0.95884520E+04</totfact>
</mgrwt>
</event>
<event>
 5    1  0.4023633E+001  0.8113023E+02  0.7546771E-02  0.1325874E+00
          1   -1    0    0  501    0  0.00000000000E+00  0.00000000000E+00  0.32475230428E+03  0.32475230428E+03  0.00000000000E+00 0. -1.
         -1   -1    0    0    0  501 -0.00000000000E+00 -0.00000000000E+00 -0.50670259830E+01  0.50670259830E+01  0.00000000000E+00 0.  1.
         23    2    1    2    0    0  0.00000000000E+00  0.00000000000E+00  0.31968527830E+03  0.32981933027E+03  0.81130225289E+02 0.  0.
          2    1    3    3  502    0 -0.39590147029E+02  0.14574502629E+01  0.12439640534E+03  0.13055255480E+03  0.00000000000E+00 0. -1.
         -2    1    3    3    0  502  0.39590147029E+02 -0.14574502629E+01  0.19528887297E+03  0.19926677547E+03  0.00000000000E+00 0.  1.
<mgrwt>
<rscale>  0 0.81130225E+02</rscale>
<asrwt>0</asrwt>
<pdfrwt beam="1">  1        1 0.49961877E-01 0.81130225E+02</pdfrwt>
<pdfrwt beam="2">  1       -1 0.77954271E-03 0.81130225E+02</pdfrwt>
<totfact> 0.17709278E+05</totfact>
</mgrwt>
</event>
<event>
 5    1  0.4023633E+001  0.9112795E+02  0.7546771E-02  0.1300143E+00
          1   -1    0    0  501    0  0.00000000000E+00  0.00000000000E+00  0.29806389227E+02  0.29806389227E+02  0.00000000000E+00 0. -1.
         -1   -1    0    0    0  501 -0.00000000000E+00 -0.00000000000E+00 -0.69652043265E+02  0.69652043265E+02  0.00000000000E+00 0.  1.
         23    2    1    2    0    0  0.00000000000E+00  0.00000000000E+00 -0.39845654038E+02  0.99458432492E+02  0.91127952068E+02 0.  0.
          2    1    3    3  502    0  0.23414392004E+02 -0.25921625525E+02  0.12007578042E+02  0.36937059347E+02  0.00000000000E+00 0. -1.
         -2    1    3    3    0  502 -0.23414392004E+02  0.25921625525E+02 -0.51853232080E+02  0.62521373145E+02  0.00000000000E+00 0.  1.
<mgrwt>
<rscale>  0 0.91127952E+02</rscale>
<asrwt>0</asrwt>
<pdfrwt beam="1">  1        1 0.45855983E-02 0.91127952E+02</pdfrwt>
<pdfrwt beam="2">  1       -1 0.10715699E-01 0.91127952E+02</pdfrwt>
<totfact> 0.86727636E+04</totfact>
</mgrwt>
</event>
<event>
 5    1  0.4023633E+001  0.9090057E+02  0.7546771E-02  0.1300685E+00
         -1   -1    0    0    0  501 -0.00000000000E+00  0.00000000000E+00  0.49022104114E+01  0.49022104114E+01  0.00000000000E+00 0.  1.
          1   -1    0    0  501    0  0.00000000000E+00 -0.00000000000E+00 -0.42138714250E+03  0.42138714250E+03  0.00000000000E+00 0. -1.
         23    2    1    2    0    0  0.00000000000E+00  0.00000000000E+00 -0.41648493209E+03  0.42628935291E+03  0.90900570674E+02 0.  0.
          2    1    3    3  502    0  0.30392509653E+02 -0.33477710824E+02 -0.18661589610E+03  0.19201550573E+03  0.00000000000E+00 0. -1.
         -2    1    3    3    0  502 -0.30392509653E+02  0.33477710824E+02 -0.22986903599E+03  0.23427384718E+03  0.00000000000E+00 0.  1.
<mgrwt>
<rscale>  0 0.90900571E+02</rscale>
<asrwt>0</asrwt>
<pdfrwt beam="2">  1        1 0.64828802E-01 0.90900571E+02</pdfrwt>
<pdfrwt beam="1">  1       -1 0.75418610E-03 0.90900571E+02</pdfrwt>
<totfact> 0.13711743E+05</totfact>
</mgrwt>
</event>
<event>
 5    1  0.4023633E+001  0.9121006E+02  0.7546771E-02  0.1299948E+00
          1   -1    0    0  501    0  0.00000000000E+00  0.00000000000E+00  0.55152985823E+02  0.55152985823E+02  0.00000000000E+00 0. -1.
         -1   -1    0    0    0  501 -0.00000000000E+00 -0.00000000000E+00 -0.37709991104E+02  0.37709991104E+02  0.00000000000E+00 0.  1.
         23    2    1    2    0    0  0.00000000000E+00  0.00000000000E+00  0.17442994719E+02  0.92862976927E+02  0.91210056568E+02 0.  0.
          2    1    3    3  502    0 -0.94501556505E+01 -0.41896699104E+02  0.24334982517E+02  0.49364260470E+02  0.00000000000E+00 0. -1.
         -2    1    3    3    0  502  0.94501556505E+01  0.41896699104E+02 -0.68919877985E+01  0.43498716457E+02  0.00000000000E+00 0.  1.
<mgrwt>
<rscale>  0 0.91210057E+02</rscale>
<asrwt>0</asrwt>
<pdfrwt beam="1">  1        1 0.84850747E-02 0.91210057E+02</pdfrwt>
<pdfrwt beam="2">  1       -1 0.58015371E-02 0.91210057E+02</pdfrwt>
<totfact> 0.95058381E+04</totfact>
</mgrwt>
</event>
<event>
 5    1  0.4023633E+001  0.9173276E+02  0.7546771E-02  0.1298709E+00
         -1   -1    0    0    0  501 -0.00000000000E+00  0.00000000000E+00  0.39126315165E+02  0.39126315165E+02  0.00000000000E+00 0.  1.
          1   -1    0    0  501    0  0.00000000000E+00 -0.00000000000E+00 -0.53767514372E+02  0.53767514372E+02  0.00000000000E+00 0. -1.
         23    2    1    2    0    0  0.00000000000E+00  0.00000000000E+00 -0.14641199208E+02  0.92893829537E+02  0.91732757791E+02 0.  0.
          2    1    3    3  502    0  0.31503506375E+02 -0.15465127673E+02 -0.37225439588E+02  0.51160281864E+02  0.00000000000E+00 0. -1.
         -2    1    3    3    0  502 -0.31503506375E+02  0.15465127673E+02  0.22584240380E+02  0.41733547674E+02  0.00000000000E+00 0.  1.
<mgrwt>
<rscale>  0 0.91732758E+02</rscale>
<asrwt>0</asrwt>
<pdfrwt beam="2">  1        1 0.82719253E-02 0.91732758E+02</pdfrwt>
<pdfrwt beam="1">  1       -1 0.60194331E-02 0.91732758E+02</pdfrwt>
<totfact> 0.93197698E+04</totfact>
</mgrwt>
</event>
<event>
 5    1  0.4023633E+001  0.9474783E+02  0.7546771E-02  0.1291745E+00
         -1   -1    0    0    0  501 -0.00000000000E+00  0.00000000000E+00  0.13015846836E+02  0.13015846836E+02  0.00000000000E+00 0.  1.
          1   -1    0    0  501    0  0.00000000000E+00 -0.00000000000E+00 -0.17242735340E+03  0.17242735340E+03  0.00000000000E+00 0. -1.
         23    2    1    2    0    0  0.00000000000E+00  0.00000000000E+00 -0.15941150656E+03  0.18544320023E+03  0.94747834215E+02 0.  0.
          2    1    3    3  502    0 -0.47216315201E+02 -0.35357493410E+01 -0.82741715999E+02  0.95331387858E+02  0.00000000000E+00 0.  1.
         -2    1    3    3    0  502  0.47216315201E+02  0.35357493410E+01 -0.76669790560E+02  0.90111812373E+02  0.00000000000E+00 0. -1.
<mgrwt>
<rscale>  0 0.94747834E+02</rscale>
<asrwt>0</asrwt>
<pdfrwt beam="2">  1        1 0.26527281E-01 0.94747834E+02</pdfrwt>
<pdfrwt beam="1">  1       -1 0.20024383E-02 0.94747834E+02</pdfrwt>
<totfact> 0.10375426E+05</totfact>
</mgrwt>
</event>
<event>
 5    1  0.4023633E+001  0.9123456E+02  0.7546771E-02  0.1299889E+00
         -1   -1    0    0    0  501 -0.00000000000E+00  0.00000000000E+00  0.36717159314E+02  0.36717159314E+02  0.00000000000E+00 0.  1.
          1   -1    0    0  501    0  0.00000000000E+00 -0.00000000000E+00 -0.56674764229E+02  0.56674764229E+02  0.00000000000E+00 0. -1.
         23    2    1    2    0    0  0.00000000000E+00  0.00000000000E+00 -0.19957604914E+02  0.93391923543E+02  0.91234562471E+02 0.  0.
          2    1    3    3  502    0  0.24194394672E+02  0.37324900182E+02 -0.20338358058E+02  0.48909771167E+02  0.00000000000E+00 0. -1.
         -2    1    3    3    0  502 -0.24194394672E+02 -0.37324900182E+02  0.38075314310E+00  0.44482152377E+02  0.00000000000E+00 0.  1.
<mgrwt>
<rscale>  0 0.91234562E+02</rscale>
<asrwt>0</asrwt>
<pdfrwt beam="2">  1        1 0.87191945E-02 0.91234562E+02</pdfrwt>
<pdfrwt beam="1">  1       -1 0.56487937E-02 0.91234562E+02</pdfrwt>
<totfact> 0.95377236E+04</totfact>
</mgrwt>
</event>
<event>
 5    1  0.4023633E+001  0.9101757E+02  0.7546771E-02  0.1300406E+00
         -2   -1    0    0    0  501 -0.00000000000E+00  0.00000000000E+00  0.88853635619E+01  0.88853635619E+01  0.00000000000E+00 0.  1.
          2   -1    0    0  501    0  0.00000000000E+00 -0.00000000000E+00 -0.23308550650E+03  0.23308550650E+03  0.00000000000E+00 0. -1.
         23    2    1    2    0    0  0.00000000000E+00  0.00000000000E+00 -0.22420014294E+03  0.24197087006E+03  0.91017568991E+02 0.  0.
          2    1    3    3  502    0  0.21424578154E+02 -0.38200065250E+02 -0.79238519840E+02  0.90537288233E+02  0.00000000000E+00 0. -1.
         -2    1    3    3    0  502 -0.21424578154E+02  0.38200065250E+02 -0.14496162310E+03  0.15143358183E+03  0.00000000000E+00 0.  1.
<mgrwt>
<rscale>  0 0.91017569E+02</rscale>
<asrwt>0</asrwt>
<pdfrwt beam="2">  1        2 0.35859312E-01 0.91017569E+02</pdfrwt>
<pdfrwt beam="1">  1       -2 0.13669789E-02 0.91017569E+02</pdfrwt>
<totfact> 0.16434400E+05</totfact>
</mgrwt>
</event>
<event>
 5    1  0.4023633E+001  0.9138414E+02  0.7546771E-02  0.1299534E+00
         -1   -1    0    0    0  501 -0.00000000000E+00  0.00000000000E+00  0.11738832969E+02  0.11738832969E+02  0.00000000000E+00 0. -1.
          1   -1    0    0  501    0  0.00000000000E+00 -0.00000000000E+00 -0.17785116273E+03  0.17785116273E+03  0.00000000000E+00 0.  1.
         23    2    1    2    0    0  0.00000000000E+00  0.00000000000E+00 -0.16611232976E+03  0.18958999569E+03  0.91384136315E+02 0.  0.
          2    1    3    3  502    0 -0.22364588411E+02 -0.37353631160E+02 -0.54286797377E+02  0.69588252924E+02  0.00000000000E+00 0. -1.
         -2    1    3    3    0  502  0.22364588411E+02  0.37353631160E+02 -0.11182553238E+03  0.12000174277E+03  0.00000000000E+00 0.  1.
<mgrwt>
<rscale>  0 0.91384136E+02</rscale>
<asrwt>0</asrwt>
<pdfrwt beam="2">  1        1 0.27361716E-01 0.91384136E+02</pdfrwt>
<pdfrwt beam="1">  1       -1 0.18059744E-02 0.91384136E+02</pdfrwt>
<totfact> 0.11505507E+05</totfact>
</mgrwt>
</event>
<event>
 5    1  0.4023633E+001  0.9164238E+02  0.7546771E-02  0.1298922E+00
         -1   -1    0    0    0  501 -0.00000000000E+00  0.00000000000E+00  0.58174545124E+02  0.58174545124E+02  0.00000000000E+00 0.  1.
          1   -1    0    0  501    0  0.00000000000E+00 -0.00000000000E+00 -0.36091069185E+02  0.36091069185E+02  0.00000000000E+00 0. -1.
         23    2    1    2    0    0  0.00000000000E+00  0.00000000000E+00  0.22083475938E+02  0.94265614309E+02  0.91642381743E+02 0.  0.
          2    1    3    3  502    0  0.27192525385E+02 -0.31694916460E+02 -0.83548714648E+01  0.42588790114E+02  0.00000000000E+00 0. -1.
         -2    1    3    3    0  502 -0.27192525385E+02  0.31694916460E+02  0.30438347403E+02  0.51676824195E+02  0.00000000000E+00 0.  1.
<mgrwt>
<rscale>  0 0.91642382E+02</rscale>
<asrwt>0</asrwt>
<pdfrwt beam="2">  1        1 0.55524722E-02 0.91642382E+02</pdfrwt>
<pdfrwt beam="1">  1       -1 0.89499300E-02 0.91642382E+02</pdfrwt>
<totfact> 0.87963936E+04</totfact>
</mgrwt>
</event>
<event>
 5    1  0.4023633E+001  0.9076261E+02  0.7546771E-02  0.1301015E+00
          2   -1    0    0  501    0  0.00000000000E+00  0.00000000000E+00  0.78505393406E+02  0.78505393406E+02  0.00000000000E+00 0. -1.
         -2   -1    0    0    0  501 -0.00000000000E+00 -0.00000000000E+00 -0.26233392534E+02  0.26233392534E+02  0.00000000000E+00 0.  1.
         23    2    1    2    0    0  0.00000000000E+00  0.00000000000E+00  0.52272000872E+02  0.10473878594E+03  0.90762609069E+02 0.  0.
          2    1    3    3  502    0  0.27449024005E+02 -0.22855539237E+02 -0.61681530809E+01  0.36247354456E+02  0.00000000000E+00 0.  1.
         -2    1    3    3    0  502 -0.27449024005E+02  0.22855539237E+02  0.58440153953E+02  0.68491431483E+02  0.00000000000E+00 0. -1.
<mgrwt>
<rscale>  0 0.90762609E+02</rscale>
<asrwt>0</asrwt>
<pdfrwt beam="1">  1        2 0.12077753E-01 0.90762609E+02</pdfrwt>
<pdfrwt beam="2">  1       -2 0.40359066E-02 0.90762609E+02</pdfrwt>
<totfact> 0.11569451E+05</totfact>
</mgrwt>
</event>
<event>
 5    1  0.4023633E+001  0.9111372E+02  0.7546771E-02  0.1300177E+00
         -2   -1    0    0    0  501 -0.00000000000E+00  0.00000000000E+00  0.65511560142E+02  0.65511560142E+02  0.00000000000E+00 0. -1.
          2   -1    0    0  501    0  0.00000000000E+00 -0.00000000000E+00 -0.31680326681E+02  0.31680326681E+02  0.00000000000E+00 0.  1.
         23    2    1    2    0    0  0.00000000000E+00  0.00000000000E+00  0.33831233460E+02  0.97191886823E+02  0.91113722933E+02 0.  0.
          2    1    3    3  502    0  0.43850114927E+02 -0.10903721461E+02  0.23108406504E+02  0.50751573099E+02  0.00000000000E+00 0. -1.
         -2    1    3    3    0  502 -0.43850114927E+02  0.10903721461E+02  0.10722826956E+02  0.46440313724E+02  0.00000000000E+00 0.  1.
<mgrwt>
<rscale>  0 0.91113723E+02</rscale>
<asrwt>0</asrwt>
<pdfrwt beam="2">  1        2 0.48738964E-02 0.91113723E+02</pdfrwt>
<pdfrwt beam="1">  1       -2 0.10078702E-01 0.91113723E+02</pdfrwt>
<totfact> 0.89940412E+04</totfact>
</mgrwt>
</event>
<event>
 5    1  0.4023633E+001  0.9311055E+02  0.7546771E-02  0.1295489E+00
          1   -1    0    0  501    0  0.00000000000E+00  0.00000000000E+00  0.19222644876E+02  0.19222644876E+02  0.00000000000E+00 0. -1.
         -1   -1    0    0    0  501 -0.00000000000E+00 -0.00000000000E+00 -0.11275210034E+03  0.11275210034E+03  0.00000000000E+00 0.  1.
         23    2    1    2    0    0  0.00000000000E+00  0.00000000000E+00 -0.93529455459E+02  0.13197474521E+03  0.93110549000E+02 0.  0.
          2    1    3    3  502    0  0.13641068538E+01 -0.36087049634E+02 -0.88409660129E+02  0.95500805980E+02  0.00000000000E+00 0.  1.
         -2    1    3    3    0  502 -0.13641068538E+01  0.36087049634E+02 -0.51197953305E+01  0.36473939231E+02  0.00000000000E+00 0. -1.
<mgrwt>
<rscale>  0 0.93110549E+02</rscale>
<asrwt>0</asrwt>
<pdfrwt beam="1">  1        1 0.29573300E-02 0.93110549E+02</pdfrwt>
<pdfrwt beam="2">  1       -1 0.17346477E-01 0.93110549E+02</pdfrwt>
<totfact> 0.75320775E+04</totfact>
</mgrwt>
</event>
<event>
 5    1  0.4023633E+001  0.9116804E+02  0.7546771E-02  0.1300048E+00
          2   -1    0    0  501    0  0.00000000000E+00  0.00000000000E+00  0.36510485588E+04  0.36510485588E+04  0.00000000000E+00 0. -1.
         -2   -1    0    0    0  501 -0.00000000000E+00 -0.00000000000E+00 -0.56912495717E+00  0.56912495717E+00  0.00000000000E+00 0.  1.
         23    2    1    2    0    0  0.00000000000E+00  0.00000000000E+00  0.36504794338E+04  0.36516176837E+04  0.91168039458E+02 0.  0.
          2    1    3    3  502    0  0.28300122990E+01  0.44241092318E+02  0.22502992343E+04  0.22507358635E+04  0.00000000000E+00 0. -1.
         -2    1    3    3    0  502 -0.28300122990E+01 -0.44241092318E+02  0.14001801995E+04  0.14008818203E+04  0.00000000000E+00 0.  1.
<mgrwt>
<rscale>  0 0.91168039E+02</rscale>
<asrwt>0</asrwt>
<pdfrwt beam="1">  1        2 0.56168102E+00 0.91168039E+02</pdfrwt>
<pdfrwt beam="2">  1       -2 0.87560609E-04 0.91168039E+02</pdfrwt>
<totfact> 0.53292362E+04</totfact>
</mgrwt>
</event>
<event>
 5    1  0.4023633E+001  0.9259753E+02  0.7546771E-02  0.1296681E+00
         -2   -1    0    0    0  501 -0.00000000000E+00  0.00000000000E+00  0.13878897924E+02  0.13878897924E+02  0.00000000000E+00 0.  1.
          2   -1    0    0  501    0  0.00000000000E+00 -0.00000000000E+00 -0.15444853744E+03  0.15444853744E+03  0.00000000000E+00 0. -1.
         23    2    1    2    0    0  0.00000000000E+00  0.00000000000E+00 -0.14056963952E+03  0.16832743537E+03  0.92597526656E+02 0.  0.
          2    1    3    3  502    0 -0.26990873683E+02  0.29032868089E+01 -0.13846323000E+03  0.14109926434E+03  0.00000000000E+00 0. -1.
         -2    1    3    3    0  502  0.26990873683E+02 -0.29032868089E+01 -0.21064095243E+01  0.27228171028E+02  0.00000000000E+00 0.  1.
<mgrwt>
<rscale>  0 0.92597527E+02</rscale>
<asrwt>0</asrwt>
<pdfrwt beam="2">  1        2 0.23761313E-01 0.92597527E+02</pdfrwt>
<pdfrwt beam="1">  1       -2 0.21352151E-02 0.92597527E+02</pdfrwt>
<totfact> 0.13540260E+05</totfact>
</mgrwt>
</event>
<event>
 5    1  0.4023633E+001  0.8417015E+02  0.7546771E-02  0.1317617E+00
         -1   -1    0    0    0  501 -0.00000000000E+00  0.00000000000E+00  0.17797615657E+01  0.17797615657E+01  0.00000000000E+00 0.  1.
          1   -1    0    0  501    0  0.00000000000E+00 -0.00000000000E+00 -0.99516328799E+03  0.99516328799E+03  0.00000000000E+00 0. -1.
         23    2    1    2    0    0  0.00000000000E+00  0.00000000000E+00 -0.99338352643E+03  0.99694304956E+03  0.84170146051E+02 0.  0.
          2    1    3    3  502    0 -0.22825363191E+02 -0.17016585063E+02 -0.86378953782E+03  0.86425859962E+03  0.00000000000E+00 0. -1.
         -2    1    3    3    0  502  0.22825363191E+02  0.17016585063E+02 -0.12959398860E+03  0.13268444993E+03  0.00000000000E+00 0.  1.
<mgrwt>
<rscale>  0 0.84170146E+02</rscale>
<asrwt>0</asrwt>
<pdfrwt beam="2">  1        1 0.15310227E+00 0.84170146E+02</pdfrwt>
<pdfrwt beam="1">  1       -1 0.27380908E-03 0.84170146E+02</pdfrwt>
<totfact> 0.16810992E+05</totfact>
</mgrwt>
</event>
<event>
 5    1  0.4023633E+001  0.9118157E+02  0.7546771E-02  0.1300015E+00
         -1   -1    0    0    0  501 -0.00000000000E+00  0.00000000000E+00  0.53781906183E+02  0.53781906183E+02  0.00000000000E+00 0.  1.
          1   -1    0    0  501    0  0.00000000000E+00 -0.00000000000E+00 -0.38647189884E+02  0.38647189884E+02  0.00000000000E+00 0. -1.
         23    2    1    2    0    0  0.00000000000E+00  0.00000000000E+00  0.15134716299E+02  0.92429096067E+02  0.91181567009E+02 0.  0.
          2    1    3    3  502    0  0.27080320557E+02 -0.27488890769E+02 -0.17045217487E+02  0.42184384746E+02  0.00000000000E+00 0.  1.
         -2    1    3    3    0  502 -0.27080320557E+02  0.27488890769E+02  0.32179933787E+02  0.50244711321E+02  0.00000000000E+00 0. -1.
<mgrwt>
<rscale>  0 0.91181567E+02</rscale>
<asrwt>0</asrwt>
<pdfrwt beam="2">  1        1 0.59457215E-02 0.91181567E+02</pdfrwt>
<pdfrwt beam="1">  1       -1 0.82741394E-02 0.91181567E+02</pdfrwt>
<totfact> 0.90176520E+04</totfact>
</mgrwt>
</event>
<event>
 5    1  0.4023633E+001  0.9057884E+02  0.7546771E-02  0.1301456E+00
         -2   -1    0    0    0  501 -0.00000000000E+00  0.00000000000E+00  0.89733085088E+02  0.89733085088E+02  0.00000000000E+00 0. -1.
          2   -1    0    0  501    0  0.00000000000E+00 -0.00000000000E+00 -0.22858142736E+02  0.22858142736E+02  0.00000000000E+00 0.  1.
         23    2    1    2    0    0  0.00000000000E+00  0.00000000000E+00  0.66874942352E+02  0.11259122782E+03  0.90578842278E+02 0.  0.
          2    1    3    3  502    0 -0.43296527380E+02  0.61168341109E+01  0.18775813686E+02  0.47587142405E+02  0.00000000000E+00 0.  1.
         -2    1    3    3    0  502  0.43296527380E+02 -0.61168341109E+01  0.48099128666E+02  0.65004085419E+02  0.00000000000E+00 0. -1.
<mgrwt>
<rscale>  0 0.90578842E+02</rscale>
<asrwt>0</asrwt>
<pdfrwt beam="2">  1        2 0.35166374E-02 0.90578842E+02</pdfrwt>
<pdfrwt beam="1">  1       -2 0.13805090E-01 0.90578842E+02</pdfrwt>
<totfact> 0.83725815E+04</totfact>
</mgrwt>
</event>
<event>
 5    1  0.4023633E+001  0.8948876E+02  0.7546771E-02  0.1304094E+00
          2   -1    0    0  501    0  0.00000000000E+00  0.00000000000E+00  0.14413987407E+04  0.14413987407E+04  0.00000000000E+00 0. -1.
         -2   -1    0    0    0  501 -0.00000000000E+00 -0.00000000000E+00 -0.13889698432E+01  0.13889698432E+01  0.00000000000E+00 0.  1.
         23    2    1    2    0    0  0.00000000000E+00  0.00000000000E+00  0.14400097709E+04  0.14427877106E+04  0.89488756452E+02 0.  0.
          2    1    3    3  502    0  0.21372542357E+02  0.22503245527E+02  0.12396611716E+04  0.12400495966E+04  0.00000000000E+00 0. -1.
         -2    1    3    3    0  502 -0.21372542357E+02 -0.22503245527E+02  0.20034859930E+03  0.20273811400E+03  0.00000000000E+00 0.  1.
<mgrwt>
<rscale>  0 0.89488756E+02</rscale>
<asrwt>0</asrwt>
<pdfrwt beam="1">  1        2 0.22175246E+00 0.89488756E+02</pdfrwt>
<pdfrwt beam="2">  1       -2 0.21368882E-03 0.89488756E+02</pdfrwt>
<totfact> 0.25134640E+05</totfact>
</mgrwt>
</event>
<event>
 5    1  0.4023633E+001  0.9316514E+02  0.7546771E-02  0.1295363E+00
          2   -1    0    0  501    0  0.00000000000E+00  0.00000000000E+00  0.12697801972E+04  0.12697801972E+04  0.00000000000E+00 0. -1.
         -2   -1    0    0    0  501 -0.00000000000E+00 -0.00000000000E+00 -0.17089065529E+01  0.17089065529E+01  0.00000000000E+00 0.  1.
         23    2    1    2    0    0  0.00000000000E+00  0.00000000000E+00  0.12680712907E+04  0.12714891038E+04  0.93165137251E+02 0.  0.
          2    1    3    3  502    0  0.36253256961E+01  0.45099199802E+02  0.48276472842E+03  0.48488025720E+03  0.00000000000E+00 0.  1.
         -2    1    3    3    0  502 -0.36253256961E+01 -0.45099199802E+02  0.78530656226E+03  0.78660884659E+03  0.00000000000E+00 0. -1.
<mgrwt>
<rscale>  0 0.93165137E+02</rscale>
<asrwt>0</asrwt>
<pdfrwt beam="1">  1        2 0.19535005E+00 0.93165137E+02</pdfrwt>
<pdfrwt beam="2">  1       -2 0.26290972E-03 0.93165137E+02</pdfrwt>
<totfact> 0.23310636E+05</totfact>
</mgrwt>
</event>
<event>
 5    1  0.4023633E+001  0.8902405E+02  0.7546771E-02  0.1305232E+00
         -2   -1    0    0    0  501 -0.00000000000E+00  0.00000000000E+00  0.43106278376E+02  0.43106278376E+02  0.00000000000E+00 0.  1.
          2   -1    0    0  501    0  0.00000000000E+00 -0.00000000000E+00 -0.45963612362E+02  0.45963612362E+02  0.00000000000E+00 0. -1.
         23    2    1    2    0    0  0.00000000000E+00  0.00000000000E+00 -0.28573339865E+01  0.89069890738E+02  0.89024047755E+02 0.  0.
          2    1    3    3  502    0  0.37621049157E+02 -0.15062431885E+02 -0.19852819761E+02  0.45125986376E+02  0.00000000000E+00 0. -1.
         -2    1    3    3    0  502 -0.37621049157E+02  0.15062431885E+02  0.16995485774E+02  0.43943904363E+02  0.00000000000E+00 0.  1.
<mgrwt>
<rscale>  0 0.89024048E+02</rscale>
<asrwt>0</asrwt>
<pdfrwt beam="2">  1        2 0.70713250E-02 0.89024048E+02</pdfrwt>
<pdfrwt beam="1">  1       -2 0.66317351E-02 0.89024048E+02</pdfrwt>
<totfact> 0.10587583E+05</totfact>
</mgrwt>
</event>
<event>
 5    1  0.4023633E+001  0.6689103E+02  0.7546771E-02  0.1370996E+00
          2   -1    0    0  501    0  0.00000000000E+00  0.00000000000E+00  0.11801110326E+04  0.11801110326E+04  0.00000000000E+00 0. -1.
         -2   -1    0    0    0  501 -0.00000000000E+00 -0.00000000000E+00 -0.94787893597E+00  0.94787893597E+00  0.00000000000E+00 0.  1.
         23    2    1    2    0    0  0.00000000000E+00  0.00000000000E+00  0.11791631536E+04  0.11810589115E+04  0.66891027496E+02 0.  0.
          2    1    3    3  502    0  0.32964049240E+02  0.51298048531E+01  0.54757941803E+03  0.54859471606E+03  0.00000000000E+00 0. -1.
         -2    1    3    3    0  502 -0.32964049240E+02 -0.51298048531E+01  0.63158373560E+03  0.63246419544E+03  0.00000000000E+00 0.  1.
<mgrwt>
<rscale>  0 0.66891027E+02</rscale>
<asrwt>0</asrwt>
<pdfrwt beam="1">  1        2 0.18155437E+00 0.66891027E+02</pdfrwt>
<pdfrwt beam="2">  1       -2 0.14582847E-03 0.66891027E+02</pdfrwt>
<totfact> 0.55592645E+05</totfact>
</mgrwt>
</event>
<event>
 5    1  0.4023633E+001  0.9451239E+02  0.7546771E-02  0.1292278E+00
         -2   -1    0    0    0  501 -0.00000000000E+00  0.00000000000E+00  0.28627589424E+01  0.28627589424E+01  0.00000000000E+00 0.  1.
          2   -1    0    0  501    0  0.00000000000E+00 -0.00000000000E+00 -0.78006849860E+03  0.78006849860E+03  0.00000000000E+00 0. -1.
         23    2    1    2    0    0  0.00000000000E+00  0.00000000000E+00 -0.77720573966E+03  0.78293125755E+03  0.94512392205E+02 0.  0.
          2    1    3    3  502    0 -0.25919524009E+02 -0.30420628991E+02 -0.59750038604E+03  0.59883549303E+03  0.00000000000E+00 0. -1.
         -2    1    3    3    0  502  0.25919524009E+02  0.30420628991E+02 -0.17970535362E+03  0.18409576451E+03  0.00000000000E+00 0.  1.
<mgrwt>
<rscale>  0 0.94512392E+02</rscale>
<asrwt>0</asrwt>
<pdfrwt beam="2">  1        2 0.12001069E+00 0.94512392E+02</pdfrwt>
<pdfrwt beam="1">  1       -2 0.44042390E-03 0.94512392E+02</pdfrwt>
<totfact> 0.22066175E+05</totfact>
</mgrwt>
</event>
<event>
 5    1  0.4023633E+001  0.9146766E+02  0.7546771E-02  0.1299336E+00
         -2   -1    0    0    0  501 -0.00000000000E+00  0.00000000000E+00  0.14430226653E+01  0.14430226653E+01  0.00000000000E+00 0.  1.
          2   -1    0    0  501    0  0.00000000000E+00 -0.00000000000E+00 -0.14494458691E+04  0.14494458691E+04  0.00000000000E+00 0. -1.
         23    2    1    2    0    0  0.00000000000E+00  0.00000000000E+00 -0.14480028464E+04  0.14508888918E+04  0.91467660759E+02 0.  0.
          2    1    3    3  502    0  0.42859101572E+02 -0.15452505890E+02 -0.78725351826E+03  0.78857072259E+03  0.00000000000E+00 0. -1.
         -2    1    3    3    0  502 -0.42859101572E+02  0.15452505890E+02 -0.66074932818E+03  0.66231816917E+03  0.00000000000E+00 0.  1.
<mgrwt>
<rscale>  0 0.91467661E+02</rscale>
<asrwt>0</asrwt>
<pdfrwt beam="2">  1        2 0.22299029E+00 0.91467661E+02</pdfrwt>
<pdfrwt beam="1">  1       -2 0.22200487E-03 0.91467661E+02</pdfrwt>
<totfact> 0.23685002E+05</totfact>
</mgrwt>
</event>
<event>
 5    1  0.4023633E+001  0.9118847E+02  0.7546771E-02  0.1299999E+00
          1   -1    0    0  501    0  0.00000000000E+00  0.00000000000E+00  0.74912626832E+03  0.74912626832E+03  0.00000000000E+00 0. -1.
         -1   -1    0    0    0  501 -0.00000000000E+00 -0.00000000000E+00 -0.27750119437E+01  0.27750119437E+01  0.00000000000E+00 0.  1.
         23    2    1    2    0    0  0.00000000000E+00  0.00000000000E+00  0.74635125638E+03  0.75190128027E+03  0.91188471682E+02 0.  0.
          2    1    3    3  502    0 -0.44012604042E+02  0.10545429065E+02  0.41872744505E+03  0.42116622447E+03  0.00000000000E+00 0. -1.
         -2    1    3    3    0  502  0.44012604042E+02 -0.10545429065E+02  0.32762381132E+03  0.33073505580E+03  0.00000000000E+00 0.  1.
<mgrwt>
<rscale>  0 0.91188472E+02</rscale>
<asrwt>0</asrwt>
<pdfrwt beam="1">  1        1 0.11525003E+00 0.91188472E+02</pdfrwt>
<pdfrwt beam="2">  1       -1 0.42692551E-03 0.91188472E+02</pdfrwt>
<totfact> 0.14186674E+05</totfact>
</mgrwt>
</event>
<event>
 5    1  0.4023633E+001  0.9171733E+02  0.7546771E-02  0.1298745E+00
          1   -1    0    0  501    0  0.00000000000E+00  0.00000000000E+00  0.21493860535E+02  0.21493860535E+02  0.00000000000E+00 0. -1.
         -1   -1    0    0    0  501 -0.00000000000E+00 -0.00000000000E+00 -0.97842698105E+02  0.97842698105E+02  0.00000000000E+00 0.  1.
         23    2    1    2    0    0  0.00000000000E+00  0.00000000000E+00 -0.76348837570E+02  0.11933655864E+03  0.91717333312E+02 0.  0.
          2    1    3    3  502    0  0.22727037835E+02  0.83820075788E+01  0.12490366884E+02  0.27254092623E+02  0.00000000000E+00 0. -1.
         -2    1    3    3    0  502 -0.22727037835E+02 -0.83820075788E+01 -0.88839204454E+02  0.92082466017E+02  0.00000000000E+00 0.  1.
<mgrwt>
<rscale>  0 0.91717333E+02</rscale>
<asrwt>0</asrwt>
<pdfrwt beam="1">  1        1 0.33067478E-02 0.91717333E+02</pdfrwt>
<pdfrwt beam="2">  1       -1 0.15052723E-01 0.91717333E+02</pdfrwt>
<totfact> 0.80464765E+04</totfact>
</mgrwt>
</event>
<event>
 5    1  0.4023633E+001  0.9151729E+02  0.7546771E-02  0.1299218E+00
         -2   -1    0    0    0  501 -0.00000000000E+00  0.00000000000E+00  0.12069544869E+01  0.12069544869E+01  0.00000000000E+00 0.  1.
          2   -1    0    0  501    0  0.00000000000E+00 -0.00000000000E+00 -0.17348239886E+04  0.17348239886E+04  0.00000000000E+00 0. -1.
         23    2    1    2    0    0  0.00000000000E+00  0.00000000000E+00 -0.17336170341E+04  0.17360309431E+04  0.91517290104E+02 0.  0.
          2    1    3    3  502    0 -0.32905768344E+02  0.48545858021E+01 -0.14629127464E+04  0.14632908324E+04  0.00000000000E+00 0. -1.
         -2    1    3    3    0  502  0.32905768344E+02 -0.48545858021E+01 -0.27070428771E+03  0.27274011069E+03  0.00000000000E+00 0.  1.
<mgrwt>
<rscale>  0 0.91517290E+02</rscale>
<asrwt>0</asrwt>
<pdfrwt beam="2">  1        2 0.26689544E+00 0.91517290E+02</pdfrwt>
<pdfrwt beam="1">  1       -2 0.18568569E-03 0.91517290E+02</pdfrwt>
<totfact> 0.21744222E+05</totfact>
</mgrwt>
</event>
<event>
 5    1  0.4023633E+001  0.9242659E+02  0.7546771E-02  0.1297080E+00
         -2   -1    0    0    0  501 -0.00000000000E+00  0.00000000000E+00  0.16085039360E+01  0.16085039360E+01  0.00000000000E+00 0.  1.
          2   -1    0    0  501    0  0.00000000000E+00 -0.00000000000E+00 -0.13277360337E+04  0.13277360337E+04  0.00000000000E+00 0. -1.
         23    2    1    2    0    0  0.00000000000E+00  0.00000000000E+00 -0.13261275298E+04  0.13293445377E+04  0.92426590031E+02 0.  0.
          2    1    3    3  502    0 -0.16021291557E+02 -0.14833180074E+02 -0.12488768340E+04  0.12490676729E+04  0.00000000000E+00 0. -1.
         -2    1    3    3    0  502  0.16021291557E+02  0.14833180074E+02 -0.77250695851E+02  0.80276864810E+02  0.00000000000E+00 0.  1.
<mgrwt>
<rscale>  0 0.92426590E+02</rscale>
<asrwt>0</asrwt>
<pdfrwt beam="2">  1        2 0.20426699E+00 0.92426590E+02</pdfrwt>
<pdfrwt beam="1">  1       -2 0.24746226E-03 0.92426590E+02</pdfrwt>
<totfact> 0.23600754E+05</totfact>
</mgrwt>
</event>
<event>
 5    1  0.4023633E+001  0.9094229E+02  0.7546771E-02  0.1300586E+00
         -1   -1    0    0    0  501 -0.00000000000E+00  0.00000000000E+00  0.27901322574E+01  0.27901322574E+01  0.00000000000E+00 0.  1.
          1   -1    0    0  501    0  0.00000000000E+00 -0.00000000000E+00 -0.74104909401E+03  0.74104909401E+03  0.00000000000E+00 0. -1.
         23    2    1    2    0    0  0.00000000000E+00  0.00000000000E+00 -0.73825896176E+03  0.74383922627E+03  0.90942288987E+02 0.  0.
          2    1    3    3  502    0 -0.31466000118E+02  0.30192649362E+02 -0.47448619776E+03  0.47648594639E+03  0.00000000000E+00 0. -1.
         -2    1    3    3    0  502  0.31466000118E+02 -0.30192649362E+02 -0.26377276400E+03  0.26735327988E+03  0.00000000000E+00 0.  1.
<mgrwt>
<rscale>  0 0.90942289E+02</rscale>
<asrwt>0</asrwt>
<pdfrwt beam="2">  1        1 0.11400745E+00 0.90942289E+02</pdfrwt>
<pdfrwt beam="1">  1       -1 0.42925150E-03 0.90942289E+02</pdfrwt>
<totfact> 0.14295049E+05</totfact>
</mgrwt>
</event>
<event>
 5    1  0.4023633E+001  0.9088841E+02  0.7546771E-02  0.1300714E+00
         -3   -1    0    0    0  501 -0.00000000000E+00  0.00000000000E+00  0.58510670650E+01  0.58510670650E+01  0.00000000000E+00 0.  1.
          3   -1    0    0  501    0  0.00000000000E+00 -0.00000000000E+00 -0.35295714232E+03  0.35295714232E+03  0.00000000000E+00 0. -1.
         23    2    1    2    0    0  0.00000000000E+00  0.00000000000E+00 -0.34710607525E+03  0.35880820938E+03  0.90888413140E+02 0.  0.
          2    1    3    3  502    0 -0.45401765244E+02  0.61033377236E+00 -0.18092083774E+03  0.18653161212E+03  0.00000000000E+00 0. -1.
         -2    1    3    3    0  502  0.45401765244E+02 -0.61033377236E+00 -0.16618523752E+03  0.17227659726E+03  0.00000000000E+00 0.  1.
<mgrwt>
<rscale>  0 0.90888413E+02</rscale>
<asrwt>0</asrwt>
<pdfrwt beam="2">  1        3 0.54301117E-01 0.90888413E+02</pdfrwt>
<pdfrwt beam="1">  1       -3 0.90016387E-03 0.90888413E+02</pdfrwt>
<totfact> 0.22107492E+04</totfact>
</mgrwt>
</event>
<event>
 5    1  0.4023633E+001  0.9077912E+02  0.7546771E-02  0.1300976E+00
          2   -1    0    0  501    0  0.00000000000E+00  0.00000000000E+00  0.51425629186E+03  0.51425629186E+03  0.00000000000E+00 0. -1.
         -2   -1    0    0    0  501 -0.00000000000E+00 -0.00000000000E+00 -0.40061972072E+01  0.40061972072E+01  0.00000000000E+00 0.  1.
         23    2    1    2    0    0  0.00000000000E+00  0.00000000000E+00  0.51025009465E+03  0.51826248906E+03  0.90779119190E+02 0.  0.
          2    1    3    3  502    0  0.70334942639E+01  0.43579989418E+02  0.19483396988E+03  0.19977227370E+03  0.00000000000E+00 0. -1.
         -2    1    3    3    0  502 -0.70334942639E+01 -0.43579989418E+02  0.31541612477E+03  0.31849021537E+03  0.00000000000E+00 0.  1.
<mgrwt>
<rscale>  0 0.90779119E+02</rscale>
<asrwt>0</asrwt>
<pdfrwt beam="1">  1        2 0.79116300E-01 0.90779119E+02</pdfrwt>
<pdfrwt beam="2">  1       -2 0.61633844E-03 0.90779119E+02</pdfrwt>
<totfact> 0.21998673E+05</totfact>
</mgrwt>
</event>
<event>
 5    1  0.4023633E+001  0.9132131E+02  0.7546771E-02  0.1299683E+00
         -2   -1    0    0    0  501 -0.00000000000E+00  0.00000000000E+00  0.18836183676E+03  0.18836183676E+03  0.00000000000E+00 0.  1.
          2   -1    0    0  501    0  0.00000000000E+00 -0.00000000000E+00 -0.11068564962E+02  0.11068564962E+02  0.00000000000E+00 0. -1.
         23    2    1    2    0    0  0.00000000000E+00  0.00000000000E+00  0.17729327180E+03  0.19943040173E+03  0.91321305873E+02 0.  0.
          2    1    3    3  502    0  0.25827217769E+02  0.11491807162E+01  0.64541620296E+01  0.26646238037E+02  0.00000000000E+00 0. -1.
         -2    1    3    3    0  502 -0.25827217769E+02 -0.11491807162E+01  0.17083910977E+03  0.17278416369E+03  0.00000000000E+00 0.  1.
<mgrwt>
<rscale>  0 0.91321306E+02</rscale>
<asrwt>0</asrwt>
<pdfrwt beam="2">  1        2 0.17028563E-02 0.91321306E+02</pdfrwt>
<pdfrwt beam="1">  1       -2 0.28978742E-01 0.91321306E+02</pdfrwt>
<totfact> 0.63669978E+04</totfact>
</mgrwt>
</event>
<event>
 5    1  0.4023633E+001  0.9107292E+02  0.7546771E-02  0.1300274E+00
          1   -1    0    0  501    0  0.00000000000E+00  0.00000000000E+00  0.52079132671E+01  0.52079132671E+01  0.00000000000E+00 0. -1.
         -1   -1    0    0    0  501 -0.00000000000E+00 -0.00000000000E+00 -0.39815742958E+03  0.39815742958E+03  0.00000000000E+00 0.  1.
         23    2    1    2    0    0  0.00000000000E+00  0.00000000000E+00 -0.39294951632E+03  0.40336534285E+03  0.91072923746E+02 0.  0.
          2    1    3    3  502    0 -0.34783722553E+01 -0.40512624588E+02 -0.10568516872E+03  0.11323747928E+03  0.00000000000E+00 0. -1.
         -2    1    3    3    0  502  0.34783722553E+01  0.40512624588E+02 -0.28726434759E+03  0.29012786357E+03  0.00000000000E+00 0.  1.
<mgrwt>
<rscale>  0 0.91072924E+02</rscale>
<asrwt>0</asrwt>
<pdfrwt beam="1">  1        1 0.80121736E-03 0.91072924E+02</pdfrwt>
<pdfrwt beam="2">  1       -1 0.61254994E-01 0.91072924E+02</pdfrwt>
<totfact> 0.53573905E+04</totfact>
</mgrwt>
</event>
<event>
 5    1  0.4023633E+001  0.9135894E+02  0.7546771E-02  0.1299594E+00
          2   -1    0    0  501    0  0.00000000000E+00  0.00000000000E+00  0.56768677548E+02  0.56768677548E+02  0.00000000000E+00 0. -1.
         -2   -1    0    0    0  501 -0.00000000000E+00 -0.00000000000E+00 -0.36756428727E+02  0.36756428727E+02  0.00000000000E+00 0.  1.
         23    2    1    2    0    0  0.00000000000E+00  0.00000000000E+00  0.20012248821E+02  0.93525106276E+02  0.91358937171E+02 0.  0.
          2    1    3    3  502    0  0.32966492537E+02  0.26622182398E+02  0.27471826926E+02  0.50499816836E+02  0.00000000000E+00 0. -1.
         -2    1    3    3    0  502 -0.32966492537E+02 -0.26622182398E+02 -0.74595781054E+01  0.43025289439E+02  0.00000000000E+00 0.  1.
<mgrwt>
<rscale>  0 0.91358937E+02</rscale>
<asrwt>0</asrwt>
<pdfrwt beam="1">  1        2 0.87336427E-02 0.91358937E+02</pdfrwt>
<pdfrwt beam="2">  1       -2 0.56548352E-02 0.91358937E+02</pdfrwt>
<totfact> 0.10392427E+05</totfact>
</mgrwt>
</event>
<event>
 5    1  0.4023633E+001  0.8806779E+02  0.7546771E-02  0.1307599E+00
         -2   -1    0    0    0  501 -0.00000000000E+00  0.00000000000E+00  0.99464513608E+00  0.99464513608E+00  0.00000000000E+00 0.  1.
          2   -1    0    0  501    0  0.00000000000E+00 -0.00000000000E+00 -0.19494226834E+04  0.19494226834E+04  0.00000000000E+00 0. -1.
         23    2    1    2    0    0  0.00000000000E+00  0.00000000000E+00 -0.19484280382E+04  0.19504173285E+04  0.88067787304E+02 0.  0.
          2    1    3    3  502    0 -0.91478463720E+01  0.40987850959E+02 -0.12674366052E+04  0.12681321837E+04  0.00000000000E+00 0.  1.
         -2    1    3    3    0  502  0.91478463720E+01 -0.40987850959E+02 -0.68099143302E+03  0.68228514484E+03  0.00000000000E+00 0. -1.
<mgrwt>
<rscale>  0 0.88067787E+02</rscale>
<asrwt>0</asrwt>
<pdfrwt beam="2">  1        2 0.29991161E+00 0.88067787E+02</pdfrwt>
<pdfrwt beam="1">  1       -2 0.15302211E-03 0.88067787E+02</pdfrwt>
<totfact> 0.22071783E+05</totfact>
</mgrwt>
</event>
<event>
 5    1  0.4023633E+001  0.8966015E+02  0.7546771E-02  0.1303677E+00
          1   -1    0    0  501    0  0.00000000000E+00  0.00000000000E+00  0.25961360572E+02  0.25961360572E+02  0.00000000000E+00 0. -1.
         -1   -1    0    0    0  501 -0.00000000000E+00 -0.00000000000E+00 -0.77412571720E+02  0.77412571720E+02  0.00000000000E+00 0.  1.
         23    2    1    2    0    0  0.00000000000E+00  0.00000000000E+00 -0.51451211149E+02  0.10337393229E+03  0.89660151399E+02 0.  0.
          2    1    3    3  502    0  0.24238386837E+02 -0.37437811492E+02 -0.20486761943E+02  0.49079492058E+02  0.00000000000E+00 0. -1.
         -2    1    3    3    0  502 -0.24238386837E+02  0.37437811492E+02 -0.30964449206E+02  0.54294440234E+02  0.00000000000E+00 0.  1.
<mgrwt>
<rscale>  0 0.89660151E+02</rscale>
<asrwt>0</asrwt>
<pdfrwt beam="1">  1        1 0.39940556E-02 0.89660151E+02</pdfrwt>
<pdfrwt beam="2">  1       -1 0.11909626E-01 0.89660151E+02</pdfrwt>
<totfact> 0.88846651E+04</totfact>
</mgrwt>
</event>
<event>
 5    1  0.4023633E+001  0.8962163E+02  0.7546771E-02  0.1303771E+00
          2   -1    0    0  501    0  0.00000000000E+00  0.00000000000E+00  0.12494270994E+02  0.12494270994E+02  0.00000000000E+00 0.  1.
         -2   -1    0    0    0  501 -0.00000000000E+00 -0.00000000000E+00 -0.16071439300E+03  0.16071439300E+03  0.00000000000E+00 0. -1.
         23    2    1    2    0    0  0.00000000000E+00  0.00000000000E+00 -0.14822012201E+03  0.17320866400E+03  0.89621630844E+02 0.  0.
          2    1    3    3  502    0 -0.15546971386E+02  0.41781134142E+02 -0.82889915216E+02  0.94117530428E+02  0.00000000000E+00 0. -1.
         -2    1    3    3    0  502  0.15546971386E+02 -0.41781134142E+02 -0.65330206795E+02  0.79091133570E+02  0.00000000000E+00 0.  1.
<mgrwt>
<rscale>  0 0.89621631E+02</rscale>
<asrwt>0</asrwt>
<pdfrwt beam="1">  1        2 0.19221956E-02 0.89621631E+02</pdfrwt>
<pdfrwt beam="2">  1       -2 0.24725290E-01 0.89621631E+02</pdfrwt>
<totfact> 0.71125280E+04</totfact>
</mgrwt>
</event>
<event>
 5    1  0.4023633E+001  0.9026048E+02  0.7546771E-02  0.1302222E+00
         -1   -1    0    0    0  501 -0.00000000000E+00  0.00000000000E+00  0.55526650584E+02  0.55526650584E+02  0.00000000000E+00 0.  1.
          1   -1    0    0  501    0  0.00000000000E+00 -0.00000000000E+00 -0.36680381824E+02  0.36680381824E+02  0.00000000000E+00 0. -1.
         23    2    1    2    0    0  0.00000000000E+00  0.00000000000E+00  0.18846268761E+02  0.92207032408E+02  0.90260484041E+02 0.  0.
          2    1    3    3  502    0  0.37650656350E+02 -0.12282263514E+02  0.31530368575E+02  0.50622031401E+02  0.00000000000E+00 0.  1.
         -2    1    3    3    0  502 -0.37650656350E+02  0.12282263514E+02 -0.12684099815E+02  0.41585001007E+02  0.00000000000E+00 0. -1.
<mgrwt>
<rscale>  0 0.90260484E+02</rscale>
<asrwt>0</asrwt>
<pdfrwt beam="2">  1        1 0.56431356E-02 0.90260484E+02</pdfrwt>
<pdfrwt beam="1">  1       -1 0.85425617E-02 0.90260484E+02</pdfrwt>
<totfact> 0.92067907E+04</totfact>
</mgrwt>
</event>
<event>
 5    1  0.4023633E+001  0.9009587E+02  0.7546771E-02  0.1302620E+00
         -1   -1    0    0    0  501 -0.00000000000E+00  0.00000000000E+00  0.80667619230E+00  0.80667619230E+00  0.00000000000E+00 0. -1.
          1   -1    0    0  501    0  0.00000000000E+00 -0.00000000000E+00 -0.25156517984E+04  0.25156517984E+04  0.00000000000E+00 0.  1.
         23    2    1    2    0    0  0.00000000000E+00  0.00000000000E+00 -0.25148451222E+04  0.25164584746E+04  0.90095869248E+02 0.  0.
          2    1    3    3  502    0 -0.52031609039E+01 -0.36454752308E+02 -0.53267386479E+03  0.53394519202E+03  0.00000000000E+00 0. -1.
         -2    1    3    3    0  502  0.52031609039E+01  0.36454752308E+02 -0.19821712574E+04  0.19825132826E+04  0.00000000000E+00 0.  1.
<mgrwt>
<rscale>  0 0.90095869E+02</rscale>
<asrwt>0</asrwt>
<pdfrwt beam="2">  1        1 0.38701733E+00 0.90095869E+02</pdfrwt>
<pdfrwt beam="1">  1       -1 0.12410596E-03 0.90095869E+02</pdfrwt>
<totfact> 0.53216218E+04</totfact>
</mgrwt>
</event>
<event>
 5    1  0.4023633E+001  0.9042538E+02  0.7546771E-02  0.1301825E+00
         -2   -1    0    0    0  501 -0.00000000000E+00  0.00000000000E+00  0.21459307494E+02  0.21459307494E+02  0.00000000000E+00 0.  1.
          2   -1    0    0  501    0  0.00000000000E+00 -0.00000000000E+00 -0.95258779062E+02  0.95258779062E+02  0.00000000000E+00 0. -1.
         23    2    1    2    0    0  0.00000000000E+00  0.00000000000E+00 -0.73799471568E+02  0.11671808656E+03  0.90425382086E+02 0.  0.
          2    1    3    3  502    0 -0.39058976119E+02  0.21590296132E+02 -0.27552326140E+02  0.52448786242E+02  0.00000000000E+00 0. -1.
         -2    1    3    3    0  502  0.39058976119E+02 -0.21590296132E+02 -0.46247145429E+02  0.64269300314E+02  0.00000000000E+00 0.  1.
<mgrwt>
<rscale>  0 0.90425382E+02</rscale>
<asrwt>0</asrwt>
<pdfrwt beam="2">  1        2 0.14655197E-01 0.90425382E+02</pdfrwt>
<pdfrwt beam="1">  1       -2 0.33014319E-02 0.90425382E+02</pdfrwt>
<totfact> 0.12367508E+05</totfact>
</mgrwt>
</event>
<event>
 5    1  0.4023633E+001  0.9280240E+02  0.7546771E-02  0.1296204E+00
         -2   -1    0    0    0  501 -0.00000000000E+00  0.00000000000E+00  0.28091913532E+02  0.28091913532E+02  0.00000000000E+00 0.  1.
          2   -1    0    0  501    0  0.00000000000E+00 -0.00000000000E+00 -0.76643809712E+02  0.76643809712E+02  0.00000000000E+00 0. -1.
         23    2    1    2    0    0  0.00000000000E+00  0.00000000000E+00 -0.48551896180E+02  0.10473572324E+03  0.92802398142E+02 0.  0.
          2    1    3    3  502    0  0.33967969800E+02 -0.30402838516E+02 -0.34044317963E+02  0.56896143523E+02  0.00000000000E+00 0. -1.
         -2    1    3    3    0  502 -0.33967969800E+02  0.30402838516E+02 -0.14507578217E+02  0.47839579721E+02  0.00000000000E+00 0.  1.
<mgrwt>
<rscale>  0 0.92802398E+02</rscale>
<asrwt>0</asrwt>
<pdfrwt beam="2">  1        2 0.11791355E-01 0.92802398E+02</pdfrwt>
<pdfrwt beam="1">  1       -2 0.43218329E-02 0.92802398E+02</pdfrwt>
<totfact> 0.10800220E+05</totfact>
</mgrwt>
</event>
<event>
 5    1  0.4023633E+001  0.9216256E+02  0.7546771E-02  0.1297698E+00
         -1   -1    0    0    0  501 -0.00000000000E+00  0.00000000000E+00  0.23056203772E+01  0.23056203772E+01  0.00000000000E+00 0.  1.
          1   -1    0    0  501    0  0.00000000000E+00 -0.00000000000E+00 -0.92100352684E+03  0.92100352684E+03  0.00000000000E+00 0. -1.
         23    2    1    2    0    0  0.00000000000E+00  0.00000000000E+00 -0.91869790646E+03  0.92330914722E+03  0.92162562877E+02 0.  0.
          2    1    3    3  502    0 -0.34460913317E+01 -0.22905410868E+02 -0.85844219008E+03  0.85875463732E+03  0.00000000000E+00 0. -1.
         -2    1    3    3    0  502  0.34460913317E+01  0.22905410868E+02 -0.60255716378E+02  0.64554509902E+02  0.00000000000E+00 0.  1.
<mgrwt>
<rscale>  0 0.92162563E+02</rscale>
<asrwt>0</asrwt>
<pdfrwt beam="2">  1        1 0.14169301E+00 0.92162563E+02</pdfrwt>
<pdfrwt beam="1">  1       -1 0.35471044E-03 0.92162563E+02</pdfrwt>
<totfact> 0.13470561E+05</totfact>
</mgrwt>
</event>
<event>
 5    1  0.4023633E+001  0.8876236E+02  0.7546771E-02  0.1305877E+00
          2   -1    0    0  501    0  0.00000000000E+00  0.00000000000E+00  0.16311820840E+04  0.16311820840E+04  0.00000000000E+00 0. -1.
         -2   -1    0    0    0  501 -0.00000000000E+00 -0.00000000000E+00 -0.12075225354E+01  0.12075225354E+01  0.00000000000E+00 0.  1.
         23    2    1    2    0    0  0.00000000000E+00  0.00000000000E+00  0.16299745615E+04  0.16323896066E+04  0.88762359722E+02 0.  0.
          2    1    3    3  502    0 -0.37974730101E+02 -0.13203714312E+02  0.11606471260E+04  0.11613432608E+04  0.00000000000E+00 0. -1.
         -2    1    3    3    0  502  0.37974730101E+02  0.13203714312E+02  0.46932743548E+03  0.47104634580E+03  0.00000000000E+00 0.  1.
<mgrwt>
<rscale>  0 0.88762360E+02</rscale>
<asrwt>0</asrwt>
<pdfrwt beam="1">  1        2 0.25094933E+00 0.88762360E+02</pdfrwt>
<pdfrwt beam="2">  1       -2 0.18577400E-03 0.88762360E+02</pdfrwt>
<totfact> 0.24402401E+05</totfact>
</mgrwt>
</event>
<event>
 5    1  0.4023633E+001  0.9290049E+02  0.7546771E-02  0.1295976E+00
         -2   -1    0    0    0  501 -0.00000000000E+00  0.00000000000E+00  0.30926134060E+01  0.30926134060E+01  0.00000000000E+00 0. -1.
          2   -1    0    0  501    0  0.00000000000E+00 -0.00000000000E+00 -0.69767046964E+03  0.69767046964E+03  0.00000000000E+00 0.  1.
         23    2    1    2    0    0  0.00000000000E+00  0.00000000000E+00 -0.69457785623E+03  0.70076308304E+03  0.92900485411E+02 0.  0.
          2    1    3    3  502    0  0.22524756160E+02  0.18678613690E+01 -0.41184295203E+02  0.46978715580E+02  0.00000000000E+00 0. -1.
         -2    1    3    3    0  502 -0.22524756160E+02 -0.18678613690E+01 -0.65339356103E+03  0.65378436746E+03  0.00000000000E+00 0.  1.
<mgrwt>
<rscale>  0 0.92900485E+02</rscale>
<asrwt>0</asrwt>
<pdfrwt beam="2">  1        2 0.10733396E+00 0.92900485E+02</pdfrwt>
<pdfrwt beam="1">  1       -2 0.47578650E-03 0.92900485E+02</pdfrwt>
<totfact> 0.22552383E+05</totfact>
</mgrwt>
</event>
<event>
 5    1  0.4023633E+001  0.9122422E+02  0.7546771E-02  0.1299914E+00
          2   -1    0    0  501    0  0.00000000000E+00  0.00000000000E+00  0.24418614532E+02  0.24418614532E+02  0.00000000000E+00 0. -1.
         -2   -1    0    0    0  501 -0.00000000000E+00 -0.00000000000E+00 -0.85199934689E+02  0.85199934689E+02  0.00000000000E+00 0.  1.
         23    2    1    2    0    0  0.00000000000E+00  0.00000000000E+00 -0.60781320158E+02  0.10961854922E+03  0.91224215278E+02 0.  0.
          2    1    3    3  502    0 -0.29097674680E+01 -0.35375567432E+02  0.40309274785E+01  0.35723184268E+02  0.00000000000E+00 0. -1.
         -2    1    3    3    0  502  0.29097674680E+01  0.35375567432E+02 -0.64812247636E+02  0.73895364953E+02  0.00000000000E+00 0.  1.
<mgrwt>
<rscale>  0 0.91224215E+02</rscale>
<asrwt>0</asrwt>
<pdfrwt beam="1">  1        2 0.37567099E-02 0.91224215E+02</pdfrwt>
<pdfrwt beam="2">  1       -2 0.13107682E-01 0.91224215E+02</pdfrwt>
<totfact> 0.83490586E+04</totfact>
</mgrwt>
</event>
<event>
 5    1  0.4023633E+001  0.9098589E+02  0.7546771E-02  0.1300482E+00
         -2   -1    0    0    0  501 -0.00000000000E+00  0.00000000000E+00  0.97199515045E+03  0.97199515045E+03  0.00000000000E+00 0.  1.
          2   -1    0    0  501    0  0.00000000000E+00 -0.00000000000E+00 -0.21292370203E+01  0.21292370203E+01  0.00000000000E+00 0. -1.
         23    2    1    2    0    0  0.00000000000E+00  0.00000000000E+00  0.96986591343E+03  0.97412438747E+03  0.90985890289E+02 0.  0.
          2    1    3    3  502    0  0.25414454925E+02 -0.29679342213E+02  0.23548476380E+03  0.23870448646E+03  0.00000000000E+00 0. -1.
         -2    1    3    3    0  502 -0.25414454925E+02  0.29679342213E+02  0.73438114963E+03  0.73541990101E+03  0.00000000000E+00 0.  1.
<mgrwt>
<rscale>  0 0.90985890E+02</rscale>
<asrwt>0</asrwt>
<pdfrwt beam="2">  1        2 0.32757570E-03 0.90985890E+02</pdfrwt>
<pdfrwt beam="1">  1       -2 0.14953736E+00 0.90985890E+02</pdfrwt>
<totfact> 0.19416308E+04</totfact>
</mgrwt>
</event>
<event>
 5    1  0.4023633E+001  0.9088625E+02  0.7546771E-02  0.1300720E+00
          2   -1    0    0  501    0  0.00000000000E+00  0.00000000000E+00  0.51521010941E+03  0.51521010941E+03  0.00000000000E+00 0. -1.
         -2   -1    0    0    0  501 -0.00000000000E+00 -0.00000000000E+00 -0.40082244250E+01  0.40082244250E+01  0.00000000000E+00 0.  1.
         23    2    1    2    0    0  0.00000000000E+00  0.00000000000E+00  0.51120188499E+03  0.51921833384E+03  0.90886252966E+02 0.  0.
          2    1    3    3  502    0  0.42154619918E+02  0.26766183326E+01  0.15985313612E+03  0.16533965463E+03  0.00000000000E+00 0.  1.
         -2    1    3    3    0  502 -0.42154619918E+02 -0.26766183326E+01  0.35134874887E+03  0.35387867920E+03  0.00000000000E+00 0. -1.
<mgrwt>
<rscale>  0 0.90886253E+02</rscale>
<asrwt>0</asrwt>
<pdfrwt beam="1">  1        2 0.79263041E-01 0.90886253E+02</pdfrwt>
<pdfrwt beam="2">  1       -2 0.61665032E-03 0.90886253E+02</pdfrwt>
<totfact> 0.21943166E+05</totfact>
</mgrwt>
</event>
<event>
 5    1  0.4023633E+001  0.9104706E+02  0.7546771E-02  0.1300336E+00
          1   -1    0    0  501    0  0.00000000000E+00  0.00000000000E+00  0.16569375913E+04  0.16569375913E+04  0.00000000000E+00 0. -1.
         -1   -1    0    0    0  501 -0.00000000000E+00 -0.00000000000E+00 -0.12507363087E+01  0.12507363087E+01  0.00000000000E+00 0.  1.
         23    2    1    2    0    0  0.00000000000E+00  0.00000000000E+00  0.16556868550E+04  0.16581883277E+04  0.91047064902E+02 0.  0.
          2    1    3    3  502    0  0.26482068425E+02  0.36963069942E+02  0.78784435596E+03  0.78915543317E+03  0.00000000000E+00 0. -1.
         -2    1    3    3    0  502 -0.26482068425E+02 -0.36963069942E+02  0.86784249908E+03  0.86903289449E+03  0.00000000000E+00 0.  1.
<mgrwt>
<rscale>  0 0.91047065E+02</rscale>
<asrwt>0</asrwt>
<pdfrwt beam="1">  1        1 0.25491172E+00 0.91047065E+02</pdfrwt>
<pdfrwt beam="2">  1       -1 0.19242230E-03 0.91047065E+02</pdfrwt>
<totfact> 0.10125849E+05</totfact>
</mgrwt>
</event>
<event>
 5    1  0.4023633E+001  0.9092878E+02  0.7546771E-02  0.1300618E+00
          3   -1    0    0  501    0  0.00000000000E+00  0.00000000000E+00  0.14198081618E+03  0.14198081618E+03  0.00000000000E+00 0. -1.
         -3   -1    0    0    0  501 -0.00000000000E+00 -0.00000000000E+00 -0.14558381421E+02  0.14558381421E+02  0.00000000000E+00 0.  1.
         23    2    1    2    0    0  0.00000000000E+00  0.00000000000E+00  0.12742243476E+03  0.15653919760E+03  0.90928782603E+02 0.  0.
          2    1    3    3  502    0 -0.26527184604E+02 -0.51554079352E+01  0.12665391919E+03  0.12950476825E+03  0.00000000000E+00 0. -1.
         -2    1    3    3    0  502  0.26527184604E+02  0.51554079352E+01  0.76851556939E+00  0.27034429348E+02  0.00000000000E+00 0.  1.
<mgrwt>
<rscale>  0 0.90928783E+02</rscale>
<asrwt>0</asrwt>
<pdfrwt beam="1">  1        3 0.21843202E-01 0.90928783E+02</pdfrwt>
<pdfrwt beam="2">  1       -3 0.22397511E-02 0.90928783E+02</pdfrwt>
<totfact> 0.31140514E+04</totfact>
</mgrwt>
</event>
<event>
 5    1  0.4023633E+001  0.9184349E+02  0.7546771E-02  0.1298448E+00
          1   -1    0    0  501    0  0.00000000000E+00  0.00000000000E+00  0.32711314406E+04  0.32711314406E+04  0.00000000000E+00 0. -1.
         -1   -1    0    0    0  501 -0.00000000000E+00 -0.00000000000E+00 -0.64467194967E+00  0.64467194967E+00  0.00000000000E+00 0.  1.
         23    2    1    2    0    0  0.00000000000E+00  0.00000000000E+00  0.32704867687E+04  0.32717761126E+04  0.91843490427E+02 0.  0.
          2    1    3    3  502    0  0.11338889634E+02 -0.35210858020E+02  0.66589986430E+03  0.66692653585E+03  0.00000000000E+00 0.  1.
         -2    1    3    3    0  502 -0.11338889634E+02  0.35210858020E+02  0.26045869044E+04  0.26048495767E+04  0.00000000000E+00 0. -1.
<mgrwt>
<rscale>  0 0.91843490E+02</rscale>
<asrwt>0</asrwt>
<pdfrwt beam="1">  1        1 0.50323770E+00 0.91843490E+02</pdfrwt>
<pdfrwt beam="2">  1       -1 0.99182919E-04 0.91843490E+02</pdfrwt>
<totfact> 0.22543199E+04</totfact>
</mgrwt>
</event>
<event>
 5    1  0.4023633E+001  0.9532020E+02  0.7546771E-02  0.1290457E+00
         -1   -1    0    0    0  501 -0.00000000000E+00  0.00000000000E+00  0.40213176094E+01  0.40213176094E+01  0.00000000000E+00 0.  1.
          1   -1    0    0  501    0  0.00000000000E+00 -0.00000000000E+00 -0.56486087916E+03  0.56486087916E+03  0.00000000000E+00 0. -1.
         23    2    1    2    0    0  0.00000000000E+00  0.00000000000E+00 -0.56083956155E+03  0.56888219677E+03  0.95320197235E+02 0.  0.
          2    1    3    3  502    0  0.35754015603E+02 -0.16954834357E+02 -0.12188012247E+03  0.12814281210E+03  0.00000000000E+00 0. -1.
         -2    1    3    3    0  502 -0.35754015603E+02  0.16954834357E+02 -0.43895943908E+03  0.44073938467E+03  0.00000000000E+00 0.  1.
<mgrwt>
<rscale>  0 0.95320197E+02</rscale>
<asrwt>0</asrwt>
<pdfrwt beam="2">  1        1 0.86901711E-01 0.95320197E+02</pdfrwt>
<pdfrwt beam="1">  1       -1 0.61866398E-03 0.95320197E+02</pdfrwt>
<totfact> 0.12529746E+05</totfact>
</mgrwt>
</event>
<event>
 5    1  0.4023633E+001  0.9112660E+02  0.7546771E-02  0.1300146E+00
          2   -1    0    0  501    0  0.00000000000E+00  0.00000000000E+00  0.53380352783E+03  0.53380352783E+03  0.00000000000E+00 0. -1.
         -2   -1    0    0    0  501 -0.00000000000E+00 -0.00000000000E+00 -0.38890979224E+01  0.38890979224E+01  0.00000000000E+00 0.  1.
         23    2    1    2    0    0  0.00000000000E+00  0.00000000000E+00  0.52991442991E+03  0.53769262575E+03  0.91126597457E+02 0.  0.
          2    1    3    3  502    0  0.15742610479E+02 -0.28770242722E+02  0.45159013737E+03  0.45277942623E+03  0.00000000000E+00 0. -1.
         -2    1    3    3    0  502 -0.15742610479E+02  0.28770242722E+02  0.78324292540E+02  0.84913199521E+02  0.00000000000E+00 0.  1.
<mgrwt>
<rscale>  0 0.91126597E+02</rscale>
<asrwt>0</asrwt>
<pdfrwt beam="1">  1        2 0.82123561E-01 0.91126597E+02</pdfrwt>
<pdfrwt beam="2">  1       -2 0.59832318E-03 0.91126597E+02</pdfrwt>
<totfact> 0.22035468E+05</totfact>
</mgrwt>
</event>
<event>
 5    1  0.4023633E+001  0.9351398E+02  0.7546771E-02  0.1294558E+00
         -1   -1    0    0    0  501 -0.00000000000E+00  0.00000000000E+00  0.27421059843E+03  0.27421059843E+03  0.00000000000E+00 0.  1.
          1   -1    0    0  501    0  0.00000000000E+00 -0.00000000000E+00 -0.79727622235E+01  0.79727622235E+01  0.00000000000E+00 0. -1.
         23    2    1    2    0    0  0.00000000000E+00  0.00000000000E+00  0.26623783620E+03  0.28218336065E+03  0.93513975435E+02 0.  0.
          2    1    3    3  502    0 -0.40653552146E+02  0.11509547004E+02  0.72689838451E+02  0.84077307214E+02  0.00000000000E+00 0. -1.
         -2    1    3    3    0  502  0.40653552146E+02 -0.11509547004E+02  0.19354799775E+03  0.19810605344E+03  0.00000000000E+00 0.  1.
<mgrwt>
<rscale>  0 0.93513975E+02</rscale>
<asrwt>0</asrwt>
<pdfrwt beam="2">  1        1 0.12265790E-02 0.93513975E+02</pdfrwt>
<pdfrwt beam="1">  1       -1 0.42186239E-01 0.93513975E+02</pdfrwt>
<totfact> 0.58671101E+04</totfact>
</mgrwt>
</event>
<event>
 5    1  0.4023633E+001  0.8951063E+02  0.7546771E-02  0.1304041E+00
          4   -1    0    0  501    0  0.00000000000E+00  0.00000000000E+00  0.22837727402E+02  0.22837727402E+02  0.00000000000E+00 0. -1.
         -4   -1    0    0    0  501 -0.00000000000E+00 -0.00000000000E+00 -0.87707426701E+02  0.87707426701E+02  0.00000000000E+00 0.  1.
         23    2    1    2    0    0  0.00000000000E+00  0.00000000000E+00 -0.64869699299E+02  0.11054515410E+03  0.89510631817E+02 0.  0.
          2    1    3    3  502    0  0.28515181613E+02  0.34301187792E+02 -0.36947439051E+02  0.57920638107E+02  0.00000000000E+00 0.  1.
         -2    1    3    3    0  502 -0.28515181613E+02 -0.34301187792E+02 -0.27922260248E+02  0.52624515995E+02  0.00000000000E+00 0. -1.
<mgrwt>
<rscale>  0 0.89510632E+02</rscale>
<asrwt>0</asrwt>
<pdfrwt beam="1">  1        4 0.35134965E-02 0.89510632E+02</pdfrwt>
<pdfrwt beam="2">  1       -4 0.13493450E-01 0.89510632E+02</pdfrwt>
<totfact> 0.27137328E+04</totfact>
</mgrwt>
</event>
<event>
 5    1  0.4023633E+001  0.9163074E+02  0.7546771E-02  0.1298950E+00
          3   -1    0    0  501    0  0.00000000000E+00  0.00000000000E+00  0.26159359286E+02  0.26159359286E+02  0.00000000000E+00 0. -1.
         -3   -1    0    0    0  501 -0.00000000000E+00 -0.00000000000E+00 -0.80240804713E+02  0.80240804713E+02  0.00000000000E+00 0.  1.
         23    2    1    2    0    0  0.00000000000E+00  0.00000000000E+00 -0.54081445427E+02  0.10640016400E+03  0.91630738071E+02 0.  0.
          2    1    3    3  502    0  0.35228938500E+02  0.18386647414E+02 -0.56416669876E+00  0.39742486020E+02  0.00000000000E+00 0. -1.
         -2    1    3    3    0  502 -0.35228938500E+02 -0.18386647414E+02 -0.53517278728E+02  0.66657677978E+02  0.00000000000E+00 0.  1.
<mgrwt>
<rscale>  0 0.91630738E+02</rscale>
<asrwt>0</asrwt>
<pdfrwt beam="1">  1        3 0.40245169E-02 0.91630738E+02</pdfrwt>
<pdfrwt beam="2">  1       -3 0.12344739E-01 0.91630738E+02</pdfrwt>
<totfact> 0.33744792E+04</totfact>
</mgrwt>
</event>
<event>
 5    1  0.4023633E+001  0.9842450E+02  0.7546771E-02  0.1283644E+00
         -2   -1    0    0    0  501 -0.00000000000E+00  0.00000000000E+00  0.50817335087E+02  0.50817335087E+02  0.00000000000E+00 0.  1.
          2   -1    0    0  501    0  0.00000000000E+00 -0.00000000000E+00 -0.47657861388E+02  0.47657861388E+02  0.00000000000E+00 0. -1.
         23    2    1    2    0    0  0.00000000000E+00  0.00000000000E+00  0.31594736987E+01  0.98475196474E+02  0.98424499220E+02 0.  0.
          2    1    3    3  502    0  0.35183067216E+02 -0.97826774963E+01 -0.31426594954E+02  0.48178624598E+02  0.00000000000E+00 0. -1.
         -2    1    3    3    0  502 -0.35183067216E+02  0.97826774963E+01  0.34586068653E+02  0.50296571877E+02  0.00000000000E+00 0.  1.
<mgrwt>
<rscale>  0 0.98424499E+02</rscale>
<asrwt>0</asrwt>
<pdfrwt beam="2">  1        2 0.73319786E-02 0.98424499E+02</pdfrwt>
<pdfrwt beam="1">  1       -2 0.78180516E-02 0.98424499E+02</pdfrwt>
<totfact> 0.80049049E+04</totfact>
</mgrwt>
</event>
<event>
 5    1  0.4023633E+001  0.9048969E+02  0.7546771E-02  0.1301670E+00
         -2   -1    0    0    0  501 -0.00000000000E+00  0.00000000000E+00  0.11650408214E+02  0.11650408214E+02  0.00000000000E+00 0.  1.
          2   -1    0    0  501    0  0.00000000000E+00 -0.00000000000E+00 -0.17571022501E+03  0.17571022501E+03  0.00000000000E+00 0. -1.
         23    2    1    2    0    0  0.00000000000E+00  0.00000000000E+00 -0.16405981680E+03  0.18736063323E+03  0.90489686676E+02 0.  0.
          2    1    3    3  502    0  0.13383887299E+02  0.41449452938E+02 -0.10738089937E+03  0.11587857066E+03  0.00000000000E+00 0. -1.
         -2    1    3    3    0  502 -0.13383887299E+02 -0.41449452938E+02 -0.56678917427E+02  0.71482062567E+02  0.00000000000E+00 0.  1.
<mgrwt>
<rscale>  0 0.90489687E+02</rscale>
<asrwt>0</asrwt>
<pdfrwt beam="2">  1        2 0.27032343E-01 0.90489687E+02</pdfrwt>
<pdfrwt beam="1">  1       -2 0.17923704E-02 0.90489687E+02</pdfrwt>
<totfact> 0.15072663E+05</totfact>
</mgrwt>
</event>
<event>
 5    1  0.4023633E+001  0.8099172E+02  0.7546771E-02  0.1326260E+00
         -1   -1    0    0    0  501 -0.00000000000E+00  0.00000000000E+00  0.65918279447E+01  0.65918279447E+01  0.00000000000E+00 0.  1.
          1   -1    0    0  501    0  0.00000000000E+00 -0.00000000000E+00 -0.24877996144E+03  0.24877996144E+03  0.00000000000E+00 0. -1.
         23    2    1    2    0    0  0.00000000000E+00  0.00000000000E+00 -0.24218813349E+03  0.25537178938E+03  0.80991720610E+02 0.  0.
          2    1    3    3  502    0 -0.38588448802E+02 -0.12247908253E+02 -0.12397539188E+03  0.13041847043E+03  0.00000000000E+00 0. -1.
         -2    1    3    3    0  502  0.38588448802E+02  0.12247908253E+02 -0.11821274161E+03  0.12495331895E+03  0.00000000000E+00 0.  1.
<mgrwt>
<rscale>  0 0.80991721E+02</rscale>
<asrwt>0</asrwt>
<pdfrwt beam="2">  1        1 0.38273846E-01 0.80991721E+02</pdfrwt>
<pdfrwt beam="1">  1       -1 0.10141272E-02 0.80991721E+02</pdfrwt>
<totfact> 0.16919164E+05</totfact>
</mgrwt>
</event>
<event>
 5    1  0.4023633E+001  0.8065929E+02  0.7546771E-02  0.1327191E+00
         -1   -1    0    0    0  501 -0.00000000000E+00  0.00000000000E+00  0.21153177211E+02  0.21153177211E+02  0.00000000000E+00 0.  1.
          1   -1    0    0  501    0  0.00000000000E+00 -0.00000000000E+00 -0.76890597918E+02  0.76890597918E+02  0.00000000000E+00 0. -1.
         23    2    1    2    0    0  0.00000000000E+00  0.00000000000E+00 -0.55737420707E+02  0.98043775130E+02  0.80659294410E+02 0.  0.
          2    1    3    3  502    0 -0.34133529238E+02  0.27698277984E+01 -0.53760084912E+02  0.63741011084E+02  0.00000000000E+00 0. -1.
         -2    1    3    3    0  502  0.34133529238E+02 -0.27698277984E+01 -0.19773357945E+01  0.34302764045E+02  0.00000000000E+00 0.  1.
<mgrwt>
<rscale>  0 0.80659294E+02</rscale>
<asrwt>0</asrwt>
<pdfrwt beam="2">  1        1 0.11829323E-01 0.80659294E+02</pdfrwt>
<pdfrwt beam="1">  1       -1 0.32543349E-02 0.80659294E+02</pdfrwt>
<totfact> 0.13979749E+05</totfact>
</mgrwt>
</event>
<event>
 5    1  0.4023633E+001  0.9246759E+02  0.7546771E-02  0.1296984E+00
         -2   -1    0    0    0  501 -0.00000000000E+00  0.00000000000E+00  0.32007245002E+02  0.32007245002E+02  0.00000000000E+00 0.  1.
          2   -1    0    0  501    0  0.00000000000E+00 -0.00000000000E+00 -0.66783748386E+02  0.66783748386E+02  0.00000000000E+00 0. -1.
         23    2    1    2    0    0  0.00000000000E+00  0.00000000000E+00 -0.34776503384E+02  0.98790993388E+02  0.92467589927E+02 0.  0.
          2    1    3    3  502    0 -0.37155832185E+02 -0.20751796075E+02 -0.36689416663E+02  0.56189911913E+02  0.00000000000E+00 0. -1.
         -2    1    3    3    0  502  0.37155832185E+02  0.20751796075E+02  0.19129132788E+01  0.42601081475E+02  0.00000000000E+00 0.  1.
<mgrwt>
<rscale>  0 0.92467590E+02</rscale>
<asrwt>0</asrwt>
<pdfrwt beam="2">  1        2 0.10274423E-01 0.92467590E+02</pdfrwt>
<pdfrwt beam="1">  1       -2 0.49241916E-02 0.92467590E+02</pdfrwt>
<totfact> 0.10496505E+05</totfact>
</mgrwt>
</event>
<event>
 5    1  0.4023633E+001  0.9188975E+02  0.7546771E-02  0.1298339E+00
          1   -1    0    0  501    0  0.00000000000E+00  0.00000000000E+00  0.13388617184E+03  0.13388617184E+03  0.00000000000E+00 0. -1.
         -1   -1    0    0    0  501 -0.00000000000E+00 -0.00000000000E+00 -0.15766615145E+02  0.15766615145E+02  0.00000000000E+00 0.  1.
         23    2    1    2    0    0  0.00000000000E+00  0.00000000000E+00  0.11811955669E+03  0.14965278698E+03  0.91889754482E+02 0.  0.
          2    1    3    3  502    0  0.23068535034E+02  0.11429318749E+02  0.12103580916E+03  0.12374349977E+03  0.00000000000E+00 0. -1.
         -2    1    3    3    0  502 -0.23068535034E+02 -0.11429318749E+02 -0.29162524653E+01  0.25909287218E+02  0.00000000000E+00 0.  1.
<mgrwt>
<rscale>  0 0.91889754E+02</rscale>
<asrwt>0</asrwt>
<pdfrwt beam="1">  1        1 0.20597872E-01 0.91889754E+02</pdfrwt>
<pdfrwt beam="2">  1       -1 0.24256332E-02 0.91889754E+02</pdfrwt>
<totfact> 0.10755024E+05</totfact>
</mgrwt>
</event>
<event>
 5    1  0.4023633E+001  0.8903034E+02  0.7546771E-02  0.1305217E+00
          3   -1    0    0  501    0  0.00000000000E+00  0.00000000000E+00  0.42857778262E+01  0.42857778262E+01  0.00000000000E+00 0. -1.
         -3   -1    0    0    0  501 -0.00000000000E+00 -0.00000000000E+00 -0.46236659017E+03  0.46236659017E+03  0.00000000000E+00 0.  1.
         23    2    1    2    0    0  0.00000000000E+00  0.00000000000E+00 -0.45808081235E+03  0.46665236800E+03  0.89030342687E+02 0.  0.
          2    1    3    3  502    0 -0.19213286288E+02 -0.35717820490E+02 -0.13286392867E+03  0.13891629355E+03  0.00000000000E+00 0. -1.
         -2    1    3    3    0  502  0.19213286288E+02  0.35717820490E+02 -0.32521688368E+03  0.32773607445E+03  0.00000000000E+00 0.  1.
<mgrwt>
<rscale>  0 0.89030343E+02</rscale>
<asrwt>0</asrwt>
<pdfrwt beam="1">  1        3 0.65935033E-03 0.89030343E+02</pdfrwt>
<pdfrwt beam="2">  1       -3 0.71133333E-01 0.89030343E+02</pdfrwt>
<totfact> 0.19956314E+04</totfact>
</mgrwt>
</event>
<event>
 5    1  0.4023633E+001  0.9069983E+02  0.7546771E-02  0.1301166E+00
         -1   -1    0    0    0  501 -0.00000000000E+00  0.00000000000E+00  0.10630326866E+02  0.10630326866E+02  0.00000000000E+00 0.  1.
          1   -1    0    0  501    0  0.00000000000E+00 -0.00000000000E+00 -0.19346674403E+03  0.19346674403E+03  0.00000000000E+00 0. -1.
         23    2    1    2    0    0  0.00000000000E+00  0.00000000000E+00 -0.18283641716E+03  0.20409707089E+03  0.90699828594E+02 0.  0.
          2    1    3    3  502    0 -0.18447138511E+02 -0.38460912665E+02 -0.56770532916E+02  0.71010084705E+02  0.00000000000E+00 0.  1.
         -2    1    3    3    0  502  0.18447138511E+02  0.38460912665E+02 -0.12606588424E+03  0.13308698619E+03  0.00000000000E+00 0. -1.
<mgrwt>
<rscale>  0 0.90699829E+02</rscale>
<asrwt>0</asrwt>
<pdfrwt beam="2">  1        1 0.29764111E-01 0.90699829E+02</pdfrwt>
<pdfrwt beam="1">  1       -1 0.16354351E-02 0.90699829E+02</pdfrwt>
<totfact> 0.11931385E+05</totfact>
</mgrwt>
</event>
<event>
 5    1  0.4023633E+001  0.9164505E+02  0.7546771E-02  0.1298916E+00
          2   -1    0    0  501    0  0.00000000000E+00  0.00000000000E+00  0.26181108515E+03  0.26181108515E+03  0.00000000000E+00 0.  1.
         -2   -1    0    0    0  501 -0.00000000000E+00 -0.00000000000E+00 -0.80199187714E+01  0.80199187714E+01  0.00000000000E+00 0. -1.
         23    2    1    2    0    0  0.00000000000E+00  0.00000000000E+00  0.25379116638E+03  0.26983100393E+03  0.91645046487E+02 0.  0.
          2    1    3    3  502    0  0.29603789748E+02 -0.44402289578E+01  0.24748822476E+02  0.38840754558E+02  0.00000000000E+00 0. -1.
         -2    1    3    3    0  502 -0.29603789748E+02  0.44402289578E+01  0.22904234391E+03  0.23099024937E+03  0.00000000000E+00 0.  1.
<mgrwt>
<rscale>  0 0.91645046E+02</rscale>
<asrwt>0</asrwt>
<pdfrwt beam="1">  1        2 0.40278622E-01 0.91645046E+02</pdfrwt>
<pdfrwt beam="2">  1       -2 0.12338339E-02 0.91645046E+02</pdfrwt>
<totfact> 0.16843687E+05</totfact>
</mgrwt>
</event>
<event>
 5    1  0.4023633E+001  0.9310447E+02  0.7546771E-02  0.1295503E+00
          1   -1    0    0  501    0  0.00000000000E+00  0.00000000000E+00  0.24574955426E+03  0.24574955426E+03  0.00000000000E+00 0. -1.
         -1   -1    0    0    0  501 -0.00000000000E+00 -0.00000000000E+00 -0.88183694758E+01  0.88183694758E+01  0.00000000000E+00 0.  1.
         23    2    1    2    0    0  0.00000000000E+00  0.00000000000E+00  0.23693118478E+03  0.25456792374E+03  0.93104465370E+02 0.  0.
          2    1    3    3  502    0  0.41331355951E+02  0.17522017879E+02  0.15215403150E+03  0.15863842976E+03  0.00000000000E+00 0. -1.
         -2    1    3    3    0  502 -0.41331355951E+02 -0.17522017879E+02  0.84777153282E+02  0.95929493973E+02  0.00000000000E+00 0.  1.
<mgrwt>
<rscale>  0 0.93104465E+02</rscale>
<asrwt>0</asrwt>
<pdfrwt beam="1">  1        1 0.37807619E-01 0.93104465E+02</pdfrwt>
<pdfrwt beam="2">  1       -1 0.13566724E-02 0.93104465E+02</pdfrwt>
<totfact> 0.11654412E+05</totfact>
</mgrwt>
</event>
<event>
 5    1  0.4023633E+001  0.9084637E+02  0.7546771E-02  0.1300815E+00
         -2   -1    0    0    0  501 -0.00000000000E+00  0.00000000000E+00  0.16352802682E+01  0.16352802682E+01  0.00000000000E+00 0. -1.
          2   -1    0    0  501    0  0.00000000000E+00 -0.00000000000E+00 -0.12617199287E+04  0.12617199287E+04  0.00000000000E+00 0.  1.
         23    2    1    2    0    0  0.00000000000E+00  0.00000000000E+00 -0.12600846485E+04  0.12633552090E+04  0.90846369293E+02 0.  0.
          2    1    3    3  502    0 -0.11992766058E+02 -0.43422393831E+02 -0.71105289586E+03  0.71247845682E+03  0.00000000000E+00 0. -1.
         -2    1    3    3    0  502  0.11992766058E+02  0.43422393831E+02 -0.54903175262E+03  0.55087675219E+03  0.00000000000E+00 0.  1.
<mgrwt>
<rscale>  0 0.90846369E+02</rscale>
<asrwt>0</asrwt>
<pdfrwt beam="2">  1        2 0.19411119E+00 0.90846369E+02</pdfrwt>
<pdfrwt beam="1">  1       -2 0.25158102E-03 0.90846369E+02</pdfrwt>
<totfact> 0.24937449E+05</totfact>
</mgrwt>
</event>
<event>
 5    1  0.4023633E+001  0.8100721E+02  0.7546771E-02  0.1326217E+00
         -1   -1    0    0    0  501 -0.00000000000E+00  0.00000000000E+00  0.14104780366E+03  0.14104780366E+03  0.00000000000E+00 0.  1.
          1   -1    0    0  501    0  0.00000000000E+00 -0.00000000000E+00 -0.11631105633E+02  0.11631105633E+02  0.00000000000E+00 0. -1.
         23    2    1    2    0    0  0.00000000000E+00  0.00000000000E+00  0.12941669803E+03  0.15267890929E+03  0.81007207177E+02 0.  0.
          2    1    3    3  502    0 -0.12047747894E+02 -0.37290024301E+02  0.45409341666E+02  0.59980850713E+02  0.00000000000E+00 0. -1.
         -2    1    3    3    0  502  0.12047747894E+02  0.37290024301E+02  0.84007356361E+02  0.92698058579E+02  0.00000000000E+00 0.  1.
<mgrwt>
<rscale>  0 0.81007207E+02</rscale>
<asrwt>0</asrwt>
<pdfrwt beam="2">  1        1 0.17894010E-02 0.81007207E+02</pdfrwt>
<pdfrwt beam="1">  1       -1 0.21699661E-01 0.81007207E+02</pdfrwt>
<totfact> 0.10295951E+05</totfact>
</mgrwt>
</event>
<event>
 5    1  0.4023633E+001  0.9014199E+02  0.7546771E-02  0.1302508E+00
         -2   -1    0    0    0  501 -0.00000000000E+00  0.00000000000E+00  0.25064337579E+01  0.25064337579E+01  0.00000000000E+00 0.  1.
          2   -1    0    0  501    0  0.00000000000E+00 -0.00000000000E+00 -0.81047200379E+03  0.81047200379E+03  0.00000000000E+00 0. -1.
         23    2    1    2    0    0  0.00000000000E+00  0.00000000000E+00 -0.80796557003E+03  0.81297843755E+03  0.90141985559E+02 0.  0.
          2    1    3    3  502    0  0.32453097592E+02 -0.17163191350E+02 -0.63979045341E+03  0.64084288477E+03  0.00000000000E+00 0. -1.
         -2    1    3    3    0  502 -0.32453097592E+02  0.17163191350E+02 -0.16817511662E+03  0.17213555278E+03  0.00000000000E+00 0.  1.
<mgrwt>
<rscale>  0 0.90141986E+02</rscale>
<asrwt>0</asrwt>
<pdfrwt beam="2">  1        2 0.12468808E+00 0.90141986E+02</pdfrwt>
<pdfrwt beam="1">  1       -2 0.38560494E-03 0.90141986E+02</pdfrwt>
<totfact> 0.25174130E+05</totfact>
</mgrwt>
</event>
<event>
 5    1  0.4023633E+001  0.8638518E+02  0.7546771E-02  0.1311849E+00
         -1   -1    0    0    0  501 -0.00000000000E+00  0.00000000000E+00  0.17771785386E+04  0.17771785386E+04  0.00000000000E+00 0.  1.
          1   -1    0    0  501    0  0.00000000000E+00 -0.00000000000E+00 -0.10497537821E+01  0.10497537821E+01  0.00000000000E+00 0. -1.
         23    2    1    2    0    0  0.00000000000E+00  0.00000000000E+00  0.17761287848E+04  0.17782282924E+04  0.86385181424E+02 0.  0.
          2    1    3    3  502    0  0.32196807994E+02 -0.19968026820E+02  0.46108653804E+03  0.46264041339E+03  0.00000000000E+00 0. -1.
         -2    1    3    3    0  502 -0.32196807994E+02  0.19968026820E+02  0.13150422468E+04  0.13155878790E+04  0.00000000000E+00 0.  1.
<mgrwt>
<rscale>  0 0.86385181E+02</rscale>
<asrwt>0</asrwt>
<pdfrwt beam="2">  1        1 0.16150200E-03 0.86385181E+02</pdfrwt>
<pdfrwt beam="1">  1       -1 0.27340967E+00 0.86385181E+02</pdfrwt>
<totfact> 0.11013305E+04</totfact>
</mgrwt>
</event>
<event>
 5    1  0.4023633E+001  0.8583670E+02  0.7546771E-02  0.1313259E+00
          3   -1    0    0  501    0  0.00000000000E+00  0.00000000000E+00  0.14862647733E+02  0.14862647733E+02  0.00000000000E+00 0. -1.
         -3   -1    0    0    0  501 -0.00000000000E+00 -0.00000000000E+00 -0.12393383542E+03  0.12393383542E+03  0.00000000000E+00 0.  1.
         23    2    1    2    0    0  0.00000000000E+00  0.00000000000E+00 -0.10907118768E+03  0.13879648315E+03  0.85836703991E+02 0.  0.
          2    1    3    3  502    0 -0.31009405782E+02 -0.13402167639E+02 -0.11730308941E+02  0.35760334062E+02  0.00000000000E+00 0. -1.
         -2    1    3    3    0  502  0.31009405782E+02  0.13402167639E+02 -0.97340878744E+02  0.10303614909E+03  0.00000000000E+00 0.  1.
<mgrwt>
<rscale>  0 0.85836704E+02</rscale>
<asrwt>0</asrwt>
<pdfrwt beam="1">  1        3 0.22865612E-02 0.85836704E+02</pdfrwt>
<pdfrwt beam="2">  1       -3 0.19066744E-01 0.85836704E+02</pdfrwt>
<totfact> 0.37667054E+04</totfact>
</mgrwt>
</event>
<event>
 5    1  0.4023633E+001  0.9121498E+02  0.7546771E-02  0.1299936E+00
         -1   -1    0    0    0  501 -0.00000000000E+00  0.00000000000E+00  0.10503889256E+03  0.10503889256E+03  0.00000000000E+00 0.  1.
          1   -1    0    0  501    0  0.00000000000E+00 -0.00000000000E+00 -0.19802598676E+02  0.19802598676E+02  0.00000000000E+00 0. -1.
         23    2    1    2    0    0  0.00000000000E+00  0.00000000000E+00  0.85236293879E+02  0.12484149123E+03  0.91214977600E+02 0.  0.
          2    1    3    3  502    0  0.30655192301E+02 -0.32817697799E+02  0.31728900169E+02  0.54986045592E+02  0.00000000000E+00 0. -1.
         -2    1    3    3    0  502 -0.30655192301E+02  0.32817697799E+02  0.53507393710E+02  0.69855445640E+02  0.00000000000E+00 0.  1.
<mgrwt>
<rscale>  0 0.91214978E+02</rscale>
<asrwt>0</asrwt>
<pdfrwt beam="2">  1        1 0.30465537E-02 0.91214978E+02</pdfrwt>
<pdfrwt beam="1">  1       -1 0.16159829E-01 0.91214978E+02</pdfrwt>
<totfact> 0.80534271E+04</totfact>
</mgrwt>
</event>
<event>
 5    1  0.4023633E+001  0.9113303E+02  0.7546771E-02  0.1300131E+00
          1   -1    0    0  501    0  0.00000000000E+00  0.00000000000E+00  0.27475553631E+01  0.27475553631E+01  0.00000000000E+00 0. -1.
         -1   -1    0    0    0  501 -0.00000000000E+00 -0.00000000000E+00 -0.75569266783E+03  0.75569266783E+03  0.00000000000E+00 0.  1.
         23    2    1    2    0    0  0.00000000000E+00  0.00000000000E+00 -0.75294511246E+03  0.75844022319E+03  0.91133033361E+02 0.  0.
          2    1    3    3  502    0  0.18540995132E+02 -0.35650261893E+02 -0.19766849377E+03  0.20171153438E+03  0.00000000000E+00 0. -1.
         -2    1    3    3    0  502 -0.18540995132E+02  0.35650261893E+02 -0.55527661870E+03  0.55672868881E+03  0.00000000000E+00 0.  1.
<mgrwt>
<rscale>  0 0.91133033E+02</rscale>
<asrwt>0</asrwt>
<pdfrwt beam="1">  1        1 0.42269996E-03 0.91133033E+02</pdfrwt>
<pdfrwt beam="2">  1       -1 0.11626065E+00 0.91133033E+02</pdfrwt>
<totfact> 0.34492242E+04</totfact>
</mgrwt>
</event>
<event>
 5    1  0.4023633E+001  0.9078473E+02  0.7546771E-02  0.1300962E+00
          1   -1    0    0  501    0  0.00000000000E+00  0.00000000000E+00  0.30882427379E+02  0.30882427379E+02  0.00000000000E+00 0. -1.
         -1   -1    0    0    0  501 -0.00000000000E+00 -0.00000000000E+00 -0.66719722228E+02  0.66719722228E+02  0.00000000000E+00 0.  1.
         23    2    1    2    0    0  0.00000000000E+00  0.00000000000E+00 -0.35837294849E+02  0.97602149607E+02  0.90784733881E+02 0.  0.
          2    1    3    3  502    0  0.48067567986E+01  0.40969685844E+02  0.24471379098E+01  0.41323220506E+02  0.00000000000E+00 0. -1.
         -2    1    3    3    0  502 -0.48067567986E+01 -0.40969685844E+02 -0.38284432759E+02  0.56278929101E+02  0.00000000000E+00 0.  1.
<mgrwt>
<rscale>  0 0.90784734E+02</rscale>
<asrwt>0</asrwt>
<pdfrwt beam="1">  1        1 0.47511427E-02 0.90784734E+02</pdfrwt>
<pdfrwt beam="2">  1       -1 0.10264573E-01 0.90784734E+02</pdfrwt>
<totfact> 0.88170791E+04</totfact>
</mgrwt>
</event>
<event>
 5    1  0.4023633E+001  0.9589398E+02  0.7546771E-02  0.1289175E+00
         -1   -1    0    0    0  501 -0.00000000000E+00  0.00000000000E+00  0.40366798610E+02  0.40366798610E+02  0.00000000000E+00 0.  1.
          1   -1    0    0  501    0  0.00000000000E+00 -0.00000000000E+00 -0.56950608782E+02  0.56950608782E+02  0.00000000000E+00 0. -1.
         23    2    1    2    0    0  0.00000000000E+00  0.00000000000E+00 -0.16583810172E+02  0.97317407393E+02  0.95893978027E+02 0.  0.
          2    1    3    3  502    0 -0.16026390091E+02  0.15556869451E+02  0.34764896717E+02  0.41321415879E+02  0.00000000000E+00 0.  1.
         -2    1    3    3    0  502  0.16026390091E+02 -0.15556869451E+02 -0.51348706889E+02  0.55995991514E+02  0.00000000000E+00 0. -1.
<mgrwt>
<rscale>  0 0.95893978E+02</rscale>
<asrwt>0</asrwt>
<pdfrwt beam="2">  1        1 0.87616321E-02 0.95893978E+02</pdfrwt>
<pdfrwt beam="1">  1       -1 0.62102767E-02 0.95893978E+02</pdfrwt>
<totfact> 0.83051559E+04</totfact>
</mgrwt>
</event>
<event>
 5    1  0.4023633E+001  0.9633397E+02  0.7546771E-02  0.1288200E+00
          1   -1    0    0  501    0  0.00000000000E+00  0.00000000000E+00  0.85891444817E+02  0.85891444817E+02  0.00000000000E+00 0. -1.
         -1   -1    0    0    0  501 -0.00000000000E+00 -0.00000000000E+00 -0.27011517582E+02  0.27011517582E+02  0.00000000000E+00 0.  1.
         23    2    1    2    0    0  0.00000000000E+00  0.00000000000E+00  0.58879927235E+02  0.11290296240E+03  0.96333966425E+02 0.  0.
          2    1    3    3  502    0  0.41820917327E+02 -0.12614935960E+02  0.53226923665E+02  0.68856598364E+02  0.00000000000E+00 0. -1.
         -2    1    3    3    0  502 -0.41820917327E+02  0.12614935960E+02  0.56530035701E+01  0.44046364035E+02  0.00000000000E+00 0.  1.
<mgrwt>
<rscale>  0 0.96333966E+02</rscale>
<asrwt>0</asrwt>
<pdfrwt beam="1">  1        1 0.13214068E-01 0.96333966E+02</pdfrwt>
<pdfrwt beam="2">  1       -1 0.41556181E-02 0.96333966E+02</pdfrwt>
<totfact> 0.87578052E+04</totfact>
</mgrwt>
</event>
<event>
 5    1  0.4023633E+001  0.9151801E+02  0.7546771E-02  0.1299217E+00
         -2   -1    0    0    0  501 -0.00000000000E+00  0.00000000000E+00  0.45587312243E+01  0.45587312243E+01  0.00000000000E+00 0. -1.
          2   -1    0    0  501    0  0.00000000000E+00 -0.00000000000E+00 -0.45931348204E+03  0.45931348204E+03  0.00000000000E+00 0.  1.
         23    2    1    2    0    0  0.00000000000E+00  0.00000000000E+00 -0.45475475082E+03  0.46387221327E+03  0.91518013797E+02 0.  0.
          2    1    3    3  502    0  0.21401844099E+02 -0.12106852326E+02 -0.31772907283E+02  0.40176267140E+02  0.00000000000E+00 0. -1.
         -2    1    3    3    0  502 -0.21401844099E+02  0.12106852326E+02 -0.42298184354E+03  0.42369594613E+03  0.00000000000E+00 0.  1.
<mgrwt>
<rscale>  0 0.91518014E+02</rscale>
<asrwt>0</asrwt>
<pdfrwt beam="2">  1        2 0.70663631E-01 0.91518014E+02</pdfrwt>
<pdfrwt beam="1">  1       -2 0.70134309E-03 0.91518014E+02</pdfrwt>
<totfact> 0.20743501E+05</totfact>
</mgrwt>
</event>
<event>
 5    1  0.4023633E+001  0.9127718E+02  0.7546771E-02  0.1299788E+00
         -2   -1    0    0    0  501 -0.00000000000E+00  0.00000000000E+00  0.80415911873E+02  0.80415911873E+02  0.00000000000E+00 0. -1.
          2   -1    0    0  501    0  0.00000000000E+00 -0.00000000000E+00 -0.25901352936E+02  0.25901352936E+02  0.00000000000E+00 0.  1.
         23    2    1    2    0    0  0.00000000000E+00  0.00000000000E+00  0.54514558937E+02  0.10631726481E+03  0.91277180392E+02 0.  0.
          2    1    3    3  502    0  0.35763871894E+02 -0.22043868285E+02  0.48024717232E+02  0.63807210619E+02  0.00000000000E+00 0. -1.
         -2    1    3    3    0  502 -0.35763871894E+02  0.22043868285E+02  0.64898417055E+01  0.42510054189E+02  0.00000000000E+00 0.  1.
<mgrwt>
<rscale>  0 0.91277180E+02</rscale>
<asrwt>0</asrwt>
<pdfrwt beam="2">  1        2 0.39848236E-02 0.91277180E+02</pdfrwt>
<pdfrwt beam="1">  1       -2 0.12371679E-01 0.91277180E+02</pdfrwt>
<totfact> 0.84727262E+04</totfact>
</mgrwt>
</event>
<event>
 5    1  0.4023633E+001  0.9070079E+02  0.7546771E-02  0.1301163E+00
          2   -1    0    0  501    0  0.00000000000E+00  0.00000000000E+00  0.66075489045E+01  0.66075489045E+01  0.00000000000E+00 0. -1.
         -2   -1    0    0    0  501 -0.00000000000E+00 -0.00000000000E+00 -0.31125890735E+03  0.31125890735E+03  0.00000000000E+00 0.  1.
         23    2    1    2    0    0  0.00000000000E+00  0.00000000000E+00 -0.30465135845E+03  0.31786645626E+03  0.90700792771E+02 0.  0.
          2    1    3    3  502    0  0.29572273075E+02 -0.11400703146E+02 -0.38648013404E+02  0.49981639700E+02  0.00000000000E+00 0. -1.
         -2    1    3    3    0  502 -0.29572273075E+02  0.11400703146E+02 -0.26600334504E+03  0.26788481656E+03  0.00000000000E+00 0.  1.
<mgrwt>
<rscale>  0 0.90700793E+02</rscale>
<asrwt>0</asrwt>
<pdfrwt beam="1">  1        2 0.10165460E-02 0.90700793E+02</pdfrwt>
<pdfrwt beam="2">  1       -2 0.47885986E-01 0.90700793E+02</pdfrwt>
<totfact> 0.50620932E+04</totfact>
</mgrwt>
</event>
<event>
 5    1  0.4023633E+001  0.7891639E+02  0.7546771E-02  0.1332155E+00
          3   -1    0    0  501    0  0.00000000000E+00  0.00000000000E+00  0.71195020649E+03  0.71195020649E+03  0.00000000000E+00 0. -1.
         -3   -1    0    0    0  501 -0.00000000000E+00 -0.00000000000E+00 -0.21868791893E+01  0.21868791893E+01  0.00000000000E+00 0.  1.
         23    2    1    2    0    0  0.00000000000E+00  0.00000000000E+00  0.70976332730E+03  0.71413708568E+03  0.78916388422E+02 0.  0.
          2    1    3    3  502    0  0.13672813199E+02 -0.18656349315E+02  0.64416799439E+03  0.64458312900E+03  0.00000000000E+00 0. -1.
         -2    1    3    3    0  502 -0.13672813199E+02  0.18656349315E+02  0.65595332906E+02  0.69553956678E+02  0.00000000000E+00 0.  1.
<mgrwt>
<rscale>  0 0.78916388E+02</rscale>
<asrwt>0</asrwt>
<pdfrwt beam="1">  1        3 0.10953062E+00 0.78916388E+02</pdfrwt>
<pdfrwt beam="2">  1       -3 0.33644352E-03 0.78916388E+02</pdfrwt>
<totfact> 0.20033860E+04</totfact>
</mgrwt>
</event>
<event>
 4    1  0.4023633E+001  0.1596309E+03  0.7546771E-02  0.1189114E+00
         -1   -1    0    0    0  501 -0.00000000000E+00  0.00000000000E+00  0.46617088234E+01  0.46617088234E+01  0.00000000000E+00 0.  1.
          1   -1    0    0  501    0  0.00000000000E+00 -0.00000000000E+00 -0.13665599852E+04  0.13665599852E+04  0.00000000000E+00 0. -1.
          2    1    1    2  502    0 -0.38499473096E+01 -0.48254793558E+02 -0.12260665676E+04  0.12270218316E+04  0.00000000000E+00 0. -1.
         -2    1    1    2    0  502  0.38499473096E+01  0.48254793558E+02 -0.13583170881E+03  0.14419986239E+03  0.00000000000E+00 0.  1.
<mgrwt>
<rscale>  0 0.15963088E+03</rscale>
<asrwt>0</asrwt>
<pdfrwt beam="2">  1        1 0.21024002E+00 0.15963088E+03</pdfrwt>
<pdfrwt beam="1">  1       -1 0.71718591E-03 0.15963088E+03</pdfrwt>
<totfact> 0.25881035E+04</totfact>
</mgrwt>
</event>
<event>
 5    1  0.4023633E+001  0.9200456E+02  0.7546771E-02  0.1298069E+00
          2   -1    0    0  501    0  0.00000000000E+00  0.00000000000E+00  0.10723310165E+03  0.10723310165E+03  0.00000000000E+00 0. -1.
         -2   -1    0    0    0  501 -0.00000000000E+00 -0.00000000000E+00 -0.19734669839E+02  0.19734669839E+02  0.00000000000E+00 0.  1.
         23    2    1    2    0    0  0.00000000000E+00  0.00000000000E+00  0.87498431810E+02  0.12696777149E+03  0.92004561992E+02 0.  0.
          2    1    3    3  502    0 -0.30174590663E+02  0.29668546860E+02  0.18852209517E+02  0.46326389868E+02  0.00000000000E+00 0. -1.
         -2    1    3    3    0  502  0.30174590663E+02 -0.29668546860E+02  0.68646222293E+02  0.80641381620E+02  0.00000000000E+00 0.  1.
<mgrwt>
<rscale>  0 0.92004562E+02</rscale>
<asrwt>0</asrwt>
<pdfrwt beam="1">  1        2 0.16497400E-01 0.92004562E+02</pdfrwt>
<pdfrwt beam="2">  1       -2 0.30361031E-02 0.92004562E+02</pdfrwt>
<totfact> 0.12226265E+05</totfact>
</mgrwt>
</event>
<event>
 5    1  0.4023633E+001  0.8909001E+02  0.7546771E-02  0.1305070E+00
          1   -1    0    0  501    0  0.00000000000E+00  0.00000000000E+00  0.10579668398E+04  0.10579668398E+04  0.00000000000E+00 0. -1.
         -1   -1    0    0    0  501 -0.00000000000E+00 -0.00000000000E+00 -0.18755385926E+01  0.18755385926E+01  0.00000000000E+00 0.  1.
         23    2    1    2    0    0  0.00000000000E+00  0.00000000000E+00  0.10560913012E+04  0.10598423784E+04  0.89090013757E+02 0.  0.
          2    1    3    3  502    0 -0.25542805979E+02  0.36253940557E+02  0.47831609624E+03  0.48036764157E+03  0.00000000000E+00 0.  1.
         -2    1    3    3    0  502  0.25542805979E+02 -0.36253940557E+02  0.57777520498E+03  0.57947473684E+03  0.00000000000E+00 0. -1.
<mgrwt>
<rscale>  0 0.89090014E+02</rscale>
<asrwt>0</asrwt>
<pdfrwt beam="1">  1        1 0.16276365E+00 0.89090014E+02</pdfrwt>
<pdfrwt beam="2">  1       -1 0.28854524E-03 0.89090014E+02</pdfrwt>
<totfact> 0.14221722E+05</totfact>
</mgrwt>
</event>
<event>
 5    1  0.4023633E+001  0.9190127E+02  0.7546771E-02  0.1298312E+00
         -2   -1    0    0    0  501 -0.00000000000E+00  0.00000000000E+00  0.10502244168E+01  0.10502244168E+01  0.00000000000E+00 0.  1.
          2   -1    0    0  501    0  0.00000000000E+00 -0.00000000000E+00 -0.20104852035E+04  0.20104852035E+04  0.00000000000E+00 0. -1.
         23    2    1    2    0    0  0.00000000000E+00  0.00000000000E+00 -0.20094349791E+04  0.20115354279E+04  0.91901265503E+02 0.  0.
          2    1    3    3  502    0  0.40133103498E+02  0.65689882585E+01 -0.14729586942E+04  0.14735199804E+04  0.00000000000E+00 0. -1.
         -2    1    3    3    0  502 -0.40133103498E+02 -0.65689882585E+01 -0.53647628483E+03  0.53801544753E+03  0.00000000000E+00 0.  1.
<mgrwt>
<rscale>  0 0.91901266E+02</rscale>
<asrwt>0</asrwt>
<pdfrwt beam="2">  1        2 0.30930399E+00 0.91901266E+02</pdfrwt>
<pdfrwt beam="1">  1       -2 0.16157373E-03 0.91901266E+02</pdfrwt>
<totfact> 0.19178944E+05</totfact>
</mgrwt>
</event>
<event>
 5    1  0.4023633E+001  0.9037096E+02  0.7546771E-02  0.1301956E+00
         -1   -1    0    0    0  501 -0.00000000000E+00  0.00000000000E+00  0.15925977223E+02  0.15925977223E+02  0.00000000000E+00 0.  1.
          1   -1    0    0  501    0  0.00000000000E+00 -0.00000000000E+00 -0.12820108657E+03  0.12820108657E+03  0.00000000000E+00 0. -1.
         23    2    1    2    0    0  0.00000000000E+00  0.00000000000E+00 -0.11227510934E+03  0.14412706379E+03  0.90370959596E+02 0.  0.
          2    1    3    3  502    0  0.20759756395E+02 -0.18170724346E+02 -0.11320925734E+03  0.11652243843E+03  0.00000000000E+00 0. -1.
         -2    1    3    3    0  502 -0.20759756395E+02  0.18170724346E+02  0.93414799950E+00  0.27604625362E+02  0.00000000000E+00 0.  1.
<mgrwt>
<rscale>  0 0.90370960E+02</rscale>
<asrwt>0</asrwt>
<pdfrwt beam="2">  1        1 0.19723243E-01 0.90370960E+02</pdfrwt>
<pdfrwt beam="1">  1       -1 0.24501504E-02 0.90370960E+02</pdfrwt>
<totfact> 0.11164598E+05</totfact>
</mgrwt>
</event>
<event>
 5    1  0.4023633E+001  0.9095229E+02  0.7546771E-02  0.1300562E+00
          1   -1    0    0  501    0  0.00000000000E+00  0.00000000000E+00  0.23949658028E+03  0.23949658028E+03  0.00000000000E+00 0. -1.
         -1   -1    0    0    0  501 -0.00000000000E+00 -0.00000000000E+00 -0.86351125084E+01  0.86351125084E+01  0.00000000000E+00 0.  1.
         23    2    1    2    0    0  0.00000000000E+00  0.00000000000E+00  0.23086146777E+03  0.24813169279E+03  0.90952293343E+02 0.  0.
          2    1    3    3  502    0 -0.56320422350E+01 -0.28431033104E+02  0.19827144192E+02  0.35116366411E+02  0.00000000000E+00 0.  1.
         -2    1    3    3    0  502  0.56320422350E+01  0.28431033104E+02  0.21103432358E+03  0.21301532638E+03  0.00000000000E+00 0. -1.
<mgrwt>
<rscale>  0 0.90952293E+02</rscale>
<asrwt>0</asrwt>
<pdfrwt beam="1">  1        1 0.36845623E-01 0.90952293E+02</pdfrwt>
<pdfrwt beam="2">  1       -1 0.13284790E-02 0.90952293E+02</pdfrwt>
<totfact> 0.12345075E+05</totfact>
</mgrwt>
</event>
<event>
 5    1  0.4023633E+001  0.8800906E+02  0.7546771E-02  0.1307746E+00
         -1   -1    0    0    0  501 -0.00000000000E+00  0.00000000000E+00  0.10504798326E+02  0.10504798326E+02  0.00000000000E+00 0.  1.
          1   -1    0    0  501    0  0.00000000000E+00 -0.00000000000E+00 -0.18433467077E+03  0.18433467077E+03  0.00000000000E+00 0. -1.
         23    2    1    2    0    0  0.00000000000E+00  0.00000000000E+00 -0.17382987244E+03  0.19483946909E+03  0.88009057279E+02 0.  0.
          2    1    3    3  502    0 -0.39906873527E+01  0.26269402930E+02 -0.16457025670E+03  0.16670145922E+03  0.00000000000E+00 0. -1.
         -2    1    3    3    0  502  0.39906873527E+01 -0.26269402930E+02 -0.92596157399E+01  0.28138009871E+02  0.00000000000E+00 0.  1.
<mgrwt>
<rscale>  0 0.88009057E+02</rscale>
<asrwt>0</asrwt>
<pdfrwt beam="2">  1        1 0.28359181E-01 0.88009057E+02</pdfrwt>
<pdfrwt beam="1">  1       -1 0.16161228E-02 0.88009057E+02</pdfrwt>
<totfact> 0.12813725E+05</totfact>
</mgrwt>
</event>
<event>
 5    1  0.4023633E+001  0.9049067E+02  0.7546771E-02  0.1301668E+00
          3   -1    0    0  501    0  0.00000000000E+00  0.00000000000E+00  0.25625080044E+01  0.25625080044E+01  0.00000000000E+00 0. -1.
         -3   -1    0    0    0  501 -0.00000000000E+00 -0.00000000000E+00 -0.79888156383E+03  0.79888156383E+03  0.00000000000E+00 0.  1.
         23    2    1    2    0    0  0.00000000000E+00  0.00000000000E+00 -0.79631905583E+03  0.80144407184E+03  0.90490671385E+02 0.  0.
          2    1    3    3  502    0  0.40908369312E+02  0.14327629868E+02 -0.28323969438E+03  0.28653708334E+03  0.00000000000E+00 0. -1.
         -2    1    3    3    0  502 -0.40908369312E+02 -0.14327629868E+02 -0.51307936145E+03  0.51490698850E+03  0.00000000000E+00 0.  1.
<mgrwt>
<rscale>  0 0.90490671E+02</rscale>
<asrwt>0</asrwt>
<pdfrwt beam="1">  1        3 0.39423229E-03 0.90490671E+02</pdfrwt>
<pdfrwt beam="2">  1       -3 0.12290476E+00 0.90490671E+02</pdfrwt>
<totfact> 0.12605646E+04</totfact>
</mgrwt>
</event>
<event>
 5    1  0.4023633E+001  0.8799465E+02  0.7546771E-02  0.1307782E+00
          1   -1    0    0  501    0  0.00000000000E+00  0.00000000000E+00  0.13629555195E+02  0.13629555195E+02  0.00000000000E+00 0. -1.
         -1   -1    0    0    0  501 -0.00000000000E+00 -0.00000000000E+00 -0.14202699471E+03  0.14202699471E+03  0.00000000000E+00 0.  1.
         23    2    1    2    0    0  0.00000000000E+00  0.00000000000E+00 -0.12839743951E+03  0.15565654990E+03  0.87994653554E+02 0.  0.
          2    1    3    3  502    0 -0.51614925239E+01 -0.19773018265E+02  0.47249942887E+01  0.20974718768E+02  0.00000000000E+00 0. -1.
         -2    1    3    3    0  502  0.51614925239E+01  0.19773018265E+02 -0.13312243380E+03  0.13468183113E+03  0.00000000000E+00 0.  1.
<mgrwt>
<rscale>  0 0.87994654E+02</rscale>
<asrwt>0</asrwt>
<pdfrwt beam="1">  1        1 0.20968546E-02 0.87994654E+02</pdfrwt>
<pdfrwt beam="2">  1       -1 0.21850307E-01 0.87994654E+02</pdfrwt>
<totfact> 0.83030230E+04</totfact>
</mgrwt>
</event>
<event>
 5    1  0.4023633E+001  0.9031963E+02  0.7546771E-02  0.1302080E+00
         -1   -1    0    0    0  501 -0.00000000000E+00  0.00000000000E+00  0.11338287379E+01  0.11338287379E+01  0.00000000000E+00 0.  1.
          1   -1    0    0  501    0  0.00000000000E+00 -0.00000000000E+00 -0.17986920303E+04  0.17986920303E+04  0.00000000000E+00 0. -1.
         23    2    1    2    0    0  0.00000000000E+00  0.00000000000E+00 -0.17975582015E+04  0.17998258590E+04  0.90319626098E+02 0.  0.
          2    1    3    3  502    0  0.32420760687E+02 -0.16601049617E+02 -0.14307700167E+04  0.14312335733E+04  0.00000000000E+00 0. -1.
         -2    1    3    3    0  502 -0.32420760687E+02  0.16601049617E+02 -0.36678818481E+03  0.36859228571E+03  0.00000000000E+00 0.  1.
<mgrwt>
<rscale>  0 0.90319626E+02</rscale>
<asrwt>0</asrwt>
<pdfrwt beam="2">  1        1 0.27672094E+00 0.90319626E+02</pdfrwt>
<pdfrwt beam="1">  1       -1 0.17443576E-03 0.90319626E+02</pdfrwt>
<totfact> 0.94395585E+04</totfact>
</mgrwt>
</event>
<event>
 5    1  0.4023633E+001  0.9060321E+02  0.7546771E-02  0.1301397E+00
         -1   -1    0    0    0  501 -0.00000000000E+00  0.00000000000E+00  0.88650673584E+02  0.88650673584E+02  0.00000000000E+00 0.  1.
          1   -1    0    0  501    0  0.00000000000E+00 -0.00000000000E+00 -0.23149688807E+02  0.23149688807E+02  0.00000000000E+00 0. -1.
         23    2    1    2    0    0  0.00000000000E+00  0.00000000000E+00  0.65500984777E+02  0.11180036239E+03  0.90603211996E+02 0.  0.
          2    1    3    3  502    0  0.16306804640E+02  0.42206100217E+02  0.35501060756E+02  0.57511669145E+02  0.00000000000E+00 0. -1.
         -2    1    3    3    0  502 -0.16306804640E+02 -0.42206100217E+02  0.29999924021E+02  0.54288693246E+02  0.00000000000E+00 0.  1.
<mgrwt>
<rscale>  0 0.90603212E+02</rscale>
<asrwt>0</asrwt>
<pdfrwt beam="2">  1        1 0.35614906E-02 0.90603212E+02</pdfrwt>
<pdfrwt beam="1">  1       -1 0.13638565E-01 0.90603212E+02</pdfrwt>
<totfact> 0.84521514E+04</totfact>
</mgrwt>
</event>
<event>
 5    1  0.4023633E+001  0.9518933E+02  0.7546771E-02  0.1290750E+00
          1   -1    0    0  501    0  0.00000000000E+00  0.00000000000E+00  0.61443476135E+03  0.61443476135E+03  0.00000000000E+00 0. -1.
         -1   -1    0    0    0  501 -0.00000000000E+00 -0.00000000000E+00 -0.36867252720E+01  0.36867252720E+01  0.00000000000E+00 0.  1.
         23    2    1    2    0    0  0.00000000000E+00  0.00000000000E+00  0.61074803608E+03  0.61812148662E+03  0.95189330550E+02 0.  0.
          2    1    3    3  502    0  0.32766616312E+02  0.28173889392E+02  0.17585428028E+03  0.18108602121E+03  0.00000000000E+00 0.  1.
         -2    1    3    3    0  502 -0.32766616312E+02 -0.28173889392E+02  0.43489375580E+03  0.43703546541E+03  0.00000000000E+00 0. -1.
<mgrwt>
<rscale>  0 0.95189331E+02</rscale>
<asrwt>0</asrwt>
<pdfrwt beam="1">  1        1 0.94528343E-01 0.95189331E+02</pdfrwt>
<pdfrwt beam="2">  1       -1 0.56718899E-03 0.95189331E+02</pdfrwt>
<totfact> 0.12646807E+05</totfact>
</mgrwt>
</event>
<event>
 5    1  0.4023633E+001  0.9285364E+02  0.7546771E-02  0.1296085E+00
         -1   -1    0    0    0  501 -0.00000000000E+00  0.00000000000E+00  0.13238059675E+03  0.13238059675E+03  0.00000000000E+00 0.  1.
          1   -1    0    0  501    0  0.00000000000E+00 -0.00000000000E+00 -0.16282216761E+02  0.16282216761E+02  0.00000000000E+00 0. -1.
         23    2    1    2    0    0  0.00000000000E+00  0.00000000000E+00  0.11609837999E+03  0.14866281351E+03  0.92853639050E+02 0.  0.
          2    1    3    3  502    0 -0.27041261549E+02  0.21113526730E+02  0.79685076634E+01  0.35220845411E+02  0.00000000000E+00 0. -1.
         -2    1    3    3    0  502  0.27041261549E+02 -0.21113526730E+02  0.10812987233E+03  0.11344196810E+03  0.00000000000E+00 0.  1.
<mgrwt>
<rscale>  0 0.92853639E+02</rscale>
<asrwt>0</asrwt>
<pdfrwt beam="2">  1        1 0.25049565E-02 0.92853639E+02</pdfrwt>
<pdfrwt beam="1">  1       -1 0.20366245E-01 0.92853639E+02</pdfrwt>
<totfact> 0.73372286E+04</totfact>
</mgrwt>
</event>
<event>
 5    1  0.4023633E+001  0.9036968E+02  0.7546771E-02  0.1301959E+00
         -3   -1    0    0    0  501 -0.00000000000E+00  0.00000000000E+00  0.81879780376E+02  0.81879780376E+02  0.00000000000E+00 0.  1.
          3   -1    0    0  501    0  0.00000000000E+00 -0.00000000000E+00 -0.24934968940E+02  0.24934968940E+02  0.00000000000E+00 0. -1.
         23    2    1    2    0    0  0.00000000000E+00  0.00000000000E+00  0.56944811436E+02  0.10681474932E+03  0.90369680324E+02 0.  0.
          2    1    3    3  502    0 -0.42294378469E+02 -0.94000097298E+01  0.13312900564E+02  0.45325577265E+02  0.00000000000E+00 0. -1.
         -2    1    3    3    0  502  0.42294378469E+02  0.94000097298E+01  0.43631910873E+02  0.61489172050E+02  0.00000000000E+00 0.  1.
<mgrwt>
<rscale>  0 0.90369680E+02</rscale>
<asrwt>0</asrwt>
<pdfrwt beam="2">  1        3 0.38361491E-02 0.90369680E+02</pdfrwt>
<pdfrwt beam="1">  1       -3 0.12596889E-01 0.90369680E+02</pdfrwt>
<totfact> 0.35009724E+04</totfact>
</mgrwt>
</event>
<event>
 5    1  0.4023633E+001  0.9236475E+02  0.7546771E-02  0.1297224E+00
         -1   -1    0    0    0  501 -0.00000000000E+00  0.00000000000E+00  0.37244617313E+01  0.37244617313E+01  0.00000000000E+00 0.  1.
          1   -1    0    0  501    0  0.00000000000E+00 -0.00000000000E+00 -0.57264960296E+03  0.57264960296E+03  0.00000000000E+00 0. -1.
         23    2    1    2    0    0  0.00000000000E+00  0.00000000000E+00 -0.56892514123E+03  0.57637406469E+03  0.92364745042E+02 0.  0.
          2    1    3    3  502    0 -0.35192554190E+02 -0.12605454342E+02 -0.11523953917E+03  0.12115099974E+03  0.00000000000E+00 0.  1.
         -2    1    3    3    0  502  0.35192554190E+02  0.12605454342E+02 -0.45368560206E+03  0.45522306495E+03  0.00000000000E+00 0. -1.
<mgrwt>
<rscale>  0 0.92364745E+02</rscale>
<asrwt>0</asrwt>
<pdfrwt beam="2">  1        1 0.88099965E-01 0.92364745E+02</pdfrwt>
<pdfrwt beam="1">  1       -1 0.57299394E-03 0.92364745E+02</pdfrwt>
<totfact> 0.13637707E+05</totfact>
</mgrwt>
</event>
<event>
 5    1  0.4023633E+001  0.9069853E+02  0.7546771E-02  0.1301169E+00
          3   -1    0    0  501    0  0.00000000000E+00  0.00000000000E+00  0.94571508748E+03  0.94571508748E+03  0.00000000000E+00 0. -1.
         -3   -1    0    0    0  501 -0.00000000000E+00 -0.00000000000E+00 -0.21746041954E+01  0.21746041954E+01  0.00000000000E+00 0.  1.
         23    2    1    2    0    0  0.00000000000E+00  0.00000000000E+00  0.94354048328E+03  0.94788969168E+03  0.90698533548E+02 0.  0.
          2    1    3    3  502    0  0.39864298924E+02 -0.21463273639E+02  0.44467504263E+03  0.44697396790E+03  0.00000000000E+00 0. -1.
         -2    1    3    3    0  502 -0.39864298924E+02  0.21463273639E+02  0.49886544066E+03  0.50091572378E+03  0.00000000000E+00 0.  1.
<mgrwt>
<rscale>  0 0.90698534E+02</rscale>
<asrwt>0</asrwt>
<pdfrwt beam="1">  1        3 0.14549430E+00 0.90698534E+02</pdfrwt>
<pdfrwt beam="2">  1       -3 0.33455525E-03 0.90698534E+02</pdfrwt>
<totfact> 0.10725248E+04</totfact>
</mgrwt>
</event>
<event>
 5    1  0.4023633E+001  0.8961062E+02  0.7546771E-02  0.1303797E+00
         -2   -1    0    0    0  501 -0.00000000000E+00  0.00000000000E+00  0.73693182776E+00  0.73693182776E+00  0.00000000000E+00 0.  1.
          2   -1    0    0  501    0  0.00000000000E+00 -0.00000000000E+00 -0.27241541222E+04  0.27241541222E+04  0.00000000000E+00 0. -1.
         23    2    1    2    0    0  0.00000000000E+00  0.00000000000E+00 -0.27234171903E+04  0.27248910540E+04  0.89610621610E+02 0.  0.
          2    1    3    3  502    0  0.92622184856E+01  0.41307835068E+02 -0.18079833991E+04  0.18084789458E+04  0.00000000000E+00 0. -1.
         -2    1    3    3    0  502 -0.92622184856E+01 -0.41307835068E+02 -0.91543379119E+03  0.91641210816E+03  0.00000000000E+00 0.  1.
<mgrwt>
<rscale>  0 0.89610622E+02</rscale>
<asrwt>0</asrwt>
<pdfrwt beam="2">  1        2 0.41909742E+00 0.89610622E+02</pdfrwt>
<pdfrwt beam="1">  1       -2 0.11337500E-03 0.89610622E+02</pdfrwt>
<totfact> 0.13297342E+05</totfact>
</mgrwt>
</event>
<event>
 5    1  0.4023633E+001  0.9042431E+02  0.7546771E-02  0.1301827E+00
         -1   -1    0    0    0  501 -0.00000000000E+00  0.00000000000E+00  0.26542108776E+03  0.26542108776E+03  0.00000000000E+00 0.  1.
          1   -1    0    0  501    0  0.00000000000E+00 -0.00000000000E+00 -0.77014936957E+01  0.77014936957E+01  0.00000000000E+00 0. -1.
         23    2    1    2    0    0  0.00000000000E+00  0.00000000000E+00  0.25771959406E+03  0.27312258146E+03  0.90424307221E+02 0.  0.
          2    1    3    3  502    0 -0.16409857700E+02  0.35686698292E+02  0.19648798560E+03  0.20037552832E+03  0.00000000000E+00 0. -1.
         -2    1    3    3    0  502  0.16409857700E+02 -0.35686698292E+02  0.61231608466E+02  0.72747053137E+02  0.00000000000E+00 0.  1.
<mgrwt>
<rscale>  0 0.90424307E+02</rscale>
<asrwt>0</asrwt>
<pdfrwt beam="2">  1        1 0.11848454E-02 0.90424307E+02</pdfrwt>
<pdfrwt beam="1">  1       -1 0.40834007E-01 0.90424307E+02</pdfrwt>
<totfact> 0.64818647E+04</totfact>
</mgrwt>
</event>
<event>
 5    1  0.4023633E+001  0.9256382E+02  0.7546771E-02  0.1296759E+00
         -2   -1    0    0    0  501 -0.00000000000E+00  0.00000000000E+00  0.47848991908E+02  0.47848991908E+02  0.00000000000E+00 0. -1.
          2   -1    0    0  501    0  0.00000000000E+00 -0.00000000000E+00 -0.44766154180E+02  0.44766154180E+02  0.00000000000E+00 0.  1.
         23    2    1    2    0    0  0.00000000000E+00  0.00000000000E+00  0.30828377280E+01  0.92615146088E+02  0.92563823367E+02 0.  0.
          2    1    3    3  502    0  0.41995901567E+02 -0.72395556509E+01  0.19605471124E+02  0.46908862835E+02  0.00000000000E+00 0. -1.
         -2    1    3    3    0  502 -0.41995901567E+02  0.72395556509E+01 -0.16522633396E+02  0.45706283253E+02  0.00000000000E+00 0.  1.
<mgrwt>
<rscale>  0 0.92563823E+02</rscale>
<asrwt>0</asrwt>
<pdfrwt beam="2">  1        2 0.68871006E-02 0.92563823E+02</pdfrwt>
<pdfrwt beam="1">  1       -2 0.73613834E-02 0.92563823E+02</pdfrwt>
<totfact> 0.94030275E+04</totfact>
</mgrwt>
</event>
<event>
 5    1  0.4023633E+001  0.8642746E+02  0.7546771E-02  0.1311741E+00
          4   -1    0    0  501    0  0.00000000000E+00  0.00000000000E+00  0.74309516240E+01  0.74309516240E+01  0.00000000000E+00 0. -1.
         -4   -1    0    0    0  501 -0.00000000000E+00 -0.00000000000E+00 -0.25130381922E+03  0.25130381922E+03  0.00000000000E+00 0.  1.
         23    2    1    2    0    0  0.00000000000E+00  0.00000000000E+00 -0.24387286760E+03  0.25873477085E+03  0.86427461459E+02 0.  0.
          2    1    3    3  502    0  0.24750574722E+02  0.24555890203E+02 -0.45504505011E+02  0.57325759210E+02  0.00000000000E+00 0. -1.
         -2    1    3    3    0  502 -0.24750574722E+02 -0.24555890203E+02 -0.19836836259E+03  0.20140901164E+03  0.00000000000E+00 0.  1.
<mgrwt>
<rscale>  0 0.86427461E+02</rscale>
<asrwt>0</asrwt>
<pdfrwt beam="1">  1        4 0.11432233E-02 0.86427461E+02</pdfrwt>
<pdfrwt beam="2">  1       -4 0.38662127E-01 0.86427461E+02</pdfrwt>
<totfact> 0.22077492E+04</totfact>
</mgrwt>
</event>
<event>
 5    1  0.4023633E+001  0.9265442E+02  0.7546771E-02  0.1296548E+00
          2   -1    0    0  501    0  0.00000000000E+00  0.00000000000E+00  0.12100610154E+04  0.12100610154E+04  0.00000000000E+00 0. -1.
         -2   -1    0    0    0  501 -0.00000000000E+00 -0.00000000000E+00 -0.17736382232E+01  0.17736382232E+01  0.00000000000E+00 0.  1.
         23    2    1    2    0    0  0.00000000000E+00  0.00000000000E+00  0.12082873772E+04  0.12118346537E+04  0.92654421792E+02 0.  0.
          2    1    3    3  502    0 -0.33235926106E+02 -0.26452169140E+02  0.84597105576E+03  0.84703681810E+03  0.00000000000E+00 0. -1.
         -2    1    3    3    0  502  0.33235926106E+02  0.26452169140E+02  0.36231632147E+03  0.36479783557E+03  0.00000000000E+00 0.  1.
<mgrwt>
<rscale>  0 0.92654422E+02</rscale>
<asrwt>0</asrwt>
<pdfrwt beam="1">  1        2 0.18616257E+00 0.92654422E+02</pdfrwt>
<pdfrwt beam="2">  1       -2 0.27286839E-03 0.92654422E+02</pdfrwt>
<totfact> 0.23814507E+05</totfact>
</mgrwt>
</event>
<event>
 5    1  0.4023633E+001  0.8184142E+02  0.7546771E-02  0.1323905E+00
          1   -1    0    0  501    0  0.00000000000E+00  0.00000000000E+00  0.72032246483E+01  0.72032246483E+01  0.00000000000E+00 0. -1.
         -1   -1    0    0    0  501 -0.00000000000E+00 -0.00000000000E+00 -0.23246596919E+03  0.23246596919E+03  0.00000000000E+00 0.  1.
         23    2    1    2    0    0  0.00000000000E+00  0.00000000000E+00 -0.22526274454E+03  0.23966919384E+03  0.81841422255E+02 0.  0.
          2    1    3    3  502    0  0.27442047111E+02 -0.17430474805E+02 -0.39853603421E+02  0.51431479730E+02  0.00000000000E+00 0. -1.
         -2    1    3    3    0  502 -0.27442047111E+02  0.17430474805E+02 -0.18540914112E+03  0.18823771411E+03  0.00000000000E+00 0.  1.
<mgrwt>
<rscale>  0 0.81841422E+02</rscale>
<asrwt>0</asrwt>
<pdfrwt beam="1">  1        1 0.11081884E-02 0.81841422E+02</pdfrwt>
<pdfrwt beam="2">  1       -1 0.35763994E-01 0.81841422E+02</pdfrwt>
<totfact> 0.87834986E+04</totfact>
</mgrwt>
</event>
<event>
 5    1  0.4023633E+001  0.9144819E+02  0.7546771E-02  0.1299382E+00
          2   -1    0    0  501    0  0.00000000000E+00  0.00000000000E+00  0.80546666677E+03  0.80546666677E+03  0.00000000000E+00 0. -1.
         -2   -1    0    0    0  501 -0.00000000000E+00 -0.00000000000E+00 -0.25956291540E+01  0.25956291540E+01  0.00000000000E+00 0.  1.
         23    2    1    2    0    0  0.00000000000E+00  0.00000000000E+00  0.80287103761E+03  0.80806229592E+03  0.91448187797E+02 0.  0.
          2    1    3    3  502    0 -0.16365835405E+02  0.31696776283E+02  0.65418519279E+03  0.65515707480E+03  0.00000000000E+00 0. -1.
         -2    1    3    3    0  502  0.16365835405E+02 -0.31696776283E+02  0.14868584482E+03  0.15290522112E+03  0.00000000000E+00 0.  1.
<mgrwt>
<rscale>  0 0.91448188E+02</rscale>
<asrwt>0</asrwt>
<pdfrwt beam="1">  1        2 0.12391775E+00 0.91448188E+02</pdfrwt>
<pdfrwt beam="2">  1       -2 0.39932820E-03 0.91448188E+02</pdfrwt>
<totfact> 0.24212436E+05</totfact>
</mgrwt>
</event>
<event>
 5    1  0.4023633E+001  0.9177658E+02  0.7546771E-02  0.1298606E+00
          2   -1    0    0  501    0  0.00000000000E+00  0.00000000000E+00  0.28495078964E+03  0.28495078964E+03  0.00000000000E+00 0. -1.
         -2   -1    0    0    0  501 -0.00000000000E+00 -0.00000000000E+00 -0.73898198843E+01  0.73898198843E+01  0.00000000000E+00 0.  1.
         23    2    1    2    0    0  0.00000000000E+00  0.00000000000E+00  0.27756096976E+03  0.29234060953E+03  0.91776576779E+02 0.  0.
          2    1    3    3  502    0  0.34185429083E+02  0.30177203705E+02  0.15515573774E+03  0.16171768654E+03  0.00000000000E+00 0.  1.
         -2    1    3    3    0  502 -0.34185429083E+02 -0.30177203705E+02  0.12240523201E+03  0.13062292299E+03  0.00000000000E+00 0. -1.
<mgrwt>
<rscale>  0 0.91776577E+02</rscale>
<asrwt>0</asrwt>
<pdfrwt beam="1">  1        2 0.43838575E-01 0.91776577E+02</pdfrwt>
<pdfrwt beam="2">  1       -2 0.11368956E-02 0.91776577E+02</pdfrwt>
<totfact> 0.17318354E+05</totfact>
</mgrwt>
</event>
<event>
 5    1  0.4023633E+001  0.9019193E+02  0.7546771E-02  0.1302388E+00
          2   -1    0    0  501    0  0.00000000000E+00  0.00000000000E+00  0.25571377382E+04  0.25571377382E+04  0.00000000000E+00 0. -1.
         -2   -1    0    0    0  501 -0.00000000000E+00 -0.00000000000E+00 -0.79528221712E+00  0.79528221712E+00  0.00000000000E+00 0.  1.
         23    2    1    2    0    0  0.00000000000E+00  0.00000000000E+00  0.25563424560E+04  0.25579330204E+04  0.90191932454E+02 0.  0.
          2    1    3    3  502    0  0.37215802823E+02 -0.73971382352E+01  0.19693377948E+04  0.19697032984E+04  0.00000000000E+00 0. -1.
         -2    1    3    3    0  502 -0.37215802823E+02  0.73971382352E+01  0.58700466122E+03  0.58822972207E+03  0.00000000000E+00 0.  1.
<mgrwt>
<rscale>  0 0.90191932E+02</rscale>
<asrwt>0</asrwt>
<pdfrwt beam="1">  1        2 0.39339922E+00 0.90191932E+02</pdfrwt>
<pdfrwt beam="2">  1       -2 0.12235316E-03 0.90191932E+02</pdfrwt>
<totfact> 0.14717500E+05</totfact>
</mgrwt>
</event>
<event>
 5    1  0.4023633E+001  0.9564562E+02  0.7546771E-02  0.1289729E+00
          2   -1    0    0  501    0  0.00000000000E+00  0.00000000000E+00  0.45103907688E+01  0.45103907688E+01  0.00000000000E+00 0. -1.
         -2   -1    0    0    0  501 -0.00000000000E+00 -0.00000000000E+00 -0.50705612366E+03  0.50705612366E+03  0.00000000000E+00 0.  1.
         23    2    1    2    0    0  0.00000000000E+00  0.00000000000E+00 -0.50254573289E+03  0.51156651443E+03  0.95645622156E+02 0.  0.
          2    1    3    3  502    0  0.26344535301E+02 -0.53459861925E+01 -0.39723412406E+02  0.47964190828E+02  0.00000000000E+00 0. -1.
         -2    1    3    3    0  502 -0.26344535301E+02  0.53459861925E+01 -0.46282232049E+03  0.46360232360E+03  0.00000000000E+00 0.  1.
<mgrwt>
<rscale>  0 0.95645622E+02</rscale>
<asrwt>0</asrwt>
<pdfrwt beam="1">  1        2 0.69390710E-03 0.95645622E+02</pdfrwt>
<pdfrwt beam="2">  1       -2 0.78008541E-01 0.95645622E+02</pdfrwt>
<totfact> 0.31715401E+04</totfact>
</mgrwt>
</event>
<event>
 5    1  0.4023633E+001  0.9067812E+02  0.7546771E-02  0.1301218E+00
          1   -1    0    0  501    0  0.00000000000E+00  0.00000000000E+00  0.18455092150E+03  0.18455092150E+03  0.00000000000E+00 0. -1.
         -1   -1    0    0    0  501 -0.00000000000E+00 -0.00000000000E+00 -0.11138554699E+02  0.11138554699E+02  0.00000000000E+00 0.  1.
         23    2    1    2    0    0  0.00000000000E+00  0.00000000000E+00  0.17341236680E+03  0.19568947620E+03  0.90678123799E+02 0.  0.
          2    1    3    3  502    0  0.28439840694E+02  0.32418945439E+02  0.11690509002E+03  0.12460582905E+03  0.00000000000E+00 0. -1.
         -2    1    3    3    0  502 -0.28439840694E+02 -0.32418945439E+02  0.56507276783E+02  0.71083647146E+02  0.00000000000E+00 0.  1.
<mgrwt>
<rscale>  0 0.90678124E+02</rscale>
<asrwt>0</asrwt>
<pdfrwt beam="1">  1        1 0.28392447E-01 0.90678124E+02</pdfrwt>
<pdfrwt beam="2">  1       -1 0.17136239E-02 0.90678124E+02</pdfrwt>
<totfact> 0.11831169E+05</totfact>
</mgrwt>
</event>
<event>
 5    1  0.4023633E+001  0.9111656E+02  0.7546771E-02  0.1300170E+00
          4   -1    0    0  501    0  0.00000000000E+00  0.00000000000E+00  0.58537124666E+03  0.58537124666E+03  0.00000000000E+00 0. -1.
         -4   -1    0    0    0  501 -0.00000000000E+00 -0.00000000000E+00 -0.35457106588E+01  0.35457106588E+01  0.00000000000E+00 0.  1.
         23    2    1    2    0    0  0.00000000000E+00  0.00000000000E+00  0.58182553600E+03  0.58891695732E+03  0.91116564217E+02 0.  0.
          2    1    3    3  502    0 -0.26117540656E+02  0.10186580970E+01  0.53209078169E+03  0.53273235640E+03  0.00000000000E+00 0. -1.
         -2    1    3    3    0  502  0.26117540656E+02 -0.10186580970E+01  0.49734754316E+02  0.56184600925E+02  0.00000000000E+00 0.  1.
<mgrwt>
<rscale>  0 0.91116564E+02</rscale>
<asrwt>0</asrwt>
<pdfrwt beam="1">  1        4 0.90057038E-01 0.91116564E+02</pdfrwt>
<pdfrwt beam="2">  1       -4 0.54549441E-03 0.91116564E+02</pdfrwt>
<totfact> 0.11595541E+04</totfact>
</mgrwt>
</event>
<event>
 5    1  0.4023633E+001  0.1052215E+03  0.7546771E-02  0.1269684E+00
         -1   -1    0    0    0  501 -0.00000000000E+00  0.00000000000E+00  0.73766583296E+02  0.73766583296E+02  0.00000000000E+00 0.  1.
          1   -1    0    0  501    0  0.00000000000E+00 -0.00000000000E+00 -0.37522287245E+02  0.37522287245E+02  0.00000000000E+00 0. -1.
         23    2    1    2    0    0  0.00000000000E+00  0.00000000000E+00  0.36244296051E+02  0.11128887054E+03  0.10522149833E+03 0.  0.
          2    1    3    3  502    0  0.31034550462E+02  0.51768950199E+01 -0.26474960584E+02  0.41120154454E+02  0.00000000000E+00 0. -1.
         -2    1    3    3    0  502 -0.31034550462E+02 -0.51768950199E+01  0.62719256635E+02  0.70168716087E+02  0.00000000000E+00 0.  1.
<mgrwt>
<rscale>  0 0.10522150E+03</rscale>
<asrwt>0</asrwt>
<pdfrwt beam="2">  1        1 0.57726596E-02 0.10522150E+03</pdfrwt>
<pdfrwt beam="1">  1       -1 0.11348705E-01 0.10522150E+03</pdfrwt>
<totfact> 0.59486870E+04</totfact>
</mgrwt>
</event>
<event>
 5    1  0.4023633E+001  0.9156518E+02  0.7546771E-02  0.1299105E+00
         -2   -1    0    0    0  501 -0.00000000000E+00  0.00000000000E+00  0.27081541831E+03  0.27081541831E+03  0.00000000000E+00 0.  1.
          2   -1    0    0  501    0  0.00000000000E+00 -0.00000000000E+00 -0.77397578627E+01  0.77397578627E+01  0.00000000000E+00 0. -1.
         23    2    1    2    0    0  0.00000000000E+00  0.00000000000E+00  0.26307566045E+03  0.27855517618E+03  0.91565184720E+02 0.  0.
          2    1    3    3  502    0 -0.21632942940E+02  0.16250254108E+02  0.19184338186E+02  0.33167662119E+02  0.00000000000E+00 0. -1.
         -2    1    3    3    0  502  0.21632942940E+02 -0.16250254108E+02  0.24389132226E+03  0.24538751406E+03  0.00000000000E+00 0.  1.
<mgrwt>
<rscale>  0 0.91565185E+02</rscale>
<asrwt>0</asrwt>
<pdfrwt beam="2">  1        2 0.11907322E-02 0.91565185E+02</pdfrwt>
<pdfrwt beam="1">  1       -2 0.41663903E-01 0.91565185E+02</pdfrwt>
<totfact> 0.53334720E+04</totfact>
</mgrwt>
</event>
<event>
 5    1  0.4023633E+001  0.9111159E+02  0.7546771E-02  0.1300182E+00
         -1   -1    0    0    0  501 -0.00000000000E+00  0.00000000000E+00  0.53726149553E+02  0.53726149553E+02  0.00000000000E+00 0.  1.
          1   -1    0    0  501    0  0.00000000000E+00 -0.00000000000E+00 -0.38627942976E+02  0.38627942976E+02  0.00000000000E+00 0. -1.
         23    2    1    2    0    0  0.00000000000E+00  0.00000000000E+00  0.15098206577E+02  0.92354092529E+02  0.91111594021E+02 0.  0.
          2    1    3    3  502    0 -0.23259169172E+02 -0.19092108848E+02 -0.27120146795E+02  0.40509257374E+02  0.00000000000E+00 0. -1.
         -2    1    3    3    0  502  0.23259169172E+02  0.19092108848E+02  0.42218353371E+02  0.51844835155E+02  0.00000000000E+00 0.  1.
<mgrwt>
<rscale>  0 0.91111594E+02</rscale>
<asrwt>0</asrwt>
<pdfrwt beam="2">  1        1 0.59427605E-02 0.91111594E+02</pdfrwt>
<pdfrwt beam="1">  1       -1 0.82655615E-02 0.91111594E+02</pdfrwt>
<totfact> 0.90365950E+04</totfact>
</mgrwt>
</event>
<event>
 5    1  0.4023633E+001  0.9178509E+02  0.7546771E-02  0.1298586E+00
         -2   -1    0    0    0  501 -0.00000000000E+00  0.00000000000E+00  0.95798714939E+02  0.95798714939E+02  0.00000000000E+00 0. -1.
          2   -1    0    0  501    0  0.00000000000E+00 -0.00000000000E+00 -0.21984907224E+02  0.21984907224E+02  0.00000000000E+00 0.  1.
         23    2    1    2    0    0  0.00000000000E+00  0.00000000000E+00  0.73813807716E+02  0.11778362216E+03  0.91785093781E+02 0.  0.
          2    1    3    3  502    0 -0.32040639560E+02 -0.20936936079E+02  0.69400566270E+02  0.79255261494E+02  0.00000000000E+00 0. -1.
         -2    1    3    3    0  502  0.32040639560E+02  0.20936936079E+02  0.44132414455E+01  0.38528360669E+02  0.00000000000E+00 0.  1.
<mgrwt>
<rscale>  0 0.91785094E+02</rscale>
<asrwt>0</asrwt>
<pdfrwt beam="2">  1        2 0.33822935E-02 0.91785094E+02</pdfrwt>
<pdfrwt beam="1">  1       -2 0.14738264E-01 0.91785094E+02</pdfrwt>
<totfact> 0.79501767E+04</totfact>
</mgrwt>
</event>
<event>
 5    1  0.4023633E+001  0.1047023E+03  0.7546771E-02  0.1270707E+00
         -1   -1    0    0    0  501 -0.00000000000E+00  0.00000000000E+00  0.11375743212E+01  0.11375743212E+01  0.00000000000E+00 0.  1.
          1   -1    0    0  501    0  0.00000000000E+00 -0.00000000000E+00 -0.24091987038E+04  0.24091987038E+04  0.00000000000E+00 0. -1.
         23    2    1    2    0    0  0.00000000000E+00  0.00000000000E+00 -0.24080611295E+04  0.24103362781E+04  0.10470229377E+03 0.  0.
          2    1    3    3  502    0  0.31593608595E+02  0.26888269117E+02 -0.46898096525E+03  0.47081236271E+03  0.00000000000E+00 0.  1.
         -2    1    3    3    0  502 -0.31593608595E+02 -0.26888269117E+02 -0.19390801642E+04  0.19395239154E+04  0.00000000000E+00 0. -1.
<mgrwt>
<rscale>  0 0.10470229E+03</rscale>
<asrwt>0</asrwt>
<pdfrwt beam="2">  1        1 0.37064685E+00 0.10470229E+03</pdfrwt>
<pdfrwt beam="1">  1       -1 0.17501101E-03 0.10470229E+03</pdfrwt>
<totfact> 0.39229192E+04</totfact>
</mgrwt>
</event>
<event>
 5    1  0.4023633E+001  0.9114979E+02  0.7546771E-02  0.1300091E+00
          2   -1    0    0  501    0  0.00000000000E+00  0.00000000000E+00  0.77273671432E+01  0.77273671432E+01  0.00000000000E+00 0. -1.
         -2   -1    0    0    0  501 -0.00000000000E+00 -0.00000000000E+00 -0.26879416731E+03  0.26879416731E+03  0.00000000000E+00 0.  1.
         23    2    1    2    0    0  0.00000000000E+00  0.00000000000E+00 -0.26106680017E+03  0.27652153446E+03  0.91149793566E+02 0.  0.
          2    1    3    3  502    0  0.63507852779E+01 -0.43736259655E+02 -0.96768074037E+02  0.10638257863E+03  0.00000000000E+00 0. -1.
         -2    1    3    3    0  502 -0.63507852779E+01  0.43736259655E+02 -0.16429872613E+03  0.17013895583E+03  0.00000000000E+00 0.  1.
<mgrwt>
<rscale>  0 0.91149794E+02</rscale>
<asrwt>0</asrwt>
<pdfrwt beam="1">  1        2 0.11888259E-02 0.91149794E+02</pdfrwt>
<pdfrwt beam="2">  1       -2 0.41352941E-01 0.91149794E+02</pdfrwt>
<totfact> 0.54174855E+04</totfact>
</mgrwt>
</event>
<event>
 5    1  0.4023633E+001  0.9175337E+02  0.7546771E-02  0.1298660E+00
         -1   -1    0    0    0  501 -0.00000000000E+00  0.00000000000E+00  0.26157446309E+02  0.26157446309E+02  0.00000000000E+00 0.  1.
          1   -1    0    0  501    0  0.00000000000E+00 -0.00000000000E+00 -0.80461611392E+02  0.80461611392E+02  0.00000000000E+00 0. -1.
         23    2    1    2    0    0  0.00000000000E+00  0.00000000000E+00 -0.54304165082E+02  0.10661905770E+03  0.91753371163E+02 0.  0.
          2    1    3    3  502    0  0.13715789553E+02  0.26090695373E+02 -0.68001977952E+02  0.74115560266E+02  0.00000000000E+00 0. -1.
         -2    1    3    3    0  502 -0.13715789553E+02 -0.26090695373E+02  0.13697812870E+02  0.32503497435E+02  0.00000000000E+00 0.  1.
<mgrwt>
<rscale>  0 0.91753371E+02</rscale>
<asrwt>0</asrwt>
<pdfrwt beam="2">  1        1 0.12378709E-01 0.91753371E+02</pdfrwt>
<pdfrwt beam="1">  1       -1 0.40242225E-02 0.91753371E+02</pdfrwt>
<totfact> 0.99104085E+04</totfact>
</mgrwt>
</event>
<event>
 5    1  0.4023633E+001  0.9100325E+02  0.7546771E-02  0.1300440E+00
          3   -1    0    0  501    0  0.00000000000E+00  0.00000000000E+00  0.20413471797E+02  0.20413471797E+02  0.00000000000E+00 0. -1.
         -3   -1    0    0    0  501 -0.00000000000E+00 -0.00000000000E+00 -0.10142310986E+03  0.10142310986E+03  0.00000000000E+00 0.  1.
         23    2    1    2    0    0  0.00000000000E+00  0.00000000000E+00 -0.81009638065E+02  0.12183658166E+03  0.91003248134E+02 0.  0.
          2    1    3    3  502    0 -0.34122609051E+02  0.22691776299E+02 -0.14027097106E+02  0.43313145964E+02  0.00000000000E+00 0. -1.
         -2    1    3    3    0  502  0.34122609051E+02 -0.22691776299E+02 -0.66982540959E+02  0.78523435695E+02  0.00000000000E+00 0.  1.
<mgrwt>
<rscale>  0 0.91003248E+02</rscale>
<asrwt>0</asrwt>
<pdfrwt beam="1">  1        3 0.31405341E-02 0.91003248E+02</pdfrwt>
<pdfrwt beam="2">  1       -3 0.15603556E-01 0.91003248E+02</pdfrwt>
<totfact> 0.33294890E+04</totfact>
</mgrwt>
</event>
<event>
 5    1  0.4023633E+001  0.9105108E+02  0.7546771E-02  0.1300326E+00
          3   -1    0    0  501    0  0.00000000000E+00  0.00000000000E+00  0.95309389096E+02  0.95309389096E+02  0.00000000000E+00 0. -1.
         -3   -1    0    0    0  501 -0.00000000000E+00 -0.00000000000E+00 -0.21745757164E+02  0.21745757164E+02  0.00000000000E+00 0.  1.
         23    2    1    2    0    0  0.00000000000E+00  0.00000000000E+00  0.73563631932E+02  0.11705514626E+03  0.91051080844E+02 0.  0.
          2    1    3    3  502    0  0.11271582848E+01  0.40344926891E+02  0.63858587263E+02  0.75544045291E+02  0.00000000000E+00 0. -1.
         -2    1    3    3    0  502 -0.11271582848E+01 -0.40344926891E+02  0.97050446689E+01  0.41511100969E+02  0.00000000000E+00 0.  1.
<mgrwt>
<rscale>  0 0.91051081E+02</rscale>
<asrwt>0</asrwt>
<pdfrwt beam="1">  1        3 0.14662983E-01 0.91051081E+02</pdfrwt>
<pdfrwt beam="2">  1       -3 0.33455012E-02 0.91051081E+02</pdfrwt>
<totfact> 0.33574760E+04</totfact>
</mgrwt>
</event>
<event>
 5    1  0.4023633E+001  0.8730207E+02  0.7546771E-02  0.1309520E+00
         -4   -1    0    0    0  501 -0.00000000000E+00  0.00000000000E+00  0.41528689805E+02  0.41528689805E+02  0.00000000000E+00 0.  1.
          4   -1    0    0  501    0  0.00000000000E+00 -0.00000000000E+00 -0.45881845795E+02  0.45881845795E+02  0.00000000000E+00 0. -1.
         23    2    1    2    0    0  0.00000000000E+00  0.00000000000E+00 -0.43531559904E+01  0.87410535600E+02  0.87302071950E+02 0.  0.
          2    1    3    3  502    0 -0.22575058115E+02  0.36617625822E+02 -0.95972076296E+01  0.44074824606E+02  0.00000000000E+00 0.  1.
         -2    1    3    3    0  502  0.22575058115E+02 -0.36617625822E+02  0.52440516391E+01  0.43335710994E+02  0.00000000000E+00 0. -1.
<mgrwt>
<rscale>  0 0.87302072E+02</rscale>
<asrwt>0</asrwt>
<pdfrwt beam="2">  1        4 0.70587454E-02 0.87302072E+02</pdfrwt>
<pdfrwt beam="1">  1       -4 0.63890293E-02 0.87302072E+02</pdfrwt>
<totfact> 0.30657648E+04</totfact>
</mgrwt>
</event>
<event>
 5    1  0.4023633E+001  0.9367475E+02  0.7546771E-02  0.1294189E+00
         -1   -1    0    0    0  501 -0.00000000000E+00  0.00000000000E+00  0.11226282890E+03  0.11226282890E+03  0.00000000000E+00 0.  1.
          1   -1    0    0  501    0  0.00000000000E+00 -0.00000000000E+00 -0.19541103622E+02  0.19541103622E+02  0.00000000000E+00 0. -1.
         23    2    1    2    0    0  0.00000000000E+00  0.00000000000E+00  0.92721725274E+02  0.13180393252E+03  0.93674747340E+02 0.  0.
          2    1    3    3  502    0  0.22554712867E+02 -0.29531866655E+02  0.62444006977E+01  0.37680747879E+02  0.00000000000E+00 0. -1.
         -2    1    3    3    0  502 -0.22554712867E+02  0.29531866655E+02  0.86477324576E+02  0.94123184639E+02  0.00000000000E+00 0.  1.
<mgrwt>
<rscale>  0 0.93674747E+02</rscale>
<asrwt>0</asrwt>
<pdfrwt beam="2">  1        1 0.30063237E-02 0.93674747E+02</pdfrwt>
<pdfrwt beam="1">  1       -1 0.17271204E-01 0.93674747E+02</pdfrwt>
<totfact> 0.74217107E+04</totfact>
</mgrwt>
</event>
<event>
 5    1  0.4023633E+001  0.9251951E+02  0.7546771E-02  0.1296863E+00
         -1   -1    0    0    0  501 -0.00000000000E+00  0.00000000000E+00  0.15622086413E+03  0.15622086413E+03  0.00000000000E+00 0.  1.
          1   -1    0    0  501    0  0.00000000000E+00 -0.00000000000E+00 -0.13698330713E+02  0.13698330713E+02  0.00000000000E+00 0. -1.
         23    2    1    2    0    0  0.00000000000E+00  0.00000000000E+00  0.14252253342E+03  0.16991919485E+03  0.92519512778E+02 0.  0.
          2    1    3    3  502    0 -0.41298805582E+02  0.14816319459E+02  0.98181398651E+02  0.10753930308E+03  0.00000000000E+00 0. -1.
         -2    1    3    3    0  502  0.41298805582E+02 -0.14816319459E+02  0.44341134768E+02  0.62379891770E+02  0.00000000000E+00 0.  1.
<mgrwt>
<rscale>  0 0.92519513E+02</rscale>
<asrwt>0</asrwt>
<pdfrwt beam="2">  1        1 0.21074356E-02 0.92519513E+02</pdfrwt>
<pdfrwt beam="1">  1       -1 0.24033978E-01 0.92519513E+02</pdfrwt>
<totfact> 0.71308060E+04</totfact>
</mgrwt>
</event>
<event>
 5    1  0.4023633E+001  0.9374324E+02  0.7546771E-02  0.1294032E+00
         -1   -1    0    0    0  501 -0.00000000000E+00  0.00000000000E+00  0.86309570249E+02  0.86309570249E+02  0.00000000000E+00 0.  1.
          1   -1    0    0  501    0  0.00000000000E+00 -0.00000000000E+00 -0.25454289132E+02  0.25454289132E+02  0.00000000000E+00 0. -1.
         23    2    1    2    0    0  0.00000000000E+00  0.00000000000E+00  0.60855281116E+02  0.11176385938E+03  0.93743239884E+02 0.  0.
          2    1    3    3  502    0  0.15419234529E+02  0.13244070000E+02 -0.19926288437E+02  0.28464278570E+02  0.00000000000E+00 0. -1.
         -2    1    3    3    0  502 -0.15419234529E+02 -0.13244070000E+02  0.80781569554E+02  0.83299580810E+02  0.00000000000E+00 0.  1.
<mgrwt>
<rscale>  0 0.93743240E+02</rscale>
<asrwt>0</asrwt>
<pdfrwt beam="2">  1        1 0.39160445E-02 0.93743240E+02</pdfrwt>
<pdfrwt beam="1">  1       -1 0.13278395E-01 0.93743240E+02</pdfrwt>
<totfact> 0.77804602E+04</totfact>
</mgrwt>
</event>
<event>
 5    1  0.4023633E+001  0.9056771E+02  0.7546771E-02  0.1301483E+00
          2   -1    0    0  501    0  0.00000000000E+00  0.00000000000E+00  0.97629937793E+03  0.97629937793E+03  0.00000000000E+00 0. -1.
         -2   -1    0    0    0  501 -0.00000000000E+00 -0.00000000000E+00 -0.21004086799E+01  0.21004086799E+01  0.00000000000E+00 0.  1.
         23    2    1    2    0    0  0.00000000000E+00  0.00000000000E+00  0.97419896925E+03  0.97839978661E+03  0.90567713620E+02 0.  0.
          2    1    3    3  502    0 -0.20521833967E+02  0.50650238185E+01  0.54464355766E+02  0.58422308963E+02  0.00000000000E+00 0.  1.
         -2    1    3    3    0  502  0.20521833967E+02 -0.50650238185E+01  0.91973461349E+03  0.91997747765E+03  0.00000000000E+00 0. -1.
<mgrwt>
<rscale>  0 0.90567714E+02</rscale>
<asrwt>0</asrwt>
<pdfrwt beam="1">  1        2 0.15019954E+00 0.90567714E+02</pdfrwt>
<pdfrwt beam="2">  1       -2 0.32314058E-03 0.90567714E+02</pdfrwt>
<totfact> 0.25414748E+05</totfact>
</mgrwt>
</event>
<event>
 5    1  0.4023633E+001  0.9079450E+02  0.7546771E-02  0.1300939E+00
         -2   -1    0    0    0  501 -0.00000000000E+00  0.00000000000E+00  0.22334153893E+01  0.22334153893E+01  0.00000000000E+00 0.  1.
          2   -1    0    0  501    0  0.00000000000E+00 -0.00000000000E+00 -0.92276179398E+03  0.92276179398E+03  0.00000000000E+00 0. -1.
         23    2    1    2    0    0  0.00000000000E+00  0.00000000000E+00 -0.92052837859E+03  0.92499520937E+03  0.90794501845E+02 0.  0.
          2    1    3    3  502    0 -0.23876208134E+02 -0.23340932459E+01 -0.85290916764E+03  0.85324648816E+03  0.00000000000E+00 0. -1.
         -2    1    3    3    0  502  0.23876208134E+02  0.23340932459E+01 -0.67619210953E+02  0.71748721216E+02  0.00000000000E+00 0.  1.
<mgrwt>
<rscale>  0 0.90794502E+02</rscale>
<asrwt>0</asrwt>
<pdfrwt beam="2">  1        2 0.14196345E+00 0.90794502E+02</pdfrwt>
<pdfrwt beam="1">  1       -2 0.34360214E-03 0.90794502E+02</pdfrwt>
<totfact> 0.25135757E+05</totfact>
</mgrwt>
</event>
<event>
 5    1  0.4023633E+001  0.9071094E+02  0.7546771E-02  0.1301139E+00
          2   -1    0    0  501    0  0.00000000000E+00  0.00000000000E+00  0.14712136036E+04  0.14712136036E+04  0.00000000000E+00 0. -1.
         -2   -1    0    0    0  501 -0.00000000000E+00 -0.00000000000E+00 -0.13982461110E+01  0.13982461110E+01  0.00000000000E+00 0.  1.
         23    2    1    2    0    0  0.00000000000E+00  0.00000000000E+00  0.14698153575E+04  0.14726118497E+04  0.90710940898E+02 0.  0.
          2    1    3    3  502    0 -0.32189372778E+02  0.66178376369E+01  0.12423808189E+04  0.12428153727E+04  0.00000000000E+00 0. -1.
         -2    1    3    3    0  502  0.32189372778E+02 -0.66178376369E+01  0.22743453856E+03  0.22979647697E+03  0.00000000000E+00 0.  1.
<mgrwt>
<rscale>  0 0.90710941E+02</rscale>
<asrwt>0</asrwt>
<pdfrwt beam="1">  1        2 0.22633932E+00 0.90710941E+02</pdfrwt>
<pdfrwt beam="2">  1       -2 0.21511596E-03 0.90710941E+02</pdfrwt>
<totfact> 0.24086627E+05</totfact>
</mgrwt>
</event>
<event>
 5    1  0.4023633E+001  0.9263966E+02  0.7546771E-02  0.1296582E+00
          2   -1    0    0  501    0  0.00000000000E+00  0.00000000000E+00  0.16532629485E+03  0.16532629485E+03  0.00000000000E+00 0. -1.
         -2   -1    0    0    0  501 -0.00000000000E+00 -0.00000000000E+00 -0.12977527626E+02  0.12977527626E+02  0.00000000000E+00 0.  1.
         23    2    1    2    0    0  0.00000000000E+00  0.00000000000E+00  0.15234876723E+03  0.17830382248E+03  0.92639658003E+02 0.  0.
          2    1    3    3  502    0 -0.14798825240E+02  0.21640858618E+02  0.14967169437E+03  0.15195047906E+03  0.00000000000E+00 0. -1.
         -2    1    3    3    0  502  0.14798825240E+02 -0.21640858618E+02  0.26770728529E+01  0.26353343417E+02  0.00000000000E+00 0.  1.
<mgrwt>
<rscale>  0 0.92639658E+02</rscale>
<asrwt>0</asrwt>
<pdfrwt beam="1">  1        2 0.25434813E-01 0.92639658E+02</pdfrwt>
<pdfrwt beam="2">  1       -2 0.19965428E-02 0.92639658E+02</pdfrwt>
<totfact> 0.13846144E+05</totfact>
</mgrwt>
</event>
<event>
 5    1  0.4023633E+001  0.9012779E+02  0.7546771E-02  0.1302543E+00
         -2   -1    0    0    0  501 -0.00000000000E+00  0.00000000000E+00  0.23205360605E+01  0.23205360605E+01  0.00000000000E+00 0. -1.
          2   -1    0    0  501    0  0.00000000000E+00 -0.00000000000E+00 -0.87512306516E+03  0.87512306516E+03  0.00000000000E+00 0.  1.
         23    2    1    2    0    0  0.00000000000E+00  0.00000000000E+00 -0.87280252909E+03  0.87744360122E+03  0.90127789945E+02 0.  0.
          2    1    3    3  502    0  0.24061466047E+02 -0.27390362710E+02 -0.17853440336E+03  0.18221887745E+03  0.00000000000E+00 0.  1.
         -2    1    3    3    0  502 -0.24061466047E+02  0.27390362710E+02 -0.69426812574E+03  0.69522472376E+03  0.00000000000E+00 0. -1.
<mgrwt>
<rscale>  0 0.90127790E+02</rscale>
<asrwt>0</asrwt>
<pdfrwt beam="2">  1        2 0.13463445E+00 0.90127790E+02</pdfrwt>
<pdfrwt beam="1">  1       -2 0.35700521E-03 0.90127790E+02</pdfrwt>
<totfact> 0.25474830E+05</totfact>
</mgrwt>
</event>
<event>
 5    1  0.4023633E+001  0.9129424E+02  0.7546771E-02  0.1299747E+00
         -1   -1    0    0    0  501 -0.00000000000E+00  0.00000000000E+00  0.67956519112E+01  0.67956519112E+01  0.00000000000E+00 0.  1.
          1   -1    0    0  501    0  0.00000000000E+00 -0.00000000000E+00 -0.30661655874E+03  0.30661655874E+03  0.00000000000E+00 0. -1.
         23    2    1    2    0    0  0.00000000000E+00  0.00000000000E+00 -0.29982090683E+03  0.31341221065E+03  0.91294236475E+02 0.  0.
          2    1    3    3  502    0 -0.21644459844E+02  0.25427906532E+02 -0.43067862740E+02  0.54496806086E+02  0.00000000000E+00 0.  1.
         -2    1    3    3    0  502  0.21644459844E+02 -0.25427906532E+02 -0.25675304409E+03  0.25891540456E+03  0.00000000000E+00 0. -1.
<mgrwt>
<rscale>  0 0.91294236E+02</rscale>
<asrwt>0</asrwt>
<pdfrwt beam="2">  1        1 0.47171776E-01 0.91294236E+02</pdfrwt>
<pdfrwt beam="1">  1       -1 0.10454850E-02 0.91294236E+02</pdfrwt>
<totfact> 0.12821355E+05</totfact>
</mgrwt>
</event>
<event>
 5    1  0.4023633E+001  0.9782642E+02  0.7546771E-02  0.1284934E+00
          4   -1    0    0  501    0  0.00000000000E+00  0.00000000000E+00  0.26788807502E+03  0.26788807502E+03  0.00000000000E+00 0. -1.
         -4   -1    0    0    0  501 -0.00000000000E+00 -0.00000000000E+00 -0.89309771647E+01  0.89309771647E+01  0.00000000000E+00 0.  1.
         23    2    1    2    0    0  0.00000000000E+00  0.00000000000E+00  0.25895709785E+03  0.27681905218E+03  0.97826423438E+02 0.  0.
          2    1    3    3  502    0 -0.18238095492E+02  0.33411132489E+02  0.21639999661E+03  0.21972230299E+03  0.00000000000E+00 0. -1.
         -2    1    3    3    0  502  0.18238095492E+02 -0.33411132489E+02  0.42557101243E+02  0.57096749186E+02  0.00000000000E+00 0.  1.
<mgrwt>
<rscale>  0 0.97826423E+02</rscale>
<asrwt>0</asrwt>
<pdfrwt beam="1">  1        4 0.41213544E-01 0.97826423E+02</pdfrwt>
<pdfrwt beam="2">  1       -4 0.13739967E-02 0.97826423E+02</pdfrwt>
<totfact> 0.15364495E+04</totfact>
</mgrwt>
</event>
<event>
 5    1  0.4023633E+001  0.9785314E+02  0.7546771E-02  0.1284876E+00
         -1   -1    0    0    0  501 -0.00000000000E+00  0.00000000000E+00  0.33670210404E+01  0.33670210404E+01  0.00000000000E+00 0.  1.
          1   -1    0    0  501    0  0.00000000000E+00 -0.00000000000E+00 -0.71095768046E+03  0.71095768046E+03  0.00000000000E+00 0. -1.
         23    2    1    2    0    0  0.00000000000E+00  0.00000000000E+00 -0.70759065942E+03  0.71432470150E+03  0.97853144434E+02 0.  0.
          2    1    3    3  502    0 -0.37728781881E+02  0.30383470149E+02 -0.30364650880E+03  0.30748629002E+03  0.00000000000E+00 0. -1.
         -2    1    3    3    0  502  0.37728781881E+02 -0.30383470149E+02 -0.40394415062E+03  0.40683841148E+03  0.00000000000E+00 0.  1.
<mgrwt>
<rscale>  0 0.97853144E+02</rscale>
<asrwt>0</asrwt>
<pdfrwt beam="2">  1        1 0.10937821E+00 0.97853144E+02</pdfrwt>
<pdfrwt beam="1">  1       -1 0.51800275E-03 0.97853144E+02</pdfrwt>
<totfact> 0.11783684E+05</totfact>
</mgrwt>
</event>
<event>
 5    1  0.4023633E+001  0.8953052E+02  0.7546771E-02  0.1303993E+00
         -2   -1    0    0    0  501 -0.00000000000E+00  0.00000000000E+00  0.21304055373E+02  0.21304055373E+02  0.00000000000E+00 0.  1.
          2   -1    0    0  501    0  0.00000000000E+00 -0.00000000000E+00 -0.94063236453E+02  0.94063236453E+02  0.00000000000E+00 0. -1.
         23    2    1    2    0    0  0.00000000000E+00  0.00000000000E+00 -0.72759181080E+02  0.11536729183E+03  0.89530517656E+02 0.  0.
          2    1    3    3  502    0 -0.26031806858E+02  0.10835223240E+02 -0.81182028589E+02  0.85939390251E+02  0.00000000000E+00 0. -1.
         -2    1    3    3    0  502  0.26031806858E+02 -0.10835223240E+02  0.84228475084E+01  0.29427901574E+02  0.00000000000E+00 0.  1.
<mgrwt>
<rscale>  0 0.89530518E+02</rscale>
<asrwt>0</asrwt>
<pdfrwt beam="2">  1        2 0.14471267E-01 0.89530518E+02</pdfrwt>
<pdfrwt beam="1">  1       -2 0.32775470E-02 0.89530518E+02</pdfrwt>
<totfact> 0.12662754E+05</totfact>
</mgrwt>
</event>
<event>
 5    1  0.4023633E+001  0.9001816E+02  0.7546771E-02  0.1302808E+00
         -2   -1    0    0    0  501 -0.00000000000E+00  0.00000000000E+00  0.15448372594E+01  0.15448372594E+01  0.00000000000E+00 0.  1.
          2   -1    0    0  501    0  0.00000000000E+00 -0.00000000000E+00 -0.13113467102E+04  0.13113467102E+04  0.00000000000E+00 0. -1.
         23    2    1    2    0    0  0.00000000000E+00  0.00000000000E+00 -0.13098018729E+04  0.13128915474E+04  0.90018159453E+02 0.  0.
          2    1    3    3  502    0 -0.22384278932E+02 -0.37059210539E+02 -0.83434436732E+03  0.83546691395E+03  0.00000000000E+00 0. -1.
         -2    1    3    3    0  502  0.22384278932E+02  0.37059210539E+02 -0.47545750561E+03  0.47742463349E+03  0.00000000000E+00 0.  1.
<mgrwt>
<rscale>  0 0.90018159E+02</rscale>
<asrwt>0</asrwt>
<pdfrwt beam="2">  1        2 0.20174479E+00 0.90018159E+02</pdfrwt>
<pdfrwt beam="1">  1       -2 0.23766828E-03 0.90018159E+02</pdfrwt>
<totfact> 0.25366684E+05</totfact>
</mgrwt>
</event>
<event>
 5    1  0.4023633E+001  0.8927772E+02  0.7546771E-02  0.1304610E+00
         -1   -1    0    0    0  501 -0.00000000000E+00  0.00000000000E+00  0.64116356527E+01  0.64116356527E+01  0.00000000000E+00 0.  1.
          1   -1    0    0  501    0  0.00000000000E+00 -0.00000000000E+00 -0.31078309383E+03  0.31078309383E+03  0.00000000000E+00 0. -1.
         23    2    1    2    0    0  0.00000000000E+00  0.00000000000E+00 -0.30437145818E+03  0.31719472948E+03  0.89277723194E+02 0.  0.
          2    1    3    3  502    0 -0.38590114058E+02 -0.83952810242E+01 -0.22611252572E+03  0.22953551345E+03  0.00000000000E+00 0. -1.
         -2    1    3    3    0  502  0.38590114058E+02  0.83952810242E+01 -0.78258932461E+02  0.87659216038E+02  0.00000000000E+00 0.  1.
<mgrwt>
<rscale>  0 0.89277723E+02</rscale>
<asrwt>0</asrwt>
<pdfrwt beam="2">  1        1 0.47812765E-01 0.89277723E+02</pdfrwt>
<pdfrwt beam="1">  1       -1 0.98640586E-03 0.89277723E+02</pdfrwt>
<totfact> 0.13640761E+05</totfact>
</mgrwt>
</event>
<event>
 5    1  0.4023633E+001  0.8804094E+02  0.7546771E-02  0.1307666E+00
         -1   -1    0    0    0  501 -0.00000000000E+00  0.00000000000E+00  0.20710304363E+02  0.20710304363E+02  0.00000000000E+00 0.  1.
          1   -1    0    0  501    0  0.00000000000E+00 -0.00000000000E+00 -0.93567044598E+02  0.93567044598E+02  0.00000000000E+00 0. -1.
         23    2    1    2    0    0  0.00000000000E+00  0.00000000000E+00 -0.72856740235E+02  0.11427734896E+03  0.88040944383E+02 0.  0.
          2    1    3    3  502    0 -0.41070179628E+02 -0.84177070966E+01 -0.53851822329E+02  0.68246876966E+02  0.00000000000E+00 0. -1.
         -2    1    3    3    0  502  0.41070179628E+02  0.84177070966E+01 -0.19004917906E+02  0.46030471995E+02  0.00000000000E+00 0.  1.
<mgrwt>
<rscale>  0 0.88040944E+02</rscale>
<asrwt>0</asrwt>
<pdfrwt beam="2">  1        1 0.14394930E-01 0.88040944E+02</pdfrwt>
<pdfrwt beam="1">  1       -1 0.31862007E-02 0.88040944E+02</pdfrwt>
<totfact> 0.11364232E+05</totfact>
</mgrwt>
</event>
<event>
 5    1  0.4023633E+001  0.9169165E+02  0.7546771E-02  0.1298806E+00
          2   -1    0    0  501    0  0.00000000000E+00  0.00000000000E+00  0.80315569840E+03  0.80315569840E+03  0.00000000000E+00 0. -1.
         -2   -1    0    0    0  501 -0.00000000000E+00 -0.00000000000E+00 -0.26169765602E+01  0.26169765602E+01  0.00000000000E+00 0.  1.
         23    2    1    2    0    0  0.00000000000E+00  0.00000000000E+00  0.80053872184E+03  0.80577267496E+03  0.91691649280E+02 0.  0.
          2    1    3    3  502    0 -0.33933959557E+02 -0.22185333335E+02  0.58836574199E+03  0.58976092527E+03  0.00000000000E+00 0. -1.
         -2    1    3    3    0  502  0.33933959557E+02  0.22185333335E+02  0.21217297985E+03  0.21601174969E+03  0.00000000000E+00 0.  1.
<mgrwt>
<rscale>  0 0.91691649E+02</rscale>
<asrwt>0</asrwt>
<pdfrwt beam="1">  1        2 0.12356222E+00 0.91691649E+02</pdfrwt>
<pdfrwt beam="2">  1       -2 0.40261242E-03 0.91691649E+02</pdfrwt>
<totfact> 0.24031331E+05</totfact>
</mgrwt>
</event>
<event>
 5    1  0.4023633E+001  0.9072669E+02  0.7546771E-02  0.1301101E+00
         -4   -1    0    0    0  501 -0.00000000000E+00  0.00000000000E+00  0.25140135746E+03  0.25140135746E+03  0.00000000000E+00 0.  1.
          4   -1    0    0  501    0  0.00000000000E+00 -0.00000000000E+00 -0.81854491009E+01  0.81854491009E+01  0.00000000000E+00 0. -1.
         23    2    1    2    0    0  0.00000000000E+00  0.00000000000E+00  0.24321590836E+03  0.25958680657E+03  0.90726688806E+02 0.  0.
          2    1    3    3  502    0 -0.18304834767E+00  0.30095931035E+02  0.24494302070E+02  0.38804244684E+02  0.00000000000E+00 0. -1.
         -2    1    3    3    0  502  0.18304834767E+00 -0.30095931035E+02  0.21872160629E+03  0.22078256188E+03  0.00000000000E+00 0.  1.
<mgrwt>
<rscale>  0 0.90726689E+02</rscale>
<asrwt>0</asrwt>
<pdfrwt beam="2">  1        4 0.12593001E-02 0.90726689E+02</pdfrwt>
<pdfrwt beam="1">  1       -4 0.38677126E-01 0.90726689E+02</pdfrwt>
<totfact> 0.19382768E+04</totfact>
</mgrwt>
</event>
<event>
 5    1  0.4023633E+001  0.9191403E+02  0.7546771E-02  0.1298282E+00
          2   -1    0    0  501    0  0.00000000000E+00  0.00000000000E+00  0.10540112639E+04  0.10540112639E+04  0.00000000000E+00 0. -1.
         -2   -1    0    0    0  501 -0.00000000000E+00 -0.00000000000E+00 -0.20038185653E+01  0.20038185653E+01  0.00000000000E+00 0.  1.
         23    2    1    2    0    0  0.00000000000E+00  0.00000000000E+00  0.10520074453E+04  0.10560150824E+04  0.91914032413E+02 0.  0.
          2    1    3    3  502    0  0.25024161614E+02  0.21918420803E+02  0.89030641938E+03  0.89092768855E+03  0.00000000000E+00 0. -1.
         -2    1    3    3    0  502 -0.25024161614E+02 -0.21918420803E+02  0.16170102593E+03  0.16508739389E+03  0.00000000000E+00 0.  1.
<mgrwt>
<rscale>  0 0.91914032E+02</rscale>
<asrwt>0</asrwt>
<pdfrwt beam="1">  1        2 0.16215514E+00 0.91914032E+02</pdfrwt>
<pdfrwt beam="2">  1       -2 0.30828062E-03 0.91914032E+02</pdfrwt>
<totfact> 0.24507736E+05</totfact>
</mgrwt>
</event>
<event>
 5    1  0.4023633E+001  0.8933819E+02  0.7546771E-02  0.1304462E+00
          1   -1    0    0  501    0  0.00000000000E+00  0.00000000000E+00  0.22119378247E+04  0.22119378247E+04  0.00000000000E+00 0. -1.
         -1   -1    0    0    0  501 -0.00000000000E+00 -0.00000000000E+00 -0.90207246723E+00  0.90207246723E+00  0.00000000000E+00 0.  1.
         23    2    1    2    0    0  0.00000000000E+00  0.00000000000E+00  0.22110357522E+04  0.22128398972E+04  0.89338193644E+02 0.  0.
          2    1    3    3  502    0  0.37202556931E+02 -0.16988991292E+02  0.15504497954E+04  0.15509891116E+04  0.00000000000E+00 0. -1.
         -2    1    3    3    0  502 -0.37202556931E+02  0.16988991292E+02  0.66058595679E+03  0.66185078559E+03  0.00000000000E+00 0.  1.
<mgrwt>
<rscale>  0 0.89338194E+02</rscale>
<asrwt>0</asrwt>
<pdfrwt beam="1">  1        1 0.34029379E+00 0.89338194E+02</pdfrwt>
<pdfrwt beam="2">  1       -1 0.13878215E-03 0.89338194E+02</pdfrwt>
<totfact> 0.71176894E+04</totfact>
</mgrwt>
</event>
<event>
 5    1  0.4023633E+001  0.9133307E+02  0.7546771E-02  0.1299655E+00
         -2   -1    0    0    0  501 -0.00000000000E+00  0.00000000000E+00  0.13152764022E+01  0.13152764022E+01  0.00000000000E+00 0. -1.
          2   -1    0    0  501    0  0.00000000000E+00 -0.00000000000E+00 -0.15855467449E+04  0.15855467449E+04  0.00000000000E+00 0.  1.
         23    2    1    2    0    0  0.00000000000E+00  0.00000000000E+00 -0.15842314685E+04  0.15868620213E+04  0.91333065606E+02 0.  0.
          2    1    3    3  502    0 -0.10188909939E+02 -0.43657556250E+02 -0.64101181209E+03  0.64257757457E+03  0.00000000000E+00 0. -1.
         -2    1    3    3    0  502  0.10188909939E+02  0.43657556250E+02 -0.94321965644E+03  0.94428444677E+03  0.00000000000E+00 0.  1.
<mgrwt>
<rscale>  0 0.91333066E+02</rscale>
<asrwt>0</asrwt>
<pdfrwt beam="2">  1        2 0.24393008E+00 0.91333066E+02</pdfrwt>
<pdfrwt beam="1">  1       -2 0.20235037E-03 0.91333066E+02</pdfrwt>
<totfact> 0.22949108E+05</totfact>
</mgrwt>
</event>
<event>
 5    1  0.4023633E+001  0.9151934E+02  0.7546771E-02  0.1299214E+00
          2   -1    0    0  501    0  0.00000000000E+00  0.00000000000E+00  0.23196128526E+03  0.23196128526E+03  0.00000000000E+00 0. -1.
         -2   -1    0    0    0  501 -0.00000000000E+00 -0.00000000000E+00 -0.90271419850E+01  0.90271419850E+01  0.00000000000E+00 0.  1.
         23    2    1    2    0    0  0.00000000000E+00  0.00000000000E+00  0.22293414327E+03  0.24098842724E+03  0.91519341279E+02 0.  0.
          2    1    3    3  502    0  0.95091308768E+01 -0.43375146430E+02  0.14056604680E+03  0.14741316227E+03  0.00000000000E+00 0. -1.
         -2    1    3    3    0  502 -0.95091308768E+01  0.43375146430E+02  0.82368096473E+02  0.93575264972E+02  0.00000000000E+00 0.  1.
<mgrwt>
<rscale>  0 0.91519341E+02</rscale>
<asrwt>0</asrwt>
<pdfrwt beam="1">  1        2 0.35686347E-01 0.91519341E+02</pdfrwt>
<pdfrwt beam="2">  1       -2 0.13887912E-02 0.91519341E+02</pdfrwt>
<totfact> 0.16164815E+05</totfact>
</mgrwt>
</event>
<event>
 5    1  0.4023633E+001  0.9079532E+02  0.7546771E-02  0.1300937E+00
          2   -1    0    0  501    0  0.00000000000E+00  0.00000000000E+00  0.87651811992E+03  0.87651811992E+03  0.00000000000E+00 0. -1.
         -2   -1    0    0    0  501 -0.00000000000E+00 -0.00000000000E+00 -0.23512892875E+01  0.23512892875E+01  0.00000000000E+00 0.  1.
         23    2    1    2    0    0  0.00000000000E+00  0.00000000000E+00  0.87416683063E+03  0.87886940920E+03  0.90795322911E+02 0.  0.
          2    1    3    3  502    0 -0.47360782119E+01 -0.35309760662E+02  0.70944861963E+03  0.71034256069E+03  0.00000000000E+00 0. -1.
         -2    1    3    3    0  502  0.47360782119E+01  0.35309760662E+02  0.16471821100E+03  0.16852684851E+03  0.00000000000E+00 0.  1.
<mgrwt>
<rscale>  0 0.90795323E+02</rscale>
<asrwt>0</asrwt>
<pdfrwt beam="1">  1        2 0.13484868E+00 0.90795323E+02</pdfrwt>
<pdfrwt beam="2">  1       -2 0.36173751E-03 0.90795323E+02</pdfrwt>
<totfact> 0.24989964E+05</totfact>
</mgrwt>
</event>
<event>
 5    1  0.4023633E+001  0.9036844E+02  0.7546771E-02  0.1301962E+00
         -1   -1    0    0    0  501 -0.00000000000E+00  0.00000000000E+00  0.17498128288E+01  0.17498128288E+01  0.00000000000E+00 0.  1.
          1   -1    0    0  501    0  0.00000000000E+00 -0.00000000000E+00 -0.11667612435E+04  0.11667612435E+04  0.00000000000E+00 0. -1.
         23    2    1    2    0    0  0.00000000000E+00  0.00000000000E+00 -0.11650114307E+04  0.11685110564E+04  0.90368441220E+02 0.  0.
          2    1    3    3  502    0  0.21106353315E+02 -0.12608606526E+02 -0.10727001729E+04  0.10729818806E+04  0.00000000000E+00 0. -1.
         -2    1    3    3    0  502 -0.21106353315E+02  0.12608606526E+02 -0.92311257834E+02  0.95529175814E+02  0.00000000000E+00 0.  1.
<mgrwt>
<rscale>  0 0.90368441E+02</rscale>
<asrwt>0</asrwt>
<pdfrwt beam="2">  1        1 0.17950229E+00 0.90368441E+02</pdfrwt>
<pdfrwt beam="1">  1       -1 0.26920114E-03 0.90368441E+02</pdfrwt>
<totfact> 0.13200150E+05</totfact>
</mgrwt>
</event>
<event>
 5    1  0.4023633E+001  0.9081823E+02  0.7546771E-02  0.1300882E+00
         -2   -1    0    0    0  501 -0.00000000000E+00  0.00000000000E+00  0.15854394349E+01  0.15854394349E+01  0.00000000000E+00 0.  1.
          2   -1    0    0  501    0  0.00000000000E+00 -0.00000000000E+00 -0.13005781359E+04  0.13005781359E+04  0.00000000000E+00 0. -1.
         23    2    1    2    0    0  0.00000000000E+00  0.00000000000E+00 -0.12989926964E+04  0.13021635753E+04  0.90818233077E+02 0.  0.
          2    1    3    3  502    0 -0.52825568570E+01 -0.44830918129E+02 -0.72013435811E+03  0.72154778799E+03  0.00000000000E+00 0. -1.
         -2    1    3    3    0  502  0.52825568570E+01  0.44830918129E+02 -0.57885833832E+03  0.58061578731E+03  0.00000000000E+00 0.  1.
<mgrwt>
<rscale>  0 0.90818233E+02</rscale>
<asrwt>0</asrwt>
<pdfrwt beam="2">  1        2 0.20008992E+00 0.90818233E+02</pdfrwt>
<pdfrwt beam="1">  1       -2 0.24391257E-03 0.90818233E+02</pdfrwt>
<totfact> 0.24823492E+05</totfact>
</mgrwt>
</event>
<event>
 5    1  0.4023633E+001  0.1072948E+03  0.7546771E-02  0.1265663E+00
         -2   -1    0    0    0  501 -0.00000000000E+00  0.00000000000E+00  0.84955693949E+02  0.84955693949E+02  0.00000000000E+00 0.  1.
          2   -1    0    0  501    0  0.00000000000E+00 -0.00000000000E+00 -0.33876969803E+02  0.33876969803E+02  0.00000000000E+00 0. -1.
         23    2    1    2    0    0  0.00000000000E+00  0.00000000000E+00  0.51078724147E+02  0.11883266375E+03  0.10729476182E+03 0.  0.
          2    1    3    3  502    0  0.46756623618E+02 -0.91186581301E+01  0.52864503830E+02  0.71161699976E+02  0.00000000000E+00 0.  1.
         -2    1    3    3    0  502 -0.46756623618E+02  0.91186581301E+01 -0.17857796837E+01  0.47670963776E+02  0.00000000000E+00 0. -1.
<mgrwt>
<rscale>  0 0.10729476E+03</rscale>
<asrwt>0</asrwt>
<pdfrwt beam="2">  1        2 0.52118415E-02 0.10729476E+03</pdfrwt>
<pdfrwt beam="1">  1       -2 0.13070107E-01 0.10729476E+03</pdfrwt>
<totfact> 0.56083960E+04</totfact>
</mgrwt>
</event>
<event>
 5    1  0.4023633E+001  0.9184480E+02  0.7546771E-02  0.1298445E+00
          1   -1    0    0  501    0  0.00000000000E+00  0.00000000000E+00  0.95837548361E+03  0.95837548361E+03  0.00000000000E+00 0. -1.
         -1   -1    0    0    0  501 -0.00000000000E+00 -0.00000000000E+00 -0.22004599049E+01  0.22004599049E+01  0.00000000000E+00 0.  1.
         23    2    1    2    0    0  0.00000000000E+00  0.00000000000E+00  0.95617502371E+03  0.96057594352E+03  0.91844800081E+02 0.  0.
          2    1    3    3  502    0  0.85955731025E+01  0.24454130681E+02  0.87455014325E+03  0.87493419264E+03  0.00000000000E+00 0. -1.
         -2    1    3    3    0  502 -0.85955731025E+01 -0.24454130681E+02  0.81624880455E+02  0.85641750879E+02  0.00000000000E+00 0.  1.
<mgrwt>
<rscale>  0 0.91844800E+02</rscale>
<asrwt>0</asrwt>
<pdfrwt beam="1">  1        1 0.14744205E+00 0.91844800E+02</pdfrwt>
<pdfrwt beam="2">  1       -1 0.33853306E-03 0.91844800E+02</pdfrwt>
<totfact> 0.13481687E+05</totfact>
</mgrwt>
</event>
<event>
 5    1  0.4023633E+001  0.9084935E+02  0.7546771E-02  0.1300808E+00
          2   -1    0    0  501    0  0.00000000000E+00  0.00000000000E+00  0.23443727790E+03  0.23443727790E+03  0.00000000000E+00 0. -1.
         -2   -1    0    0    0  501 -0.00000000000E+00 -0.00000000000E+00 -0.88015068222E+01  0.88015068222E+01  0.00000000000E+00 0.  1.
         23    2    1    2    0    0  0.00000000000E+00  0.00000000000E+00  0.22563577107E+03  0.24323878472E+03  0.90849354445E+02 0.  0.
          2    1    3    3  502    0  0.19270839968E+02  0.19814653874E+02  0.20933070521E+03  0.21114764959E+03  0.00000000000E+00 0. -1.
         -2    1    3    3    0  502 -0.19270839968E+02 -0.19814653874E+02  0.16305065859E+02  0.32091135129E+02  0.00000000000E+00 0.  1.
<mgrwt>
<rscale>  0 0.90849354E+02</rscale>
<asrwt>0</asrwt>
<pdfrwt beam="1">  1        2 0.36067269E-01 0.90849354E+02</pdfrwt>
<pdfrwt beam="2">  1       -2 0.13540782E-02 0.90849354E+02</pdfrwt>
<totfact> 0.16551243E+05</totfact>
</mgrwt>
</event>
<event>
 5    1  0.4023633E+001  0.9027523E+02  0.7546771E-02  0.1302187E+00
          2   -1    0    0  501    0  0.00000000000E+00  0.00000000000E+00  0.45482716117E+03  0.45482716117E+03  0.00000000000E+00 0. -1.
         -2   -1    0    0    0  501 -0.00000000000E+00 -0.00000000000E+00 -0.44795128180E+01  0.44795128180E+01  0.00000000000E+00 0.  1.
         23    2    1    2    0    0  0.00000000000E+00  0.00000000000E+00  0.45034764835E+03  0.45930667399E+03  0.90275225802E+02 0.  0.
          2    1    3    3  502    0 -0.91837139068E+01 -0.22633512668E+02  0.41829689298E+03  0.41900943566E+03  0.00000000000E+00 0. -1.
         -2    1    3    3    0  502  0.91837139068E+01  0.22633512668E+02  0.32050755372E+02  0.40297238327E+02  0.00000000000E+00 0.  1.
<mgrwt>
<rscale>  0 0.90275226E+02</rscale>
<asrwt>0</asrwt>
<pdfrwt beam="1">  1        2 0.69973373E-01 0.90275226E+02</pdfrwt>
<pdfrwt beam="2">  1       -2 0.68915618E-03 0.90275226E+02</pdfrwt>
<totfact> 0.21436751E+05</totfact>
</mgrwt>
</event>
<event>
 5    1  0.4023633E+001  0.9111292E+02  0.7546771E-02  0.1300179E+00
         -1   -1    0    0    0  501 -0.00000000000E+00  0.00000000000E+00  0.65136817975E+03  0.65136817975E+03  0.00000000000E+00 0.  1.
          1   -1    0    0  501    0  0.00000000000E+00 -0.00000000000E+00 -0.31862028855E+01  0.31862028855E+01  0.00000000000E+00 0. -1.
         23    2    1    2    0    0  0.00000000000E+00  0.00000000000E+00  0.64818197686E+03  0.65455438263E+03  0.91112922768E+02 0.  0.
          2    1    3    3  502    0 -0.25272806288E+02  0.13779219541E+02  0.70422911877E+02  0.76078697058E+02  0.00000000000E+00 0. -1.
         -2    1    3    3    0  502  0.25272806288E+02 -0.13779219541E+02  0.57775906498E+03  0.57847568557E+03  0.00000000000E+00 0.  1.
<mgrwt>
<rscale>  0 0.91112923E+02</rscale>
<asrwt>0</asrwt>
<pdfrwt beam="2">  1        1 0.49018558E-03 0.91112923E+02</pdfrwt>
<pdfrwt beam="1">  1       -1 0.10021038E+00 0.91112923E+02</pdfrwt>
<totfact> 0.39166667E+04</totfact>
</mgrwt>
</event>
<event>
 5    1  0.4023633E+001  0.8228361E+02  0.7546771E-02  0.1322693E+00
         -2   -1    0    0    0  501 -0.00000000000E+00  0.00000000000E+00  0.26546960867E+01  0.26546960867E+01  0.00000000000E+00 0.  1.
          2   -1    0    0  501    0  0.00000000000E+00 -0.00000000000E+00 -0.63760529418E+03  0.63760529418E+03  0.00000000000E+00 0. -1.
         23    2    1    2    0    0  0.00000000000E+00  0.00000000000E+00 -0.63495059809E+03  0.64025999027E+03  0.82283613905E+02 0.  0.
          2    1    3    3  502    0  0.41037684900E+02 -0.29152959067E+01 -0.31560544300E+03  0.31827564497E+03  0.00000000000E+00 0. -1.
         -2    1    3    3    0  502 -0.41037684900E+02  0.29152959067E+01 -0.31934515510E+03  0.32198434530E+03  0.00000000000E+00 0.  1.
<mgrwt>
<rscale>  0 0.82283614E+02</rscale>
<asrwt>0</asrwt>
<pdfrwt beam="2">  1        2 0.98093066E-01 0.82283614E+02</pdfrwt>
<pdfrwt beam="1">  1       -2 0.40841501E-03 0.82283614E+02</pdfrwt>
<totfact> 0.30333058E+05</totfact>
</mgrwt>
</event>
<event>
 5    1  0.4023633E+001  0.9131371E+02  0.7546771E-02  0.1299701E+00
          1   -1    0    0  501    0  0.00000000000E+00  0.00000000000E+00  0.12871815807E+04  0.12871815807E+04  0.00000000000E+00 0. -1.
         -1   -1    0    0    0  501 -0.00000000000E+00 -0.00000000000E+00 -0.16194672319E+01  0.16194672319E+01  0.00000000000E+00 0.  1.
         23    2    1    2    0    0  0.00000000000E+00  0.00000000000E+00  0.12855621135E+04  0.12888010479E+04  0.91313709627E+02 0.  0.
          2    1    3    3  502    0  0.17759648230E+02 -0.41962902453E+02  0.68334032076E+03  0.68485785698E+03  0.00000000000E+00 0. -1.
         -2    1    3    3    0  502 -0.17759648230E+02  0.41962902453E+02  0.60222179269E+03  0.60394319093E+03  0.00000000000E+00 0.  1.
<mgrwt>
<rscale>  0 0.91313710E+02</rscale>
<asrwt>0</asrwt>
<pdfrwt beam="1">  1        1 0.19802712E+00 0.91313710E+02</pdfrwt>
<pdfrwt beam="2">  1       -1 0.24914983E-03 0.91313710E+02</pdfrwt>
<totfact> 0.12227835E+05</totfact>
</mgrwt>
</event>
<event>
 5    1  0.4023633E+001  0.9176773E+02  0.7546771E-02  0.1298626E+00
          1   -1    0    0  501    0  0.00000000000E+00  0.00000000000E+00  0.14496477920E+03  0.14496477920E+03  0.00000000000E+00 0. -1.
         -1   -1    0    0    0  501 -0.00000000000E+00 -0.00000000000E+00 -0.14523038930E+02  0.14523038930E+02  0.00000000000E+00 0.  1.
         23    2    1    2    0    0  0.00000000000E+00  0.00000000000E+00  0.13044174027E+03  0.15948781813E+03  0.91767731407E+02 0.  0.
          2    1    3    3  502    0 -0.19845094369E+02  0.40605616485E+02  0.51460811776E+02  0.68489846031E+02  0.00000000000E+00 0. -1.
         -2    1    3    3    0  502  0.19845094369E+02 -0.40605616485E+02  0.78980928495E+02  0.90997972102E+02  0.00000000000E+00 0.  1.
<mgrwt>
<rscale>  0 0.91767731E+02</rscale>
<asrwt>0</asrwt>
<pdfrwt beam="1">  1        1 0.22302273E-01 0.91767731E+02</pdfrwt>
<pdfrwt beam="2">  1       -1 0.22343138E-02 0.91767731E+02</pdfrwt>
<totfact> 0.10950460E+05</totfact>
</mgrwt>
</event>
<event>
 5    1  0.4023633E+001  0.9049625E+02  0.7546771E-02  0.1301654E+00
         -3   -1    0    0    0  501 -0.00000000000E+00  0.00000000000E+00  0.12397257228E+04  0.12397257228E+04  0.00000000000E+00 0.  1.
          3   -1    0    0  501    0  0.00000000000E+00 -0.00000000000E+00 -0.16514885852E+01  0.16514885852E+01  0.00000000000E+00 0. -1.
         23    2    1    2    0    0  0.00000000000E+00  0.00000000000E+00  0.12380742342E+04  0.12413772114E+04  0.90496251414E+02 0.  0.
          2    1    3    3  502    0  0.27001599170E+01 -0.45040434594E+02  0.57259740567E+03  0.57437245808E+03  0.00000000000E+00 0. -1.
         -2    1    3    3    0  502 -0.27001599170E+01  0.45040434594E+02  0.66547682856E+03  0.66700475333E+03  0.00000000000E+00 0.  1.
<mgrwt>
<rscale>  0 0.90496251E+02</rscale>
<asrwt>0</asrwt>
<pdfrwt beam="2">  1        3 0.25407616E-03 0.90496251E+02</pdfrwt>
<pdfrwt beam="1">  1       -3 0.19072629E+00 0.90496251E+02</pdfrwt>
<totfact> 0.79795914E+03</totfact>
</mgrwt>
</event>
<event>
 5    1  0.4023633E+001  0.9409299E+02  0.7546771E-02  0.1293232E+00
         -1   -1    0    0    0  501 -0.00000000000E+00  0.00000000000E+00  0.22009812596E+03  0.22009812596E+03  0.00000000000E+00 0.  1.
          1   -1    0    0  501    0  0.00000000000E+00 -0.00000000000E+00 -0.10056300553E+02  0.10056300553E+02  0.00000000000E+00 0. -1.
         23    2    1    2    0    0  0.00000000000E+00  0.00000000000E+00  0.21004182541E+03  0.23015442652E+03  0.94092994551E+02 0.  0.
          2    1    3    3  502    0 -0.13958110991E+02 -0.42423636862E+02  0.68841214794E+02  0.82059165737E+02  0.00000000000E+00 0. -1.
         -2    1    3    3    0  502  0.13958110991E+02  0.42423636862E+02  0.14120061062E+03  0.14809526078E+03  0.00000000000E+00 0.  1.
<mgrwt>
<rscale>  0 0.94092995E+02</rscale>
<asrwt>0</asrwt>
<pdfrwt beam="2">  1        1 0.15471233E-02 0.94092995E+02</pdfrwt>
<pdfrwt beam="1">  1       -1 0.33861247E-01 0.94092995E+02</pdfrwt>
<totfact> 0.62153576E+04</totfact>
</mgrwt>
</event>
<event>
 5    1  0.4023633E+001  0.9094134E+02  0.7546771E-02  0.1300588E+00
          1   -1    0    0  501    0  0.00000000000E+00  0.00000000000E+00  0.40731834649E+03  0.40731834649E+03  0.00000000000E+00 0. -1.
         -1   -1    0    0    0  501 -0.00000000000E+00 -0.00000000000E+00 -0.50760836049E+01  0.50760836049E+01  0.00000000000E+00 0.  1.
         23    2    1    2    0    0  0.00000000000E+00  0.00000000000E+00  0.40224226288E+03  0.41239443009E+03  0.90941343306E+02 0.  0.
          2    1    3    3  502    0 -0.24501329285E+02 -0.28752635274E+02  0.31589126735E+03  0.31814198396E+03  0.00000000000E+00 0. -1.
         -2    1    3    3    0  502  0.24501329285E+02  0.28752635274E+02  0.86350995532E+02  0.94252446129E+02  0.00000000000E+00 0.  1.
<mgrwt>
<rscale>  0 0.90941343E+02</rscale>
<asrwt>0</asrwt>
<pdfrwt beam="1">  1        1 0.62664335E-01 0.90941343E+02</pdfrwt>
<pdfrwt beam="2">  1       -1 0.78093626E-03 0.90941343E+02</pdfrwt>
<totfact> 0.13622125E+05</totfact>
</mgrwt>
</event>
<event>
 5    1  0.4023633E+001  0.8970093E+02  0.7546771E-02  0.1303578E+00
          1   -1    0    0  501    0  0.00000000000E+00  0.00000000000E+00  0.16787374879E+03  0.16787374879E+03  0.00000000000E+00 0. -1.
         -1   -1    0    0    0  501 -0.00000000000E+00 -0.00000000000E+00 -0.11982600957E+02  0.11982600957E+02  0.00000000000E+00 0.  1.
         23    2    1    2    0    0  0.00000000000E+00  0.00000000000E+00  0.15589114783E+03  0.17985634974E+03  0.89700928486E+02 0.  0.
          2    1    3    3  502    0  0.16456157782E+02  0.24594295262E+02  0.14552196536E+03  0.14850025889E+03  0.00000000000E+00 0. -1.
         -2    1    3    3    0  502 -0.16456157782E+02 -0.24594295262E+02  0.10369182468E+02  0.31356090851E+02  0.00000000000E+00 0.  1.
<mgrwt>
<rscale>  0 0.89700928E+02</rscale>
<asrwt>0</asrwt>
<pdfrwt beam="1">  1        1 0.25826729E-01 0.89700928E+02</pdfrwt>
<pdfrwt beam="2">  1       -1 0.18434772E-02 0.89700928E+02</pdfrwt>
<totfact> 0.11963627E+05</totfact>
</mgrwt>
</event>
<event>
 5    1  0.4023633E+001  0.8573734E+02  0.7546771E-02  0.1313515E+00
         -3   -1    0    0    0  501 -0.00000000000E+00  0.00000000000E+00  0.56373213538E+02  0.56373213538E+02  0.00000000000E+00 0.  1.
          3   -1    0    0  501    0  0.00000000000E+00 -0.00000000000E+00 -0.32599223915E+02  0.32599223915E+02  0.00000000000E+00 0. -1.
         23    2    1    2    0    0  0.00000000000E+00  0.00000000000E+00  0.23773989623E+02  0.88972437453E+02  0.85737343344E+02 0.  0.
          2    1    3    3  502    0  0.12651264907E+01 -0.34886850182E+02 -0.13932121098E+02  0.37587190092E+02  0.00000000000E+00 0. -1.
         -2    1    3    3    0  502 -0.12651264907E+01  0.34886850182E+02  0.37706110721E+02  0.51385247361E+02  0.00000000000E+00 0.  1.
<mgrwt>
<rscale>  0 0.85737343E+02</rscale>
<asrwt>0</asrwt>
<pdfrwt beam="2">  1        3 0.50152652E-02 0.85737343E+02</pdfrwt>
<pdfrwt beam="1">  1       -3 0.86728021E-02 0.85737343E+02</pdfrwt>
<totfact> 0.41955361E+04</totfact>
</mgrwt>
</event>
<event>
 5    1  0.4023633E+001  0.7944733E+02  0.7546771E-02  0.1330627E+00
         -2   -1    0    0    0  501 -0.00000000000E+00  0.00000000000E+00  0.13471648168E+01  0.13471648168E+01  0.00000000000E+00 0.  1.
          2   -1    0    0  501    0  0.00000000000E+00 -0.00000000000E+00 -0.11713263961E+04  0.11713263961E+04  0.00000000000E+00 0. -1.
         23    2    1    2    0    0  0.00000000000E+00  0.00000000000E+00 -0.11699792312E+04  0.11726735609E+04  0.79447333745E+02 0.  0.
          2    1    3    3  502    0 -0.95182589899E+01  0.35798662036E+02 -0.79675272233E+03  0.79761334116E+03  0.00000000000E+00 0. -1.
         -2    1    3    3    0  502  0.95182589899E+01 -0.35798662036E+02 -0.37322650891E+03  0.37506021972E+03  0.00000000000E+00 0.  1.
<mgrwt>
<rscale>  0 0.79447334E+02</rscale>
<asrwt>0</asrwt>
<pdfrwt beam="2">  1        2 0.18020440E+00 0.79447334E+02</pdfrwt>
<pdfrwt beam="1">  1       -2 0.20725574E-03 0.79447334E+02</pdfrwt>
<totfact> 0.35732015E+05</totfact>
</mgrwt>
</event>
<event>
 5    1  0.4023633E+001  0.9036485E+02  0.7546771E-02  0.1301971E+00
         -2   -1    0    0    0  501 -0.00000000000E+00  0.00000000000E+00  0.27860940726E+01  0.27860940726E+01  0.00000000000E+00 0.  1.
          2   -1    0    0  501    0  0.00000000000E+00 -0.00000000000E+00 -0.73272888151E+03  0.73272888151E+03  0.00000000000E+00 0. -1.
         23    2    1    2    0    0  0.00000000000E+00  0.00000000000E+00 -0.72994278744E+03  0.73551497558E+03  0.90364851432E+02 0.  0.
          2    1    3    3  502    0 -0.40529105641E+02  0.19970345833E+02 -0.36634492331E+03  0.36912061165E+03  0.00000000000E+00 0.  1.
         -2    1    3    3    0  502  0.40529105641E+02 -0.19970345833E+02 -0.36359786413E+03  0.36639436393E+03  0.00000000000E+00 0. -1.
<mgrwt>
<rscale>  0 0.90364851E+02</rscale>
<asrwt>0</asrwt>
<pdfrwt beam="2">  1        2 0.11272759E+00 0.90364851E+02</pdfrwt>
<pdfrwt beam="1">  1       -2 0.42862957E-03 0.90364851E+02</pdfrwt>
<totfact> 0.24529810E+05</totfact>
</mgrwt>
</event>
<event>
 5    1  0.4023633E+001  0.9195203E+02  0.7546771E-02  0.1298192E+00
         -1   -1    0    0    0  501 -0.00000000000E+00  0.00000000000E+00  0.47685074138E+02  0.47685074138E+02  0.00000000000E+00 0.  1.
          1   -1    0    0  501    0  0.00000000000E+00 -0.00000000000E+00 -0.44328207791E+02  0.44328207791E+02  0.00000000000E+00 0. -1.
         23    2    1    2    0    0  0.00000000000E+00  0.00000000000E+00  0.33568663469E+01  0.92013281929E+02  0.91952028252E+02 0.  0.
          2    1    3    3  502    0 -0.29613343737E+02  0.31701519600E+02 -0.13558574682E+02  0.45450758185E+02  0.00000000000E+00 0. -1.
         -2    1    3    3    0  502  0.29613343737E+02 -0.31701519600E+02  0.16915441029E+02  0.46562523744E+02  0.00000000000E+00 0.  1.
<mgrwt>
<rscale>  0 0.91952028E+02</rscale>
<asrwt>0</asrwt>
<pdfrwt beam="2">  1        1 0.68197243E-02 0.91952028E+02</pdfrwt>
<pdfrwt beam="1">  1       -1 0.73361652E-02 0.91952028E+02</pdfrwt>
<totfact> 0.89914203E+04</totfact>
</mgrwt>
</event>
<event>
 5    1  0.4023633E+001  0.9225167E+02  0.7546771E-02  0.1297489E+00
         -1   -1    0    0    0  501 -0.00000000000E+00  0.00000000000E+00  0.11301136626E+02  0.11301136626E+02  0.00000000000E+00 0.  1.
          1   -1    0    0  501    0  0.00000000000E+00 -0.00000000000E+00 -0.18826359756E+03  0.18826359756E+03  0.00000000000E+00 0. -1.
         23    2    1    2    0    0  0.00000000000E+00  0.00000000000E+00 -0.17696246093E+03  0.19956473419E+03  0.92251669638E+02 0.  0.
          2    1    3    3  502    0 -0.29976900592E+02  0.43822704381E+01 -0.16372345824E+03  0.16650282172E+03  0.00000000000E+00 0. -1.
         -2    1    3    3    0  502  0.29976900592E+02 -0.43822704381E+01 -0.13239002690E+02  0.33061912460E+02  0.00000000000E+00 0.  1.
<mgrwt>
<rscale>  0 0.92251670E+02</rscale>
<asrwt>0</asrwt>
<pdfrwt beam="2">  1        1 0.28963628E-01 0.92251670E+02</pdfrwt>
<pdfrwt beam="1">  1       -1 0.17386366E-02 0.92251670E+02</pdfrwt>
<totfact> 0.11339989E+05</totfact>
</mgrwt>
</event>
<event>
 5    1  0.4023633E+001  0.9029833E+02  0.7546771E-02  0.1302131E+00
         -2   -1    0    0    0  501 -0.00000000000E+00  0.00000000000E+00  0.27417616801E+01  0.27417616801E+01  0.00000000000E+00 0. -1.
          2   -1    0    0  501    0  0.00000000000E+00 -0.00000000000E+00 -0.74348072118E+03  0.74348072118E+03  0.00000000000E+00 0.  1.
         23    2    1    2    0    0  0.00000000000E+00  0.00000000000E+00 -0.74073895950E+03  0.74622248286E+03  0.90298326700E+02 0.  0.
          2    1    3    3  502    0  0.59168220360E+01 -0.37707723070E+02 -0.17107831167E+03  0.17528453978E+03  0.00000000000E+00 0. -1.
         -2    1    3    3    0  502 -0.59168220360E+01  0.37707723070E+02 -0.56966064783E+03  0.57093794308E+03  0.00000000000E+00 0.  1.
<mgrwt>
<rscale>  0 0.90298327E+02</rscale>
<asrwt>0</asrwt>
<pdfrwt beam="2">  1        2 0.11438169E+00 0.90298327E+02</pdfrwt>
<pdfrwt beam="1">  1       -2 0.42180934E-03 0.90298327E+02</pdfrwt>
<totfact> 0.24653352E+05</totfact>
</mgrwt>
</event>
<event>
 5    1  0.4023633E+001  0.1038460E+03  0.7546771E-02  0.1272410E+00
          3   -1    0    0  501    0  0.00000000000E+00  0.00000000000E+00  0.12561305626E+02  0.12561305626E+02  0.00000000000E+00 0. -1.
         -3   -1    0    0    0  501 -0.00000000000E+00 -0.00000000000E+00 -0.21462720386E+03  0.21462720386E+03  0.00000000000E+00 0.  1.
         23    2    1    2    0    0  0.00000000000E+00  0.00000000000E+00 -0.20206589823E+03  0.22718850948E+03  0.10384599951E+03 0.  0.
          2    1    3    3  502    0 -0.21143641568E+02  0.23967390718E+02 -0.11508785840E+02  0.33969715161E+02  0.00000000000E+00 0. -1.
         -2    1    3    3    0  502  0.21143641568E+02 -0.23967390718E+02 -0.19055711239E+03  0.19321879432E+03  0.00000000000E+00 0.  1.
<mgrwt>
<rscale>  0 0.10384600E+03</rscale>
<asrwt>0</asrwt>
<pdfrwt beam="1">  1        3 0.19325084E-02 0.10384600E+03</pdfrwt>
<pdfrwt beam="2">  1       -3 0.33019572E-01 0.10384600E+03</pdfrwt>
<totfact> 0.19066110E+04</totfact>
</mgrwt>
</event>
<event>
 5    1  0.4023633E+001  0.9227090E+02  0.7546771E-02  0.1297444E+00
          3   -1    0    0  501    0  0.00000000000E+00  0.00000000000E+00  0.21790649592E+02  0.21790649592E+02  0.00000000000E+00 0. -1.
         -3   -1    0    0    0  501 -0.00000000000E+00 -0.00000000000E+00 -0.97678577740E+02  0.97678577740E+02  0.00000000000E+00 0.  1.
         23    2    1    2    0    0  0.00000000000E+00  0.00000000000E+00 -0.75887928148E+02  0.11946922733E+03  0.92270898125E+02 0.  0.
          2    1    3    3  502    0 -0.18556176113E+02  0.16822690377E+02  0.12221246566E+02  0.27869220497E+02  0.00000000000E+00 0. -1.
         -2    1    3    3    0  502  0.18556176113E+02 -0.16822690377E+02 -0.88109174714E+02  0.91600006836E+02  0.00000000000E+00 0.  1.
<mgrwt>
<rscale>  0 0.92270898E+02</rscale>
<asrwt>0</asrwt>
<pdfrwt beam="1">  1        3 0.33524077E-02 0.92270898E+02</pdfrwt>
<pdfrwt beam="2">  1       -3 0.15027473E-01 0.92270898E+02</pdfrwt>
<totfact> 0.32220892E+04</totfact>
</mgrwt>
</event>
<event>
 5    1  0.4023633E+001  0.9091582E+02  0.7546771E-02  0.1300649E+00
          2   -1    0    0  501    0  0.00000000000E+00  0.00000000000E+00  0.92230693496E+02  0.92230693496E+02  0.00000000000E+00 0. -1.
         -2   -1    0    0    0  501 -0.00000000000E+00 -0.00000000000E+00 -0.22404925201E+02  0.22404925201E+02  0.00000000000E+00 0.  1.
         23    2    1    2    0    0  0.00000000000E+00  0.00000000000E+00  0.69825768295E+02  0.11463561870E+03  0.90915824564E+02 0.  0.
          2    1    3    3  502    0 -0.32279776194E+02  0.30630825542E+02  0.46618909382E+02  0.64448073179E+02  0.00000000000E+00 0. -1.
         -2    1    3    3    0  502  0.32279776194E+02 -0.30630825542E+02  0.23206858912E+02  0.50187545518E+02  0.00000000000E+00 0.  1.
<mgrwt>
<rscale>  0 0.90915825E+02</rscale>
<asrwt>0</asrwt>
<pdfrwt beam="1">  1        2 0.14189337E-01 0.90915825E+02</pdfrwt>
<pdfrwt beam="2">  1       -2 0.34469116E-02 0.90915825E+02</pdfrwt>
<totfact> 0.12067660E+05</totfact>
</mgrwt>
</event>
<event>
 5    1  0.4023633E+001  0.9157116E+02  0.7546771E-02  0.1299091E+00
          2   -1    0    0  501    0  0.00000000000E+00  0.00000000000E+00  0.67022664716E+03  0.67022664716E+03  0.00000000000E+00 0. -1.
         -2   -1    0    0    0  501 -0.00000000000E+00 -0.00000000000E+00 -0.31277766079E+01  0.31277766079E+01  0.00000000000E+00 0.  1.
         23    2    1    2    0    0  0.00000000000E+00  0.00000000000E+00  0.66709887056E+03  0.67335442377E+03  0.91571157664E+02 0.  0.
          2    1    3    3  502    0  0.17969864633E+02  0.35353618722E+02  0.50179888724E+03  0.50336360379E+03  0.00000000000E+00 0. -1.
         -2    1    3    3    0  502 -0.17969864633E+02 -0.35353618722E+02  0.16529998332E+03  0.16999081998E+03  0.00000000000E+00 0.  1.
<mgrwt>
<rscale>  0 0.91571158E+02</rscale>
<asrwt>0</asrwt>
<pdfrwt beam="1">  1        2 0.10311168E+00 0.91571158E+02</pdfrwt>
<pdfrwt beam="2">  1       -2 0.48119694E-03 0.91571158E+02</pdfrwt>
<totfact> 0.23201489E+05</totfact>
</mgrwt>
</event>
<event>
 5    1  0.4023633E+001  0.9123115E+02  0.7546771E-02  0.1299897E+00
          1   -1    0    0  501    0  0.00000000000E+00  0.00000000000E+00  0.14572581854E+03  0.14572581854E+03  0.00000000000E+00 0. -1.
         -1   -1    0    0    0  501 -0.00000000000E+00 -0.00000000000E+00 -0.14278738323E+02  0.14278738323E+02  0.00000000000E+00 0.  1.
         23    2    1    2    0    0  0.00000000000E+00  0.00000000000E+00  0.13144708022E+03  0.16000455686E+03  0.91231153227E+02 0.  0.
          2    1    3    3  502    0  0.25183728087E+02  0.23440041505E+02  0.13192536730E+02  0.36846963667E+02  0.00000000000E+00 0.  1.
         -2    1    3    3    0  502 -0.25183728087E+02 -0.23440041505E+02  0.11825454349E+03  0.12315759319E+03  0.00000000000E+00 0. -1.
<mgrwt>
<rscale>  0 0.91231153E+02</rscale>
<asrwt>0</asrwt>
<pdfrwt beam="1">  1        1 0.22419356E-01 0.91231153E+02</pdfrwt>
<pdfrwt beam="2">  1       -1 0.21967291E-02 0.91231153E+02</pdfrwt>
<totfact> 0.11136086E+05</totfact>
</mgrwt>
</event>
<event>
 5    1  0.4023633E+001  0.8964954E+02  0.7546771E-02  0.1303703E+00
         -1   -1    0    0    0  501 -0.00000000000E+00  0.00000000000E+00  0.63694891379E+01  0.63694891379E+01  0.00000000000E+00 0.  1.
          1   -1    0    0  501    0  0.00000000000E+00 -0.00000000000E+00 -0.31545076174E+03  0.31545076174E+03  0.00000000000E+00 0. -1.
         23    2    1    2    0    0  0.00000000000E+00  0.00000000000E+00 -0.30908127261E+03  0.32182025088E+03  0.89649544348E+02 0.  0.
          2    1    3    3  502    0  0.33042688060E+02 -0.19976592690E+02 -0.23627186414E+03  0.23940609281E+03  0.00000000000E+00 0. -1.
         -2    1    3    3    0  502 -0.33042688060E+02  0.19976592690E+02 -0.72809408469E+02  0.82414158076E+02  0.00000000000E+00 0.  1.
<mgrwt>
<rscale>  0 0.89649544E+02</rscale>
<asrwt>0</asrwt>
<pdfrwt beam="2">  1        1 0.48530890E-01 0.89649544E+02</pdfrwt>
<pdfrwt beam="1">  1       -1 0.97992134E-03 0.89649544E+02</pdfrwt>
<totfact> 0.13528732E+05</totfact>
</mgrwt>
</event>
<event>
 5    1  0.4023633E+001  0.9091344E+02  0.7546771E-02  0.1300655E+00
         -2   -1    0    0    0  501 -0.00000000000E+00  0.00000000000E+00  0.22978324023E+04  0.22978324023E+04  0.00000000000E+00 0.  1.
          2   -1    0    0  501    0  0.00000000000E+00 -0.00000000000E+00 -0.89924465680E+00  0.89924465680E+00  0.00000000000E+00 0. -1.
         23    2    1    2    0    0  0.00000000000E+00  0.00000000000E+00  0.22969331576E+04  0.22987316469E+04  0.90913442570E+02 0.  0.
          2    1    3    3  502    0 -0.52503608551E+01 -0.35456449991E+02  0.44158129679E+03  0.44303359671E+03  0.00000000000E+00 0. -1.
         -2    1    3    3    0  502  0.52503608551E+01  0.35456449991E+02  0.18553518608E+04  0.18556980502E+04  0.00000000000E+00 0.  1.
<mgrwt>
<rscale>  0 0.90913443E+02</rscale>
<asrwt>0</asrwt>
<pdfrwt beam="2">  1        2 0.13834717E-03 0.90913443E+02</pdfrwt>
<pdfrwt beam="1">  1       -2 0.35350798E+00 0.90913443E+02</pdfrwt>
<totfact> 0.38283703E+03</totfact>
</mgrwt>
</event>
<event>
 5    1  0.4023633E+001  0.9107945E+02  0.7546771E-02  0.1300258E+00
         -2   -1    0    0    0  501 -0.00000000000E+00  0.00000000000E+00  0.56781901508E+00  0.56781901508E+00  0.00000000000E+00 0.  1.
          2   -1    0    0  501    0  0.00000000000E+00 -0.00000000000E+00 -0.36523376510E+04  0.36523376510E+04  0.00000000000E+00 0. -1.
         23    2    1    2    0    0  0.00000000000E+00  0.00000000000E+00 -0.36517698320E+04  0.36529054700E+04  0.91079454713E+02 0.  0.
          2    1    3    3  502    0 -0.39175092585E+02  0.70608100763E+01 -0.93869580312E+03  0.93953943702E+03  0.00000000000E+00 0.  1.
         -2    1    3    3    0  502  0.39175092585E+02 -0.70608100763E+01 -0.27130740288E+04  0.27133660330E+04  0.00000000000E+00 0. -1.
<mgrwt>
<rscale>  0 0.91079455E+02</rscale>
<asrwt>0</asrwt>
<pdfrwt beam="2">  1        2 0.56190444E+00 0.91079455E+02</pdfrwt>
<pdfrwt beam="1">  1       -2 0.87355787E-04 0.91079455E+02</pdfrwt>
<totfact> 0.53342300E+04</totfact>
</mgrwt>
</event>
<event>
 5    1  0.4023633E+001  0.9650242E+02  0.7546771E-02  0.1287828E+00
          1   -1    0    0  501    0  0.00000000000E+00  0.00000000000E+00  0.13958467080E+04  0.13958467080E+04  0.00000000000E+00 0. -1.
         -1   -1    0    0    0  501 -0.00000000000E+00 -0.00000000000E+00 -0.16679334860E+01  0.16679334860E+01  0.00000000000E+00 0.  1.
         23    2    1    2    0    0  0.00000000000E+00  0.00000000000E+00  0.13941787745E+04  0.13975146415E+04  0.96502424127E+02 0.  0.
          2    1    3    3  502    0  0.23335303002E+02  0.28027430435E+02  0.11546056433E+04  0.11551814857E+04  0.00000000000E+00 0. -1.
         -2    1    3    3    0  502 -0.23335303002E+02 -0.28027430435E+02  0.23957313121E+03  0.24233315584E+03  0.00000000000E+00 0.  1.
<mgrwt>
<rscale>  0 0.96502424E+02</rscale>
<asrwt>0</asrwt>
<pdfrwt beam="1">  1        1 0.21474471E+00 0.96502424E+02</pdfrwt>
<pdfrwt beam="2">  1       -1 0.25660627E-03 0.96502424E+02</pdfrwt>
<totfact> 0.10036078E+05</totfact>
</mgrwt>
</event>
<event>
 5    1  0.4023633E+001  0.9209983E+02  0.7546771E-02  0.1297845E+00
          1   -1    0    0  501    0  0.00000000000E+00  0.00000000000E+00  0.21823635799E+04  0.21823635799E+04  0.00000000000E+00 0. -1.
         -1   -1    0    0    0  501 -0.00000000000E+00 -0.00000000000E+00 -0.97169626247E+00  0.97169626247E+00  0.00000000000E+00 0.  1.
         23    2    1    2    0    0  0.00000000000E+00  0.00000000000E+00  0.21813918836E+04  0.21833352761E+04  0.92099827012E+02 0.  0.
          2    1    3    3  502    0 -0.17591095669E+02 -0.25706199130E+02  0.18947302481E+04  0.18949862713E+04  0.00000000000E+00 0. -1.
         -2    1    3    3    0  502  0.17591095669E+02  0.25706199130E+02  0.28666163551E+03  0.28834900485E+03  0.00000000000E+00 0.  1.
<mgrwt>
<rscale>  0 0.92099827E+02</rscale>
<asrwt>0</asrwt>
<pdfrwt beam="1">  1        1 0.33574432E+00 0.92099827E+02</pdfrwt>
<pdfrwt beam="2">  1       -1 0.14949348E-03 0.92099827E+02</pdfrwt>
<totfact> 0.67260981E+04</totfact>
</mgrwt>
</event>
<event>
 5    1  0.4023633E+001  0.8784800E+02  0.7546771E-02  0.1308148E+00
         -1   -1    0    0    0  501 -0.00000000000E+00  0.00000000000E+00  0.37072480098E+01  0.37072480098E+01  0.00000000000E+00 0.  1.
          1   -1    0    0  501    0  0.00000000000E+00 -0.00000000000E+00 -0.52041773375E+03  0.52041773375E+03  0.00000000000E+00 0. -1.
         23    2    1    2    0    0  0.00000000000E+00  0.00000000000E+00 -0.51671048575E+03  0.52412498176E+03  0.87847996169E+02 0.  0.
          2    1    3    3  502    0  0.39240129381E+01 -0.34843879938E+02 -0.41618807252E+03  0.41766254986E+03  0.00000000000E+00 0. -1.
         -2    1    3    3    0  502 -0.39240129381E+01  0.34843879938E+02 -0.10052241323E+03  0.10646243191E+03  0.00000000000E+00 0.  1.
<mgrwt>
<rscale>  0 0.87847996E+02</rscale>
<asrwt>0</asrwt>
<pdfrwt beam="2">  1        1 0.80064297E-01 0.87847996E+02</pdfrwt>
<pdfrwt beam="1">  1       -1 0.57034563E-03 0.87847996E+02</pdfrwt>
<totfact> 0.15434733E+05</totfact>
</mgrwt>
</event>
<event>
 5    1  0.4023633E+001  0.9103136E+02  0.7546771E-02  0.1300373E+00
          1   -1    0    0  501    0  0.00000000000E+00  0.00000000000E+00  0.62138984369E+02  0.62138984369E+02  0.00000000000E+00 0. -1.
         -1   -1    0    0    0  501 -0.00000000000E+00 -0.00000000000E+00 -0.33339413445E+02  0.33339413445E+02  0.00000000000E+00 0.  1.
         23    2    1    2    0    0  0.00000000000E+00  0.00000000000E+00  0.28799570924E+02  0.95478397813E+02  0.91031363626E+02 0.  0.
          2    1    3    3  502    0  0.26596912891E+02  0.10057907758E+02  0.51676393005E+02  0.58983106715E+02  0.00000000000E+00 0. -1.
         -2    1    3    3    0  502 -0.26596912891E+02 -0.10057907758E+02 -0.22876822081E+02  0.36495291098E+02  0.00000000000E+00 0.  1.
<mgrwt>
<rscale>  0 0.91031364E+02</rscale>
<asrwt>0</asrwt>
<pdfrwt beam="1">  1        1 0.95598437E-02 0.91031364E+02</pdfrwt>
<pdfrwt beam="2">  1       -1 0.51291406E-02 0.91031364E+02</pdfrwt>
<totfact> 0.97314320E+04</totfact>
</mgrwt>
</event>
<event>
 5    1  0.4023633E+001  0.9204400E+02  0.7546771E-02  0.1297976E+00
          3   -1    0    0  501    0  0.00000000000E+00  0.00000000000E+00  0.24088176869E+03  0.24088176869E+03  0.00000000000E+00 0. -1.
         -3   -1    0    0    0  501 -0.00000000000E+00 -0.00000000000E+00 -0.87927969970E+01  0.87927969970E+01  0.00000000000E+00 0.  1.
         23    2    1    2    0    0  0.00000000000E+00  0.00000000000E+00  0.23208897169E+03  0.24967456568E+03  0.92044000181E+02 0.  0.
          2    1    3    3  502    0 -0.25619432591E+02  0.92862710723E+01  0.21664466388E+03  0.21835178163E+03  0.00000000000E+00 0. -1.
         -2    1    3    3    0  502  0.25619432591E+02 -0.92862710723E+01  0.15444307812E+02  0.31322784048E+02  0.00000000000E+00 0.  1.
<mgrwt>
<rscale>  0 0.92044000E+02</rscale>
<asrwt>0</asrwt>
<pdfrwt beam="1">  1        3 0.37058729E-01 0.92044000E+02</pdfrwt>
<pdfrwt beam="2">  1       -3 0.13527382E-02 0.92044000E+02</pdfrwt>
<totfact> 0.25460347E+04</totfact>
</mgrwt>
</event>
<event>
 5    1  0.4023633E+001  0.8349470E+02  0.7546771E-02  0.1319417E+00
         -2   -1    0    0    0  501 -0.00000000000E+00  0.00000000000E+00  0.43195833185E+01  0.43195833185E+01  0.00000000000E+00 0.  1.
          2   -1    0    0  501    0  0.00000000000E+00 -0.00000000000E+00 -0.40347434303E+03  0.40347434303E+03  0.00000000000E+00 0. -1.
         23    2    1    2    0    0  0.00000000000E+00  0.00000000000E+00 -0.39915475971E+03  0.40779392635E+03  0.83494695439E+02 0.  0.
          2    1    3    3  502    0  0.16329641245E+02  0.37490511126E+02 -0.15852636325E+03  0.16371561762E+03  0.00000000000E+00 0. -1.
         -2    1    3    3    0  502 -0.16329641245E+02 -0.37490511126E+02 -0.24062839647E+03  0.24407830873E+03  0.00000000000E+00 0.  1.
<mgrwt>
<rscale>  0 0.83494695E+02</rscale>
<asrwt>0</asrwt>
<pdfrwt beam="2">  1        2 0.62072980E-01 0.83494695E+02</pdfrwt>
<pdfrwt beam="1">  1       -2 0.66455124E-03 0.83494695E+02</pdfrwt>
<totfact> 0.25264963E+05</totfact>
</mgrwt>
</event>
<event>
 5    1  0.4023633E+001  0.8941018E+02  0.7546771E-02  0.1304286E+00
          2   -1    0    0  501    0  0.00000000000E+00  0.00000000000E+00  0.39624984732E+02  0.39624984732E+02  0.00000000000E+00 0. -1.
         -2   -1    0    0    0  501 -0.00000000000E+00 -0.00000000000E+00 -0.50436484465E+02  0.50436484465E+02  0.00000000000E+00 0.  1.
         23    2    1    2    0    0  0.00000000000E+00  0.00000000000E+00 -0.10811499733E+02  0.90061469197E+02  0.89410176756E+02 0.  0.
          2    1    3    3  502    0 -0.43143623183E+02 -0.16382905360E+01 -0.17087152337E+02  0.46433037724E+02  0.00000000000E+00 0.  1.
         -2    1    3    3    0  502  0.43143623183E+02  0.16382905360E+01  0.62756526038E+01  0.43628431474E+02  0.00000000000E+00 0. -1.
<mgrwt>
<rscale>  0 0.89410177E+02</rscale>
<asrwt>0</asrwt>
<pdfrwt beam="1">  1        2 0.60961515E-02 0.89410177E+02</pdfrwt>
<pdfrwt beam="2">  1       -2 0.77594592E-02 0.89410177E+02</pdfrwt>
<totfact> 0.10069245E+05</totfact>
</mgrwt>
</event>
<event>
 5    1  0.4023633E+001  0.9118249E+02  0.7546771E-02  0.1300013E+00
          2   -1    0    0  501    0  0.00000000000E+00  0.00000000000E+00  0.32077627346E+02  0.32077627346E+02  0.00000000000E+00 0. -1.
         -2   -1    0    0    0  501 -0.00000000000E+00 -0.00000000000E+00 -0.64797866067E+02  0.64797866067E+02  0.00000000000E+00 0.  1.
         23    2    1    2    0    0  0.00000000000E+00  0.00000000000E+00 -0.32720238721E+02  0.96875493414E+02  0.91182493946E+02 0.  0.
          2    1    3    3  502    0  0.28229547080E+02  0.14296518589E+02  0.18510811451E+02  0.36659895154E+02  0.00000000000E+00 0. -1.
         -2    1    3    3    0  502 -0.28229547080E+02 -0.14296518589E+02 -0.51231050172E+02  0.60215598260E+02  0.00000000000E+00 0.  1.
<mgrwt>
<rscale>  0 0.91182494E+02</rscale>
<asrwt>0</asrwt>
<pdfrwt beam="1">  1        2 0.49350196E-02 0.91182494E+02</pdfrwt>
<pdfrwt beam="2">  1       -2 0.99689024E-02 0.91182494E+02</pdfrwt>
<totfact> 0.90036132E+04</totfact>
</mgrwt>
</event>
<event>
 5    1  0.4023633E+001  0.8977587E+02  0.7546771E-02  0.1303395E+00
         -3   -1    0    0    0  501 -0.00000000000E+00  0.00000000000E+00  0.41098722850E+02  0.41098722850E+02  0.00000000000E+00 0.  1.
          3   -1    0    0  501    0  0.00000000000E+00 -0.00000000000E+00 -0.49026503323E+02  0.49026503323E+02  0.00000000000E+00 0. -1.
         23    2    1    2    0    0  0.00000000000E+00  0.00000000000E+00 -0.79277804729E+01  0.90125226173E+02  0.89775869194E+02 0.  0.
          2    1    3    3  502    0  0.40998844859E+02  0.72200631574E+01 -0.20818868105E+02  0.46545245309E+02  0.00000000000E+00 0. -1.
         -2    1    3    3    0  502 -0.40998844859E+02 -0.72200631574E+01  0.12891087632E+02  0.43579980864E+02  0.00000000000E+00 0.  1.
<mgrwt>
<rscale>  0 0.89775869E+02</rscale>
<asrwt>0</asrwt>
<pdfrwt beam="2">  1        3 0.75425390E-02 0.89775869E+02</pdfrwt>
<pdfrwt beam="1">  1       -3 0.63228804E-02 0.89775869E+02</pdfrwt>
<totfact> 0.36942881E+04</totfact>
</mgrwt>
</event>
<event>
 5    1  0.4023633E+001  0.1115586E+03  0.7546771E-02  0.1257711E+00
         -2   -1    0    0    0  501 -0.00000000000E+00  0.00000000000E+00  0.20786398758E+01  0.20786398758E+01  0.00000000000E+00 0.  1.
          2   -1    0    0  501    0  0.00000000000E+00 -0.00000000000E+00 -0.14968100406E+04  0.14968100406E+04  0.00000000000E+00 0. -1.
         23    2    1    2    0    0  0.00000000000E+00  0.00000000000E+00 -0.14947314007E+04  0.14988886805E+04  0.11155857720E+03 0.  0.
          2    1    3    3  502    0 -0.35127628783E+02  0.42135735652E+02 -0.61169746950E+03  0.61415239536E+03  0.00000000000E+00 0. -1.
         -2    1    3    3    0  502  0.35127628783E+02 -0.42135735652E+02 -0.88303393122E+03  0.88473628512E+03  0.00000000000E+00 0.  1.
<mgrwt>
<rscale>  0 0.11155858E+03</rscale>
<asrwt>0</asrwt>
<pdfrwt beam="2">  1        2 0.23027863E+00 0.11155858E+03</pdfrwt>
<pdfrwt beam="1">  1       -2 0.31979052E-03 0.11155858E+03</pdfrwt>
<totfact> 0.13806206E+05</totfact>
</mgrwt>
</event>
<event>
 5    1  0.4023633E+001  0.9056962E+02  0.7546771E-02  0.1301478E+00
          2   -1    0    0  501    0  0.00000000000E+00  0.00000000000E+00  0.11808573109E+04  0.11808573109E+04  0.00000000000E+00 0. -1.
         -2   -1    0    0    0  501 -0.00000000000E+00 -0.00000000000E+00 -0.17366315802E+01  0.17366315802E+01  0.00000000000E+00 0.  1.
         23    2    1    2    0    0  0.00000000000E+00  0.00000000000E+00  0.11791206793E+04  0.11825939425E+04  0.90569621790E+02 0.  0.
          2    1    3    3  502    0  0.38603455975E+01 -0.28495525329E+02  0.10463447916E+04  0.10467398532E+04  0.00000000000E+00 0. -1.
         -2    1    3    3    0  502 -0.38603455975E+01  0.28495525329E+02  0.13277588768E+03  0.13585408930E+03  0.00000000000E+00 0.  1.
<mgrwt>
<rscale>  0 0.90569622E+02</rscale>
<asrwt>0</asrwt>
<pdfrwt beam="1">  1        2 0.18166971E+00 0.90569622E+02</pdfrwt>
<pdfrwt beam="2">  1       -2 0.26717503E-03 0.90569622E+02</pdfrwt>
<totfact> 0.25351309E+05</totfact>
</mgrwt>
</event>
<event>
 5    1  0.4023633E+001  0.9136688E+02  0.7546771E-02  0.1299575E+00
         -4   -1    0    0    0  501 -0.00000000000E+00  0.00000000000E+00  0.70920319237E+03  0.70920319237E+03  0.00000000000E+00 0.  1.
          4   -1    0    0  501    0  0.00000000000E+00 -0.00000000000E+00 -0.29427063938E+01  0.29427063938E+01  0.00000000000E+00 0. -1.
         23    2    1    2    0    0  0.00000000000E+00  0.00000000000E+00  0.70626048597E+03  0.71214589876E+03  0.91366881718E+02 0.  0.
          2    1    3    3  502    0  0.11026034384E+02 -0.29144292792E+02  0.92745876949E+02  0.97840487159E+02  0.00000000000E+00 0. -1.
         -2    1    3    3    0  502 -0.11026034384E+02  0.29144292792E+02  0.61351460902E+03  0.61430541160E+03  0.00000000000E+00 0.  1.
<mgrwt>
<rscale>  0 0.91366882E+02</rscale>
<asrwt>0</asrwt>
<pdfrwt beam="2">  1        4 0.45272463E-03 0.91366882E+02</pdfrwt>
<pdfrwt beam="1">  1       -4 0.10910805E+00 0.91366882E+02</pdfrwt>
<totfact> 0.98389048E+03</totfact>
</mgrwt>
</event>
<event>
 5    1  0.4023633E+001  0.9256289E+02  0.7546771E-02  0.1296761E+00
          2   -1    0    0  501    0  0.00000000000E+00  0.00000000000E+00  0.24619303554E+02  0.24619303554E+02  0.00000000000E+00 0. -1.
         -2   -1    0    0    0  501 -0.00000000000E+00 -0.00000000000E+00 -0.87003762599E+02  0.87003762599E+02  0.00000000000E+00 0.  1.
         23    2    1    2    0    0  0.00000000000E+00  0.00000000000E+00 -0.62384459045E+02  0.11162306615E+03  0.92562887634E+02 0.  0.
          2    1    3    3  502    0  0.12473401461E+01 -0.45215934559E+02 -0.19380687387E+02  0.49210239169E+02  0.00000000000E+00 0. -1.
         -2    1    3    3    0  502 -0.12473401461E+01  0.45215934559E+02 -0.43003771657E+02  0.62412826985E+02  0.00000000000E+00 0.  1.
<mgrwt>
<rscale>  0 0.92562888E+02</rscale>
<asrwt>0</asrwt>
<pdfrwt beam="1">  1        2 0.37875852E-02 0.92562888E+02</pdfrwt>
<pdfrwt beam="2">  1       -2 0.13385194E-01 0.92562888E+02</pdfrwt>
<totfact> 0.80062219E+04</totfact>
</mgrwt>
</event>
<event>
 5    1  0.4023633E+001  0.9217358E+02  0.7546771E-02  0.1297672E+00
          2   -1    0    0  501    0  0.00000000000E+00  0.00000000000E+00  0.10006677367E+04  0.10006677367E+04  0.00000000000E+00 0. -1.
         -2   -1    0    0    0  501 -0.00000000000E+00 -0.00000000000E+00 -0.21225748451E+01  0.21225748451E+01  0.00000000000E+00 0.  1.
         23    2    1    2    0    0  0.00000000000E+00  0.00000000000E+00  0.99854516189E+03  0.10027903116E+04  0.92173578998E+02 0.  0.
          2    1    3    3  502    0 -0.15677658219E+02 -0.20140128464E+02  0.91675952163E+03  0.91711473341E+03  0.00000000000E+00 0. -1.
         -2    1    3    3    0  502  0.15677658219E+02  0.20140128464E+02  0.81785640263E+02  0.85675578171E+02  0.00000000000E+00 0.  1.
<mgrwt>
<rscale>  0 0.92173579E+02</rscale>
<asrwt>0</asrwt>
<pdfrwt beam="1">  1        2 0.15394851E+00 0.92173579E+02</pdfrwt>
<pdfrwt beam="2">  1       -2 0.32655078E-03 0.92173579E+02</pdfrwt>
<totfact> 0.24296113E+05</totfact>
</mgrwt>
</event>
<event>
 5    1  0.4023633E+001  0.9133057E+02  0.7546771E-02  0.1299661E+00
         -3   -1    0    0    0  501 -0.00000000000E+00  0.00000000000E+00  0.11989437455E+03  0.11989437455E+03  0.00000000000E+00 0.  1.
          3   -1    0    0  501    0  0.00000000000E+00 -0.00000000000E+00 -0.17392959768E+02  0.17392959768E+02  0.00000000000E+00 0. -1.
         23    2    1    2    0    0  0.00000000000E+00  0.00000000000E+00  0.10250141478E+03  0.13728733431E+03  0.91330565155E+02 0.  0.
          2    1    3    3  502    0  0.44474404181E+01 -0.34329597290E+02  0.64814064637E+01  0.35218029560E+02  0.00000000000E+00 0. -1.
         -2    1    3    3    0  502 -0.44474404181E+01  0.34329597290E+02  0.96020008313E+02  0.10206930475E+03  0.00000000000E+00 0.  1.
<mgrwt>
<rscale>  0 0.91330565E+02</rscale>
<asrwt>0</asrwt>
<pdfrwt beam="2">  1        3 0.26758400E-02 0.91330565E+02</pdfrwt>
<pdfrwt beam="1">  1       -3 0.18445288E-01 0.91330565E+02</pdfrwt>
<totfact> 0.31957969E+04</totfact>
</mgrwt>
</event>
<event>
 5    1  0.4023633E+001  0.9122633E+02  0.7546771E-02  0.1299909E+00
         -4   -1    0    0    0  501 -0.00000000000E+00  0.00000000000E+00  0.28857562499E+01  0.28857562499E+01  0.00000000000E+00 0.  1.
          4   -1    0    0  501    0  0.00000000000E+00 -0.00000000000E+00 -0.72097597593E+03  0.72097597593E+03  0.00000000000E+00 0. -1.
         23    2    1    2    0    0  0.00000000000E+00  0.00000000000E+00 -0.71809021968E+03  0.72386173218E+03  0.91226332352E+02 0.  0.
          2    1    3    3  502    0  0.40706122728E+02  0.54215880094E+01 -0.51658193210E+03  0.51821161181E+03  0.00000000000E+00 0. -1.
         -2    1    3    3    0  502 -0.40706122728E+02 -0.54215880094E+01 -0.20150828758E+03  0.20565012037E+03  0.00000000000E+00 0.  1.
<mgrwt>
<rscale>  0 0.91226332E+02</rscale>
<asrwt>0</asrwt>
<pdfrwt beam="2">  1        4 0.11091933E+00 0.91226332E+02</pdfrwt>
<pdfrwt beam="1">  1       -4 0.44396271E-03 0.91226332E+02</pdfrwt>
<totfact> 0.97386058E+03</totfact>
</mgrwt>
</event>
<event>
 5    1  0.4023633E+001  0.9349170E+02  0.7546771E-02  0.1294610E+00
          2   -1    0    0  501    0  0.00000000000E+00  0.00000000000E+00  0.85708616604E+01  0.85708616604E+01  0.00000000000E+00 0. -1.
         -2   -1    0    0    0  501 -0.00000000000E+00 -0.00000000000E+00 -0.25495390583E+03  0.25495390583E+03  0.00000000000E+00 0.  1.
         23    2    1    2    0    0  0.00000000000E+00  0.00000000000E+00 -0.24638304417E+03  0.26352476749E+03  0.93491703517E+02 0.  0.
          2    1    3    3  502    0 -0.88082812972E+01 -0.18694060378E+02 -0.50036973575E+01  0.21262424605E+02  0.00000000000E+00 0. -1.
         -2    1    3    3    0  502  0.88082812972E+01  0.18694060378E+02 -0.24137934681E+03  0.24226234288E+03  0.00000000000E+00 0.  1.
<mgrwt>
<rscale>  0 0.93491704E+02</rscale>
<asrwt>0</asrwt>
<pdfrwt beam="1">  1        2 0.13185943E-02 0.93491704E+02</pdfrwt>
<pdfrwt beam="2">  1       -2 0.39223671E-01 0.93491704E+02</pdfrwt>
<totfact> 0.52153954E+04</totfact>
</mgrwt>
</event>
<event>
 5    1  0.4023633E+001  0.9135793E+02  0.7546771E-02  0.1299596E+00
          4   -1    0    0  501    0  0.00000000000E+00  0.00000000000E+00  0.20780121011E+03  0.20780121011E+03  0.00000000000E+00 0. -1.
         -4   -1    0    0    0  501 -0.00000000000E+00 -0.00000000000E+00 -0.10041173793E+02  0.10041173793E+02  0.00000000000E+00 0.  1.
         23    2    1    2    0    0  0.00000000000E+00  0.00000000000E+00  0.19776003632E+03  0.21784238390E+03  0.91357934852E+02 0.  0.
          2    1    3    3  502    0  0.71216444587E+01  0.44025582474E+02  0.75323163230E+02  0.87535984892E+02  0.00000000000E+00 0.  1.
         -2    1    3    3    0  502 -0.71216444587E+01 -0.44025582474E+02  0.12243687309E+03  0.13030639901E+03  0.00000000000E+00 0. -1.
<mgrwt>
<rscale>  0 0.91357935E+02</rscale>
<asrwt>0</asrwt>
<pdfrwt beam="1">  1        4 0.31969414E-01 0.91357935E+02</pdfrwt>
<pdfrwt beam="2">  1       -4 0.15447961E-02 0.91357935E+02</pdfrwt>
<totfact> 0.20553798E+04</totfact>
</mgrwt>
</event>
<event>
 5    1  0.4023633E+001  0.9027705E+02  0.7546771E-02  0.1302182E+00
          2   -1    0    0  501    0  0.00000000000E+00  0.00000000000E+00  0.37494864058E+03  0.37494864058E+03  0.00000000000E+00 0. -1.
         -2   -1    0    0    0  501 -0.00000000000E+00 -0.00000000000E+00 -0.54340416776E+01  0.54340416776E+01  0.00000000000E+00 0.  1.
         23    2    1    2    0    0  0.00000000000E+00  0.00000000000E+00  0.36951459891E+03  0.38038268226E+03  0.90277052231E+02 0.  0.
          2    1    3    3  502    0  0.12680343818E+02  0.16187422177E+02  0.35406795232E+03  0.35466454378E+03  0.00000000000E+00 0. -1.
         -2    1    3    3    0  502 -0.12680343818E+02 -0.16187422177E+02  0.15446646586E+02  0.25718138480E+02  0.00000000000E+00 0.  1.
<mgrwt>
<rscale>  0 0.90277052E+02</rscale>
<asrwt>0</asrwt>
<pdfrwt beam="1">  1        2 0.57684386E-01 0.90277052E+02</pdfrwt>
<pdfrwt beam="2">  1       -2 0.83600671E-03 0.90277052E+02</pdfrwt>
<totfact> 0.20022700E+05</totfact>
</mgrwt>
</event>
<event>
 5    1  0.4023633E+001  0.8984563E+02  0.7546771E-02  0.1303226E+00
          1   -1    0    0  501    0  0.00000000000E+00  0.00000000000E+00  0.16084781693E+03  0.16084781693E+03  0.00000000000E+00 0.  1.
         -1   -1    0    0    0  501 -0.00000000000E+00 -0.00000000000E+00 -0.12546389780E+02  0.12546389780E+02  0.00000000000E+00 0. -1.
         23    2    1    2    0    0  0.00000000000E+00  0.00000000000E+00  0.14830142715E+03  0.17339420671E+03  0.89845632202E+02 0.  0.
          2    1    3    3  502    0  0.26181709647E+02  0.35184843887E+02  0.55379474933E+02  0.70642348512E+02  0.00000000000E+00 0. -1.
         -2    1    3    3    0  502 -0.26181709647E+02 -0.35184843887E+02  0.92921952212E+02  0.10275185819E+03  0.00000000000E+00 0.  1.
<mgrwt>
<rscale>  0 0.89845632E+02</rscale>
<asrwt>0</asrwt>
<pdfrwt beam="1">  1        1 0.24745817E-01 0.89845632E+02</pdfrwt>
<pdfrwt beam="2">  1       -1 0.19302139E-02 0.89845632E+02</pdfrwt>
<totfact> 0.11817483E+05</totfact>
</mgrwt>
</event>
<event>
 5    1  0.4023633E+001  0.8649158E+02  0.7546771E-02  0.1311577E+00
          3   -1    0    0  501    0  0.00000000000E+00  0.00000000000E+00  0.92067845938E+03  0.92067845938E+03  0.00000000000E+00 0. -1.
         -3   -1    0    0    0  501 -0.00000000000E+00 -0.00000000000E+00 -0.20313262446E+01  0.20313262446E+01  0.00000000000E+00 0.  1.
         23    2    1    2    0    0  0.00000000000E+00  0.00000000000E+00  0.91864713313E+03  0.92270978562E+03  0.86491579183E+02 0.  0.
          2    1    3    3  502    0  0.87732371633E+00  0.20340829053E+02  0.86635144110E+03  0.86659064069E+03  0.00000000000E+00 0. -1.
         -2    1    3    3    0  502 -0.87732371633E+00 -0.20340829053E+02  0.52295692030E+02  0.56119144936E+02  0.00000000000E+00 0.  1.
<mgrwt>
<rscale>  0 0.86491579E+02</rscale>
<asrwt>0</asrwt>
<pdfrwt beam="1">  1        3 0.14164251E+00 0.86491579E+02</pdfrwt>
<pdfrwt beam="2">  1       -3 0.31251246E-03 0.86491579E+02</pdfrwt>
<totfact> 0.12489278E+04</totfact>
</mgrwt>
</event>
<event>
 5    1  0.4023633E+001  0.9311106E+02  0.7546771E-02  0.1295488E+00
         -1   -1    0    0    0  501 -0.00000000000E+00  0.00000000000E+00  0.40944344185E+01  0.40944344185E+01  0.00000000000E+00 0.  1.
          1   -1    0    0  501    0  0.00000000000E+00 -0.00000000000E+00 -0.52935698137E+03  0.52935698137E+03  0.00000000000E+00 0. -1.
         23    2    1    2    0    0  0.00000000000E+00  0.00000000000E+00 -0.52526254696E+03  0.53345141579E+03  0.93111061517E+02 0.  0.
          2    1    3    3  502    0 -0.24858557812E+02  0.23335316661E+02 -0.44425059528E+03  0.44555704046E+03  0.00000000000E+00 0. -1.
         -2    1    3    3    0  502  0.24858557812E+02 -0.23335316661E+02 -0.81011951678E+02  0.87894375331E+02  0.00000000000E+00 0.  1.
<mgrwt>
<rscale>  0 0.93111062E+02</rscale>
<asrwt>0</asrwt>
<pdfrwt beam="2">  1        1 0.81439551E-01 0.93111062E+02</pdfrwt>
<pdfrwt beam="1">  1       -1 0.62991287E-03 0.93111062E+02</pdfrwt>
<totfact> 0.13255371E+05</totfact>
</mgrwt>
</event>
<event>
 5    1  0.4023633E+001  0.9108852E+02  0.7546771E-02  0.1300237E+00
          2   -1    0    0  501    0  0.00000000000E+00  0.00000000000E+00  0.32415661739E+01  0.32415661739E+01  0.00000000000E+00 0. -1.
         -2   -1    0    0    0  501 -0.00000000000E+00 -0.00000000000E+00 -0.63990043905E+03  0.63990043905E+03  0.00000000000E+00 0.  1.
         23    2    1    2    0    0  0.00000000000E+00  0.00000000000E+00 -0.63665887287E+03  0.64314200522E+03  0.91088519976E+02 0.  0.
          2    1    3    3  502    0  0.30125261800E+02 -0.12134234802E+02 -0.92885442825E+02  0.98399575921E+02  0.00000000000E+00 0. -1.
         -2    1    3    3    0  502 -0.30125261800E+02  0.12134234802E+02 -0.54377343005E+03  0.54474242930E+03  0.00000000000E+00 0.  1.
<mgrwt>
<rscale>  0 0.91088520E+02</rscale>
<asrwt>0</asrwt>
<pdfrwt beam="1">  1        2 0.49870287E-03 0.91088520E+02</pdfrwt>
<pdfrwt beam="2">  1       -2 0.98446147E-01 0.91088520E+02</pdfrwt>
<totfact> 0.29613375E+04</totfact>
</mgrwt>
</event>
<event>
 5    1  0.4023633E+001  0.9892270E+02  0.7546771E-02  0.1282578E+00
          1   -1    0    0  501    0  0.00000000000E+00  0.00000000000E+00  0.63406435002E+02  0.63406435002E+02  0.00000000000E+00 0. -1.
         -1   -1    0    0    0  501 -0.00000000000E+00 -0.00000000000E+00 -0.38583233742E+02  0.38583233742E+02  0.00000000000E+00 0.  1.
         23    2    1    2    0    0  0.00000000000E+00  0.00000000000E+00  0.24823201261E+02  0.10198966874E+03  0.98922703207E+02 0.  0.
          2    1    3    3  502    0  0.10954400058E+02 -0.47085505132E+02  0.16287795841E+01  0.48370410347E+02  0.00000000000E+00 0.  1.
         -2    1    3    3    0  502 -0.10954400058E+02  0.47085505132E+02  0.23194421676E+02  0.53619258397E+02  0.00000000000E+00 0. -1.
<mgrwt>
<rscale>  0 0.98922703E+02</rscale>
<asrwt>0</asrwt>
<pdfrwt beam="1">  1        1 0.97548362E-02 0.98922703E+02</pdfrwt>
<pdfrwt beam="2">  1       -1 0.59358821E-02 0.98922703E+02</pdfrwt>
<totfact> 0.77428807E+04</totfact>
</mgrwt>
</event>
<event>
 5    1  0.4023633E+001  0.9202683E+02  0.7546771E-02  0.1298016E+00
         -3   -1    0    0    0  501 -0.00000000000E+00  0.00000000000E+00  0.12627204459E+02  0.12627204459E+02  0.00000000000E+00 0.  1.
          3   -1    0    0  501    0  0.00000000000E+00 -0.00000000000E+00 -0.16767243757E+03  0.16767243757E+03  0.00000000000E+00 0. -1.
         23    2    1    2    0    0  0.00000000000E+00  0.00000000000E+00 -0.15504523311E+03  0.18029964202E+03  0.92026825463E+02 0.  0.
          2    1    3    3  502    0 -0.85025044929E+01 -0.43119962479E+02 -0.10421464518E+03  0.11310312116E+03  0.00000000000E+00 0. -1.
         -2    1    3    3    0  502  0.85025044929E+01  0.43119962479E+02 -0.50830587927E+02  0.67196520861E+02  0.00000000000E+00 0.  1.
<mgrwt>
<rscale>  0 0.92026825E+02</rscale>
<asrwt>0</asrwt>
<pdfrwt beam="2">  1        3 0.25795757E-01 0.92026825E+02</pdfrwt>
<pdfrwt beam="1">  1       -3 0.19426470E-02 0.92026825E+02</pdfrwt>
<totfact> 0.28816604E+04</totfact>
</mgrwt>
</event>
<event>
 5    1  0.4023633E+001  0.9302124E+02  0.7546771E-02  0.1295696E+00
          1   -1    0    0  501    0  0.00000000000E+00  0.00000000000E+00  0.68216486601E+02  0.68216486601E+02  0.00000000000E+00 0. -1.
         -1   -1    0    0    0  501 -0.00000000000E+00 -0.00000000000E+00 -0.31711362565E+02  0.31711362565E+02  0.00000000000E+00 0.  1.
         23    2    1    2    0    0  0.00000000000E+00  0.00000000000E+00  0.36505124036E+02  0.99927849166E+02  0.93021239285E+02 0.  0.
          2    1    3    3  502    0  0.34544883313E+02 -0.23629955015E+02  0.40044543810E+02  0.57924858446E+02  0.00000000000E+00 0. -1.
         -2    1    3    3    0  502 -0.34544883313E+02  0.23629955015E+02 -0.35394197741E+01  0.42002990720E+02  0.00000000000E+00 0.  1.
<mgrwt>
<rscale>  0 0.93021239E+02</rscale>
<asrwt>0</asrwt>
<pdfrwt beam="1">  1        1 0.10494844E-01 0.93021239E+02</pdfrwt>
<pdfrwt beam="2">  1       -1 0.48786712E-02 0.93021239E+02</pdfrwt>
<totfact> 0.92977657E+04</totfact>
</mgrwt>
</event>
<event>
 5    1  0.4023633E+001  0.9181327E+02  0.7546771E-02  0.1298519E+00
          2   -1    0    0  501    0  0.00000000000E+00  0.00000000000E+00  0.83480612863E+03  0.83480612863E+03  0.00000000000E+00 0. -1.
         -2   -1    0    0    0  501 -0.00000000000E+00 -0.00000000000E+00 -0.25244411732E+01  0.25244411732E+01  0.00000000000E+00 0.  1.
         23    2    1    2    0    0  0.00000000000E+00  0.00000000000E+00  0.83228168745E+03  0.83733056980E+03  0.91813266204E+02 0.  0.
          2    1    3    3  502    0 -0.38320884966E+01  0.41938710595E+02  0.58278335843E+03  0.58430298922E+03  0.00000000000E+00 0. -1.
         -2    1    3    3    0  502  0.38320884966E+01 -0.41938710595E+02  0.24949832903E+03  0.25302758058E+03  0.00000000000E+00 0.  1.
<mgrwt>
<rscale>  0 0.91813266E+02</rscale>
<asrwt>0</asrwt>
<pdfrwt beam="1">  1        2 0.12843149E+00 0.91813266E+02</pdfrwt>
<pdfrwt beam="2">  1       -2 0.38837623E-03 0.91813266E+02</pdfrwt>
<totfact> 0.24099964E+05</totfact>
</mgrwt>
</event>
<event>
 5    1  0.4023633E+001  0.8816174E+02  0.7546771E-02  0.1307365E+00
         -2   -1    0    0    0  501 -0.00000000000E+00  0.00000000000E+00  0.22765184203E+02  0.22765184203E+02  0.00000000000E+00 0.  1.
          2   -1    0    0  501    0  0.00000000000E+00 -0.00000000000E+00 -0.85355032903E+02  0.85355032903E+02  0.00000000000E+00 0. -1.
         23    2    1    2    0    0  0.00000000000E+00  0.00000000000E+00 -0.62589848700E+02  0.10812021711E+03  0.88161738791E+02 0.  0.
          2    1    3    3  502    0  0.17494011656E+02  0.38637679026E+02 -0.46022389629E+02  0.62585709483E+02  0.00000000000E+00 0. -1.
         -2    1    3    3    0  502 -0.17494011656E+02 -0.38637679026E+02 -0.16567459072E+02  0.45534507623E+02  0.00000000000E+00 0.  1.
<mgrwt>
<rscale>  0 0.88161739E+02</rscale>
<asrwt>0</asrwt>
<pdfrwt beam="2">  1        2 0.13131544E-01 0.88161739E+02</pdfrwt>
<pdfrwt beam="1">  1       -2 0.35023360E-02 0.88161739E+02</pdfrwt>
<totfact> 0.12841253E+05</totfact>
</mgrwt>
</event>
<event>
 5    1  0.4023633E+001  0.9088333E+02  0.7546771E-02  0.1300727E+00
          2   -1    0    0  501    0  0.00000000000E+00  0.00000000000E+00  0.57881364475E+03  0.57881364475E+03  0.00000000000E+00 0. -1.
         -2   -1    0    0    0  501 -0.00000000000E+00 -0.00000000000E+00 -0.35675467515E+01  0.35675467515E+01  0.00000000000E+00 0.  1.
         23    2    1    2    0    0  0.00000000000E+00  0.00000000000E+00  0.57524609800E+03  0.58238119150E+03  0.90883326041E+02 0.  0.
          2    1    3    3  502    0 -0.20995589079E+02 -0.39899697931E+02  0.25129235918E+03  0.25530501452E+03  0.00000000000E+00 0. -1.
         -2    1    3    3    0  502  0.20995589079E+02  0.39899697931E+02  0.32395373882E+03  0.32707617698E+03  0.00000000000E+00 0.  1.
<mgrwt>
<rscale>  0 0.90883326E+02</rscale>
<asrwt>0</asrwt>
<pdfrwt beam="1">  1        2 0.89048178E-01 0.90883326E+02</pdfrwt>
<pdfrwt beam="2">  1       -2 0.54885381E-03 0.90883326E+02</pdfrwt>
<totfact> 0.22742899E+05</totfact>
</mgrwt>
</event>
<event>
 5    1  0.4023633E+001  0.9335713E+02  0.7546771E-02  0.1294920E+00
          1   -1    0    0  501    0  0.00000000000E+00  0.00000000000E+00  0.83129173287E+02  0.83129173287E+02  0.00000000000E+00 0. -1.
         -1   -1    0    0    0  501 -0.00000000000E+00 -0.00000000000E+00 -0.26210873987E+02  0.26210873987E+02  0.00000000000E+00 0.  1.
         23    2    1    2    0    0  0.00000000000E+00  0.00000000000E+00  0.56918299301E+02  0.10934004727E+03  0.93357126898E+02 0.  0.
          2    1    3    3  502    0 -0.87632506426E+01 -0.20769552622E+02 -0.19413067127E+02  0.29749555513E+02  0.00000000000E+00 0.  1.
         -2    1    3    3    0  502  0.87632506426E+01  0.20769552622E+02  0.76331366428E+02  0.79590491761E+02  0.00000000000E+00 0. -1.
<mgrwt>
<rscale>  0 0.93357127E+02</rscale>
<asrwt>0</asrwt>
<pdfrwt beam="1">  1        1 0.12789103E-01 0.93357127E+02</pdfrwt>
<pdfrwt beam="2">  1       -1 0.40324422E-02 0.93357127E+02</pdfrwt>
<totfact> 0.94984978E+04</totfact>
</mgrwt>
</event>
<event>
 5    1  0.4023633E+001  0.9328393E+02  0.7546771E-02  0.1295089E+00
         -1   -1    0    0    0  501 -0.00000000000E+00  0.00000000000E+00  0.56385381832E+02  0.56385381832E+02  0.00000000000E+00 0.  1.
          1   -1    0    0  501    0  0.00000000000E+00 -0.00000000000E+00 -0.38582218592E+02  0.38582218592E+02  0.00000000000E+00 0. -1.
         23    2    1    2    0    0  0.00000000000E+00  0.00000000000E+00  0.17803163241E+02  0.94967600424E+02  0.93283934892E+02 0.  0.
          2    1    3    3  502    0 -0.33178693921E+02  0.31179484090E+02 -0.14047320368E+01  0.45551720391E+02  0.00000000000E+00 0. -1.
         -2    1    3    3    0  502  0.33178693921E+02 -0.31179484090E+02  0.19207895278E+02  0.49415880033E+02  0.00000000000E+00 0.  1.
<mgrwt>
<rscale>  0 0.93283935E+02</rscale>
<asrwt>0</asrwt>
<pdfrwt beam="2">  1        1 0.59357259E-02 0.93283935E+02</pdfrwt>
<pdfrwt beam="1">  1       -1 0.86746741E-02 0.93283935E+02</pdfrwt>
<totfact> 0.84505128E+04</totfact>
</mgrwt>
</event>
<event>
 5    1  0.4023633E+001  0.9221987E+02  0.7546771E-02  0.1297563E+00
         -3   -1    0    0    0  501 -0.00000000000E+00  0.00000000000E+00  0.11987435240E+02  0.11987435240E+02  0.00000000000E+00 0.  1.
          3   -1    0    0  501    0  0.00000000000E+00 -0.00000000000E+00 -0.17736289350E+03  0.17736289350E+03  0.00000000000E+00 0. -1.
         23    2    1    2    0    0  0.00000000000E+00  0.00000000000E+00 -0.16537545826E+03  0.18935032874E+03  0.92219872039E+02 0.  0.
          2    1    3    3  502    0 -0.18797702066E+02 -0.41144657566E+02 -0.64335573622E+02  0.78646694034E+02  0.00000000000E+00 0. -1.
         -2    1    3    3    0  502  0.18797702066E+02  0.41144657566E+02 -0.10103988464E+03  0.11070363471E+03  0.00000000000E+00 0.  1.
<mgrwt>
<rscale>  0 0.92219872E+02</rscale>
<asrwt>0</asrwt>
<pdfrwt beam="2">  1        3 0.27286599E-01 0.92219872E+02</pdfrwt>
<pdfrwt beam="1">  1       -3 0.18442208E-02 0.92219872E+02</pdfrwt>
<totfact> 0.28178069E+04</totfact>
</mgrwt>
</event>
<event>
 5    1  0.4023633E+001  0.9183365E+02  0.7546771E-02  0.1298471E+00
          1   -1    0    0  501    0  0.00000000000E+00  0.00000000000E+00  0.10425938333E+04  0.10425938333E+04  0.00000000000E+00 0. -1.
         -1   -1    0    0    0  501 -0.00000000000E+00 -0.00000000000E+00 -0.20222207372E+01  0.20222207372E+01  0.00000000000E+00 0.  1.
         23    2    1    2    0    0  0.00000000000E+00  0.00000000000E+00  0.10405716126E+04  0.10446160541E+04  0.91833651135E+02 0.  0.
          2    1    3    3  502    0  0.16208685203E+02  0.30184725990E+02  0.86802060045E+03  0.86869649589E+03  0.00000000000E+00 0. -1.
         -2    1    3    3    0  502 -0.16208685203E+02 -0.30184725990E+02  0.17255101214E+03  0.17591955818E+03  0.00000000000E+00 0.  1.
<mgrwt>
<rscale>  0 0.91833651E+02</rscale>
<asrwt>0</asrwt>
<pdfrwt beam="1">  1        1 0.16039862E+00 0.91833651E+02</pdfrwt>
<pdfrwt beam="2">  1       -1 0.31111172E-03 0.91833651E+02</pdfrwt>
<totfact> 0.13187286E+05</totfact>
</mgrwt>
</event>
<event>
 5    1  0.4023633E+001  0.8993126E+02  0.7546771E-02  0.1303018E+00
         -1   -1    0    0    0  501 -0.00000000000E+00  0.00000000000E+00  0.87642396522E+01  0.87642396522E+01  0.00000000000E+00 0.  1.
          1   -1    0    0  501    0  0.00000000000E+00 -0.00000000000E+00 -0.23069974303E+03  0.23069974303E+03  0.00000000000E+00 0. -1.
         23    2    1    2    0    0  0.00000000000E+00  0.00000000000E+00 -0.22193550338E+03  0.23946398268E+03  0.89931258984E+02 0.  0.
          2    1    3    3  502    0  0.25171870576E+02  0.19424046542E+02 -0.19563261509E+03  0.19819948723E+03  0.00000000000E+00 0. -1.
         -2    1    3    3    0  502 -0.25171870576E+02 -0.19424046542E+02 -0.26302888286E+02  0.41264495447E+02  0.00000000000E+00 0.  1.
<mgrwt>
<rscale>  0 0.89931259E+02</rscale>
<asrwt>0</asrwt>
<pdfrwt beam="2">  1        1 0.35492259E-01 0.89931259E+02</pdfrwt>
<pdfrwt beam="1">  1       -1 0.13483449E-02 0.89931259E+02</pdfrwt>
<totfact> 0.12630417E+05</totfact>
</mgrwt>
</event>
<event>
 5    1  0.4023633E+001  0.8313257E+02  0.7546771E-02  0.1320390E+00
         -2   -1    0    0    0  501 -0.00000000000E+00  0.00000000000E+00  0.32221535370E+01  0.32221535370E+01  0.00000000000E+00 0.  1.
          2   -1    0    0  501    0  0.00000000000E+00 -0.00000000000E+00 -0.53621164382E+03  0.53621164382E+03  0.00000000000E+00 0. -1.
         23    2    1    2    0    0  0.00000000000E+00  0.00000000000E+00 -0.53298949028E+03  0.53943379735E+03  0.83132574716E+02 0.  0.
          2    1    3    3  502    0  0.45401995349E+01  0.35681391707E+02 -0.40167160051E+03  0.40327887346E+03  0.00000000000E+00 0. -1.
         -2    1    3    3    0  502 -0.45401995349E+01 -0.35681391707E+02 -0.13131788977E+03  0.13615492389E+03  0.00000000000E+00 0.  1.
<mgrwt>
<rscale>  0 0.83132575E+02</rscale>
<asrwt>0</asrwt>
<pdfrwt beam="2">  1        2 0.82494140E-01 0.83132575E+02</pdfrwt>
<pdfrwt beam="1">  1       -2 0.49571568E-03 0.83132575E+02</pdfrwt>
<totfact> 0.28095899E+05</totfact>
</mgrwt>
</event>
<event>
 5    1  0.4023633E+001  0.9301032E+02  0.7546771E-02  0.1295721E+00
         -2   -1    0    0    0  501 -0.00000000000E+00  0.00000000000E+00  0.26506269346E+01  0.26506269346E+01  0.00000000000E+00 0.  1.
          2   -1    0    0  501    0  0.00000000000E+00 -0.00000000000E+00 -0.81593137595E+03  0.81593137595E+03  0.00000000000E+00 0. -1.
         23    2    1    2    0    0  0.00000000000E+00  0.00000000000E+00 -0.81328074902E+03  0.81858200289E+03  0.93010315168E+02 0.  0.
          2    1    3    3  502    0 -0.75704195375E+01  0.26685361763E+02 -0.73515517253E+03  0.73567829075E+03  0.00000000000E+00 0. -1.
         -2    1    3    3    0  502  0.75704195375E+01 -0.26685361763E+02 -0.78125576486E+02  0.82903712134E+02  0.00000000000E+00 0.  1.
<mgrwt>
<rscale>  0 0.93010315E+02</rscale>
<asrwt>0</asrwt>
<pdfrwt beam="2">  1        2 0.12552806E+00 0.93010315E+02</pdfrwt>
<pdfrwt beam="1">  1       -2 0.40778826E-03 0.93010315E+02</pdfrwt>
<totfact> 0.23204856E+05</totfact>
</mgrwt>
</event>
<event>
 5    1  0.4023633E+001  0.9186034E+02  0.7546771E-02  0.1298408E+00
         -1   -1    0    0    0  501 -0.00000000000E+00  0.00000000000E+00  0.27847654178E+03  0.27847654178E+03  0.00000000000E+00 0.  1.
          1   -1    0    0  501    0  0.00000000000E+00 -0.00000000000E+00 -0.75754329737E+01  0.75754329737E+01  0.00000000000E+00 0. -1.
         23    2    1    2    0    0  0.00000000000E+00  0.00000000000E+00  0.27090110880E+03  0.28605197475E+03  0.91860336969E+02 0.  0.
          2    1    3    3  502    0  0.27175956919E+02 -0.84639940922E+01  0.23199668940E+02  0.36720518370E+02  0.00000000000E+00 0. -1.
         -2    1    3    3    0  502 -0.27175956919E+02  0.84639940922E+01  0.24770143986E+03  0.24933145638E+03  0.00000000000E+00 0.  1.
<mgrwt>
<rscale>  0 0.91860337E+02</rscale>
<asrwt>0</asrwt>
<pdfrwt beam="2">  1        1 0.11654514E-02 0.91860337E+02</pdfrwt>
<pdfrwt beam="1">  1       -1 0.42842537E-01 0.91860337E+02</pdfrwt>
<totfact> 0.61127821E+04</totfact>
</mgrwt>
</event>
<event>
 5    1  0.4023633E+001  0.9033507E+02  0.7546771E-02  0.1302042E+00
          1   -1    0    0  501    0  0.00000000000E+00  0.00000000000E+00  0.44830639747E+03  0.44830639747E+03  0.00000000000E+00 0. -1.
         -1   -1    0    0    0  501 -0.00000000000E+00 -0.00000000000E+00 -0.45506962442E+01  0.45506962442E+01  0.00000000000E+00 0.  1.
         23    2    1    2    0    0  0.00000000000E+00  0.00000000000E+00  0.44375570122E+03  0.45285709371E+03  0.90335070470E+02 0.  0.
          2    1    3    3  502    0 -0.73509274903E+00 -0.34362860854E+02  0.36878421399E+03  0.37038242812E+03  0.00000000000E+00 0. -1.
         -2    1    3    3    0  502  0.73509274903E+00  0.34362860854E+02  0.74971487230E+02  0.82474665595E+02  0.00000000000E+00 0.  1.
<mgrwt>
<rscale>  0 0.90335070E+02</rscale>
<asrwt>0</asrwt>
<pdfrwt beam="1">  1        1 0.68970180E-01 0.90335070E+02</pdfrwt>
<pdfrwt beam="2">  1       -1 0.70010747E-03 0.90335070E+02</pdfrwt>
<totfact> 0.14069999E+05</totfact>
</mgrwt>
</event>
<event>
 5    1  0.4023633E+001  0.9147058E+02  0.7546771E-02  0.1299329E+00
          1   -1    0    0  501    0  0.00000000000E+00  0.00000000000E+00  0.88846038150E+01  0.88846038150E+01  0.00000000000E+00 0. -1.
         -1   -1    0    0    0  501 -0.00000000000E+00 -0.00000000000E+00 -0.23543160934E+03  0.23543160934E+03  0.00000000000E+00 0.  1.
         23    2    1    2    0    0  0.00000000000E+00  0.00000000000E+00 -0.22654700553E+03  0.24431621316E+03  0.91470576133E+02 0.  0.
          2    1    3    3  502    0  0.25118433349E+02  0.14155073967E+02 -0.18447462828E+02  0.34228799244E+02  0.00000000000E+00 0. -1.
         -2    1    3    3    0  502 -0.25118433349E+02 -0.14155073967E+02 -0.20809954270E+03  0.21008741391E+03  0.00000000000E+00 0.  1.
<mgrwt>
<rscale>  0 0.91470576E+02</rscale>
<asrwt>0</asrwt>
<pdfrwt beam="1">  1        1 0.13668622E-02 0.91470576E+02</pdfrwt>
<pdfrwt beam="2">  1       -1 0.36220246E-01 0.91470576E+02</pdfrwt>
<totfact> 0.65512335E+04</totfact>
</mgrwt>
</event>
<event>
 5    1  0.4023633E+001  0.9131715E+02  0.7546771E-02  0.1299693E+00
          1   -1    0    0  501    0  0.00000000000E+00  0.00000000000E+00  0.85486277174E+02  0.85486277174E+02  0.00000000000E+00 0.  1.
         -1   -1    0    0    0  501 -0.00000000000E+00 -0.00000000000E+00 -0.24386433577E+02  0.24386433577E+02  0.00000000000E+00 0. -1.
         23    2    1    2    0    0  0.00000000000E+00  0.00000000000E+00  0.61099843597E+02  0.10987271075E+03  0.91317148883E+02 0.  0.
          2    1    3    3  502    0 -0.30096080609E+02 -0.17495256272E+02  0.66097224086E+02  0.74704090195E+02  0.00000000000E+00 0.  1.
         -2    1    3    3    0  502  0.30096080609E+02  0.17495256272E+02 -0.49973804885E+01  0.35168620555E+02  0.00000000000E+00 0. -1.
<mgrwt>
<rscale>  0 0.91317149E+02</rscale>
<asrwt>0</asrwt>
<pdfrwt beam="1">  1        1 0.13151735E-01 0.91317149E+02</pdfrwt>
<pdfrwt beam="2">  1       -1 0.37517590E-02 0.91317149E+02</pdfrwt>
<totfact> 0.10138391E+05</totfact>
</mgrwt>
</event>
<event>
 5    1  0.4023633E+001  0.9117278E+02  0.7546771E-02  0.1300036E+00
          2   -1    0    0  501    0  0.00000000000E+00  0.00000000000E+00  0.12498936369E+04  0.12498936369E+04  0.00000000000E+00 0. -1.
         -2   -1    0    0    0  501 -0.00000000000E+00 -0.00000000000E+00 -0.16626366423E+01  0.16626366423E+01  0.00000000000E+00 0.  1.
         23    2    1    2    0    0  0.00000000000E+00  0.00000000000E+00  0.12482310003E+04  0.12515562736E+04  0.91172780142E+02 0.  0.
          2    1    3    3  502    0  0.25495135311E+02 -0.35968746761E+02  0.46499345605E+03  0.46707886576E+03  0.00000000000E+00 0.  1.
         -2    1    3    3    0  502 -0.25495135311E+02  0.35968746761E+02  0.78323754422E+03  0.78447740780E+03  0.00000000000E+00 0. -1.
<mgrwt>
<rscale>  0 0.91172780E+02</rscale>
<asrwt>0</asrwt>
<pdfrwt beam="1">  1        2 0.19229058E+00 0.91172780E+02</pdfrwt>
<pdfrwt beam="2">  1       -2 0.25579125E-03 0.91172780E+02</pdfrwt>
<totfact> 0.24739507E+05</totfact>
</mgrwt>
</event>
<event>
 5    1  0.4023633E+001  0.9153017E+02  0.7546771E-02  0.1299188E+00
          1   -1    0    0  501    0  0.00000000000E+00  0.00000000000E+00  0.44288696537E+02  0.44288696537E+02  0.00000000000E+00 0. -1.
         -1   -1    0    0    0  501 -0.00000000000E+00 -0.00000000000E+00 -0.47290691031E+02  0.47290691031E+02  0.00000000000E+00 0.  1.
         23    2    1    2    0    0  0.00000000000E+00  0.00000000000E+00 -0.30019944937E+01  0.91579387567E+02  0.91530171290E+02 0.  0.
          2    1    3    3  502    0 -0.23426715597E+02  0.13540044750E+02  0.35428187338E+02  0.44579146173E+02  0.00000000000E+00 0. -1.
         -2    1    3    3    0  502  0.23426715597E+02 -0.13540044750E+02 -0.38430181832E+02  0.47000241394E+02  0.00000000000E+00 0.  1.
<mgrwt>
<rscale>  0 0.91530171E+02</rscale>
<asrwt>0</asrwt>
<pdfrwt beam="1">  1        1 0.68136457E-02 0.91530171E+02</pdfrwt>
<pdfrwt beam="2">  1       -1 0.72754909E-02 0.91530171E+02</pdfrwt>
<totfact> 0.91073895E+04</totfact>
</mgrwt>
</event>
<event>
 5    1  0.4023633E+001  0.8920251E+02  0.7546771E-02  0.1304794E+00
         -1   -1    0    0    0  501 -0.00000000000E+00  0.00000000000E+00  0.42427052779E+01  0.42427052779E+01  0.00000000000E+00 0.  1.
          1   -1    0    0  501    0  0.00000000000E+00 -0.00000000000E+00 -0.46886877882E+03  0.46886877882E+03  0.00000000000E+00 0. -1.
         23    2    1    2    0    0  0.00000000000E+00  0.00000000000E+00 -0.46462607354E+03  0.47311148410E+03  0.89202512130E+02 0.  0.
          2    1    3    3  502    0  0.28300121774E+02 -0.35947539307E+01 -0.41415286803E+03  0.41513421594E+03  0.00000000000E+00 0. -1.
         -2    1    3    3    0  502 -0.28300121774E+02  0.35947539307E+01 -0.50473205516E+02  0.57977268159E+02  0.00000000000E+00 0.  1.
<mgrwt>
<rscale>  0 0.89202512E+02</rscale>
<asrwt>0</asrwt>
<pdfrwt beam="2">  1        1 0.72133587E-01 0.89202512E+02</pdfrwt>
<pdfrwt beam="1">  1       -1 0.65272453E-03 0.89202512E+02</pdfrwt>
<totfact> 0.14638371E+05</totfact>
</mgrwt>
</event>
<event>
 5    1  0.4023633E+001  0.8954186E+02  0.7546771E-02  0.1303965E+00
          1   -1    0    0  501    0  0.00000000000E+00  0.00000000000E+00  0.27101094290E+02  0.27101094290E+02  0.00000000000E+00 0. -1.
         -1   -1    0    0    0  501 -0.00000000000E+00 -0.00000000000E+00 -0.73961455262E+02  0.73961455262E+02  0.00000000000E+00 0.  1.
         23    2    1    2    0    0  0.00000000000E+00  0.00000000000E+00 -0.46860360972E+02  0.10106254955E+03  0.89541864463E+02 0.  0.
          2    1    3    3  502    0 -0.13842737408E+02  0.35548084019E+02  0.30188101897E+01  0.38267491051E+02  0.00000000000E+00 0. -1.
         -2    1    3    3    0  502  0.13842737408E+02 -0.35548084019E+02 -0.49879171162E+02  0.62795058501E+02  0.00000000000E+00 0.  1.
<mgrwt>
<rscale>  0 0.89541864E+02</rscale>
<asrwt>0</asrwt>
<pdfrwt beam="1">  1        1 0.41693991E-02 0.89541864E+02</pdfrwt>
<pdfrwt beam="2">  1       -1 0.11378685E-01 0.89541864E+02</pdfrwt>
<totfact> 0.89817717E+04</totfact>
</mgrwt>
</event>
<event>
 5    1  0.4023633E+001  0.9166438E+02  0.7546771E-02  0.1298870E+00
         -3   -1    0    0    0  501 -0.00000000000E+00  0.00000000000E+00  0.56544751607E+01  0.56544751607E+01  0.00000000000E+00 0.  1.
          3   -1    0    0  501    0  0.00000000000E+00 -0.00000000000E+00 -0.37149156882E+03  0.37149156882E+03  0.00000000000E+00 0. -1.
         23    2    1    2    0    0  0.00000000000E+00  0.00000000000E+00 -0.36583709366E+03  0.37714604399E+03  0.91664384541E+02 0.  0.
          2    1    3    3  502    0 -0.45417006878E+01 -0.20789415164E+02 -0.34993386523E+03  0.35058028590E+03  0.00000000000E+00 0. -1.
         -2    1    3    3    0  502  0.45417006878E+01  0.20789415164E+02 -0.15903228436E+02  0.26565758086E+02  0.00000000000E+00 0.  1.
<mgrwt>
<rscale>  0 0.91664385E+02</rscale>
<asrwt>0</asrwt>
<pdfrwt beam="2">  1        3 0.57152536E-01 0.91664385E+02</pdfrwt>
<pdfrwt beam="1">  1       -3 0.86991945E-03 0.91664385E+02</pdfrwt>
<totfact> 0.21020829E+04</totfact>
</mgrwt>
</event>
<event>
 5    1  0.4023633E+001  0.9186960E+02  0.7546771E-02  0.1298386E+00
         -1   -1    0    0    0  501 -0.00000000000E+00  0.00000000000E+00  0.18580664505E+01  0.18580664505E+01  0.00000000000E+00 0.  1.
          1   -1    0    0  501    0  0.00000000000E+00 -0.00000000000E+00 -0.11355923482E+04  0.11355923482E+04  0.00000000000E+00 0. -1.
         23    2    1    2    0    0  0.00000000000E+00  0.00000000000E+00 -0.11337342818E+04  0.11374504147E+04  0.91869604192E+02 0.  0.
          2    1    3    3  502    0 -0.34743183862E+02  0.29964307022E+02 -0.59471100973E+03  0.59647810824E+03  0.00000000000E+00 0. -1.
         -2    1    3    3    0  502  0.34743183862E+02 -0.29964307022E+02 -0.53902327203E+03  0.54097230642E+03  0.00000000000E+00 0.  1.
<mgrwt>
<rscale>  0 0.91869604E+02</rscale>
<asrwt>0</asrwt>
<pdfrwt beam="2">  1        1 0.17470678E+00 0.91869604E+02</pdfrwt>
<pdfrwt beam="1">  1       -1 0.28585595E-03 0.91869604E+02</pdfrwt>
<totfact> 0.12781435E+05</totfact>
</mgrwt>
</event>
<event>
 5    1  0.4023633E+001  0.9121615E+02  0.7546771E-02  0.1299933E+00
         -4   -1    0    0    0  501 -0.00000000000E+00  0.00000000000E+00  0.17250773917E+02  0.17250773917E+02  0.00000000000E+00 0.  1.
          4   -1    0    0  501    0  0.00000000000E+00 -0.00000000000E+00 -0.12057990706E+03  0.12057990706E+03  0.00000000000E+00 0. -1.
         23    2    1    2    0    0  0.00000000000E+00  0.00000000000E+00 -0.10332913314E+03  0.13783068098E+03  0.91216154614E+02 0.  0.
          2    1    3    3  502    0  0.57620946049E+01  0.40367680109E+02 -0.20795610034E+02  0.45773450037E+02  0.00000000000E+00 0. -1.
         -2    1    3    3    0  502 -0.57620946049E+01 -0.40367680109E+02 -0.82533523108E+02  0.92057230939E+02  0.00000000000E+00 0.  1.
<mgrwt>
<rscale>  0 0.91216155E+02</rscale>
<asrwt>0</asrwt>
<pdfrwt beam="2">  1        4 0.18550754E-01 0.91216155E+02</pdfrwt>
<pdfrwt beam="1">  1       -4 0.26539653E-02 0.91216155E+02</pdfrwt>
<totfact> 0.24270771E+04</totfact>
</mgrwt>
</event>
<event>
 5    1  0.4023633E+001  0.9233529E+02  0.7546771E-02  0.1297293E+00
          1   -1    0    0  501    0  0.00000000000E+00  0.00000000000E+00  0.63178952540E+02  0.63178952540E+02  0.00000000000E+00 0. -1.
         -1   -1    0    0    0  501 -0.00000000000E+00 -0.00000000000E+00 -0.33736731759E+02  0.33736731759E+02  0.00000000000E+00 0.  1.
         23    2    1    2    0    0  0.00000000000E+00  0.00000000000E+00  0.29442220782E+02  0.96915684299E+02  0.92335288479E+02 0.  0.
          2    1    3    3  502    0  0.95534408070E+00 -0.29772667403E+02  0.51743010801E+02  0.59704803604E+02  0.00000000000E+00 0. -1.
         -2    1    3    3    0  502 -0.95534408070E+00  0.29772667403E+02 -0.22300790019E+02  0.37210880695E+02  0.00000000000E+00 0.  1.
<mgrwt>
<rscale>  0 0.92335288E+02</rscale>
<asrwt>0</asrwt>
<pdfrwt beam="1">  1        1 0.97198388E-02 0.92335288E+02</pdfrwt>
<pdfrwt beam="2">  1       -1 0.51902664E-02 0.92335288E+02</pdfrwt>
<totfact> 0.93786859E+04</totfact>
</mgrwt>
</event>
<event>
 5    1  0.4023633E+001  0.8625656E+02  0.7546771E-02  0.1312179E+00
          4   -1    0    0  501    0  0.00000000000E+00  0.00000000000E+00  0.25449394061E+02  0.25449394061E+02  0.00000000000E+00 0. -1.
         -4   -1    0    0    0  501 -0.00000000000E+00 -0.00000000000E+00 -0.73088128973E+02  0.73088128973E+02  0.00000000000E+00 0.  1.
         23    2    1    2    0    0  0.00000000000E+00  0.00000000000E+00 -0.47638734912E+02  0.98537523034E+02  0.86256561383E+02 0.  0.
          2    1    3    3  502    0 -0.24882937648E+02  0.28126643094E+02 -0.48046920311E+02  0.60981761118E+02  0.00000000000E+00 0.  1.
         -2    1    3    3    0  502  0.24882937648E+02 -0.28126643094E+02  0.40818539879E+00  0.37555761916E+02  0.00000000000E+00 0. -1.
<mgrwt>
<rscale>  0 0.86256561E+02</rscale>
<asrwt>0</asrwt>
<pdfrwt beam="1">  1        4 0.39152915E-02 0.86256561E+02</pdfrwt>
<pdfrwt beam="2">  1       -4 0.11244327E-01 0.86256561E+02</pdfrwt>
<totfact> 0.30831607E+04</totfact>
</mgrwt>
</event>
<event>
 5    1  0.4023633E+001  0.9210853E+02  0.7546771E-02  0.1297824E+00
         -1   -1    0    0    0  501 -0.00000000000E+00  0.00000000000E+00  0.50326770281E+01  0.50326770281E+01  0.00000000000E+00 0.  1.
          1   -1    0    0  501    0  0.00000000000E+00 -0.00000000000E+00 -0.42144471627E+03  0.42144471627E+03  0.00000000000E+00 0. -1.
         23    2    1    2    0    0  0.00000000000E+00  0.00000000000E+00 -0.41641203924E+03  0.42647739329E+03  0.92108526037E+02 0.  0.
          2    1    3    3  502    0 -0.12685617326E+02  0.20205920672E+02 -0.39060096565E+03  0.39132891343E+03  0.00000000000E+00 0. -1.
         -2    1    3    3    0  502  0.12685617326E+02 -0.20205920672E+02 -0.25811073585E+02  0.35148479864E+02  0.00000000000E+00 0.  1.
<mgrwt>
<rscale>  0 0.92108526E+02</rscale>
<asrwt>0</asrwt>
<pdfrwt beam="2">  1        1 0.64837653E-01 0.92108526E+02</pdfrwt>
<pdfrwt beam="1">  1       -1 0.77425795E-03 0.92108526E+02</pdfrwt>
<totfact> 0.13239606E+05</totfact>
</mgrwt>
</event>
<event>
 5    1  0.4023633E+001  0.8547215E+02  0.7546771E-02  0.1314202E+00
         -1   -1    0    0    0  501 -0.00000000000E+00  0.00000000000E+00  0.15664472384E+03  0.15664472384E+03  0.00000000000E+00 0.  1.
          1   -1    0    0  501    0  0.00000000000E+00 -0.00000000000E+00 -0.11659326608E+02  0.11659326608E+02  0.00000000000E+00 0. -1.
         23    2    1    2    0    0  0.00000000000E+00  0.00000000000E+00  0.14498539724E+03  0.16830405045E+03  0.85472147434E+02 0.  0.
          2    1    3    3  502    0 -0.31706197552E+02  0.16710860857E+02  0.26656990408E+02  0.44666888982E+02  0.00000000000E+00 0. -1.
         -2    1    3    3    0  502  0.31706197552E+02 -0.16710860857E+02  0.11832840683E+03  0.12363716147E+03  0.00000000000E+00 0.  1.
<mgrwt>
<rscale>  0 0.85472147E+02</rscale>
<asrwt>0</asrwt>
<pdfrwt beam="2">  1        1 0.17937427E-02 0.85472147E+02</pdfrwt>
<pdfrwt beam="1">  1       -1 0.24099187E-01 0.85472147E+02</pdfrwt>
<totfact> 0.87510670E+04</totfact>
</mgrwt>
</event>
