<event>
 5    1  0.3858870E+001  0.9240967E+02  0.7546771E-02  0.1297119E+00
         -2   -1    0    0    0  501 -0.00000000000E+00  0.00000000000E+00  0.96363444051E+00  0.96363444051E+00  0.00000000000E+00 0.  1.
          2   -1    0    0  501    0  0.00000000000E+00 -0.00000000000E+00 -0.22154530733E+04  0.22154530733E+04  0.00000000000E+00 0. -1.
         23    2    1    2    0    0  0.00000000000E+00  0.00000000000E+00 -0.22144894388E+04  0.22164167077E+04  0.92409672280E+02 0.  0.
          2    1    3    3  502    0 -0.41680240178E+02 -0.35102025343E+01 -0.63643391835E+03  0.63780694287E+03  0.00000000000E+00 0. -1.
         -2    1    3    3    0  502  0.41680240178E+02  0.35102025343E+01 -0.15780555205E+04  0.15786097648E+04  0.00000000000E+00 0.  1.
<mgrwt>
<rscale>  0 0.92409672E+02</rscale>
<asrwt>0</asrwt>
<pdfrwt beam="2">  1        2 0.34083671E+00 0.92409672E+02</pdfrwt>
<pdfrwt beam="1">  1       -2 0.14825242E-03 0.92409672E+02</pdfrwt>
<totfact> 0.17022885E+05</totfact>
</mgrwt>
</event>
<event>
 5    1  0.3858870E+001  0.9068336E+02  0.7546771E-02  0.1301205E+00
          2   -1    0    0  501    0  0.00000000000E+00  0.00000000000E+00  0.15615573514E+03  0.15615573514E+03  0.00000000000E+00 0. -1.
         -2   -1    0    0    0  501 -0.00000000000E+00 -0.00000000000E+00 -0.13165496844E+02  0.13165496844E+02  0.00000000000E+00 0.  1.
         23    2    1    2    0    0  0.00000000000E+00  0.00000000000E+00  0.14299023829E+03  0.16932123198E+03  0.90683357639E+02 0.  0.
          2    1    3    3  502    0 -0.17746328276E+02  0.38048231544E+02  0.39519719634E+02  0.57657682323E+02  0.00000000000E+00 0. -1.
         -2    1    3    3    0  502  0.17746328276E+02 -0.38048231544E+02  0.10347051866E+03  0.11166354966E+03  0.00000000000E+00 0.  1.
<mgrwt>
<rscale>  0 0.90683358E+02</rscale>
<asrwt>0</asrwt>
<pdfrwt beam="1">  1        2 0.24023958E-01 0.90683358E+02</pdfrwt>
<pdfrwt beam="2">  1       -2 0.20254612E-02 0.90683358E+02</pdfrwt>
<totfact> 0.14384393E+05</totfact>
</mgrwt>
</event>
<event>
 5    1  0.3858870E+001  0.9330455E+02  0.7546771E-02  0.1295041E+00
         -1   -1    0    0    0  501 -0.00000000000E+00  0.00000000000E+00  0.17670665710E+01  0.17670665710E+01  0.00000000000E+00 0.  1.
          1   -1    0    0  501    0  0.00000000000E+00 -0.00000000000E+00 -0.12316653234E+04  0.12316653234E+04  0.00000000000E+00 0. -1.
         23    2    1    2    0    0  0.00000000000E+00  0.00000000000E+00 -0.12298982569E+04  0.12334323900E+04  0.93304546935E+02 0.  0.
          2    1    3    3  502    0 -0.39454833348E+02 -0.95762965248E+01 -0.91872139879E+03  0.91961807177E+03  0.00000000000E+00 0. -1.
         -2    1    3    3    0  502  0.39454833348E+02  0.95762965248E+01 -0.31117685806E+03  0.31381431822E+03  0.00000000000E+00 0.  1.
<mgrwt>
<rscale>  0 0.93304547E+02</rscale>
<asrwt>0</asrwt>
<pdfrwt beam="2">  1        1 0.18948669E+00 0.93304547E+02</pdfrwt>
<pdfrwt beam="1">  1       -1 0.27185680E-03 0.93304547E+02</pdfrwt>
<totfact> 0.11825006E+05</totfact>
</mgrwt>
</event>
<event>
 5    1  0.3858870E+001  0.9186361E+02  0.7546771E-02  0.1298400E+00
         -1   -1    0    0    0  501 -0.00000000000E+00  0.00000000000E+00  0.11946251327E+03  0.11946251327E+03  0.00000000000E+00 0.  1.
          1   -1    0    0  501    0  0.00000000000E+00 -0.00000000000E+00 -0.17660188519E+02  0.17660188519E+02  0.00000000000E+00 0. -1.
         23    2    1    2    0    0  0.00000000000E+00  0.00000000000E+00  0.10180232475E+03  0.13712270179E+03  0.91863605529E+02 0.  0.
          2    1    3    3  502    0  0.95554048892E+01  0.44925972303E+02  0.51327961521E+02  0.68878214146E+02  0.00000000000E+00 0. -1.
         -2    1    3    3    0  502 -0.95554048892E+01 -0.44925972303E+02  0.50474363227E+02  0.68244487640E+02  0.00000000000E+00 0.  1.
<mgrwt>
<rscale>  0 0.91863606E+02</rscale>
<asrwt>0</asrwt>
<pdfrwt beam="2">  1        1 0.27169522E-02 0.91863606E+02</pdfrwt>
<pdfrwt beam="1">  1       -1 0.18378848E-01 0.91863606E+02</pdfrwt>
<totfact> 0.77091035E+04</totfact>
</mgrwt>
</event>
<event>
 5    1  0.3858870E+001  0.7064775E+02  0.7546771E-02  0.1357904E+00
          1   -1    0    0  501    0  0.00000000000E+00  0.00000000000E+00  0.71255252218E+02  0.71255252218E+02  0.00000000000E+00 0. -1.
         -1   -1    0    0    0  501 -0.00000000000E+00 -0.00000000000E+00 -0.17511355838E+02  0.17511355838E+02  0.00000000000E+00 0.  1.
         23    2    1    2    0    0  0.00000000000E+00  0.00000000000E+00  0.53743896380E+02  0.88766608056E+02  0.70647748073E+02 0.  0.
          2    1    3    3  502    0 -0.63846022482E+01  0.23230759821E+02 -0.55864003354E+01  0.24731340773E+02  0.00000000000E+00 0.  1.
         -2    1    3    3    0  502  0.63846022482E+01 -0.23230759821E+02  0.59330296715E+02  0.64035267283E+02  0.00000000000E+00 0. -1.
<mgrwt>
<rscale>  0 0.70647748E+02</rscale>
<asrwt>0</asrwt>
<pdfrwt beam="1">  1        1 0.10962346E-01 0.70647748E+02</pdfrwt>
<pdfrwt beam="2">  1       -1 0.26940548E-02 0.70647748E+02</pdfrwt>
<totfact> 0.19729131E+05</totfact>
</mgrwt>
</event>
<event>
 5    1  0.3858870E+001  0.9352107E+02  0.7546771E-02  0.1294542E+00
          2   -1    0    0  501    0  0.00000000000E+00  0.00000000000E+00  0.84015848180E+03  0.84015848180E+03  0.00000000000E+00 0. -1.
         -2   -1    0    0    0  501 -0.00000000000E+00 -0.00000000000E+00 -0.26025417943E+01  0.26025417943E+01  0.00000000000E+00 0.  1.
         23    2    1    2    0    0  0.00000000000E+00  0.00000000000E+00  0.83755594000E+03  0.84276102359E+03  0.93521068486E+02 0.  0.
          2    1    3    3  502    0 -0.35053513184E+02  0.18250077290E+02  0.64401633370E+03  0.64522775217E+03  0.00000000000E+00 0. -1.
         -2    1    3    3    0  502  0.35053513184E+02 -0.18250077290E+02  0.19353960631E+03  0.19753327142E+03  0.00000000000E+00 0.  1.
<mgrwt>
<rscale>  0 0.93521068E+02</rscale>
<asrwt>0</asrwt>
<pdfrwt beam="1">  1        2 0.12925493E+00 0.93521068E+02</pdfrwt>
<pdfrwt beam="2">  1       -2 0.40039172E-03 0.93521068E+02</pdfrwt>
<totfact> 0.22978193E+05</totfact>
</mgrwt>
</event>
<event>
 5    1  0.3858870E+001  0.9012828E+02  0.7546771E-02  0.1302541E+00
         -2   -1    0    0    0  501 -0.00000000000E+00  0.00000000000E+00  0.29939108288E+03  0.29939108288E+03  0.00000000000E+00 0. -1.
          2   -1    0    0  501    0  0.00000000000E+00 -0.00000000000E+00 -0.67830236477E+01  0.67830236477E+01  0.00000000000E+00 0.  1.
         23    2    1    2    0    0  0.00000000000E+00  0.00000000000E+00  0.29260805923E+03  0.30617410653E+03  0.90128281801E+02 0.  0.
          2    1    3    3  502    0 -0.33011181886E+02 -0.29958096883E+02  0.12388551080E+03  0.13166186040E+03  0.00000000000E+00 0.  1.
         -2    1    3    3    0  502  0.33011181886E+02  0.29958096883E+02  0.16872254843E+03  0.17451224612E+03  0.00000000000E+00 0. -1.
<mgrwt>
<rscale>  0 0.90128282E+02</rscale>
<asrwt>0</asrwt>
<pdfrwt beam="2">  1        2 0.10435423E-02 0.90128282E+02</pdfrwt>
<pdfrwt beam="1">  1       -2 0.46060156E-01 0.90128282E+02</pdfrwt>
<totfact> 0.52601979E+04</totfact>
</mgrwt>
</event>
<event>
 5    1  0.3858870E+001  0.9001271E+02  0.7546771E-02  0.1302821E+00
         -2   -1    0    0    0  501 -0.00000000000E+00  0.00000000000E+00  0.11600322133E+02  0.11600322133E+02  0.00000000000E+00 0. -1.
          2   -1    0    0  501    0  0.00000000000E+00 -0.00000000000E+00 -0.17461344232E+03  0.17461344232E+03  0.00000000000E+00 0.  1.
         23    2    1    2    0    0  0.00000000000E+00  0.00000000000E+00 -0.16301312018E+03  0.18621376445E+03  0.90012714203E+02 0.  0.
          2    1    3    3  502    0  0.35826804379E+02  0.10978131879E+02 -0.29933131528E+02  0.47959062279E+02  0.00000000000E+00 0. -1.
         -2    1    3    3    0  502 -0.35826804379E+02 -0.10978131879E+02 -0.13307998865E+03  0.13825470217E+03  0.00000000000E+00 0.  1.
<mgrwt>
<rscale>  0 0.90012714E+02</rscale>
<asrwt>0</asrwt>
<pdfrwt beam="2">  1        2 0.26863604E-01 0.90012714E+02</pdfrwt>
<pdfrwt beam="1">  1       -2 0.17846651E-02 0.90012714E+02</pdfrwt>
<totfact> 0.15255396E+05</totfact>
</mgrwt>
</event>
<event>
 5    1  0.3858870E+001  0.9272393E+02  0.7546771E-02  0.1296386E+00
          2   -1    0    0  501    0  0.00000000000E+00  0.00000000000E+00  0.11531755285E+03  0.11531755285E+03  0.00000000000E+00 0. -1.
         -2   -1    0    0    0  501 -0.00000000000E+00 -0.00000000000E+00 -0.18639240230E+02  0.18639240230E+02  0.00000000000E+00 0.  1.
         23    2    1    2    0    0  0.00000000000E+00  0.00000000000E+00  0.96678312624E+02  0.13395679308E+03  0.92723925077E+02 0.  0.
          2    1    3    3  502    0 -0.45020215424E+02  0.41435490170E+01  0.63173944449E+02  0.77684850856E+02  0.00000000000E+00 0. -1.
         -2    1    3    3    0  502  0.45020215424E+02 -0.41435490170E+01  0.33504368175E+02  0.56271942228E+02  0.00000000000E+00 0.  1.
<mgrwt>
<rscale>  0 0.92723925E+02</rscale>
<asrwt>0</asrwt>
<pdfrwt beam="1">  1        2 0.17741162E-01 0.92723925E+02</pdfrwt>
<pdfrwt beam="2">  1       -2 0.28675755E-02 0.92723925E+02</pdfrwt>
<totfact> 0.12244395E+05</totfact>
</mgrwt>
</event>
<event>
 5    1  0.3858870E+001  0.8259531E+02  0.7546771E-02  0.1321844E+00
         -3   -1    0    0    0  501 -0.00000000000E+00  0.00000000000E+00  0.95938064119E+02  0.95938064119E+02  0.00000000000E+00 0.  1.
          3   -1    0    0  501    0  0.00000000000E+00 -0.00000000000E+00 -0.17777055735E+02  0.17777055735E+02  0.00000000000E+00 0. -1.
         23    2    1    2    0    0  0.00000000000E+00  0.00000000000E+00  0.78161008384E+02  0.11371511985E+03  0.82595310109E+02 0.  0.
          2    1    3    3  502    0 -0.52343827467E+01  0.26934866880E+02 -0.34128004252E+01  0.27650190294E+02  0.00000000000E+00 0. -1.
         -2    1    3    3    0  502  0.52343827467E+01 -0.26934866880E+02  0.81573808809E+02  0.86064929560E+02  0.00000000000E+00 0.  1.
<mgrwt>
<rscale>  0 0.82595310E+02</rscale>
<asrwt>0</asrwt>
<pdfrwt beam="2">  1        3 0.27349317E-02 0.82595310E+02</pdfrwt>
<pdfrwt beam="1">  1       -3 0.14759702E-01 0.82595310E+02</pdfrwt>
<totfact> 0.43979572E+04</totfact>
</mgrwt>
</event>
<event>
 5    1  0.3858870E+001  0.9168654E+02  0.7546771E-02  0.1298818E+00
         -1   -1    0    0    0  501 -0.00000000000E+00  0.00000000000E+00  0.17897096154E+02  0.17897096154E+02  0.00000000000E+00 0.  1.
          1   -1    0    0  501    0  0.00000000000E+00 -0.00000000000E+00 -0.11742716191E+03  0.11742716191E+03  0.00000000000E+00 0. -1.
         23    2    1    2    0    0  0.00000000000E+00  0.00000000000E+00 -0.99530065752E+02  0.13532425806E+03  0.91686535710E+02 0.  0.
          2    1    3    3  502    0  0.60923273158E+00 -0.40526448067E+02 -0.81380617976E+02  0.90915175519E+02  0.00000000000E+00 0. -1.
         -2    1    3    3    0  502 -0.60923273158E+00  0.40526448067E+02 -0.18149447776E+02  0.44409082540E+02  0.00000000000E+00 0.  1.
<mgrwt>
<rscale>  0 0.91686536E+02</rscale>
<asrwt>0</asrwt>
<pdfrwt beam="2">  1        1 0.18065717E-01 0.91686536E+02</pdfrwt>
<pdfrwt beam="1">  1       -1 0.27533994E-02 0.91686536E+02</pdfrwt>
<totfact> 0.10572141E+05</totfact>
</mgrwt>
</event>
<event>
 5    1  0.3858870E+001  0.9024082E+02  0.7546771E-02  0.1302270E+00
         -3   -1    0    0    0  501 -0.00000000000E+00  0.00000000000E+00  0.23288331353E+01  0.23288331353E+01  0.00000000000E+00 0.  1.
          3   -1    0    0  501    0  0.00000000000E+00 -0.00000000000E+00 -0.87419381999E+03  0.87419381999E+03  0.00000000000E+00 0. -1.
         23    2    1    2    0    0  0.00000000000E+00  0.00000000000E+00 -0.87186498686E+03  0.87652265313E+03  0.90240823017E+02 0.  0.
          2    1    3    3  502    0 -0.19692344790E+02 -0.38902862633E+02 -0.54863449194E+03  0.55036444917E+03  0.00000000000E+00 0. -1.
         -2    1    3    3    0  502  0.19692344790E+02  0.38902862633E+02 -0.32323049491E+03  0.32615820395E+03  0.00000000000E+00 0.  1.
<mgrwt>
<rscale>  0 0.90240823E+02</rscale>
<asrwt>0</asrwt>
<pdfrwt beam="2">  1        3 0.13449143E+00 0.90240823E+02</pdfrwt>
<pdfrwt beam="1">  1       -3 0.35828183E-03 0.90240823E+02</pdfrwt>
<totfact> 0.11727843E+04</totfact>
</mgrwt>
</event>
<event>
 5    1  0.3858870E+001  0.8135763E+02  0.7546771E-02  0.1325242E+00
          2   -1    0    0  501    0  0.00000000000E+00  0.00000000000E+00  0.24754110162E+03  0.24754110162E+03  0.00000000000E+00 0. -1.
         -2   -1    0    0    0  501 -0.00000000000E+00 -0.00000000000E+00 -0.66848127620E+01  0.66848127620E+01  0.00000000000E+00 0.  1.
         23    2    1    2    0    0  0.00000000000E+00  0.00000000000E+00  0.24085628886E+03  0.25422591438E+03  0.81357628167E+02 0.  0.
          2    1    3    3  502    0 -0.27746867133E+02  0.92027820337E+01  0.32035315008E+02  0.43368666576E+02  0.00000000000E+00 0.  1.
         -2    1    3    3    0  502  0.27746867133E+02 -0.92027820337E+01  0.20882097385E+03  0.21085724781E+03  0.00000000000E+00 0. -1.
<mgrwt>
<rscale>  0 0.81357628E+02</rscale>
<asrwt>0</asrwt>
<pdfrwt beam="1">  1        2 0.38083239E-01 0.81357628E+02</pdfrwt>
<pdfrwt beam="2">  1       -2 0.10284329E-02 0.81357628E+02</pdfrwt>
<totfact> 0.22646542E+05</totfact>
</mgrwt>
</event>
<event>
 5    1  0.3858870E+001  0.9043624E+02  0.7546771E-02  0.1301799E+00
          2   -1    0    0  501    0  0.00000000000E+00  0.00000000000E+00  0.50333506828E+03  0.50333506828E+03  0.00000000000E+00 0. -1.
         -2   -1    0    0    0  501 -0.00000000000E+00 -0.00000000000E+00 -0.40622610440E+01  0.40622610440E+01  0.00000000000E+00 0.  1.
         23    2    1    2    0    0  0.00000000000E+00  0.00000000000E+00  0.49927280724E+03  0.50739732932E+03  0.90436241407E+02 0.  0.
          2    1    3    3  502    0  0.27201240443E+02  0.35248754386E+02  0.29391936981E+03  0.29727256537E+03  0.00000000000E+00 0. -1.
         -2    1    3    3    0  502 -0.27201240443E+02 -0.35248754386E+02  0.20535343742E+03  0.21012476396E+03  0.00000000000E+00 0.  1.
<mgrwt>
<rscale>  0 0.90436241E+02</rscale>
<asrwt>0</asrwt>
<pdfrwt beam="1">  1        2 0.77436115E-01 0.90436241E+02</pdfrwt>
<pdfrwt beam="2">  1       -2 0.62496364E-03 0.90436241E+02</pdfrwt>
<totfact> 0.22067043E+05</totfact>
</mgrwt>
</event>
<event>
 5    1  0.3858870E+001  0.8912303E+02  0.7546771E-02  0.1304989E+00
         -4   -1    0    0    0  501 -0.00000000000E+00  0.00000000000E+00  0.70397041106E+01  0.70397041106E+01  0.00000000000E+00 0.  1.
          4   -1    0    0  501    0  0.00000000000E+00 -0.00000000000E+00 -0.28207558902E+03  0.28207558902E+03  0.00000000000E+00 0. -1.
         23    2    1    2    0    0  0.00000000000E+00  0.00000000000E+00 -0.27503588491E+03  0.28911529313E+03  0.89123031446E+02 0.  0.
          2    1    3    3  502    0  0.40723105425E+02 -0.15488841050E+02 -0.10718120344E+03  0.11569825359E+03  0.00000000000E+00 0. -1.
         -2    1    3    3    0  502 -0.40723105425E+02  0.15488841050E+02 -0.16785468147E+03  0.17341703954E+03  0.00000000000E+00 0.  1.
<mgrwt>
<rscale>  0 0.89123031E+02</rscale>
<asrwt>0</asrwt>
<pdfrwt beam="2">  1        4 0.43396240E-01 0.89123031E+02</pdfrwt>
<pdfrwt beam="1">  1       -4 0.10830315E-02 0.89123031E+02</pdfrwt>
<totfact> 0.19288156E+04</totfact>
</mgrwt>
</event>
<event>
 5    1  0.3858870E+001  0.9175252E+02  0.7546771E-02  0.1298662E+00
          1   -1    0    0  501    0  0.00000000000E+00  0.00000000000E+00  0.61927085422E+03  0.61927085422E+03  0.00000000000E+00 0. -1.
         -1   -1    0    0    0  501 -0.00000000000E+00 -0.00000000000E+00 -0.33985629903E+01  0.33985629903E+01  0.00000000000E+00 0.  1.
         23    2    1    2    0    0  0.00000000000E+00  0.00000000000E+00  0.61587229123E+03  0.62266941721E+03  0.91752515086E+02 0.  0.
          2    1    3    3  502    0  0.29847342508E+02  0.44702550972E+01  0.54241432287E+03  0.54325329699E+03  0.00000000000E+00 0. -1.
         -2    1    3    3    0  502 -0.29847342508E+02 -0.44702550972E+01  0.73457968362E+02  0.79416120223E+02  0.00000000000E+00 0.  1.
<mgrwt>
<rscale>  0 0.91752515E+02</rscale>
<asrwt>0</asrwt>
<pdfrwt beam="1">  1        1 0.95272349E-01 0.91752515E+02</pdfrwt>
<pdfrwt beam="2">  1       -1 0.52285634E-03 0.91752515E+02</pdfrwt>
<totfact> 0.13948326E+05</totfact>
</mgrwt>
</event>
<event>
 5    1  0.3858870E+001  0.8969898E+02  0.7546771E-02  0.1303582E+00
         -2   -1    0    0    0  501 -0.00000000000E+00  0.00000000000E+00  0.74410986312E+00  0.74410986312E+00  0.00000000000E+00 0.  1.
          2   -1    0    0  501    0  0.00000000000E+00 -0.00000000000E+00 -0.27031985384E+04  0.27031985384E+04  0.00000000000E+00 0. -1.
         23    2    1    2    0    0  0.00000000000E+00  0.00000000000E+00 -0.27024544286E+04  0.27039426483E+04  0.89698978688E+02 0.  0.
          2    1    3    3  502    0  0.60226954516E+01  0.44344297657E+02 -0.14405850708E+04  0.14412799991E+04  0.00000000000E+00 0. -1.
         -2    1    3    3    0  502 -0.60226954516E+01 -0.44344297657E+02 -0.12618693578E+04  0.12626626492E+04  0.00000000000E+00 0.  1.
<mgrwt>
<rscale>  0 0.89698979E+02</rscale>
<asrwt>0</asrwt>
<pdfrwt beam="2">  1        2 0.41588142E+00 0.89698979E+02</pdfrwt>
<pdfrwt beam="1">  1       -2 0.11447714E-03 0.89698979E+02</pdfrwt>
<totfact> 0.13468797E+05</totfact>
</mgrwt>
</event>
<event>
 5    1  0.3858870E+001  0.9308000E+02  0.7546771E-02  0.1295560E+00
         -3   -1    0    0    0  501 -0.00000000000E+00  0.00000000000E+00  0.69197433834E+02  0.69197433834E+02  0.00000000000E+00 0.  1.
          3   -1    0    0  501    0  0.00000000000E+00 -0.00000000000E+00 -0.31301325539E+02  0.31301325539E+02  0.00000000000E+00 0. -1.
         23    2    1    2    0    0  0.00000000000E+00  0.00000000000E+00  0.37896108295E+02  0.10049875937E+03  0.93079995765E+02 0.  0.
          2    1    3    3  502    0 -0.47823307100E+01  0.42489893040E+02 -0.89351964977E+00  0.42767511910E+02  0.00000000000E+00 0. -1.
         -2    1    3    3    0  502  0.47823307100E+01 -0.42489893040E+02  0.38789627945E+02  0.57731247464E+02  0.00000000000E+00 0.  1.
<mgrwt>
<rscale>  0 0.93079996E+02</rscale>
<asrwt>0</asrwt>
<pdfrwt beam="2">  1        3 0.48155886E-02 0.93079996E+02</pdfrwt>
<pdfrwt beam="1">  1       -3 0.10645759E-01 0.93079996E+02</pdfrwt>
<totfact> 0.32736388E+04</totfact>
</mgrwt>
</event>
<event>
 5    1  0.3858870E+001  0.9132662E+02  0.7546771E-02  0.1299671E+00
          2   -1    0    0  501    0  0.00000000000E+00  0.00000000000E+00  0.29768588104E+02  0.29768588104E+02  0.00000000000E+00 0. -1.
         -2   -1    0    0    0  501 -0.00000000000E+00 -0.00000000000E+00 -0.70044901327E+02  0.70044901327E+02  0.00000000000E+00 0.  1.
         23    2    1    2    0    0  0.00000000000E+00  0.00000000000E+00 -0.40276313223E+02  0.99813489430E+02  0.91326618603E+02 0.  0.
          2    1    3    3  502    0  0.35596139635E+01  0.35428641613E+02  0.11106578657E+02  0.37299002501E+02  0.00000000000E+00 0. -1.
         -2    1    3    3    0  502 -0.35596139635E+01 -0.35428641613E+02 -0.51382891880E+02  0.62514486929E+02  0.00000000000E+00 0.  1.
<mgrwt>
<rscale>  0 0.91326619E+02</rscale>
<asrwt>0</asrwt>
<pdfrwt beam="1">  1        2 0.45797828E-02 0.91326619E+02</pdfrwt>
<pdfrwt beam="2">  1       -2 0.10776139E-01 0.91326619E+02</pdfrwt>
<totfact> 0.87853366E+04</totfact>
</mgrwt>
</event>
<event>
 5    1  0.3858870E+001  0.9094697E+02  0.7546771E-02  0.1300575E+00
         -2   -1    0    0    0  501 -0.00000000000E+00  0.00000000000E+00  0.24633694995E+01  0.24633694995E+01  0.00000000000E+00 0.  1.
          2   -1    0    0  501    0  0.00000000000E+00 -0.00000000000E+00 -0.83943471710E+03  0.83943471710E+03  0.00000000000E+00 0. -1.
         23    2    1    2    0    0  0.00000000000E+00  0.00000000000E+00 -0.83697134760E+03  0.84189808660E+03  0.90946970900E+02 0.  0.
          2    1    3    3  502    0  0.33585163286E+02  0.17723782897E+02 -0.18692275881E+03  0.19074122112E+03  0.00000000000E+00 0.  1.
         -2    1    3    3    0  502 -0.33585163286E+02 -0.17723782897E+02 -0.65004858879E+03  0.65115686548E+03  0.00000000000E+00 0. -1.
<mgrwt>
<rscale>  0 0.90946971E+02</rscale>
<asrwt>0</asrwt>
<pdfrwt beam="2">  1        2 0.12914374E+00 0.90946971E+02</pdfrwt>
<pdfrwt beam="1">  1       -2 0.37898011E-03 0.90946971E+02</pdfrwt>
<totfact> 0.24730603E+05</totfact>
</mgrwt>
</event>
<event>
 5    1  0.3858870E+001  0.8952460E+02  0.7546771E-02  0.1304007E+00
          2   -1    0    0  501    0  0.00000000000E+00  0.00000000000E+00  0.19506342794E+04  0.19506342794E+04  0.00000000000E+00 0. -1.
         -2   -1    0    0    0  501 -0.00000000000E+00 -0.00000000000E+00 -0.10271855766E+01  0.10271855766E+01  0.00000000000E+00 0.  1.
         23    2    1    2    0    0  0.00000000000E+00  0.00000000000E+00  0.19496070938E+04  0.19516614650E+04  0.89524597670E+02 0.  0.
          2    1    3    3  502    0  0.38515032113E+02 -0.22216226596E+02  0.10874394542E+04  0.10883480762E+04  0.00000000000E+00 0. -1.
         -2    1    3    3    0  502 -0.38515032113E+02  0.22216226596E+02  0.86216763961E+03  0.86331338876E+03  0.00000000000E+00 0.  1.
<mgrwt>
<rscale>  0 0.89524598E+02</rscale>
<asrwt>0</asrwt>
<pdfrwt beam="1">  1        2 0.30009462E+00 0.89524598E+02</pdfrwt>
<pdfrwt beam="2">  1       -2 0.15803011E-03 0.89524598E+02</pdfrwt>
<totfact> 0.21125894E+05</totfact>
</mgrwt>
</event>
<event>
 5    1  0.3858870E+001  0.9375413E+02  0.7546771E-02  0.1294007E+00
         -2   -1    0    0    0  501 -0.00000000000E+00  0.00000000000E+00  0.10956614552E+01  0.10956614552E+01  0.00000000000E+00 0.  1.
          2   -1    0    0  501    0  0.00000000000E+00 -0.00000000000E+00 -0.20056006658E+04  0.20056006658E+04  0.00000000000E+00 0. -1.
         23    2    1    2    0    0  0.00000000000E+00  0.00000000000E+00 -0.20045050043E+04  0.20066963272E+04  0.93754132580E+02 0.  0.
          2    1    3    3  502    0  0.25979278599E+02 -0.30901802530E+02 -0.49231356049E+03  0.49396607794E+03  0.00000000000E+00 0.  1.
         -2    1    3    3    0  502 -0.25979278599E+02  0.30901802530E+02 -0.15121914438E+04  0.15127302493E+04  0.00000000000E+00 0. -1.
<mgrwt>
<rscale>  0 0.93754133E+02</rscale>
<asrwt>0</asrwt>
<pdfrwt beam="2">  1        2 0.30855589E+00 0.93754133E+02</pdfrwt>
<pdfrwt beam="1">  1       -2 0.16856224E-03 0.93754133E+02</pdfrwt>
<totfact> 0.18233798E+05</totfact>
</mgrwt>
</event>
<event>
 5    1  0.3858870E+001  0.8527331E+02  0.7546771E-02  0.1314719E+00
         -4   -1    0    0    0  501 -0.00000000000E+00  0.00000000000E+00  0.38095605875E+01  0.38095605875E+01  0.00000000000E+00 0.  1.
          4   -1    0    0  501    0  0.00000000000E+00 -0.00000000000E+00 -0.47719004152E+03  0.47719004152E+03  0.00000000000E+00 0. -1.
         23    2    1    2    0    0  0.00000000000E+00  0.00000000000E+00 -0.47338048094E+03  0.48099960211E+03  0.85273310594E+02 0.  0.
          2    1    3    3  502    0 -0.35975766312E+02 -0.22649243129E+02 -0.25508993222E+03  0.25860803834E+03  0.00000000000E+00 0. -1.
         -2    1    3    3    0  502  0.35975766312E+02  0.22649243129E+02 -0.21829054872E+03  0.22239156377E+03  0.00000000000E+00 0.  1.
<mgrwt>
<rscale>  0 0.85273311E+02</rscale>
<asrwt>0</asrwt>
<pdfrwt beam="2">  1        4 0.73413820E-01 0.85273311E+02</pdfrwt>
<pdfrwt beam="1">  1       -4 0.58608650E-03 0.85273311E+02</pdfrwt>
<totfact> 0.16006944E+04</totfact>
</mgrwt>
</event>
<event>
 5    1  0.3858870E+001  0.9135083E+02  0.7546771E-02  0.1299613E+00
          3   -1    0    0  501    0  0.00000000000E+00  0.00000000000E+00  0.10774008378E+04  0.10774008378E+04  0.00000000000E+00 0. -1.
         -3   -1    0    0    0  501 -0.00000000000E+00 -0.00000000000E+00 -0.19363669498E+01  0.19363669498E+01  0.00000000000E+00 0.  1.
         23    2    1    2    0    0  0.00000000000E+00  0.00000000000E+00  0.10754644708E+04  0.10793372047E+04  0.91350826466E+02 0.  0.
          2    1    3    3  502    0 -0.36935294106E+01 -0.38481208649E+02  0.25030273628E+03  0.25327041945E+03  0.00000000000E+00 0. -1.
         -2    1    3    3    0  502  0.36935294106E+01  0.38481208649E+02  0.82516173456E+03  0.82606678529E+03  0.00000000000E+00 0.  1.
<mgrwt>
<rscale>  0 0.91350826E+02</rscale>
<asrwt>0</asrwt>
<pdfrwt beam="1">  1        3 0.16575350E+00 0.91350826E+02</pdfrwt>
<pdfrwt beam="2">  1       -3 0.29790347E-03 0.91350826E+02</pdfrwt>
<totfact> 0.91942383E+03</totfact>
</mgrwt>
</event>
<event>
 5    1  0.3858870E+001  0.9076927E+02  0.7546771E-02  0.1300999E+00
          2   -1    0    0  501    0  0.00000000000E+00  0.00000000000E+00  0.25497633507E+04  0.25497633507E+04  0.00000000000E+00 0. -1.
         -2   -1    0    0    0  501 -0.00000000000E+00 -0.00000000000E+00 -0.80782594888E+00  0.80782594888E+00  0.00000000000E+00 0.  1.
         23    2    1    2    0    0  0.00000000000E+00  0.00000000000E+00  0.25489555247E+04  0.25505711766E+04  0.90769267886E+02 0.  0.
          2    1    3    3  502    0  0.30702598512E+02  0.30260492675E+02  0.87568452737E+03  0.87674496774E+03  0.00000000000E+00 0.  1.
         -2    1    3    3    0  502 -0.30702598512E+02 -0.30260492675E+02  0.16732709973E+04  0.16738262089E+04  0.00000000000E+00 0. -1.
<mgrwt>
<rscale>  0 0.90769268E+02</rscale>
<asrwt>0</asrwt>
<pdfrwt beam="1">  1        2 0.39226484E+00 0.90769268E+02</pdfrwt>
<pdfrwt beam="2">  1       -2 0.12428296E-03 0.90769268E+02</pdfrwt>
<totfact> 0.14542444E+05</totfact>
</mgrwt>
</event>
<event>
 5    1  0.3858870E+001  0.9031363E+02  0.7546771E-02  0.1302094E+00
          2   -1    0    0  501    0  0.00000000000E+00  0.00000000000E+00  0.51022650812E+03  0.51022650812E+03  0.00000000000E+00 0. -1.
         -2   -1    0    0    0  501 -0.00000000000E+00 -0.00000000000E+00 -0.39965349582E+01  0.39965349582E+01  0.00000000000E+00 0.  1.
         23    2    1    2    0    0  0.00000000000E+00  0.00000000000E+00  0.50622997316E+03  0.51422304308E+03  0.90313632998E+02 0.  0.
          2    1    3    3  502    0 -0.83457686964E+01 -0.42892098207E+02  0.31797227995E+03  0.32096067479E+03  0.00000000000E+00 0. -1.
         -2    1    3    3    0  502  0.83457686964E+01  0.42892098207E+02  0.18825769321E+03  0.19326236829E+03  0.00000000000E+00 0.  1.
<mgrwt>
<rscale>  0 0.90313633E+02</rscale>
<asrwt>0</asrwt>
<pdfrwt beam="1">  1        2 0.78496334E-01 0.90313633E+02</pdfrwt>
<pdfrwt beam="2">  1       -2 0.61485194E-03 0.90313633E+02</pdfrwt>
<totfact> 0.22243511E+05</totfact>
</mgrwt>
</event>
<event>
 5    1  0.3858870E+001  0.9059815E+02  0.7546771E-02  0.1301410E+00
         -2   -1    0    0    0  501 -0.00000000000E+00  0.00000000000E+00  0.31430523299E+01  0.31430523299E+01  0.00000000000E+00 0.  1.
          2   -1    0    0  501    0  0.00000000000E+00 -0.00000000000E+00 -0.65287057740E+03  0.65287057740E+03  0.00000000000E+00 0. -1.
         23    2    1    2    0    0  0.00000000000E+00  0.00000000000E+00 -0.64972752507E+03  0.65601362973E+03  0.90598154273E+02 0.  0.
          2    1    3    3  502    0  0.22291193713E+01  0.39786397176E+02 -0.16887620917E+03  0.17351397753E+03  0.00000000000E+00 0.  1.
         -2    1    3    3    0  502 -0.22291193713E+01 -0.39786397176E+02 -0.48085131590E+03  0.48249965220E+03  0.00000000000E+00 0. -1.
<mgrwt>
<rscale>  0 0.90598154E+02</rscale>
<asrwt>0</asrwt>
<pdfrwt beam="2">  1        2 0.10044170E+00 0.90598154E+02</pdfrwt>
<pdfrwt beam="1">  1       -2 0.48354615E-03 0.90598154E+02</pdfrwt>
<totfact> 0.23706874E+05</totfact>
</mgrwt>
</event>
<event>
 5    1  0.3858870E+001  0.9211253E+02  0.7546771E-02  0.1297815E+00
         -1   -1    0    0    0  501 -0.00000000000E+00  0.00000000000E+00  0.89512605649E+02  0.89512605649E+02  0.00000000000E+00 0.  1.
          1   -1    0    0  501    0  0.00000000000E+00 -0.00000000000E+00 -0.23696993904E+02  0.23696993904E+02  0.00000000000E+00 0. -1.
         23    2    1    2    0    0  0.00000000000E+00  0.00000000000E+00  0.65815611745E+02  0.11320959955E+03  0.92112532706E+02 0.  0.
          2    1    3    3  502    0 -0.24026272346E+02 -0.38413652293E+02  0.22749899401E+02  0.50699392186E+02  0.00000000000E+00 0.  1.
         -2    1    3    3    0  502  0.24026272346E+02  0.38413652293E+02  0.43065712344E+02  0.62510207367E+02  0.00000000000E+00 0. -1.
<mgrwt>
<rscale>  0 0.92112533E+02</rscale>
<asrwt>0</asrwt>
<pdfrwt beam="2">  1        1 0.36456914E-02 0.92112533E+02</pdfrwt>
<pdfrwt beam="1">  1       -1 0.13771170E-01 0.92112533E+02</pdfrwt>
<totfact> 0.80870992E+04</totfact>
</mgrwt>
</event>
<event>
 5    1  0.3858870E+001  0.9023948E+02  0.7546771E-02  0.1302273E+00
          1   -1    0    0  501    0  0.00000000000E+00  0.00000000000E+00  0.13858563576E+04  0.13858563576E+04  0.00000000000E+00 0. -1.
         -1   -1    0    0    0  501 -0.00000000000E+00 -0.00000000000E+00 -0.14689769631E+01  0.14689769631E+01  0.00000000000E+00 0.  1.
         23    2    1    2    0    0  0.00000000000E+00  0.00000000000E+00  0.13843873806E+04  0.13873253345E+04  0.90239482787E+02 0.  0.
          2    1    3    3  502    0  0.31756060631E+02  0.10074349733E+02  0.11599851684E+04  0.11604634982E+04  0.00000000000E+00 0. -1.
         -2    1    3    3    0  502 -0.31756060631E+02 -0.10074349733E+02  0.22440221223E+03  0.22686183629E+03  0.00000000000E+00 0.  1.
<mgrwt>
<rscale>  0 0.90239483E+02</rscale>
<asrwt>0</asrwt>
<pdfrwt beam="1">  1        1 0.21320762E+00 0.90239483E+02</pdfrwt>
<pdfrwt beam="2">  1       -1 0.22599756E-03 0.90239483E+02</pdfrwt>
<totfact> 0.12050018E+05</totfact>
</mgrwt>
</event>
<event>
 5    1  0.3858870E+001  0.9235786E+02  0.7546771E-02  0.1297240E+00
         -2   -1    0    0    0  501 -0.00000000000E+00  0.00000000000E+00  0.15517294171E+03  0.15517294171E+03  0.00000000000E+00 0.  1.
          2   -1    0    0  501    0  0.00000000000E+00 -0.00000000000E+00 -0.13742690784E+02  0.13742690784E+02  0.00000000000E+00 0. -1.
         23    2    1    2    0    0  0.00000000000E+00  0.00000000000E+00  0.14143025093E+03  0.16891563250E+03  0.92357863899E+02 0.  0.
          2    1    3    3  502    0  0.23309042636E+02 -0.39439272102E+02  0.81336459023E+02  0.93350882261E+02  0.00000000000E+00 0. -1.
         -2    1    3    3    0  502 -0.23309042636E+02  0.39439272102E+02  0.60093791906E+02  0.75564750236E+02  0.00000000000E+00 0.  1.
<mgrwt>
<rscale>  0 0.92357864E+02</rscale>
<asrwt>0</asrwt>
<pdfrwt beam="2">  1        2 0.21142602E-02 0.92357864E+02</pdfrwt>
<pdfrwt beam="1">  1       -2 0.23872759E-01 0.92357864E+02</pdfrwt>
<totfact> 0.66775070E+04</totfact>
</mgrwt>
</event>
<event>
 5    1  0.3858870E+001  0.9569508E+02  0.7546771E-02  0.1289618E+00
         -1   -1    0    0    0  501 -0.00000000000E+00  0.00000000000E+00  0.22057012454E+01  0.22057012454E+01  0.00000000000E+00 0.  1.
          1   -1    0    0  501    0  0.00000000000E+00 -0.00000000000E+00 -0.10379407399E+04  0.10379407399E+04  0.00000000000E+00 0. -1.
         23    2    1    2    0    0  0.00000000000E+00  0.00000000000E+00 -0.10357350387E+04  0.10401464412E+04  0.95695082063E+02 0.  0.
          2    1    3    3  502    0  0.23543787564E+02 -0.39090360156E+01 -0.96862549761E+03  0.96891947297E+03  0.00000000000E+00 0. -1.
         -2    1    3    3    0  502 -0.23543787564E+02  0.39090360156E+01 -0.67109541080E+02  0.71226968203E+02  0.00000000000E+00 0.  1.
<mgrwt>
<rscale>  0 0.95695082E+02</rscale>
<asrwt>0</asrwt>
<pdfrwt beam="2">  1        1 0.15968325E+00 0.95695082E+02</pdfrwt>
<pdfrwt beam="1">  1       -1 0.33933852E-03 0.95695082E+02</pdfrwt>
<totfact> 0.11839619E+05</totfact>
</mgrwt>
</event>
<event>
 5    1  0.3858870E+001  0.9172402E+02  0.7546771E-02  0.1298730E+00
         -1   -1    0    0    0  501 -0.00000000000E+00  0.00000000000E+00  0.14628211525E+02  0.14628211525E+02  0.00000000000E+00 0.  1.
          1   -1    0    0  501    0  0.00000000000E+00 -0.00000000000E+00 -0.14378546338E+03  0.14378546338E+03  0.00000000000E+00 0. -1.
         23    2    1    2    0    0  0.00000000000E+00  0.00000000000E+00 -0.12915725185E+03  0.15841367490E+03  0.91724024606E+02 0.  0.
          2    1    3    3  502    0  0.20003040409E+02 -0.40253393314E+02 -0.80300345431E+02  0.92025011683E+02  0.00000000000E+00 0. -1.
         -2    1    3    3    0  502 -0.20003040409E+02  0.40253393314E+02 -0.48856906420E+02  0.66388663218E+02  0.00000000000E+00 0.  1.
<mgrwt>
<rscale>  0 0.91724025E+02</rscale>
<asrwt>0</asrwt>
<pdfrwt beam="2">  1        1 0.22120841E-01 0.91724025E+02</pdfrwt>
<pdfrwt beam="1">  1       -1 0.22504940E-02 0.91724025E+02</pdfrwt>
<totfact> 0.10948227E+05</totfact>
</mgrwt>
</event>
<event>
 5    1  0.3858870E+001  0.1018183E+03  0.7546771E-02  0.1276518E+00
          1   -1    0    0  501    0  0.00000000000E+00  0.00000000000E+00  0.27155575392E+04  0.27155575392E+04  0.00000000000E+00 0. -1.
         -1   -1    0    0    0  501 -0.00000000000E+00 -0.00000000000E+00 -0.95440467967E+00  0.95440467967E+00  0.00000000000E+00 0.  1.
         23    2    1    2    0    0  0.00000000000E+00  0.00000000000E+00  0.27146031345E+04  0.27165119439E+04  0.10181828565E+03 0.  0.
          2    1    3    3  502    0  0.37429741507E+02  0.24991099607E+02  0.19921511715E+04  0.19926594869E+04  0.00000000000E+00 0.  1.
         -2    1    3    3    0  502 -0.37429741507E+02 -0.24991099607E+02  0.72245196297E+03  0.72385245694E+03  0.00000000000E+00 0. -1.
<mgrwt>
<rscale>  0 0.10181829E+03</rscale>
<asrwt>0</asrwt>
<pdfrwt beam="1">  1        1 0.41777190E+00 0.10181829E+03</pdfrwt>
<pdfrwt beam="2">  1       -1 0.14683366E-03 0.10181829E+03</pdfrwt>
<totfact> 0.31566659E+04</totfact>
</mgrwt>
</event>
<event>
 5    1  0.3858870E+001  0.9062624E+02  0.7546771E-02  0.1301342E+00
          2   -1    0    0  501    0  0.00000000000E+00  0.00000000000E+00  0.16145952606E+04  0.16145952606E+04  0.00000000000E+00 0. -1.
         -2   -1    0    0    0  501 -0.00000000000E+00 -0.00000000000E+00 -0.12716988689E+01  0.12716988689E+01  0.00000000000E+00 0.  1.
         23    2    1    2    0    0  0.00000000000E+00  0.00000000000E+00  0.16133235618E+04  0.16158669595E+04  0.90626242703E+02 0.  0.
          2    1    3    3  502    0 -0.37302007884E+02  0.22563697932E+02  0.10270040155E+04  0.10279288925E+04  0.00000000000E+00 0. -1.
         -2    1    3    3    0  502  0.37302007884E+02 -0.22563697932E+02  0.58631954627E+03  0.58793806697E+03  0.00000000000E+00 0.  1.
<mgrwt>
<rscale>  0 0.90626243E+02</rscale>
<asrwt>0</asrwt>
<pdfrwt beam="1">  1        2 0.24839763E+00 0.90626243E+02</pdfrwt>
<pdfrwt beam="2">  1       -2 0.19564727E-03 0.90626243E+02</pdfrwt>
<totfact> 0.23221458E+05</totfact>
</mgrwt>
</event>
<event>
 5    1  0.3858870E+001  0.9235919E+02  0.7546771E-02  0.1297237E+00
         -4   -1    0    0    0  501 -0.00000000000E+00  0.00000000000E+00  0.63330590429E+03  0.63330590429E+03  0.00000000000E+00 0.  1.
          4   -1    0    0  501    0  0.00000000000E+00 -0.00000000000E+00 -0.33673375778E+01  0.33673375778E+01  0.00000000000E+00 0. -1.
         23    2    1    2    0    0  0.00000000000E+00  0.00000000000E+00  0.62993856671E+03  0.63667324186E+03  0.92359185136E+02 0.  0.
          2    1    3    3  502    0 -0.33364288157E+02 -0.18005942248E+01  0.95227513708E+02  0.10091926095E+03  0.00000000000E+00 0. -1.
         -2    1    3    3    0  502  0.33364288157E+02  0.18005942248E+01  0.53471105300E+03  0.53575398091E+03  0.00000000000E+00 0.  1.
<mgrwt>
<rscale>  0 0.92359185E+02</rscale>
<asrwt>0</asrwt>
<pdfrwt beam="2">  1        4 0.51805244E-03 0.92359185E+02</pdfrwt>
<pdfrwt beam="1">  1       -4 0.97431583E-01 0.92359185E+02</pdfrwt>
<totfact> 0.10515515E+04</totfact>
</mgrwt>
</event>
<event>
 5    1  0.3858870E+001  0.1163127E+03  0.7546771E-02  0.1249307E+00
          1   -1    0    0  501    0  0.00000000000E+00  0.00000000000E+00  0.11198056042E+03  0.11198056042E+03  0.00000000000E+00 0. -1.
         -1   -1    0    0    0  501 -0.00000000000E+00 -0.00000000000E+00 -0.30203115728E+02  0.30203115728E+02  0.00000000000E+00 0.  1.
         23    2    1    2    0    0  0.00000000000E+00  0.00000000000E+00  0.81777444691E+02  0.14218367615E+03  0.11631271342E+03 0.  0.
          2    1    3    3  502    0  0.54484710216E+02  0.20255756645E+02  0.43103473795E+02  0.72365660211E+02  0.00000000000E+00 0. -1.
         -2    1    3    3    0  502 -0.54484710216E+02 -0.20255756645E+02  0.38673970896E+02  0.69818015937E+02  0.00000000000E+00 0.  1.
<mgrwt>
<rscale>  0 0.11631271E+03</rscale>
<asrwt>0</asrwt>
<pdfrwt beam="1">  1        1 0.17227778E-01 0.11631271E+03</pdfrwt>
<pdfrwt beam="2">  1       -1 0.46466332E-02 0.11631271E+03</pdfrwt>
<totfact> 0.54337168E+04</totfact>
</mgrwt>
</event>
<event>
 5    1  0.3858870E+001  0.9029402E+02  0.7546771E-02  0.1302141E+00
          2   -1    0    0  501    0  0.00000000000E+00  0.00000000000E+00  0.20920023565E+04  0.20920023565E+04  0.00000000000E+00 0. -1.
         -2   -1    0    0    0  501 -0.00000000000E+00 -0.00000000000E+00 -0.97430705535E+00  0.97430705535E+00  0.00000000000E+00 0.  1.
         23    2    1    2    0    0  0.00000000000E+00  0.00000000000E+00  0.20910280495E+04  0.20929766636E+04  0.90294023185E+02 0.  0.
          2    1    3    3  502    0  0.37279527844E+02  0.19770783316E+02  0.14175483578E+04  0.14181762915E+04  0.00000000000E+00 0. -1.
         -2    1    3    3    0  502 -0.37279527844E+02 -0.19770783316E+02  0.67347969166E+03  0.67480037207E+03  0.00000000000E+00 0.  1.
<mgrwt>
<rscale>  0 0.90294023E+02</rscale>
<asrwt>0</asrwt>
<pdfrwt beam="1">  1        2 0.32184292E+00 0.90294023E+02</pdfrwt>
<pdfrwt beam="2">  1       -2 0.14989507E-03 0.90294023E+02</pdfrwt>
<totfact> 0.19313627E+05</totfact>
</mgrwt>
</event>
<event>
 5    1  0.3858870E+001  0.9075364E+02  0.7546771E-02  0.1301037E+00
         -2   -1    0    0    0  501 -0.00000000000E+00  0.00000000000E+00  0.10819166860E+01  0.10819166860E+01  0.00000000000E+00 0.  1.
          2   -1    0    0  501    0  0.00000000000E+00 -0.00000000000E+00 -0.19031554645E+04  0.19031554645E+04  0.00000000000E+00 0. -1.
         23    2    1    2    0    0  0.00000000000E+00  0.00000000000E+00 -0.19020735479E+04  0.19042373812E+04  0.90753636909E+02 0.  0.
          2    1    3    3  502    0  0.38369869406E+02 -0.20037153210E+00 -0.14593021086E+04  0.14598064704E+04  0.00000000000E+00 0. -1.
         -2    1    3    3    0  502 -0.38369869406E+02  0.20037153210E+00 -0.44277143929E+03  0.44443091081E+03  0.00000000000E+00 0.  1.
<mgrwt>
<rscale>  0 0.90753637E+02</rscale>
<asrwt>0</asrwt>
<pdfrwt beam="2">  1        2 0.29279186E+00 0.90753637E+02</pdfrwt>
<pdfrwt beam="1">  1       -2 0.16644945E-03 0.90753637E+02</pdfrwt>
<totfact> 0.20806087E+05</totfact>
</mgrwt>
</event>
<event>
 5    1  0.3858870E+001  0.9223021E+02  0.7546771E-02  0.1297539E+00
         -4   -1    0    0    0  501 -0.00000000000E+00  0.00000000000E+00  0.17853322885E+02  0.17853322885E+02  0.00000000000E+00 0.  1.
          4   -1    0    0  501    0  0.00000000000E+00 -0.00000000000E+00 -0.11911525387E+03  0.11911525387E+03  0.00000000000E+00 0. -1.
         23    2    1    2    0    0  0.00000000000E+00  0.00000000000E+00 -0.10126193099E+03  0.13696857676E+03  0.92230213877E+02 0.  0.
          2    1    3    3  502    0 -0.84190099984E+01  0.44825805112E+02 -0.60743706214E+02  0.75960716017E+02  0.00000000000E+00 0. -1.
         -2    1    3    3    0  502  0.84190099984E+01 -0.44825805112E+02 -0.40518224774E+02  0.61007860740E+02  0.00000000000E+00 0.  1.
<mgrwt>
<rscale>  0 0.92230214E+02</rscale>
<asrwt>0</asrwt>
<pdfrwt beam="2">  1        4 0.18325424E-01 0.92230214E+02</pdfrwt>
<pdfrwt beam="1">  1       -4 0.27466651E-02 0.92230214E+02</pdfrwt>
<totfact> 0.23600406E+04</totfact>
</mgrwt>
</event>
<event>
 5    1  0.3858870E+001  0.9013905E+02  0.7546771E-02  0.1302515E+00
         -1   -1    0    0    0  501 -0.00000000000E+00  0.00000000000E+00  0.23822035161E+02  0.23822035161E+02  0.00000000000E+00 0.  1.
          1   -1    0    0  501    0  0.00000000000E+00 -0.00000000000E+00 -0.85268205928E+02  0.85268205928E+02  0.00000000000E+00 0. -1.
         23    2    1    2    0    0  0.00000000000E+00  0.00000000000E+00 -0.61446170766E+02  0.10909024109E+03  0.90139052575E+02 0.  0.
          2    1    3    3  502    0  0.10973661339E+02 -0.38076613526E+02 -0.56708475650E+02  0.69181651840E+02  0.00000000000E+00 0. -1.
         -2    1    3    3    0  502 -0.10973661339E+02  0.38076613526E+02 -0.47376951164E+01  0.39908589249E+02  0.00000000000E+00 0.  1.
<mgrwt>
<rscale>  0 0.90139053E+02</rscale>
<asrwt>0</asrwt>
<pdfrwt beam="2">  1        1 0.13118186E-01 0.90139053E+02</pdfrwt>
<pdfrwt beam="1">  1       -1 0.36649285E-02 0.90139053E+02</pdfrwt>
<totfact> 0.10500741E+05</totfact>
</mgrwt>
</event>
<event>
 5    1  0.3858870E+001  0.9136758E+02  0.7546771E-02  0.1299573E+00
          2   -1    0    0  501    0  0.00000000000E+00  0.00000000000E+00  0.18301594148E+03  0.18301594148E+03  0.00000000000E+00 0. -1.
         -2   -1    0    0    0  501 -0.00000000000E+00 -0.00000000000E+00 -0.11403425760E+02  0.11403425760E+02  0.00000000000E+00 0.  1.
         23    2    1    2    0    0  0.00000000000E+00  0.00000000000E+00  0.17161251572E+03  0.19441936724E+03  0.91367580719E+02 0.  0.
          2    1    3    3  502    0 -0.47827215544E+01 -0.19716330232E+02  0.17290396712E+03  0.17409017763E+03  0.00000000000E+00 0. -1.
         -2    1    3    3    0  502  0.47827215544E+01  0.19716330232E+02 -0.12914514001E+01  0.20329189605E+02  0.00000000000E+00 0.  1.
<mgrwt>
<rscale>  0 0.91367581E+02</rscale>
<asrwt>0</asrwt>
<pdfrwt beam="1">  1        2 0.28156296E-01 0.91367581E+02</pdfrwt>
<pdfrwt beam="2">  1       -2 0.17543733E-02 0.91367581E+02</pdfrwt>
<totfact> 0.14898597E+05</totfact>
</mgrwt>
</event>
<event>
 5    1  0.3858870E+001  0.9236557E+02  0.7546771E-02  0.1297222E+00
          2   -1    0    0  501    0  0.00000000000E+00  0.00000000000E+00  0.33826689085E+04  0.33826689085E+04  0.00000000000E+00 0.  1.
         -2   -1    0    0    0  501 -0.00000000000E+00 -0.00000000000E+00 -0.63052267057E+00  0.63052267057E+00  0.00000000000E+00 0. -1.
         23    2    1    2    0    0  0.00000000000E+00  0.00000000000E+00  0.33820383858E+04  0.33832994312E+04  0.92365565744E+02 0.  0.
          2    1    3    3  502    0 -0.44455784269E+02 -0.12473535520E+02  0.17266005182E+04  0.17272177788E+04  0.00000000000E+00 0. -1.
         -2    1    3    3    0  502  0.44455784269E+02  0.12473535520E+02  0.16554378676E+04  0.16560816524E+04  0.00000000000E+00 0.  1.
<mgrwt>
<rscale>  0 0.92365566E+02</rscale>
<asrwt>0</asrwt>
<pdfrwt beam="1">  1        2 0.52039607E+00 0.92365566E+02</pdfrwt>
<pdfrwt beam="2">  1       -2 0.97006196E-04 0.92365566E+02</pdfrwt>
<totfact> 0.68856636E+04</totfact>
</mgrwt>
</event>
<event>
 5    1  0.3858870E+001  0.1000881E+03  0.7546771E-02  0.1280111E+00
         -2   -1    0    0    0  501 -0.00000000000E+00  0.00000000000E+00  0.73889509693E+01  0.73889509693E+01  0.00000000000E+00 0.  1.
          2   -1    0    0  501    0  0.00000000000E+00 -0.00000000000E+00 -0.33893919027E+03  0.33893919027E+03  0.00000000000E+00 0. -1.
         23    2    1    2    0    0  0.00000000000E+00  0.00000000000E+00 -0.33155023930E+03  0.34632814124E+03  0.10008806239E+03 0.  0.
          2    1    3    3  502    0  0.37555098954E+02 -0.22107929271E+02 -0.25090384904E+03  0.25466033742E+03  0.00000000000E+00 0. -1.
         -2    1    3    3    0  502 -0.37555098954E+02  0.22107929271E+02 -0.80646390259E+02  0.91667803814E+02  0.00000000000E+00 0.  1.
<mgrwt>
<rscale>  0 0.10008806E+03</rscale>
<asrwt>0</asrwt>
<pdfrwt beam="2">  1        2 0.52144491E-01 0.10008806E+03</pdfrwt>
<pdfrwt beam="1">  1       -2 0.11367617E-02 0.10008806E+03</pdfrwt>
<totfact> 0.14644644E+05</totfact>
</mgrwt>
</event>
<event>
 5    1  0.3858870E+001  0.9206276E+02  0.7546771E-02  0.1297932E+00
          2   -1    0    0  501    0  0.00000000000E+00  0.00000000000E+00  0.12633468226E+04  0.12633468226E+04  0.00000000000E+00 0. -1.
         -2   -1    0    0    0  501 -0.00000000000E+00 -0.00000000000E+00 -0.16772020541E+01  0.16772020541E+01  0.00000000000E+00 0.  1.
         23    2    1    2    0    0  0.00000000000E+00  0.00000000000E+00  0.12616696205E+04  0.12650240246E+04  0.92062758722E+02 0.  0.
          2    1    3    3  502    0 -0.23912353963E+02  0.26947930052E+02  0.10245289339E+04  0.10251621960E+04  0.00000000000E+00 0. -1.
         -2    1    3    3    0  502  0.23912353963E+02 -0.26947930052E+02  0.23714068657E+03  0.23986182863E+03  0.00000000000E+00 0.  1.
<mgrwt>
<rscale>  0 0.92062759E+02</rscale>
<asrwt>0</asrwt>
<pdfrwt beam="1">  1        2 0.19436029E+00 0.92062759E+02</pdfrwt>
<pdfrwt beam="2">  1       -2 0.25803209E-03 0.92062759E+02</pdfrwt>
<totfact> 0.24074072E+05</totfact>
</mgrwt>
</event>
<event>
 5    1  0.3858870E+001  0.8988522E+02  0.7546771E-02  0.1303130E+00
          2   -1    0    0  501    0  0.00000000000E+00  0.00000000000E+00  0.55054193072E+02  0.55054193072E+02  0.00000000000E+00 0. -1.
         -2   -1    0    0    0  501 -0.00000000000E+00 -0.00000000000E+00 -0.36688183755E+02  0.36688183755E+02  0.00000000000E+00 0.  1.
         23    2    1    2    0    0  0.00000000000E+00  0.00000000000E+00  0.18366009317E+02  0.91742376826E+02  0.89885223521E+02 0.  0.
          2    1    3    3  502    0 -0.36115949030E+02 -0.26527552825E+02  0.56820440571E+01  0.45170327184E+02  0.00000000000E+00 0.  1.
         -2    1    3    3    0  502  0.36115949030E+02  0.26527552825E+02  0.12683965260E+02  0.46572049643E+02  0.00000000000E+00 0. -1.
<mgrwt>
<rscale>  0 0.89885224E+02</rscale>
<asrwt>0</asrwt>
<pdfrwt beam="1">  1        2 0.84698759E-02 0.89885224E+02</pdfrwt>
<pdfrwt beam="2">  1       -2 0.56443360E-02 0.89885224E+02</pdfrwt>
<totfact> 0.10793710E+05</totfact>
</mgrwt>
</event>
<event>
 5    1  0.3858870E+001  0.9274260E+02  0.7546771E-02  0.1296343E+00
         -3   -1    0    0    0  501 -0.00000000000E+00  0.00000000000E+00  0.58186529372E+01  0.58186529372E+01  0.00000000000E+00 0.  1.
          3   -1    0    0  501    0  0.00000000000E+00 -0.00000000000E+00 -0.36955245560E+03  0.36955245560E+03  0.00000000000E+00 0. -1.
         23    2    1    2    0    0  0.00000000000E+00  0.00000000000E+00 -0.36373380266E+03  0.37537110853E+03  0.92742600378E+02 0.  0.
          2    1    3    3  502    0  0.31868991003E+02 -0.17868827217E+02 -0.29744057381E+03  0.29967619613E+03  0.00000000000E+00 0. -1.
         -2    1    3    3    0  502 -0.31868991003E+02  0.17868827217E+02 -0.66293228844E+02  0.75694912407E+02  0.00000000000E+00 0.  1.
<mgrwt>
<rscale>  0 0.92742600E+02</rscale>
<asrwt>0</asrwt>
<pdfrwt beam="2">  1        3 0.56854242E-01 0.92742600E+02</pdfrwt>
<pdfrwt beam="1">  1       -3 0.89517708E-03 0.92742600E+02</pdfrwt>
<totfact> 0.20425600E+04</totfact>
</mgrwt>
</event>
<event>
 5    1  0.3858870E+001  0.8670035E+02  0.7546771E-02  0.1311045E+00
          1   -1    0    0  501    0  0.00000000000E+00  0.00000000000E+00  0.13951166094E+02  0.13951166094E+02  0.00000000000E+00 0. -1.
         -1   -1    0    0    0  501 -0.00000000000E+00 -0.00000000000E+00 -0.13470113189E+03  0.13470113189E+03  0.00000000000E+00 0.  1.
         23    2    1    2    0    0  0.00000000000E+00  0.00000000000E+00 -0.12074996580E+03  0.14865229798E+03  0.86700354419E+02 0.  0.
          2    1    3    3  502    0  0.21114425543E+02 -0.12043085553E+02  0.11672494247E+01  0.24335516162E+02  0.00000000000E+00 0. -1.
         -2    1    3    3    0  502 -0.21114425543E+02  0.12043085553E+02 -0.12191721522E+03  0.12431678182E+03  0.00000000000E+00 0.  1.
<mgrwt>
<rscale>  0 0.86700354E+02</rscale>
<asrwt>0</asrwt>
<pdfrwt beam="1">  1        1 0.21463332E-02 0.86700354E+02</pdfrwt>
<pdfrwt beam="2">  1       -1 0.20723251E-01 0.86700354E+02</pdfrwt>
<totfact> 0.87286587E+04</totfact>
</mgrwt>
</event>
<event>
 5    1  0.3858870E+001  0.9344515E+02  0.7546771E-02  0.1294717E+00
         -4   -1    0    0    0  501 -0.00000000000E+00  0.00000000000E+00  0.41225031920E+01  0.41225031920E+01  0.00000000000E+00 0.  1.
          4   -1    0    0  501    0  0.00000000000E+00 -0.00000000000E+00 -0.52953239466E+03  0.52953239466E+03  0.00000000000E+00 0. -1.
         23    2    1    2    0    0  0.00000000000E+00  0.00000000000E+00 -0.52540989146E+03  0.53365489785E+03  0.93445149413E+02 0.  0.
          2    1    3    3  502    0  0.22363517355E+02 -0.64094312387E+01 -0.49410460117E+03  0.49465196312E+03  0.00000000000E+00 0. -1.
         -2    1    3    3    0  502 -0.22363517355E+02  0.64094312387E+01 -0.31305290295E+02  0.39002934732E+02  0.00000000000E+00 0.  1.
<mgrwt>
<rscale>  0 0.93445149E+02</rscale>
<asrwt>0</asrwt>
<pdfrwt beam="2">  1        4 0.81466569E-01 0.93445149E+02</pdfrwt>
<pdfrwt beam="1">  1       -4 0.63423089E-03 0.93445149E+02</pdfrwt>
<totfact> 0.11686357E+04</totfact>
</mgrwt>
</event>
<event>
 5    1  0.3858870E+001  0.9193279E+02  0.7546771E-02  0.1298238E+00
          2   -1    0    0  501    0  0.00000000000E+00  0.00000000000E+00  0.48117470033E+01  0.48117470033E+01  0.00000000000E+00 0. -1.
         -2   -1    0    0    0  501 -0.00000000000E+00 -0.00000000000E+00 -0.43911478491E+03  0.43911478491E+03  0.00000000000E+00 0.  1.
         23    2    1    2    0    0  0.00000000000E+00  0.00000000000E+00 -0.43430303791E+03  0.44392653191E+03  0.91932785237E+02 0.  0.
          2    1    3    3  502    0 -0.10156484419E+02  0.18652755718E+02 -0.20302183672E+02  0.29381254798E+02  0.00000000000E+00 0. -1.
         -2    1    3    3    0  502  0.10156484419E+02 -0.18652755718E+02 -0.41400085423E+03  0.41454527711E+03  0.00000000000E+00 0.  1.
<mgrwt>
<rscale>  0 0.91932785E+02</rscale>
<asrwt>0</asrwt>
<pdfrwt beam="1">  1        2 0.74026902E-03 0.91932785E+02</pdfrwt>
<pdfrwt beam="2">  1       -2 0.67556097E-01 0.91932785E+02</pdfrwt>
<totfact> 0.39158723E+04</totfact>
</mgrwt>
</event>
<event>
 5    1  0.3858870E+001  0.1104054E+03  0.7546771E-02  0.1259821E+00
         -1   -1    0    0    0  501 -0.00000000000E+00  0.00000000000E+00  0.63588124973E+02  0.63588124973E+02  0.00000000000E+00 0.  1.
          1   -1    0    0  501    0  0.00000000000E+00 -0.00000000000E+00 -0.47923096580E+02  0.47923096580E+02  0.00000000000E+00 0. -1.
         23    2    1    2    0    0  0.00000000000E+00  0.00000000000E+00  0.15665028394E+02  0.11151122155E+03  0.11040543201E+03 0.  0.
          2    1    3    3  502    0 -0.23038905417E+02  0.26520974334E+02 -0.35175499339E+02  0.49713871265E+02  0.00000000000E+00 0. -1.
         -2    1    3    3    0  502  0.23038905417E+02 -0.26520974334E+02  0.50840527733E+02  0.61797350288E+02  0.00000000000E+00 0.  1.
<mgrwt>
<rscale>  0 0.11040543E+03</rscale>
<asrwt>0</asrwt>
<pdfrwt beam="2">  1        1 0.73727841E-02 0.11040543E+03</pdfrwt>
<pdfrwt beam="1">  1       -1 0.97827885E-02 0.11040543E+03</pdfrwt>
<totfact> 0.54033749E+04</totfact>
</mgrwt>
</event>
<event>
 5    1  0.3858870E+001  0.9189518E+02  0.7546771E-02  0.1298326E+00
          3   -1    0    0  501    0  0.00000000000E+00  0.00000000000E+00  0.44476993593E+02  0.44476993593E+02  0.00000000000E+00 0. -1.
         -3   -1    0    0    0  501 -0.00000000000E+00 -0.00000000000E+00 -0.47466813707E+02  0.47466813707E+02  0.00000000000E+00 0.  1.
         23    2    1    2    0    0  0.00000000000E+00  0.00000000000E+00 -0.29898201140E+01  0.91943807300E+02  0.91895183098E+02 0.  0.
          2    1    3    3  502    0  0.25702804484E+02 -0.25140739943E+01  0.36528177731E+02  0.44735472443E+02  0.00000000000E+00 0. -1.
         -2    1    3    3    0  502 -0.25702804484E+02  0.25140739943E+01 -0.39517997845E+02  0.47208334858E+02  0.00000000000E+00 0.  1.
<mgrwt>
<rscale>  0 0.91895183E+02</rscale>
<asrwt>0</asrwt>
<pdfrwt beam="1">  1        3 0.68426144E-02 0.91895183E+02</pdfrwt>
<pdfrwt beam="2">  1       -3 0.73025867E-02 0.91895183E+02</pdfrwt>
<totfact> 0.34531784E+04</totfact>
</mgrwt>
</event>
<event>
 5    1  0.3858870E+001  0.9177666E+02  0.7546771E-02  0.1298605E+00
          2   -1    0    0  501    0  0.00000000000E+00  0.00000000000E+00  0.49404841826E+03  0.49404841826E+03  0.00000000000E+00 0. -1.
         -2   -1    0    0    0  501 -0.00000000000E+00 -0.00000000000E+00 -0.42622115272E+01  0.42622115272E+01  0.00000000000E+00 0.  1.
         23    2    1    2    0    0  0.00000000000E+00  0.00000000000E+00  0.48978620674E+03  0.49831062979E+03  0.91776660721E+02 0.  0.
          2    1    3    3  502    0  0.30100503513E+01  0.41838522646E+02  0.34592110666E+03  0.34845506799E+03  0.00000000000E+00 0. -1.
         -2    1    3    3    0  502 -0.30100503513E+01 -0.41838522646E+02  0.14386510008E+03  0.14985556180E+03  0.00000000000E+00 0.  1.
<mgrwt>
<rscale>  0 0.91776661E+02</rscale>
<asrwt>0</asrwt>
<pdfrwt beam="1">  1        2 0.76007404E-01 0.91776661E+02</pdfrwt>
<pdfrwt beam="2">  1       -2 0.65572524E-03 0.91776661E+02</pdfrwt>
<totfact> 0.21096063E+05</totfact>
</mgrwt>
</event>
<event>
 5    1  0.3858870E+001  0.9173602E+02  0.7546771E-02  0.1298701E+00
         -3   -1    0    0    0  501 -0.00000000000E+00  0.00000000000E+00  0.39565490848E+03  0.39565490848E+03  0.00000000000E+00 0.  1.
          3   -1    0    0  501    0  0.00000000000E+00 -0.00000000000E+00 -0.53174474522E+01  0.53174474522E+01  0.00000000000E+00 0. -1.
         23    2    1    2    0    0  0.00000000000E+00  0.00000000000E+00  0.39033746103E+03  0.40097235593E+03  0.91736016593E+02 0.  0.
          2    1    3    3  502    0  0.25695571449E+02  0.24440256694E+02  0.68013847826E+02  0.76703794140E+02  0.00000000000E+00 0. -1.
         -2    1    3    3    0  502 -0.25695571449E+02 -0.24440256694E+02  0.32232361320E+03  0.32426856179E+03  0.00000000000E+00 0.  1.
<mgrwt>
<rscale>  0 0.91736017E+02</rscale>
<asrwt>0</asrwt>
<pdfrwt beam="2">  1        3 0.81806915E-03 0.91736017E+02</pdfrwt>
<pdfrwt beam="1">  1       -3 0.60869963E-01 0.91736017E+02</pdfrwt>
<totfact> 0.20236604E+04</totfact>
</mgrwt>
</event>
<event>
 5    1  0.3858870E+001  0.9099352E+02  0.7546771E-02  0.1300463E+00
         -1   -1    0    0    0  501 -0.00000000000E+00  0.00000000000E+00  0.67855613432E+00  0.67855613432E+00  0.00000000000E+00 0.  1.
          1   -1    0    0  501    0  0.00000000000E+00 -0.00000000000E+00 -0.30505291873E+04  0.30505291873E+04  0.00000000000E+00 0. -1.
         23    2    1    2    0    0  0.00000000000E+00  0.00000000000E+00 -0.30498506311E+04  0.30512077434E+04  0.90993522691E+02 0.  0.
          2    1    3    3  502    0  0.49301002803E+01  0.35058716560E+02 -0.24831093141E+04  0.24833616904E+04  0.00000000000E+00 0. -1.
         -2    1    3    3    0  502 -0.49301002803E+01 -0.35058716560E+02 -0.56674131699E+03  0.56784605298E+03  0.00000000000E+00 0.  1.
<mgrwt>
<rscale>  0 0.90993523E+02</rscale>
<asrwt>0</asrwt>
<pdfrwt beam="2">  1        1 0.46932033E+00 0.90993523E+02</pdfrwt>
<pdfrwt beam="1">  1       -1 0.10439144E-03 0.90993523E+02</pdfrwt>
<totfact> 0.29877950E+04</totfact>
</mgrwt>
</event>
<event>
 5    1  0.3858870E+001  0.9301155E+02  0.7546771E-02  0.1295718E+00
          1   -1    0    0  501    0  0.00000000000E+00  0.00000000000E+00  0.58228146296E+03  0.58228146296E+03  0.00000000000E+00 0. -1.
         -1   -1    0    0    0  501 -0.00000000000E+00 -0.00000000000E+00 -0.37143323552E+01  0.37143323552E+01  0.00000000000E+00 0.  1.
         23    2    1    2    0    0  0.00000000000E+00  0.00000000000E+00  0.57856713060E+03  0.58599579531E+03  0.93011545041E+02 0.  0.
          2    1    3    3  502    0  0.14585825769E+02 -0.15648995560E+02  0.54944257605E+03  0.54985887440E+03  0.00000000000E+00 0. -1.
         -2    1    3    3    0  502 -0.14585825769E+02  0.15648995560E+02  0.29124554547E+02  0.36136920912E+02  0.00000000000E+00 0.  1.
<mgrwt>
<rscale>  0 0.93011545E+02</rscale>
<asrwt>0</asrwt>
<pdfrwt beam="1">  1        1 0.89581691E-01 0.93011545E+02</pdfrwt>
<pdfrwt beam="2">  1       -1 0.57143621E-03 0.93011545E+02</pdfrwt>
<totfact> 0.13404182E+05</totfact>
</mgrwt>
</event>
<event>
 5    1  0.3858870E+001  0.9152083E+02  0.7546771E-02  0.1299210E+00
          1   -1    0    0  501    0  0.00000000000E+00  0.00000000000E+00  0.52608992567E+03  0.52608992567E+03  0.00000000000E+00 0. -1.
         -1   -1    0    0    0  501 -0.00000000000E+00 -0.00000000000E+00 -0.39803378838E+01  0.39803378838E+01  0.00000000000E+00 0.  1.
         23    2    1    2    0    0  0.00000000000E+00  0.00000000000E+00  0.52210958779E+03  0.53007026355E+03  0.91520831758E+02 0.  0.
          2    1    3    3  502    0 -0.27559101962E+02 -0.21266961106E+02  0.43308467268E+03  0.43448143970E+03  0.00000000000E+00 0. -1.
         -2    1    3    3    0  502  0.27559101962E+02  0.21266961106E+02  0.89024915111E+02  0.95588823856E+02  0.00000000000E+00 0.  1.
<mgrwt>
<rscale>  0 0.91520832E+02</rscale>
<asrwt>0</asrwt>
<pdfrwt beam="1">  1        1 0.80936856E-01 0.91520832E+02</pdfrwt>
<pdfrwt beam="2">  1       -1 0.61236009E-03 0.91520832E+02</pdfrwt>
<totfact> 0.13866334E+05</totfact>
</mgrwt>
</event>
<event>
 5    1  0.3858870E+001  0.9164457E+02  0.7546771E-02  0.1298917E+00
          1   -1    0    0  501    0  0.00000000000E+00  0.00000000000E+00  0.37714242331E+03  0.37714242331E+03  0.00000000000E+00 0. -1.
         -1   -1    0    0    0  501 -0.00000000000E+00 -0.00000000000E+00 -0.55673444806E+01  0.55673444806E+01  0.00000000000E+00 0.  1.
         23    2    1    2    0    0  0.00000000000E+00  0.00000000000E+00  0.37157507883E+03  0.38270976779E+03  0.91644569699E+02 0.  0.
          2    1    3    3  502    0  0.40418258247E+02  0.11746406099E+02  0.26142637486E+03  0.26479305718E+03  0.00000000000E+00 0. -1.
         -2    1    3    3    0  502 -0.40418258247E+02 -0.11746406099E+02  0.11014870396E+03  0.11791671061E+03  0.00000000000E+00 0.  1.
<mgrwt>
<rscale>  0 0.91644570E+02</rscale>
<asrwt>0</asrwt>
<pdfrwt beam="1">  1        1 0.58021891E-01 0.91644570E+02</pdfrwt>
<pdfrwt beam="2">  1       -1 0.85651483E-03 0.91644570E+02</pdfrwt>
<totfact> 0.13176025E+05</totfact>
</mgrwt>
</event>
<event>
 5    1  0.3858870E+001  0.9791022E+02  0.7546771E-02  0.1284753E+00
          2   -1    0    0  501    0  0.00000000000E+00  0.00000000000E+00  0.22374851072E+02  0.22374851072E+02  0.00000000000E+00 0. -1.
         -2   -1    0    0    0  501 -0.00000000000E+00 -0.00000000000E+00 -0.10711146272E+03  0.10711146272E+03  0.00000000000E+00 0.  1.
         23    2    1    2    0    0  0.00000000000E+00  0.00000000000E+00 -0.84736611647E+02  0.12948631379E+03  0.97910224725E+02 0.  0.
          2    1    3    3  502    0  0.17490302371E+01 -0.47616001379E+02 -0.27507947407E+02  0.55018450220E+02  0.00000000000E+00 0. -1.
         -2    1    3    3    0  502 -0.17490302371E+01  0.47616001379E+02 -0.57228664240E+02  0.74467863571E+02  0.00000000000E+00 0.  1.
<mgrwt>
<rscale>  0 0.97910225E+02</rscale>
<asrwt>0</asrwt>
<pdfrwt beam="1">  1        2 0.34422846E-02 0.97910225E+02</pdfrwt>
<pdfrwt beam="2">  1       -2 0.16478687E-01 0.97910225E+02</pdfrwt>
<totfact> 0.65424815E+04</totfact>
</mgrwt>
</event>
<event>
 5    1  0.3858870E+001  0.8970630E+02  0.7546771E-02  0.1303564E+00
         -1   -1    0    0    0  501 -0.00000000000E+00  0.00000000000E+00  0.34560709363E+03  0.34560709363E+03  0.00000000000E+00 0.  1.
          1   -1    0    0  501    0  0.00000000000E+00 -0.00000000000E+00 -0.58210760787E+01  0.58210760787E+01  0.00000000000E+00 0. -1.
         23    2    1    2    0    0  0.00000000000E+00  0.00000000000E+00  0.33978601755E+03  0.35142816971E+03  0.89706302686E+02 0.  0.
          2    1    3    3  502    0 -0.25968451203E+01  0.42828879308E+02  0.22108385259E+03  0.22520907260E+03  0.00000000000E+00 0. -1.
         -2    1    3    3    0  502  0.25968451203E+01 -0.42828879308E+02  0.11870216497E+03  0.12621909711E+03  0.00000000000E+00 0.  1.
<mgrwt>
<rscale>  0 0.89706303E+02</rscale>
<asrwt>0</asrwt>
<pdfrwt beam="2">  1        1 0.89555044E-03 0.89706303E+02</pdfrwt>
<pdfrwt beam="1">  1       -1 0.53170306E-01 0.89706303E+02</pdfrwt>
<totfact> 0.59588006E+04</totfact>
</mgrwt>
</event>
<event>
 5    1  0.3858870E+001  0.9134638E+02  0.7546771E-02  0.1299624E+00
         -1   -1    0    0    0  501 -0.00000000000E+00  0.00000000000E+00  0.24343058431E+01  0.24343058431E+01  0.00000000000E+00 0.  1.
          1   -1    0    0  501    0  0.00000000000E+00 -0.00000000000E+00 -0.85693428387E+03  0.85693428387E+03  0.00000000000E+00 0. -1.
         23    2    1    2    0    0  0.00000000000E+00  0.00000000000E+00 -0.85449997803E+03  0.85936858971E+03  0.91346376707E+02 0.  0.
          2    1    3    3  502    0  0.32160026172E+02 -0.22602393319E+02 -0.64605059217E+03  0.64724531911E+03  0.00000000000E+00 0. -1.
         -2    1    3    3    0  502 -0.32160026172E+02  0.22602393319E+02 -0.20844938586E+03  0.21212327061E+03  0.00000000000E+00 0.  1.
<mgrwt>
<rscale>  0 0.91346377E+02</rscale>
<asrwt>0</asrwt>
<pdfrwt beam="2">  1        1 0.13183625E+00 0.91346377E+02</pdfrwt>
<pdfrwt beam="1">  1       -1 0.37450801E-03 0.91346377E+02</pdfrwt>
<totfact> 0.13954123E+05</totfact>
</mgrwt>
</event>
<event>
 5    1  0.3858870E+001  0.9054785E+02  0.7546771E-02  0.1301530E+00
          2   -1    0    0  501    0  0.00000000000E+00  0.00000000000E+00  0.98309122433E+01  0.98309122433E+01  0.00000000000E+00 0. -1.
         -2   -1    0    0    0  501 -0.00000000000E+00 -0.00000000000E+00 -0.20849827660E+03  0.20849827660E+03  0.00000000000E+00 0.  1.
         23    2    1    2    0    0  0.00000000000E+00  0.00000000000E+00 -0.19866736435E+03  0.21832918884E+03  0.90547849452E+02 0.  0.
          2    1    3    3  502    0 -0.34944896163E+02  0.17687808171E+02 -0.44576346986E+02  0.59338478548E+02  0.00000000000E+00 0. -1.
         -2    1    3    3    0  502  0.34944896163E+02 -0.17687808171E+02 -0.15409101737E+03  0.15899071029E+03  0.00000000000E+00 0.  1.
<mgrwt>
<rscale>  0 0.90547849E+02</rscale>
<asrwt>0</asrwt>
<pdfrwt beam="1">  1        2 0.15124480E-02 0.90547849E+02</pdfrwt>
<pdfrwt beam="2">  1       -2 0.32076659E-01 0.90547849E+02</pdfrwt>
<totfact> 0.62283825E+04</totfact>
</mgrwt>
</event>
<event>
 5    1  0.3858870E+001  0.9093155E+02  0.7546771E-02  0.1300611E+00
         -2   -1    0    0    0  501 -0.00000000000E+00  0.00000000000E+00  0.50076394999E+01  0.50076394999E+01  0.00000000000E+00 0.  1.
          2   -1    0    0  501    0  0.00000000000E+00 -0.00000000000E+00 -0.41279665451E+03  0.41279665451E+03  0.00000000000E+00 0. -1.
         23    2    1    2    0    0  0.00000000000E+00  0.00000000000E+00 -0.40778901501E+03  0.41780429401E+03  0.90931552996E+02 0.  0.
          2    1    3    3  502    0  0.21521282071E+02 -0.20679987701E+02 -0.36148102822E+03  0.36271112644E+03  0.00000000000E+00 0. -1.
         -2    1    3    3    0  502 -0.21521282071E+02  0.20679987701E+02 -0.46307986783E+02  0.55093167573E+02  0.00000000000E+00 0.  1.
<mgrwt>
<rscale>  0 0.90931553E+02</rscale>
<asrwt>0</asrwt>
<pdfrwt beam="2">  1        2 0.63507184E-01 0.90931553E+02</pdfrwt>
<pdfrwt beam="1">  1       -2 0.77040600E-03 0.90931553E+02</pdfrwt>
<totfact> 0.20332247E+05</totfact>
</mgrwt>
</event>
<event>
 5    1  0.3858870E+001  0.9084926E+02  0.7546771E-02  0.1300808E+00
         -2   -1    0    0    0  501 -0.00000000000E+00  0.00000000000E+00  0.15586510556E+02  0.15586510556E+02  0.00000000000E+00 0.  1.
          2   -1    0    0  501    0  0.00000000000E+00 -0.00000000000E+00 -0.13238350550E+03  0.13238350550E+03  0.00000000000E+00 0. -1.
         23    2    1    2    0    0  0.00000000000E+00  0.00000000000E+00 -0.11679699494E+03  0.14797001606E+03  0.90849257695E+02 0.  0.
          2    1    3    3  502    0 -0.34087672710E+02  0.73910546056E+01 -0.10579460846E+03  0.11139612336E+03  0.00000000000E+00 0. -1.
         -2    1    3    3    0  502  0.34087672710E+02 -0.73910546056E+01 -0.11002386482E+02  0.36573892701E+02  0.00000000000E+00 0.  1.
<mgrwt>
<rscale>  0 0.90849258E+02</rscale>
<asrwt>0</asrwt>
<pdfrwt beam="2">  1        2 0.20366692E-01 0.90849258E+02</pdfrwt>
<pdfrwt beam="1">  1       -2 0.23979248E-02 0.90849258E+02</pdfrwt>
<totfact> 0.13540044E+05</totfact>
</mgrwt>
</event>
<event>
 5    1  0.3858870E+001  0.8982747E+02  0.7546771E-02  0.1303270E+00
          1   -1    0    0  501    0  0.00000000000E+00  0.00000000000E+00  0.53289769125E+02  0.53289769125E+02  0.00000000000E+00 0. -1.
         -1   -1    0    0    0  501 -0.00000000000E+00 -0.00000000000E+00 -0.37854239548E+02  0.37854239548E+02  0.00000000000E+00 0.  1.
         23    2    1    2    0    0  0.00000000000E+00  0.00000000000E+00  0.15435529577E+02  0.91144008673E+02  0.89827472098E+02 0.  0.
          2    1    3    3  502    0  0.28006332044E+02  0.30861522720E+02 -0.92744857397E+01  0.42694312325E+02  0.00000000000E+00 0.  1.
         -2    1    3    3    0  502 -0.28006332044E+02 -0.30861522720E+02  0.24710015317E+02  0.48449696347E+02  0.00000000000E+00 0. -1.
<mgrwt>
<rscale>  0 0.89827472E+02</rscale>
<asrwt>0</asrwt>
<pdfrwt beam="1">  1        1 0.81984260E-02 0.89827472E+02</pdfrwt>
<pdfrwt beam="2">  1       -1 0.58237292E-02 0.89827472E+02</pdfrwt>
<totfact> 0.98673837E+04</totfact>
</mgrwt>
</event>
<event>
 5    1  0.3858870E+001  0.9184150E+02  0.7546771E-02  0.1298453E+00
          2   -1    0    0  501    0  0.00000000000E+00  0.00000000000E+00  0.64928248814E+02  0.64928248814E+02  0.00000000000E+00 0. -1.
         -2   -1    0    0    0  501 -0.00000000000E+00 -0.00000000000E+00 -0.32477624172E+02  0.32477624172E+02  0.00000000000E+00 0.  1.
         23    2    1    2    0    0  0.00000000000E+00  0.00000000000E+00  0.32450624642E+02  0.97405872986E+02  0.91841499620E+02 0.  0.
          2    1    3    3  502    0  0.35080326794E+02 -0.12916050381E+02 -0.12059991694E+02  0.39279728679E+02  0.00000000000E+00 0. -1.
         -2    1    3    3    0  502 -0.35080326794E+02  0.12916050381E+02  0.44510616336E+02  0.58126144307E+02  0.00000000000E+00 0.  1.
<mgrwt>
<rscale>  0 0.91841500E+02</rscale>
<asrwt>0</asrwt>
<pdfrwt beam="1">  1        2 0.99889613E-02 0.91841500E+02</pdfrwt>
<pdfrwt beam="2">  1       -2 0.49965576E-02 0.91841500E+02</pdfrwt>
<totfact> 0.10616575E+05</totfact>
</mgrwt>
</event>
<event>
 5    1  0.3858870E+001  0.8872547E+02  0.7546771E-02  0.1305968E+00
         -1   -1    0    0    0  501 -0.00000000000E+00  0.00000000000E+00  0.87879539507E+02  0.87879539507E+02  0.00000000000E+00 0.  1.
          1   -1    0    0  501    0  0.00000000000E+00 -0.00000000000E+00 -0.22394886865E+02  0.22394886865E+02  0.00000000000E+00 0. -1.
         23    2    1    2    0    0  0.00000000000E+00  0.00000000000E+00  0.65484652641E+02  0.11027442637E+03  0.88725471992E+02 0.  0.
          2    1    3    3  502    0  0.33226334116E+02  0.25395819322E+02  0.14344650290E+02  0.44212056158E+02  0.00000000000E+00 0. -1.
         -2    1    3    3    0  502 -0.33226334116E+02 -0.25395819322E+02  0.51140002351E+02  0.66062370214E+02  0.00000000000E+00 0.  1.
<mgrwt>
<rscale>  0 0.88725472E+02</rscale>
<asrwt>0</asrwt>
<pdfrwt beam="2">  1        1 0.34453673E-02 0.88725472E+02</pdfrwt>
<pdfrwt beam="1">  1       -1 0.13519929E-01 0.88725472E+02</pdfrwt>
<totfact> 0.89318992E+04</totfact>
</mgrwt>
</event>
<event>
 5    1  0.3858870E+001  0.8901896E+02  0.7546771E-02  0.1305245E+00
          1   -1    0    0  501    0  0.00000000000E+00  0.00000000000E+00  0.17076924949E+04  0.17076924949E+04  0.00000000000E+00 0. -1.
         -1   -1    0    0    0  501 -0.00000000000E+00 -0.00000000000E+00 -0.11600997328E+01  0.11600997328E+01  0.00000000000E+00 0.  1.
         23    2    1    2    0    0  0.00000000000E+00  0.00000000000E+00  0.17065323952E+04  0.17088525946E+04  0.89018955442E+02 0.  0.
          2    1    3    3  502    0 -0.40442987590E+02  0.10531104345E+02  0.11472637522E+04  0.11480246759E+04  0.00000000000E+00 0. -1.
         -2    1    3    3    0  502  0.40442987590E+02 -0.10531104345E+02  0.55926864297E+03  0.56082791872E+03  0.00000000000E+00 0.  1.
<mgrwt>
<rscale>  0 0.89018955E+02</rscale>
<asrwt>0</asrwt>
<pdfrwt beam="1">  1        1 0.26271991E+00 0.89018955E+02</pdfrwt>
<pdfrwt beam="2">  1       -1 0.17847825E-03 0.89018955E+02</pdfrwt>
<totfact> 0.10412417E+05</totfact>
</mgrwt>
</event>
<event>
 5    1  0.3858870E+001  0.9266562E+02  0.7546771E-02  0.1296522E+00
         -2   -1    0    0    0  501 -0.00000000000E+00  0.00000000000E+00  0.69670573955E+01  0.69670573955E+01  0.00000000000E+00 0.  1.
          2   -1    0    0  501    0  0.00000000000E+00 -0.00000000000E+00 -0.30812565184E+03  0.30812565184E+03  0.00000000000E+00 0. -1.
         23    2    1    2    0    0  0.00000000000E+00  0.00000000000E+00 -0.30115859445E+03  0.31509270924E+03  0.92665616092E+02 0.  0.
          2    1    3    3  502    0  0.95903385702E+01  0.18585590003E+02 -0.29116227528E+03  0.29191243429E+03  0.00000000000E+00 0. -1.
         -2    1    3    3    0  502 -0.95903385702E+01 -0.18585590003E+02 -0.99963191699E+01  0.23180274946E+02  0.00000000000E+00 0.  1.
<mgrwt>
<rscale>  0 0.92665616E+02</rscale>
<asrwt>0</asrwt>
<pdfrwt beam="2">  1        2 0.47403937E-01 0.92665616E+02</pdfrwt>
<pdfrwt beam="1">  1       -2 0.10718552E-02 0.92665616E+02</pdfrwt>
<totfact> 0.17377327E+05</totfact>
</mgrwt>
</event>
<event>
 5    1  0.3858870E+001  0.8957582E+02  0.7546771E-02  0.1303882E+00
         -2   -1    0    0    0  501 -0.00000000000E+00  0.00000000000E+00  0.19296752316E+01  0.19296752316E+01  0.00000000000E+00 0.  1.
          2   -1    0    0  501    0  0.00000000000E+00 -0.00000000000E+00 -0.10395308811E+04  0.10395308811E+04  0.00000000000E+00 0. -1.
         23    2    1    2    0    0  0.00000000000E+00  0.00000000000E+00 -0.10376012059E+04  0.10414605563E+04  0.89575822491E+02 0.  0.
          2    1    3    3  502    0  0.30144782966E+02 -0.32885438877E+01 -0.90202557612E+03  0.90253513086E+03  0.00000000000E+00 0. -1.
         -2    1    3    3    0  502 -0.30144782966E+02  0.32885438877E+01 -0.13557562976E+03  0.13892542548E+03  0.00000000000E+00 0.  1.
<mgrwt>
<rscale>  0 0.89575822E+02</rscale>
<asrwt>0</asrwt>
<pdfrwt beam="2">  1        2 0.15992831E+00 0.89575822E+02</pdfrwt>
<pdfrwt beam="1">  1       -2 0.29687223E-03 0.89575822E+02</pdfrwt>
<totfact> 0.26223799E+05</totfact>
</mgrwt>
</event>
<event>
 5    1  0.3858870E+001  0.9441064E+02  0.7546771E-02  0.1292509E+00
         -1   -1    0    0    0  501 -0.00000000000E+00  0.00000000000E+00  0.14087384072E+02  0.14087384072E+02  0.00000000000E+00 0.  1.
          1   -1    0    0  501    0  0.00000000000E+00 -0.00000000000E+00 -0.15818000146E+03  0.15818000146E+03  0.00000000000E+00 0. -1.
         23    2    1    2    0    0  0.00000000000E+00  0.00000000000E+00 -0.14409261739E+03  0.17226738553E+03  0.94410644170E+02 0.  0.
          2    1    3    3  502    0 -0.30928158558E+02  0.17359126238E+01 -0.13704055768E+03  0.14049796737E+03  0.00000000000E+00 0. -1.
         -2    1    3    3    0  502  0.30928158558E+02 -0.17359126238E+01 -0.70520597046E+01  0.31769418164E+02  0.00000000000E+00 0.  1.
<mgrwt>
<rscale>  0 0.94410644E+02</rscale>
<asrwt>0</asrwt>
<pdfrwt beam="2">  1        1 0.24335383E-01 0.94410644E+02</pdfrwt>
<pdfrwt beam="1">  1       -1 0.21672900E-02 0.94410644E+02</pdfrwt>
<totfact> 0.10306095E+05</totfact>
</mgrwt>
</event>
<event>
 5    1  0.3858870E+001  0.1205321E+03  0.7546771E-02  0.1242222E+00
          1   -1    0    0  501    0  0.00000000000E+00  0.00000000000E+00  0.14757186296E+04  0.14757186296E+04  0.00000000000E+00 0. -1.
         -1   -1    0    0    0  501 -0.00000000000E+00 -0.00000000000E+00 -0.24611731060E+01  0.24611731060E+01  0.00000000000E+00 0.  1.
         23    2    1    2    0    0  0.00000000000E+00  0.00000000000E+00  0.14732574565E+04  0.14781798027E+04  0.12053213685E+03 0.  0.
          2    1    3    3  502    0  0.42130479682E+02  0.43019079377E+02  0.76760660018E+03  0.76996461682E+03  0.00000000000E+00 0. -1.
         -2    1    3    3    0  502 -0.42130479682E+02 -0.43019079377E+02  0.70565085634E+03  0.70821518592E+03  0.00000000000E+00 0.  1.
<mgrwt>
<rscale>  0 0.12053214E+03</rscale>
<asrwt>0</asrwt>
<pdfrwt beam="1">  1        1 0.22703293E+00 0.12053214E+03</pdfrwt>
<pdfrwt beam="2">  1       -1 0.37864320E-03 0.12053214E+03</pdfrwt>
<totfact> 0.52966725E+04</totfact>
</mgrwt>
</event>
<event>
 5    1  0.3858870E+001  0.9248968E+02  0.7546771E-02  0.1296932E+00
          2   -1    0    0  501    0  0.00000000000E+00  0.00000000000E+00  0.17716490001E+04  0.17716490001E+04  0.00000000000E+00 0. -1.
         -2   -1    0    0    0  501 -0.00000000000E+00 -0.00000000000E+00 -0.12071157146E+01  0.12071157146E+01  0.00000000000E+00 0.  1.
         23    2    1    2    0    0  0.00000000000E+00  0.00000000000E+00  0.17704418844E+04  0.17728561158E+04  0.92489682642E+02 0.  0.
          2    1    3    3  502    0  0.22111896829E+02 -0.36891838269E+02  0.12108773963E+04  0.12116410412E+04  0.00000000000E+00 0. -1.
         -2    1    3    3    0  502 -0.22111896829E+02  0.36891838269E+02  0.55956448809E+03  0.56121507468E+03  0.00000000000E+00 0.  1.
<mgrwt>
<rscale>  0 0.92489683E+02</rscale>
<asrwt>0</asrwt>
<pdfrwt beam="1">  1        2 0.27255930E+00 0.92489683E+02</pdfrwt>
<pdfrwt beam="2">  1       -2 0.18571153E-03 0.92489683E+02</pdfrwt>
<totfact> 0.20862884E+05</totfact>
</mgrwt>
</event>
<event>
 5    1  0.3858870E+001  0.9273119E+02  0.7546771E-02  0.1296369E+00
         -1   -1    0    0    0  501 -0.00000000000E+00  0.00000000000E+00  0.24724373878E+02  0.24724373878E+02  0.00000000000E+00 0.  1.
          1   -1    0    0  501    0  0.00000000000E+00 -0.00000000000E+00 -0.86949358191E+02  0.86949358191E+02  0.00000000000E+00 0. -1.
         23    2    1    2    0    0  0.00000000000E+00  0.00000000000E+00 -0.62224984313E+02  0.11167373207E+03  0.92731190877E+02 0.  0.
          2    1    3    3  502    0 -0.31135258914E+02  0.27850830936E+01 -0.72350863903E+02  0.78815027393E+02  0.00000000000E+00 0. -1.
         -2    1    3    3    0  502  0.31135258914E+02 -0.27850830936E+01  0.10125879590E+02  0.32858704675E+02  0.00000000000E+00 0.  1.
<mgrwt>
<rscale>  0 0.92731191E+02</rscale>
<asrwt>0</asrwt>
<pdfrwt beam="2">  1        1 0.13376825E-01 0.92731191E+02</pdfrwt>
<pdfrwt beam="1">  1       -1 0.38037498E-02 0.92731191E+02</pdfrwt>
<totfact> 0.97464290E+04</totfact>
</mgrwt>
</event>
<event>
 4    1  0.3858870E+001  0.2056562E+03  0.7546771E-02  0.1145053E+00
          1   -1    0    0  501    0  0.00000000000E+00  0.00000000000E+00  0.48208016837E+03  0.48208016837E+03  0.00000000000E+00 0. -1.
         -1   -1    0    0    0  501 -0.00000000000E+00 -0.00000000000E+00 -0.21933311796E+02  0.21933311796E+02  0.00000000000E+00 0.  1.
          2    1    1    2  502    0  0.32577549443E+02 -0.23959236911E+02  0.46177406215E+03  0.46354139647E+03  0.00000000000E+00 0. -1.
         -2    1    1    2    0  502 -0.32577549443E+02  0.23959236911E+02 -0.16272055783E+01  0.40472083701E+02  0.00000000000E+00 0.  1.
<mgrwt>
<rscale>  0 0.20565617E+03</rscale>
<asrwt>0</asrwt>
<pdfrwt beam="1">  1        1 0.74166172E-01 0.20565617E+03</pdfrwt>
<pdfrwt beam="2">  1       -1 0.33743560E-02 0.20565617E+03</pdfrwt>
<totfact> 0.14658794E+04</totfact>
</mgrwt>
</event>
<event>
 5    1  0.3858870E+001  0.9110055E+02  0.7546771E-02  0.1300208E+00
         -1   -1    0    0    0  501 -0.00000000000E+00  0.00000000000E+00  0.17633422369E+03  0.17633422369E+03  0.00000000000E+00 0.  1.
          1   -1    0    0  501    0  0.00000000000E+00 -0.00000000000E+00 -0.11766447464E+02  0.11766447464E+02  0.00000000000E+00 0. -1.
         23    2    1    2    0    0  0.00000000000E+00  0.00000000000E+00  0.16456777622E+03  0.18810067115E+03  0.91100546194E+02 0.  0.
          2    1    3    3  502    0 -0.27522297092E+02  0.63663386556E+01  0.85046358600E+01  0.29501456510E+02  0.00000000000E+00 0. -1.
         -2    1    3    3    0  502  0.27522297092E+02 -0.63663386556E+01  0.15606314036E+03  0.15859921464E+03  0.00000000000E+00 0.  1.
<mgrwt>
<rscale>  0 0.91100546E+02</rscale>
<asrwt>0</asrwt>
<pdfrwt beam="2">  1        1 0.18102228E-02 0.91100546E+02</pdfrwt>
<pdfrwt beam="1">  1       -1 0.27128340E-01 0.91100546E+02</pdfrwt>
<totfact> 0.72014485E+04</totfact>
</mgrwt>
</event>
<event>
 5    1  0.3858870E+001  0.7717001E+02  0.7546771E-02  0.1337280E+00
         -2   -1    0    0    0  501 -0.00000000000E+00  0.00000000000E+00  0.90398704860E+01  0.90398704860E+01  0.00000000000E+00 0.  1.
          2   -1    0    0  501    0  0.00000000000E+00 -0.00000000000E+00 -0.16469291989E+03  0.16469291989E+03  0.00000000000E+00 0. -1.
         23    2    1    2    0    0  0.00000000000E+00  0.00000000000E+00 -0.15565304940E+03  0.17373279037E+03  0.77170011423E+02 0.  0.
          2    1    3    3  502    0 -0.24904367176E+02  0.21788805963E+02 -0.33149543382E+02  0.46838785170E+02  0.00000000000E+00 0.  1.
         -2    1    3    3    0  502  0.24904367176E+02 -0.21788805963E+02 -0.12250350602E+03  0.12689400520E+03  0.00000000000E+00 0. -1.
<mgrwt>
<rscale>  0 0.77170011E+02</rscale>
<asrwt>0</asrwt>
<pdfrwt beam="2">  1        2 0.25337371E-01 0.77170011E+02</pdfrwt>
<pdfrwt beam="1">  1       -2 0.13907494E-02 0.77170011E+02</pdfrwt>
<totfact> 0.22565314E+05</totfact>
</mgrwt>
</event>
<event>
 5    1  0.3858870E+001  0.9169330E+02  0.7546771E-02  0.1298802E+00
         -2   -1    0    0    0  501 -0.00000000000E+00  0.00000000000E+00  0.10259778147E+02  0.10259778147E+02  0.00000000000E+00 0.  1.
          2   -1    0    0  501    0  0.00000000000E+00 -0.00000000000E+00 -0.20486945682E+03  0.20486945682E+03  0.00000000000E+00 0. -1.
         23    2    1    2    0    0  0.00000000000E+00  0.00000000000E+00 -0.19460967868E+03  0.21512923497E+03  0.91693296946E+02 0.  0.
          2    1    3    3  502    0 -0.11208706841E+02 -0.36133744311E+02 -0.15806293750E+03  0.16252745860E+03  0.00000000000E+00 0. -1.
         -2    1    3    3    0  502  0.11208706841E+02  0.36133744311E+02 -0.36546741173E+02  0.52601776371E+02  0.00000000000E+00 0.  1.
<mgrwt>
<rscale>  0 0.91693297E+02</rscale>
<asrwt>0</asrwt>
<pdfrwt beam="2">  1        2 0.31518375E-01 0.91693297E+02</pdfrwt>
<pdfrwt beam="1">  1       -2 0.15784276E-02 0.91693297E+02</pdfrwt>
<totfact> 0.15367732E+05</totfact>
</mgrwt>
</event>
<event>
 5    1  0.3858870E+001  0.9121233E+02  0.7546771E-02  0.1299942E+00
         -1   -1    0    0    0  501 -0.00000000000E+00  0.00000000000E+00  0.14134987969E+03  0.14134987969E+03  0.00000000000E+00 0.  1.
          1   -1    0    0  501    0  0.00000000000E+00 -0.00000000000E+00 -0.14714709887E+02  0.14714709887E+02  0.00000000000E+00 0. -1.
         23    2    1    2    0    0  0.00000000000E+00  0.00000000000E+00  0.12663516981E+03  0.15606458958E+03  0.91212334083E+02 0.  0.
          2    1    3    3  502    0 -0.36961341290E+02 -0.26569734797E+02  0.68105617112E+02  0.81917437944E+02  0.00000000000E+00 0. -1.
         -2    1    3    3    0  502  0.36961341290E+02  0.26569734797E+02  0.58529552695E+02  0.74147151636E+02  0.00000000000E+00 0.  1.
<mgrwt>
<rscale>  0 0.91212334E+02</rscale>
<asrwt>0</asrwt>
<pdfrwt beam="2">  1        1 0.22638016E-02 0.91212334E+02</pdfrwt>
<pdfrwt beam="1">  1       -1 0.21746134E-01 0.91212334E+02</pdfrwt>
<totfact> 0.75739749E+04</totfact>
</mgrwt>
</event>
<event>
 5    1  0.3858870E+001  0.8466587E+02  0.7546771E-02  0.1316309E+00
         -2   -1    0    0    0  501 -0.00000000000E+00  0.00000000000E+00  0.18314870889E+01  0.18314870889E+01  0.00000000000E+00 0.  1.
          2   -1    0    0  501    0  0.00000000000E+00 -0.00000000000E+00 -0.97848214231E+03  0.97848214231E+03  0.00000000000E+00 0. -1.
         23    2    1    2    0    0  0.00000000000E+00  0.00000000000E+00 -0.97665065522E+03  0.98031362940E+03  0.84665870583E+02 0.  0.
          2    1    3    3  502    0  0.21651507925E+02  0.66502429102E+01 -0.90242299152E+03  0.90270718904E+03  0.00000000000E+00 0. -1.
         -2    1    3    3    0  502 -0.21651507925E+02 -0.66502429102E+01 -0.74227663702E+02  0.77606440357E+02  0.00000000000E+00 0.  1.
<mgrwt>
<rscale>  0 0.84665871E+02</rscale>
<asrwt>0</asrwt>
<pdfrwt beam="2">  1        2 0.15053511E+00 0.84665871E+02</pdfrwt>
<pdfrwt beam="1">  1       -2 0.28176837E-03 0.84665871E+02</pdfrwt>
<totfact> 0.30331169E+05</totfact>
</mgrwt>
</event>
<event>
 5    1  0.3858870E+001  0.9226200E+02  0.7546771E-02  0.1297465E+00
          2   -1    0    0  501    0  0.00000000000E+00  0.00000000000E+00  0.14171477510E+04  0.14171477510E+04  0.00000000000E+00 0. -1.
         -2   -1    0    0    0  501 -0.00000000000E+00 -0.00000000000E+00 -0.15016565527E+01  0.15016565527E+01  0.00000000000E+00 0.  1.
         23    2    1    2    0    0  0.00000000000E+00  0.00000000000E+00  0.14156460945E+04  0.14186494076E+04  0.92262000986E+02 0.  0.
          2    1    3    3  502    0 -0.12255555337E+02 -0.33297853448E+02  0.11611306098E+04  0.11616726039E+04  0.00000000000E+00 0. -1.
         -2    1    3    3    0  502  0.12255555337E+02  0.33297853448E+02  0.25451548469E+03  0.25697680367E+03  0.00000000000E+00 0.  1.
<mgrwt>
<rscale>  0 0.92262001E+02</rscale>
<asrwt>0</asrwt>
<pdfrwt beam="1">  1        2 0.21802166E+00 0.92262001E+02</pdfrwt>
<pdfrwt beam="2">  1       -2 0.23102522E-03 0.92262001E+02</pdfrwt>
<totfact> 0.23316059E+05</totfact>
</mgrwt>
</event>
<event>
 5    1  0.3858870E+001  0.8567107E+02  0.7546771E-02  0.1313687E+00
         -2   -1    0    0    0  501 -0.00000000000E+00  0.00000000000E+00  0.15958424383E+01  0.15958424383E+01  0.00000000000E+00 0.  1.
          2   -1    0    0  501    0  0.00000000000E+00 -0.00000000000E+00 -0.11497895495E+04  0.11497895495E+04  0.00000000000E+00 0. -1.
         23    2    1    2    0    0  0.00000000000E+00  0.00000000000E+00 -0.11481937071E+04  0.11513853920E+04  0.85671067653E+02 0.  0.
          2    1    3    3  502    0  0.35798525924E+02  0.20022297015E+02 -0.40815384089E+03  0.41020968378E+03  0.00000000000E+00 0. -1.
         -2    1    3    3    0  502 -0.35798525924E+02 -0.20022297015E+02 -0.74003986621E+03  0.74117570820E+03  0.00000000000E+00 0.  1.
<mgrwt>
<rscale>  0 0.85671068E+02</rscale>
<asrwt>0</asrwt>
<pdfrwt beam="2">  1        2 0.17689101E+00 0.85671068E+02</pdfrwt>
<pdfrwt beam="1">  1       -2 0.24551380E-03 0.85671068E+02</pdfrwt>
<totfact> 0.29397581E+05</totfact>
</mgrwt>
</event>
<event>
 5    1  0.3858870E+001  0.8884198E+02  0.7546771E-02  0.1305680E+00
          1   -1    0    0  501    0  0.00000000000E+00  0.00000000000E+00  0.68685725656E+02  0.68685725656E+02  0.00000000000E+00 0. -1.
         -1   -1    0    0    0  501 -0.00000000000E+00 -0.00000000000E+00 -0.28728305808E+02  0.28728305808E+02  0.00000000000E+00 0.  1.
         23    2    1    2    0    0  0.00000000000E+00  0.00000000000E+00  0.39957419848E+02  0.97414031463E+02  0.88841984022E+02 0.  0.
          2    1    3    3  502    0  0.20412688320E+02  0.17773053791E+02  0.58600337938E+02  0.64548887612E+02  0.00000000000E+00 0. -1.
         -2    1    3    3    0  502 -0.20412688320E+02 -0.17773053791E+02 -0.18642918090E+02  0.32865143852E+02  0.00000000000E+00 0.  1.
<mgrwt>
<rscale>  0 0.88841984E+02</rscale>
<asrwt>0</asrwt>
<pdfrwt beam="1">  1        1 0.10567035E-01 0.88841984E+02</pdfrwt>
<pdfrwt beam="2">  1       -1 0.44197394E-02 0.88841984E+02</pdfrwt>
<totfact> 0.10566019E+05</totfact>
</mgrwt>
</event>
<event>
 5    1  0.3858870E+001  0.9403666E+02  0.7546771E-02  0.1293361E+00
          2   -1    0    0  501    0  0.00000000000E+00  0.00000000000E+00  0.11163653297E+03  0.11163653297E+03  0.00000000000E+00 0.  1.
         -2   -1    0    0    0  501 -0.00000000000E+00 -0.00000000000E+00 -0.19802865639E+02  0.19802865639E+02  0.00000000000E+00 0. -1.
         23    2    1    2    0    0  0.00000000000E+00  0.00000000000E+00  0.91833667329E+02  0.13143939861E+03  0.94036658017E+02 0.  0.
          2    1    3    3  502    0 -0.39013312669E+02 -0.73694837286E+00  0.92505169952E+01  0.40101792018E+02  0.00000000000E+00 0. -1.
         -2    1    3    3    0  502  0.39013312669E+02  0.73694837286E+00  0.82583150333E+02  0.91337606589E+02  0.00000000000E+00 0.  1.
<mgrwt>
<rscale>  0 0.94036658E+02</rscale>
<asrwt>0</asrwt>
<pdfrwt beam="1">  1        2 0.17174851E-01 0.94036658E+02</pdfrwt>
<pdfrwt beam="2">  1       -2 0.30465948E-02 0.94036658E+02</pdfrwt>
<totfact> 0.11659029E+05</totfact>
</mgrwt>
</event>
<event>
 5    1  0.3858870E+001  0.9384614E+02  0.7546771E-02  0.1293796E+00
         -3   -1    0    0    0  501 -0.00000000000E+00  0.00000000000E+00  0.21965721622E+03  0.21965721622E+03  0.00000000000E+00 0.  1.
          3   -1    0    0  501    0  0.00000000000E+00 -0.00000000000E+00 -0.10023684536E+02  0.10023684536E+02  0.00000000000E+00 0. -1.
         23    2    1    2    0    0  0.00000000000E+00  0.00000000000E+00  0.20963353168E+03  0.22968090075E+03  0.93846143052E+02 0.  0.
          2    1    3    3  502    0  0.38246296984E+02  0.17572852171E+02  0.54054763070E+02  0.68509136449E+02  0.00000000000E+00 0. -1.
         -2    1    3    3    0  502 -0.38246296984E+02 -0.17572852171E+02  0.15557876861E+03  0.16117176430E+03  0.00000000000E+00 0.  1.
<mgrwt>
<rscale>  0 0.93846143E+02</rscale>
<asrwt>0</asrwt>
<pdfrwt beam="2">  1        3 0.15421055E-02 0.93846143E+02</pdfrwt>
<pdfrwt beam="1">  1       -3 0.33793414E-01 0.93846143E+02</pdfrwt>
<totfact> 0.25003398E+04</totfact>
</mgrwt>
</event>
<event>
 5    1  0.3858870E+001  0.9652616E+02  0.7546771E-02  0.1287775E+00
          3   -1    0    0  501    0  0.00000000000E+00  0.00000000000E+00  0.10641414231E+04  0.10641414231E+04  0.00000000000E+00 0. -1.
         -3   -1    0    0    0  501 -0.00000000000E+00 -0.00000000000E+00 -0.21889243067E+01  0.21889243067E+01  0.00000000000E+00 0.  1.
         23    2    1    2    0    0  0.00000000000E+00  0.00000000000E+00  0.10619524987E+04  0.10663303474E+04  0.96526162810E+02 0.  0.
          2    1    3    3  502    0  0.54013694221E+01 -0.47696804627E+02  0.58639359781E+03  0.58835500467E+03  0.00000000000E+00 0. -1.
         -2    1    3    3    0  502 -0.54013694221E+01  0.47696804627E+02  0.47555890093E+03  0.47797534269E+03  0.00000000000E+00 0.  1.
<mgrwt>
<rscale>  0 0.96526163E+02</rscale>
<asrwt>0</asrwt>
<pdfrwt beam="1">  1        3 0.16371365E+00 0.96526163E+02</pdfrwt>
<pdfrwt beam="2">  1       -3 0.33675844E-03 0.96526163E+02</pdfrwt>
<totfact> 0.80425049E+03</totfact>
</mgrwt>
</event>
<event>
 5    1  0.3858870E+001  0.9223762E+02  0.7546771E-02  0.1297522E+00
          4   -1    0    0  501    0  0.00000000000E+00  0.00000000000E+00  0.56687753702E+01  0.56687753702E+01  0.00000000000E+00 0. -1.
         -4   -1    0    0    0  501 -0.00000000000E+00 -0.00000000000E+00 -0.37520355385E+03  0.37520355385E+03  0.00000000000E+00 0.  1.
         23    2    1    2    0    0  0.00000000000E+00  0.00000000000E+00 -0.36953477848E+03  0.38087232922E+03  0.92237620630E+02 0.  0.
          2    1    3    3  502    0 -0.19627682058E+01  0.41593864939E+02 -0.26663104699E+03  0.26986296019E+03  0.00000000000E+00 0.  1.
         -2    1    3    3    0  502  0.19627682058E+01 -0.41593864939E+02 -0.10290373149E+03  0.11100936904E+03  0.00000000000E+00 0. -1.
<mgrwt>
<rscale>  0 0.92237621E+02</rscale>
<asrwt>0</asrwt>
<pdfrwt beam="1">  1        4 0.87211901E-03 0.92237621E+02</pdfrwt>
<pdfrwt beam="2">  1       -4 0.57723642E-01 0.92237621E+02</pdfrwt>
<totfact> 0.15136282E+04</totfact>
</mgrwt>
</event>
<event>
 5    1  0.3858870E+001  0.8685271E+02  0.7546771E-02  0.1310657E+00
         -2   -1    0    0    0  501 -0.00000000000E+00  0.00000000000E+00  0.37660166064E+01  0.37660166064E+01  0.00000000000E+00 0.  1.
          2   -1    0    0  501    0  0.00000000000E+00 -0.00000000000E+00 -0.50075406599E+03  0.50075406599E+03  0.00000000000E+00 0. -1.
         23    2    1    2    0    0  0.00000000000E+00  0.00000000000E+00 -0.49698804938E+03  0.50452008259E+03  0.86852705847E+02 0.  0.
          2    1    3    3  502    0  0.43261373208E+02  0.23241853970E+01 -0.23116448018E+03  0.23518921137E+03  0.00000000000E+00 0. -1.
         -2    1    3    3    0  502 -0.43261373208E+02 -0.23241853970E+01 -0.26582356921E+03  0.26933087122E+03  0.00000000000E+00 0.  1.
<mgrwt>
<rscale>  0 0.86852706E+02</rscale>
<asrwt>0</asrwt>
<pdfrwt beam="2">  1        2 0.77039141E-01 0.86852706E+02</pdfrwt>
<pdfrwt beam="1">  1       -2 0.57938676E-03 0.86852706E+02</pdfrwt>
<totfact> 0.24509745E+05</totfact>
</mgrwt>
</event>
<event>
 5    1  0.3858870E+001  0.9079571E+02  0.7546771E-02  0.1300936E+00
         -2   -1    0    0    0  501 -0.00000000000E+00  0.00000000000E+00  0.14785188923E+03  0.14785188923E+03  0.00000000000E+00 0.  1.
          2   -1    0    0  501    0  0.00000000000E+00 -0.00000000000E+00 -0.13939391642E+02  0.13939391642E+02  0.00000000000E+00 0. -1.
         23    2    1    2    0    0  0.00000000000E+00  0.00000000000E+00  0.13391249758E+03  0.16179128087E+03  0.90795713311E+02 0.  0.
          2    1    3    3  502    0  0.31355437794E+02 -0.32828857555E+02  0.66491506453E+02  0.80510979363E+02  0.00000000000E+00 0. -1.
         -2    1    3    3    0  502 -0.31355437794E+02  0.32828857555E+02  0.67420991132E+02  0.81280301505E+02  0.00000000000E+00 0.  1.
<mgrwt>
<rscale>  0 0.90795713E+02</rscale>
<asrwt>0</asrwt>
<pdfrwt beam="2">  1        2 0.21445219E-02 0.90795713E+02</pdfrwt>
<pdfrwt beam="1">  1       -2 0.22746443E-01 0.90795713E+02</pdfrwt>
<totfact> 0.70970973E+04</totfact>
</mgrwt>
</event>
<event>
 5    1  0.3858870E+001  0.8847234E+02  0.7546771E-02  0.1306594E+00
         -1   -1    0    0    0  501 -0.00000000000E+00  0.00000000000E+00  0.35294277322E+01  0.35294277322E+01  0.00000000000E+00 0.  1.
          1   -1    0    0  501    0  0.00000000000E+00 -0.00000000000E+00 -0.55443515535E+03  0.55443515535E+03  0.00000000000E+00 0. -1.
         23    2    1    2    0    0  0.00000000000E+00  0.00000000000E+00 -0.55090572762E+03  0.55796458308E+03  0.88472341734E+02 0.  0.
          2    1    3    3  502    0 -0.24629278403E+02  0.14650817126E+02 -0.62927834711E+02  0.69145933926E+02  0.00000000000E+00 0.  1.
         -2    1    3    3    0  502  0.24629278403E+02 -0.14650817126E+02 -0.48797789291E+03  0.48881864916E+03  0.00000000000E+00 0. -1.
<mgrwt>
<rscale>  0 0.88472342E+02</rscale>
<asrwt>0</asrwt>
<pdfrwt beam="2">  1        1 0.85297722E-01 0.88472342E+02</pdfrwt>
<pdfrwt beam="1">  1       -1 0.54298884E-03 0.88472342E+02</pdfrwt>
<totfact> 0.15242291E+05</totfact>
</mgrwt>
</event>
<event>
 5    1  0.3858870E+001  0.1078842E+03  0.7546771E-02  0.1264539E+00
         -1   -1    0    0    0  501 -0.00000000000E+00  0.00000000000E+00  0.51464072421E+03  0.51464072421E+03  0.00000000000E+00 0.  1.
          1   -1    0    0  501    0  0.00000000000E+00 -0.00000000000E+00 -0.56539479867E+01  0.56539479867E+01  0.00000000000E+00 0. -1.
         23    2    1    2    0    0  0.00000000000E+00  0.00000000000E+00  0.50898677622E+03  0.52029467219E+03  0.10788423215E+03 0.  0.
          2    1    3    3  502    0 -0.18104917458E+02 -0.38736803163E+02  0.41308835180E+03  0.41529545429E+03  0.00000000000E+00 0. -1.
         -2    1    3    3    0  502  0.18104917458E+02  0.38736803163E+02  0.95898424417E+02  0.10499921791E+03  0.00000000000E+00 0.  1.
<mgrwt>
<rscale>  0 0.10788423E+03</rscale>
<asrwt>0</asrwt>
<pdfrwt beam="2">  1        1 0.86983856E-03 0.10788423E+03</pdfrwt>
<pdfrwt beam="1">  1       -1 0.79175459E-01 0.10788423E+03</pdfrwt>
<totfact> 0.29629645E+04</totfact>
</mgrwt>
</event>
<event>
 5    1  0.3858870E+001  0.9146508E+02  0.7546771E-02  0.1299342E+00
          1   -1    0    0  501    0  0.00000000000E+00  0.00000000000E+00  0.81962643300E+02  0.81962643300E+02  0.00000000000E+00 0. -1.
         -1   -1    0    0    0  501 -0.00000000000E+00 -0.00000000000E+00 -0.25517300310E+02  0.25517300310E+02  0.00000000000E+00 0.  1.
         23    2    1    2    0    0  0.00000000000E+00  0.00000000000E+00  0.56445342990E+02  0.10747994361E+03  0.91465083684E+02 0.  0.
          2    1    3    3  502    0  0.23541893982E+02  0.28217424674E+01  0.74175890218E+02  0.77873266866E+02  0.00000000000E+00 0. -1.
         -2    1    3    3    0  502 -0.23541893982E+02 -0.28217424674E+01 -0.17730547228E+02  0.29606676744E+02  0.00000000000E+00 0.  1.
<mgrwt>
<rscale>  0 0.91465084E+02</rscale>
<asrwt>0</asrwt>
<pdfrwt beam="1">  1        1 0.12609637E-01 0.91465084E+02</pdfrwt>
<pdfrwt beam="2">  1       -1 0.39257386E-02 0.91465084E+02</pdfrwt>
<totfact> 0.10025854E+05</totfact>
</mgrwt>
</event>
<event>
 5    1  0.3858870E+001  0.6377770E+02  0.7546771E-02  0.1382629E+00
          4   -1    0    0  501    0  0.00000000000E+00  0.00000000000E+00  0.13287965152E+02  0.13287965152E+02  0.00000000000E+00 0.  1.
         -4   -1    0    0    0  501 -0.00000000000E+00 -0.00000000000E+00 -0.76527789913E+02  0.76527789913E+02  0.00000000000E+00 0. -1.
         23    2    1    2    0    0  0.00000000000E+00  0.00000000000E+00 -0.63239824761E+02  0.89815755064E+02  0.63777695333E+02 0.  0.
          2    1    3    3  502    0 -0.15617210337E+02  0.15762559556E+02  0.63339664760E+00  0.22198124556E+02  0.00000000000E+00 0.  1.
         -2    1    3    3    0  502  0.15617210337E+02 -0.15762559556E+02 -0.63873221409E+02  0.67617630508E+02  0.00000000000E+00 0. -1.
<mgrwt>
<rscale>  0 0.63777695E+02</rscale>
<asrwt>0</asrwt>
<pdfrwt beam="1">  1        4 0.20443023E-02 0.63777695E+02</pdfrwt>
<pdfrwt beam="2">  1       -4 0.11773506E-01 0.63777695E+02</pdfrwt>
<totfact> 0.69689161E+04</totfact>
</mgrwt>
</event>
<event>
 5    1  0.3858870E+001  0.9143641E+02  0.7546771E-02  0.1299410E+00
         -1   -1    0    0    0  501 -0.00000000000E+00  0.00000000000E+00  0.77033932791E+02  0.77033932791E+02  0.00000000000E+00 0.  1.
          1   -1    0    0  501    0  0.00000000000E+00 -0.00000000000E+00 -0.27132904648E+02  0.27132904648E+02  0.00000000000E+00 0. -1.
         23    2    1    2    0    0  0.00000000000E+00  0.00000000000E+00  0.49901028143E+02  0.10416683744E+03  0.91436411851E+02 0.  0.
          2    1    3    3  502    0 -0.37543256428E+02  0.18167051629E+02  0.46282263301E+02  0.62302373665E+02  0.00000000000E+00 0.  1.
         -2    1    3    3    0  502  0.37543256428E+02 -0.18167051629E+02  0.36187648425E+01  0.41864463774E+02  0.00000000000E+00 0. -1.
<mgrwt>
<rscale>  0 0.91436412E+02</rscale>
<asrwt>0</asrwt>
<pdfrwt beam="2">  1        1 0.41742930E-02 0.91436412E+02</pdfrwt>
<pdfrwt beam="1">  1       -1 0.11851374E-01 0.91436412E+02</pdfrwt>
<totfact> 0.84571790E+04</totfact>
</mgrwt>
</event>
<event>
 5    1  0.3858870E+001  0.9226490E+02  0.7546771E-02  0.1297458E+00
         -1   -1    0    0    0  501 -0.00000000000E+00  0.00000000000E+00  0.29460901575E+03  0.29460901575E+03  0.00000000000E+00 0.  1.
          1   -1    0    0  501    0  0.00000000000E+00 -0.00000000000E+00 -0.72238208356E+01  0.72238208356E+01  0.00000000000E+00 0. -1.
         23    2    1    2    0    0  0.00000000000E+00  0.00000000000E+00  0.28738519492E+03  0.30183283659E+03  0.92264895737E+02 0.  0.
          2    1    3    3  502    0  0.25815735708E+02 -0.27817404258E+02  0.22949630973E+03  0.23261301849E+03  0.00000000000E+00 0.  1.
         -2    1    3    3    0  502 -0.25815735708E+02  0.27817404258E+02  0.57888885186E+02  0.69219818100E+02  0.00000000000E+00 0. -1.
<mgrwt>
<rscale>  0 0.92264896E+02</rscale>
<asrwt>0</asrwt>
<pdfrwt beam="2">  1        1 0.11113573E-02 0.92264896E+02</pdfrwt>
<pdfrwt beam="1">  1       -1 0.45324455E-01 0.92264896E+02</pdfrwt>
<totfact> 0.59151554E+04</totfact>
</mgrwt>
</event>
<event>
 5    1  0.3858870E+001  0.9038096E+02  0.7546771E-02  0.1301932E+00
          2   -1    0    0  501    0  0.00000000000E+00  0.00000000000E+00  0.46592638008E+03  0.46592638008E+03  0.00000000000E+00 0. -1.
         -2   -1    0    0    0  501 -0.00000000000E+00 -0.00000000000E+00 -0.43830520358E+01  0.43830520358E+01  0.00000000000E+00 0.  1.
         23    2    1    2    0    0  0.00000000000E+00  0.00000000000E+00  0.46154332804E+03  0.47030943212E+03  0.90380961905E+02 0.  0.
          2    1    3    3  502    0  0.26136488203E+02 -0.36802068356E+02  0.21952492961E+03  0.22411760969E+03  0.00000000000E+00 0. -1.
         -2    1    3    3    0  502 -0.26136488203E+02  0.36802068356E+02  0.24201839843E+03  0.24619182243E+03  0.00000000000E+00 0.  1.
<mgrwt>
<rscale>  0 0.90380962E+02</rscale>
<asrwt>0</asrwt>
<pdfrwt beam="1">  1        2 0.71680942E-01 0.90380962E+02</pdfrwt>
<pdfrwt beam="2">  1       -2 0.67431607E-03 0.90380962E+02</pdfrwt>
<totfact> 0.21545834E+05</totfact>
</mgrwt>
</event>
<event>
 5    1  0.3858870E+001  0.9827932E+02  0.7546771E-02  0.1283956E+00
         -1   -1    0    0    0  501 -0.00000000000E+00  0.00000000000E+00  0.17147991177E+02  0.17147991177E+02  0.00000000000E+00 0.  1.
          1   -1    0    0  501    0  0.00000000000E+00 -0.00000000000E+00 -0.14081568581E+03  0.14081568581E+03  0.00000000000E+00 0. -1.
         23    2    1    2    0    0  0.00000000000E+00  0.00000000000E+00 -0.12366769463E+03  0.15796367699E+03  0.98279319041E+02 0.  0.
          2    1    3    3  502    0 -0.18778659178E+02  0.11984237747E+02 -0.13223340031E+03  0.13409672685E+03  0.00000000000E+00 0. -1.
         -2    1    3    3    0  502  0.18778659178E+02 -0.11984237747E+02  0.85657056778E+01  0.23866950133E+02  0.00000000000E+00 0.  1.
<mgrwt>
<rscale>  0 0.98279319E+02</rscale>
<asrwt>0</asrwt>
<pdfrwt beam="2">  1        1 0.21663951E-01 0.98279319E+02</pdfrwt>
<pdfrwt beam="1">  1       -1 0.26381526E-02 0.98279319E+02</pdfrwt>
<totfact> 0.90418045E+04</totfact>
</mgrwt>
</event>
<event>
 5    1  0.3858870E+001  0.8048064E+02  0.7546771E-02  0.1327693E+00
         -2   -1    0    0    0  501 -0.00000000000E+00  0.00000000000E+00  0.75623023017E+01  0.75623023017E+01  0.00000000000E+00 0. -1.
          2   -1    0    0  501    0  0.00000000000E+00 -0.00000000000E+00 -0.21412573471E+03  0.21412573471E+03  0.00000000000E+00 0.  1.
         23    2    1    2    0    0  0.00000000000E+00  0.00000000000E+00 -0.20656343241E+03  0.22168803701E+03  0.80480644542E+02 0.  0.
          2    1    3    3  502    0 -0.39256033347E+02 -0.43815559023E+01 -0.82114761837E+02  0.91121173708E+02  0.00000000000E+00 0. -1.
         -2    1    3    3    0  502  0.39256033347E+02  0.43815559023E+01 -0.12444867057E+03  0.13056686331E+03  0.00000000000E+00 0.  1.
<mgrwt>
<rscale>  0 0.80480645E+02</rscale>
<asrwt>0</asrwt>
<pdfrwt beam="2">  1        2 0.32942423E-01 0.80480645E+02</pdfrwt>
<pdfrwt beam="1">  1       -2 0.11634310E-02 0.80480645E+02</pdfrwt>
<totfact> 0.22117235E+05</totfact>
</mgrwt>
</event>
<event>
 5    1  0.3858870E+001  0.9215106E+02  0.7546771E-02  0.1297725E+00
          1   -1    0    0  501    0  0.00000000000E+00  0.00000000000E+00  0.13618773105E+03  0.13618773105E+03  0.00000000000E+00 0. -1.
         -1   -1    0    0    0  501 -0.00000000000E+00 -0.00000000000E+00 -0.15588441069E+02  0.15588441069E+02  0.00000000000E+00 0.  1.
         23    2    1    2    0    0  0.00000000000E+00  0.00000000000E+00  0.12059928999E+03  0.15177617212E+03  0.92151059026E+02 0.  0.
          2    1    3    3  502    0 -0.31247500508E+02  0.32135651754E+02  0.42725831925E+02  0.61924172302E+02  0.00000000000E+00 0. -1.
         -2    1    3    3    0  502  0.31247500508E+02 -0.32135651754E+02  0.77873458061E+02  0.89851999822E+02  0.00000000000E+00 0.  1.
<mgrwt>
<rscale>  0 0.92151059E+02</rscale>
<asrwt>0</asrwt>
<pdfrwt beam="1">  1        1 0.20951958E-01 0.92151059E+02</pdfrwt>
<pdfrwt beam="2">  1       -1 0.23982218E-02 0.92151059E+02</pdfrwt>
<totfact> 0.10705402E+05</totfact>
</mgrwt>
</event>
<event>
 5    1  0.3858870E+001  0.9029550E+02  0.7546771E-02  0.1302138E+00
          1   -1    0    0  501    0  0.00000000000E+00  0.00000000000E+00  0.74621423050E+01  0.74621423050E+01  0.00000000000E+00 0. -1.
         -1   -1    0    0    0  501 -0.00000000000E+00 -0.00000000000E+00 -0.27315473243E+03  0.27315473243E+03  0.00000000000E+00 0.  1.
         23    2    1    2    0    0  0.00000000000E+00  0.00000000000E+00 -0.26569259012E+03  0.28061687473E+03  0.90295503425E+02 0.  0.
          2    1    3    3  502    0  0.70649364026E+01  0.44510328446E+02 -0.14120658893E+03  0.14822409865E+03  0.00000000000E+00 0. -1.
         -2    1    3    3    0  502 -0.70649364026E+01 -0.44510328446E+02 -0.12448600120E+03  0.13239277608E+03  0.00000000000E+00 0.  1.
<mgrwt>
<rscale>  0 0.90295503E+02</rscale>
<asrwt>0</asrwt>
<pdfrwt beam="1">  1        1 0.11480219E-02 0.90295503E+02</pdfrwt>
<pdfrwt beam="2">  1       -1 0.42023806E-01 0.90295503E+02</pdfrwt>
<totfact> 0.64390238E+04</totfact>
</mgrwt>
</event>
<event>
 5    1  0.3858870E+001  0.9309054E+02  0.7546771E-02  0.1295535E+00
          2   -1    0    0  501    0  0.00000000000E+00  0.00000000000E+00  0.85082458257E+03  0.85082458257E+03  0.00000000000E+00 0. -1.
         -2   -1    0    0    0  501 -0.00000000000E+00 -0.00000000000E+00 -0.25463090072E+01  0.25463090072E+01  0.00000000000E+00 0.  1.
         23    2    1    2    0    0  0.00000000000E+00  0.00000000000E+00  0.84827827357E+03  0.85337089158E+03  0.93090542982E+02 0.  0.
          2    1    3    3  502    0 -0.13207923740E+02 -0.31425601670E+02  0.71467199557E+03  0.71548450643E+03  0.00000000000E+00 0. -1.
         -2    1    3    3    0  502  0.13207923740E+02  0.31425601670E+02  0.13360627800E+03  0.13788638515E+03  0.00000000000E+00 0.  1.
<mgrwt>
<rscale>  0 0.93090543E+02</rscale>
<asrwt>0</asrwt>
<pdfrwt beam="1">  1        2 0.13089586E+00 0.93090543E+02</pdfrwt>
<pdfrwt beam="2">  1       -2 0.39174053E-03 0.93090543E+02</pdfrwt>
<totfact> 0.23303357E+05</totfact>
</mgrwt>
</event>
<event>
 5    1  0.3858870E+001  0.8999580E+02  0.7546771E-02  0.1302862E+00
          1   -1    0    0  501    0  0.00000000000E+00  0.00000000000E+00  0.25213399617E+04  0.25213399617E+04  0.00000000000E+00 0. -1.
         -1   -1    0    0    0  501 -0.00000000000E+00 -0.00000000000E+00 -0.80306947586E+00  0.80306947586E+00  0.00000000000E+00 0.  1.
         23    2    1    2    0    0  0.00000000000E+00  0.00000000000E+00  0.25205368923E+04  0.25221430312E+04  0.89995803492E+02 0.  0.
          2    1    3    3  502    0  0.10429241719E+02 -0.33837573786E+02  0.20384693508E+04  0.20387768501E+04  0.00000000000E+00 0. -1.
         -2    1    3    3    0  502 -0.10429241719E+02  0.33837573786E+02  0.48206754150E+03  0.48336618112E+03  0.00000000000E+00 0.  1.
<mgrwt>
<rscale>  0 0.89995803E+02</rscale>
<asrwt>0</asrwt>
<pdfrwt beam="1">  1        1 0.38789212E+00 0.89995803E+02</pdfrwt>
<pdfrwt beam="2">  1       -1 0.12355117E-03 0.89995803E+02</pdfrwt>
<totfact> 0.53090511E+04</totfact>
</mgrwt>
</event>
<event>
 5    1  0.3858870E+001  0.8795392E+02  0.7546771E-02  0.1307884E+00
         -1   -1    0    0    0  501 -0.00000000000E+00  0.00000000000E+00  0.21980901588E+03  0.21980901588E+03  0.00000000000E+00 0.  1.
          1   -1    0    0  501    0  0.00000000000E+00 -0.00000000000E+00 -0.87984243272E+01  0.87984243272E+01  0.00000000000E+00 0. -1.
         23    2    1    2    0    0  0.00000000000E+00  0.00000000000E+00  0.21101059155E+03  0.22860744021E+03  0.87953919586E+02 0.  0.
          2    1    3    3  502    0 -0.40079422315E+02  0.13451718001E+02  0.13698257564E+03  0.14335806513E+03  0.00000000000E+00 0. -1.
         -2    1    3    3    0  502  0.40079422315E+02 -0.13451718001E+02  0.74028015917E+02  0.85249375076E+02  0.00000000000E+00 0.  1.
<mgrwt>
<rscale>  0 0.87953920E+02</rscale>
<asrwt>0</asrwt>
<pdfrwt beam="2">  1        1 0.13536039E-02 0.87953920E+02</pdfrwt>
<pdfrwt beam="1">  1       -1 0.33816767E-01 0.87953920E+02</pdfrwt>
<totfact> 0.74140041E+04</totfact>
</mgrwt>
</event>
<event>
 5    1  0.3858870E+001  0.9193043E+02  0.7546771E-02  0.1298243E+00
          2   -1    0    0  501    0  0.00000000000E+00  0.00000000000E+00  0.42580057027E+03  0.42580057027E+03  0.00000000000E+00 0. -1.
         -2   -1    0    0    0  501 -0.00000000000E+00 -0.00000000000E+00 -0.49619501531E+01  0.49619501531E+01  0.00000000000E+00 0.  1.
         23    2    1    2    0    0  0.00000000000E+00  0.00000000000E+00  0.42083862012E+03  0.43076252043E+03  0.91930434674E+02 0.  0.
          2    1    3    3  502    0 -0.13800380198E+02  0.39440421488E+02  0.12067735081E+03  0.12770677484E+03  0.00000000000E+00 0. -1.
         -2    1    3    3    0  502  0.13800380198E+02 -0.39440421488E+02  0.30016126931E+03  0.30305574559E+03  0.00000000000E+00 0.  1.
<mgrwt>
<rscale>  0 0.91930435E+02</rscale>
<asrwt>0</asrwt>
<pdfrwt beam="1">  1        2 0.65507751E-01 0.91930435E+02</pdfrwt>
<pdfrwt beam="2">  1       -2 0.76337728E-03 0.91930435E+02</pdfrwt>
<totfact> 0.19968004E+05</totfact>
</mgrwt>
</event>
<event>
 5    1  0.3858870E+001  0.9070405E+02  0.7546771E-02  0.1301156E+00
         -1   -1    0    0    0  501 -0.00000000000E+00  0.00000000000E+00  0.99264980737E+02  0.99264980737E+02  0.00000000000E+00 0.  1.
          1   -1    0    0  501    0  0.00000000000E+00 -0.00000000000E+00 -0.20720361511E+02  0.20720361511E+02  0.00000000000E+00 0. -1.
         23    2    1    2    0    0  0.00000000000E+00  0.00000000000E+00  0.78544619226E+02  0.11998534225E+03  0.90704052528E+02 0.  0.
          2    1    3    3  502    0  0.41222068721E+02  0.14026880584E+01  0.14328082853E+02  0.43663719970E+02  0.00000000000E+00 0. -1.
         -2    1    3    3    0  502 -0.41222068721E+02 -0.14026880584E+01  0.64216536373E+02  0.76321622278E+02  0.00000000000E+00 0.  1.
<mgrwt>
<rscale>  0 0.90704053E+02</rscale>
<asrwt>0</asrwt>
<pdfrwt beam="2">  1        1 0.31877480E-02 0.90704053E+02</pdfrwt>
<pdfrwt beam="1">  1       -1 0.15271535E-01 0.90704053E+02</pdfrwt>
<totfact> 0.82579573E+04</totfact>
</mgrwt>
</event>
<event>
 5    1  0.3858870E+001  0.8718701E+02  0.7546771E-02  0.1309810E+00
          1   -1    0    0  501    0  0.00000000000E+00  0.00000000000E+00  0.12958578347E+03  0.12958578347E+03  0.00000000000E+00 0. -1.
         -1   -1    0    0    0  501 -0.00000000000E+00 -0.00000000000E+00 -0.14665139819E+02  0.14665139819E+02  0.00000000000E+00 0.  1.
         23    2    1    2    0    0  0.00000000000E+00  0.00000000000E+00  0.11492064365E+03  0.14425092329E+03  0.87187008966E+02 0.  0.
          2    1    3    3  502    0 -0.28732247436E+02  0.11165073879E+02  0.10846061479E+03  0.11275595718E+03  0.00000000000E+00 0. -1.
         -2    1    3    3    0  502  0.28732247436E+02 -0.11165073879E+02  0.64600288547E+01  0.31494966110E+02  0.00000000000E+00 0.  1.
<mgrwt>
<rscale>  0 0.87187009E+02</rscale>
<asrwt>0</asrwt>
<pdfrwt beam="1">  1        1 0.19936274E-01 0.87187009E+02</pdfrwt>
<pdfrwt beam="2">  1       -1 0.22561754E-02 0.87187009E+02</pdfrwt>
<totfact> 0.12321560E+05</totfact>
</mgrwt>
</event>
<event>
 5    1  0.3858870E+001  0.9042755E+02  0.7546771E-02  0.1301820E+00
          2   -1    0    0  501    0  0.00000000000E+00  0.00000000000E+00  0.10420783432E+03  0.10420783432E+03  0.00000000000E+00 0. -1.
         -2   -1    0    0    0  501 -0.00000000000E+00 -0.00000000000E+00 -0.19617385990E+02  0.19617385990E+02  0.00000000000E+00 0.  1.
         23    2    1    2    0    0  0.00000000000E+00  0.00000000000E+00  0.84590448330E+02  0.12382522031E+03  0.90427546887E+02 0.  0.
          2    1    3    3  502    0  0.12024618753E+01 -0.44665669804E+02  0.32826291123E+02  0.55443965970E+02  0.00000000000E+00 0.  1.
         -2    1    3    3    0  502 -0.12024618753E+01  0.44665669804E+02  0.51764157208E+02  0.68381254339E+02  0.00000000000E+00 0. -1.
<mgrwt>
<rscale>  0 0.90427547E+02</rscale>
<asrwt>0</asrwt>
<pdfrwt beam="1">  1        2 0.16031974E-01 0.90427547E+02</pdfrwt>
<pdfrwt beam="2">  1       -2 0.30180594E-02 0.90427547E+02</pdfrwt>
<totfact> 0.12708119E+05</totfact>
</mgrwt>
</event>
<event>
 5    1  0.3858870E+001  0.7569330E+02  0.7546771E-02  0.1341737E+00
          1   -1    0    0  501    0  0.00000000000E+00  0.00000000000E+00  0.35183118828E+03  0.35183118828E+03  0.00000000000E+00 0. -1.
         -1   -1    0    0    0  501 -0.00000000000E+00 -0.00000000000E+00 -0.40711823652E+01  0.40711823652E+01  0.00000000000E+00 0.  1.
         23    2    1    2    0    0  0.00000000000E+00  0.00000000000E+00  0.34776000592E+03  0.35590237065E+03  0.75693300344E+02 0.  0.
          2    1    3    3  502    0  0.22516261279E+02  0.22794809737E+02  0.79164589092E+02  0.85402678758E+02  0.00000000000E+00 0.  1.
         -2    1    3    3    0  502 -0.22516261279E+02 -0.22794809737E+02  0.26859541682E+03  0.27049969189E+03  0.00000000000E+00 0. -1.
<mgrwt>
<rscale>  0 0.75693300E+02</rscale>
<asrwt>0</asrwt>
<pdfrwt beam="1">  1        1 0.54127851E-01 0.75693300E+02</pdfrwt>
<pdfrwt beam="2">  1       -1 0.62633603E-03 0.75693300E+02</pdfrwt>
<totfact> 0.21541997E+05</totfact>
</mgrwt>
</event>
<event>
 5    1  0.3858870E+001  0.9156555E+02  0.7546771E-02  0.1299104E+00
          2   -1    0    0  501    0  0.00000000000E+00  0.00000000000E+00  0.15466636312E+04  0.15466636312E+04  0.00000000000E+00 0. -1.
         -2   -1    0    0    0  501 -0.00000000000E+00 -0.00000000000E+00 -0.13552155976E+01  0.13552155976E+01  0.00000000000E+00 0.  1.
         23    2    1    2    0    0  0.00000000000E+00  0.00000000000E+00  0.15453084156E+04  0.15480188468E+04  0.91565554163E+02 0.  0.
          2    1    3    3  502    0 -0.12438269045E+02  0.25647028617E+02  0.13783519232E+04  0.13786466207E+04  0.00000000000E+00 0. -1.
         -2    1    3    3    0  502  0.12438269045E+02 -0.25647028617E+02  0.16695649243E+03  0.16937222611E+03  0.00000000000E+00 0.  1.
<mgrwt>
<rscale>  0 0.91565554E+02</rscale>
<asrwt>0</asrwt>
<pdfrwt beam="1">  1        2 0.23794684E+00 0.91565554E+02</pdfrwt>
<pdfrwt beam="2">  1       -2 0.20849594E-03 0.91565554E+02</pdfrwt>
<totfact> 0.23048538E+05</totfact>
</mgrwt>
</event>
<event>
 5    1  0.3858870E+001  0.9081088E+02  0.7546771E-02  0.1300900E+00
          2   -1    0    0  501    0  0.00000000000E+00  0.00000000000E+00  0.18825056796E+04  0.18825056796E+04  0.00000000000E+00 0. -1.
         -2   -1    0    0    0  501 -0.00000000000E+00 -0.00000000000E+00 -0.10951649285E+01  0.10951649285E+01  0.00000000000E+00 0.  1.
         23    2    1    2    0    0  0.00000000000E+00  0.00000000000E+00  0.18814105146E+04  0.18836008445E+04  0.90810884766E+02 0.  0.
          2    1    3    3  502    0  0.37897947519E+02 -0.23740927183E+02  0.11037223940E+04  0.11046279958E+04  0.00000000000E+00 0. -1.
         -2    1    3    3    0  502 -0.37897947519E+02  0.23740927183E+02  0.77768812062E+03  0.77897284869E+03  0.00000000000E+00 0.  1.
<mgrwt>
<rscale>  0 0.90810885E+02</rscale>
<asrwt>0</asrwt>
<pdfrwt beam="1">  1        2 0.28961367E+00 0.90810885E+02</pdfrwt>
<pdfrwt beam="2">  1       -2 0.16848842E-03 0.90810885E+02</pdfrwt>
<totfact> 0.20954046E+05</totfact>
</mgrwt>
</event>
<event>
 5    1  0.3858870E+001  0.9155433E+02  0.7546771E-02  0.1299131E+00
         -2   -1    0    0    0  501 -0.00000000000E+00  0.00000000000E+00  0.49183199360E+01  0.49183199360E+01  0.00000000000E+00 0.  1.
          2   -1    0    0  501    0  0.00000000000E+00 -0.00000000000E+00 -0.42607005147E+03  0.42607005147E+03  0.00000000000E+00 0. -1.
         23    2    1    2    0    0  0.00000000000E+00  0.00000000000E+00 -0.42115173154E+03  0.43098837141E+03  0.91554329844E+02 0.  0.
          2    1    3    3  502    0 -0.15273846315E+02 -0.42331270759E+02 -0.25005177640E+03  0.25406912002E+03  0.00000000000E+00 0. -1.
         -2    1    3    3    0  502  0.15273846315E+02  0.42331270759E+02 -0.17109995513E+03  0.17691925139E+03  0.00000000000E+00 0.  1.
<mgrwt>
<rscale>  0 0.91554330E+02</rscale>
<asrwt>0</asrwt>
<pdfrwt beam="2">  1        2 0.65549218E-01 0.91554330E+02</pdfrwt>
<pdfrwt beam="1">  1       -2 0.75666484E-03 0.91554330E+02</pdfrwt>
<totfact> 0.20191048E+05</totfact>
</mgrwt>
</event>
<event>
 5    1  0.3858870E+001  0.9146598E+02  0.7546771E-02  0.1299340E+00
         -3   -1    0    0    0  501 -0.00000000000E+00  0.00000000000E+00  0.46516058446E+02  0.46516058446E+02  0.00000000000E+00 0.  1.
          3   -1    0    0  501    0  0.00000000000E+00 -0.00000000000E+00 -0.44963105850E+02  0.44963105850E+02  0.00000000000E+00 0. -1.
         23    2    1    2    0    0  0.00000000000E+00  0.00000000000E+00  0.15529525961E+01  0.91479164295E+02  0.91465981864E+02 0.  0.
          2    1    3    3  502    0 -0.35676170333E+02  0.26833967603E+02 -0.91575033638E+01  0.45570942659E+02  0.00000000000E+00 0. -1.
         -2    1    3    3    0  502  0.35676170333E+02 -0.26833967603E+02  0.10710455960E+02  0.45908221636E+02  0.00000000000E+00 0.  1.
<mgrwt>
<rscale>  0 0.91465982E+02</rscale>
<asrwt>0</asrwt>
<pdfrwt beam="2">  1        3 0.69174009E-02 0.91465982E+02</pdfrwt>
<pdfrwt beam="1">  1       -3 0.71563167E-02 0.91465982E+02</pdfrwt>
<totfact> 0.35011402E+04</totfact>
</mgrwt>
</event>
<event>
 5    1  0.3858870E+001  0.9201943E+02  0.7546771E-02  0.1298034E+00
          3   -1    0    0  501    0  0.00000000000E+00  0.00000000000E+00  0.45260878567E+01  0.45260878567E+01  0.00000000000E+00 0. -1.
         -3   -1    0    0    0  501 -0.00000000000E+00 -0.00000000000E+00 -0.46770935985E+03  0.46770935985E+03  0.00000000000E+00 0.  1.
         23    2    1    2    0    0  0.00000000000E+00  0.00000000000E+00 -0.46318327200E+03  0.47223544771E+03  0.92019425213E+02 0.  0.
          2    1    3    3  502    0 -0.18873947932E+01  0.28205472181E+02 -0.45296732486E+02  0.53393865696E+02  0.00000000000E+00 0. -1.
         -2    1    3    3    0  502  0.18873947932E+01 -0.28205472181E+02 -0.41788653951E+03  0.41884158201E+03  0.00000000000E+00 0.  1.
<mgrwt>
<rscale>  0 0.92019425E+02</rscale>
<asrwt>0</asrwt>
<pdfrwt beam="1">  1        3 0.69632139E-03 0.92019425E+02</pdfrwt>
<pdfrwt beam="2">  1       -3 0.71955267E-01 0.92019425E+02</pdfrwt>
<totfact> 0.18133118E+04</totfact>
</mgrwt>
</event>
<event>
 5    1  0.3858870E+001  0.1060346E+03  0.7546771E-02  0.1268095E+00
         -1   -1    0    0    0  501 -0.00000000000E+00  0.00000000000E+00  0.59750461384E+01  0.59750461384E+01  0.00000000000E+00 0.  1.
          1   -1    0    0  501    0  0.00000000000E+00 -0.00000000000E+00 -0.47042885304E+03  0.47042885304E+03  0.00000000000E+00 0. -1.
         23    2    1    2    0    0  0.00000000000E+00  0.00000000000E+00 -0.46445380690E+03  0.47640389917E+03  0.10603460005E+03 0.  0.
          2    1    3    3  502    0 -0.47875608337E+02  0.22766989589E+02 -0.22929990754E+03  0.23534837430E+03  0.00000000000E+00 0. -1.
         -2    1    3    3    0  502  0.47875608337E+02 -0.22766989589E+02 -0.23515389936E+03  0.24105552488E+03  0.00000000000E+00 0.  1.
<mgrwt>
<rscale>  0 0.10603460E+03</rscale>
<asrwt>0</asrwt>
<pdfrwt beam="2">  1        1 0.72373703E-01 0.10603460E+03</pdfrwt>
<pdfrwt beam="1">  1       -1 0.91923744E-03 0.10603460E+03</pdfrwt>
<totfact> 0.92333603E+04</totfact>
</mgrwt>
</event>
<event>
 5    1  0.3858870E+001  0.9286943E+02  0.7546771E-02  0.1296048E+00
         -1   -1    0    0    0  501 -0.00000000000E+00  0.00000000000E+00  0.11468817075E+03  0.11468817075E+03  0.00000000000E+00 0.  1.
          1   -1    0    0  501    0  0.00000000000E+00 -0.00000000000E+00 -0.18800394761E+02  0.18800394761E+02  0.00000000000E+00 0. -1.
         23    2    1    2    0    0  0.00000000000E+00  0.00000000000E+00  0.95887775988E+02  0.13348856551E+03  0.92869432744E+02 0.  0.
          2    1    3    3  502    0  0.35730295658E+02  0.33618222301E-02  0.53157545218E+01  0.36123555822E+02  0.00000000000E+00 0. -1.
         -2    1    3    3    0  502 -0.35730295658E+02 -0.33618222301E-02  0.90572021466E+02  0.97365009688E+02  0.00000000000E+00 0.  1.
<mgrwt>
<rscale>  0 0.92869433E+02</rscale>
<asrwt>0</asrwt>
<pdfrwt beam="2">  1        1 0.28923685E-02 0.92869433E+02</pdfrwt>
<pdfrwt beam="1">  1       -1 0.17644333E-01 0.92869433E+02</pdfrwt>
<totfact> 0.75570438E+04</totfact>
</mgrwt>
</event>
<event>
 5    1  0.3858870E+001  0.9115986E+02  0.7546771E-02  0.1300067E+00
          1   -1    0    0  501    0  0.00000000000E+00  0.00000000000E+00  0.11394143455E+04  0.11394143455E+04  0.00000000000E+00 0. -1.
         -1   -1    0    0    0  501 -0.00000000000E+00 -0.00000000000E+00 -0.18233313746E+01  0.18233313746E+01  0.00000000000E+00 0.  1.
         23    2    1    2    0    0  0.00000000000E+00  0.00000000000E+00  0.11375910141E+04  0.11412376769E+04  0.91159857938E+02 0.  0.
          2    1    3    3  502    0  0.37234364989E+02 -0.94263041849E+01  0.87603038811E+03  0.87687199410E+03  0.00000000000E+00 0. -1.
         -2    1    3    3    0  502 -0.37234364989E+02  0.94263041849E+01  0.26156062602E+03  0.26436568278E+03  0.00000000000E+00 0.  1.
<mgrwt>
<rscale>  0 0.91159858E+02</rscale>
<asrwt>0</asrwt>
<pdfrwt beam="1">  1        1 0.17529395E+00 0.91159858E+02</pdfrwt>
<pdfrwt beam="2">  1       -1 0.28051343E-03 0.91159858E+02</pdfrwt>
<totfact> 0.13028604E+05</totfact>
</mgrwt>
</event>
<event>
 5    1  0.3858870E+001  0.8757625E+02  0.7546771E-02  0.1308830E+00
          1   -1    0    0  501    0  0.00000000000E+00  0.00000000000E+00  0.44106863283E+03  0.44106863283E+03  0.00000000000E+00 0. -1.
         -1   -1    0    0    0  501 -0.00000000000E+00 -0.00000000000E+00 -0.43471692457E+01  0.43471692457E+01  0.00000000000E+00 0.  1.
         23    2    1    2    0    0  0.00000000000E+00  0.00000000000E+00  0.43672146358E+03  0.44541580207E+03  0.87576252395E+02 0.  0.
          2    1    3    3  502    0 -0.18772949551E+02  0.10870446310E+02  0.41181796772E+03  0.41238892902E+03  0.00000000000E+00 0. -1.
         -2    1    3    3    0  502  0.18772949551E+02 -0.10870446310E+02  0.24903495861E+02  0.33026873057E+02  0.00000000000E+00 0.  1.
<mgrwt>
<rscale>  0 0.87576252E+02</rscale>
<asrwt>0</asrwt>
<pdfrwt beam="1">  1        1 0.67856677E-01 0.87576252E+02</pdfrwt>
<pdfrwt beam="2">  1       -1 0.66879562E-03 0.87576252E+02</pdfrwt>
<totfact> 0.15237069E+05</totfact>
</mgrwt>
</event>
<event>
 5    1  0.3858870E+001  0.9215520E+02  0.7546771E-02  0.1297715E+00
          1   -1    0    0  501    0  0.00000000000E+00  0.00000000000E+00  0.15405058944E+03  0.15405058944E+03  0.00000000000E+00 0. -1.
         -1   -1    0    0    0  501 -0.00000000000E+00 -0.00000000000E+00 -0.13782129224E+02  0.13782129224E+02  0.00000000000E+00 0.  1.
         23    2    1    2    0    0  0.00000000000E+00  0.00000000000E+00  0.14026846021E+03  0.16783271866E+03  0.92155198023E+02 0.  0.
          2    1    3    3  502    0 -0.20899673600E+02 -0.81562479902E+01  0.14343199983E+03  0.14517595983E+03  0.00000000000E+00 0. -1.
         -2    1    3    3    0  502  0.20899673600E+02  0.81562479902E+01 -0.31635396144E+01  0.22656758832E+02  0.00000000000E+00 0.  1.
<mgrwt>
<rscale>  0 0.92155198E+02</rscale>
<asrwt>0</asrwt>
<pdfrwt beam="1">  1        1 0.23700089E-01 0.92155198E+02</pdfrwt>
<pdfrwt beam="2">  1       -1 0.21203277E-02 0.92155198E+02</pdfrwt>
<totfact> 0.10948377E+05</totfact>
</mgrwt>
</event>
<event>
 5    1  0.3858870E+001  0.9047861E+02  0.7546771E-02  0.1301697E+00
         -2   -1    0    0    0  501 -0.00000000000E+00  0.00000000000E+00  0.16043515562E+01  0.16043515562E+01  0.00000000000E+00 0.  1.
          2   -1    0    0  501    0  0.00000000000E+00 -0.00000000000E+00 -0.12756522697E+04  0.12756522697E+04  0.00000000000E+00 0. -1.
         23    2    1    2    0    0  0.00000000000E+00  0.00000000000E+00 -0.12740479182E+04  0.12772566213E+04  0.90478609718E+02 0.  0.
          2    1    3    3  502    0  0.67170827405E+01  0.36194808747E+02 -0.10082175662E+04  0.10088894113E+04  0.00000000000E+00 0. -1.
         -2    1    3    3    0  502 -0.67170827405E+01 -0.36194808747E+02 -0.26583035198E+03  0.26836721002E+03  0.00000000000E+00 0.  1.
<mgrwt>
<rscale>  0 0.90478610E+02</rscale>
<asrwt>0</asrwt>
<pdfrwt beam="2">  1        2 0.19625458E+00 0.90478610E+02</pdfrwt>
<pdfrwt beam="1">  1       -2 0.24682283E-03 0.90478610E+02</pdfrwt>
<totfact> 0.25158898E+05</totfact>
</mgrwt>
</event>
<event>
 5    1  0.3858870E+001  0.9114919E+02  0.7546771E-02  0.1300092E+00
         -2   -1    0    0    0  501 -0.00000000000E+00  0.00000000000E+00  0.33482141318E+01  0.33482141318E+01  0.00000000000E+00 0.  1.
          2   -1    0    0  501    0  0.00000000000E+00 -0.00000000000E+00 -0.62034376898E+03  0.62034376898E+03  0.00000000000E+00 0. -1.
         23    2    1    2    0    0  0.00000000000E+00  0.00000000000E+00 -0.61699555485E+03  0.62369198312E+03  0.91149191415E+02 0.  0.
          2    1    3    3  502    0 -0.18430614510E+02 -0.18641395410E+02 -0.56359282407E+03  0.56420214509E+03  0.00000000000E+00 0. -1.
         -2    1    3    3    0  502  0.18430614510E+02  0.18641395410E+02 -0.53402730781E+02  0.59489838031E+02  0.00000000000E+00 0.  1.
<mgrwt>
<rscale>  0 0.91149191E+02</rscale>
<asrwt>0</asrwt>
<pdfrwt beam="2">  1        2 0.95437495E-01 0.91149191E+02</pdfrwt>
<pdfrwt beam="1">  1       -2 0.51510991E-03 0.91149191E+02</pdfrwt>
<totfact> 0.23016043E+05</totfact>
</mgrwt>
</event>
<event>
 5    1  0.3858870E+001  0.9253156E+02  0.7546771E-02  0.1296834E+00
         -2   -1    0    0    0  501 -0.00000000000E+00  0.00000000000E+00  0.13899023466E+01  0.13899023466E+01  0.00000000000E+00 0.  1.
          2   -1    0    0  501    0  0.00000000000E+00 -0.00000000000E+00 -0.15400523949E+04  0.15400523949E+04  0.00000000000E+00 0. -1.
         23    2    1    2    0    0  0.00000000000E+00  0.00000000000E+00 -0.15386624925E+04  0.15414422972E+04  0.92531560834E+02 0.  0.
          2    1    3    3  502    0 -0.13864370811E+02 -0.40148878503E+02 -0.46380712446E+03  0.46574800259E+03  0.00000000000E+00 0. -1.
         -2    1    3    3    0  502  0.13864370811E+02  0.40148878503E+02 -0.10748553681E+04  0.10756942946E+04  0.00000000000E+00 0.  1.
<mgrwt>
<rscale>  0 0.92531561E+02</rscale>
<asrwt>0</asrwt>
<pdfrwt beam="2">  1        2 0.23693144E+00 0.92531561E+02</pdfrwt>
<pdfrwt beam="1">  1       -2 0.21383085E-03 0.92531561E+02</pdfrwt>
<totfact> 0.22459886E+05</totfact>
</mgrwt>
</event>
<event>
 5    1  0.3858870E+001  0.9038041E+02  0.7546771E-02  0.1301933E+00
          1   -1    0    0  501    0  0.00000000000E+00  0.00000000000E+00  0.13257651857E+03  0.13257651857E+03  0.00000000000E+00 0. -1.
         -1   -1    0    0    0  501 -0.00000000000E+00 -0.00000000000E+00 -0.15403590531E+02  0.15403590531E+02  0.00000000000E+00 0.  1.
         23    2    1    2    0    0  0.00000000000E+00  0.00000000000E+00  0.11717292804E+03  0.14798010910E+03  0.90380405091E+02 0.  0.
          2    1    3    3  502    0  0.22574598572E+02  0.31540752416E+02  0.96553640633E+02  0.10405304937E+03  0.00000000000E+00 0. -1.
         -2    1    3    3    0  502 -0.22574598572E+02 -0.31540752416E+02  0.20619287411E+02  0.43927059735E+02  0.00000000000E+00 0.  1.
<mgrwt>
<rscale>  0 0.90380405E+02</rscale>
<asrwt>0</asrwt>
<pdfrwt beam="1">  1        1 0.20396387E-01 0.90380405E+02</pdfrwt>
<pdfrwt beam="2">  1       -1 0.23697832E-02 0.90380405E+02</pdfrwt>
<totfact> 0.11228099E+05</totfact>
</mgrwt>
</event>
<event>
 5    1  0.3858870E+001  0.8162439E+02  0.7546771E-02  0.1324504E+00
          1   -1    0    0  501    0  0.00000000000E+00  0.00000000000E+00  0.34628817563E+03  0.34628817563E+03  0.00000000000E+00 0. -1.
         -1   -1    0    0    0  501 -0.00000000000E+00 -0.00000000000E+00 -0.48099687729E+01  0.48099687729E+01  0.00000000000E+00 0.  1.
         23    2    1    2    0    0  0.00000000000E+00  0.00000000000E+00  0.34147820686E+03  0.35109814441E+03  0.81624391238E+02 0.  0.
          2    1    3    3  502    0 -0.34961865206E+02  0.13959124526E+02  0.23853832403E+03  0.24149062343E+03  0.00000000000E+00 0. -1.
         -2    1    3    3    0  502  0.34961865206E+02 -0.13959124526E+02  0.10293988283E+03  0.10960752097E+03  0.00000000000E+00 0.  1.
<mgrwt>
<rscale>  0 0.81624391E+02</rscale>
<asrwt>0</asrwt>
<pdfrwt beam="1">  1        1 0.53275084E-01 0.81624391E+02</pdfrwt>
<pdfrwt beam="2">  1       -1 0.73999547E-03 0.81624391E+02</pdfrwt>
<totfact> 0.17630402E+05</totfact>
</mgrwt>
</event>
<event>
 5    1  0.3858870E+001  0.9477973E+02  0.7546771E-02  0.1291673E+00
         -1   -1    0    0    0  501 -0.00000000000E+00  0.00000000000E+00  0.77049149790E+00  0.77049149790E+00  0.00000000000E+00 0.  1.
          1   -1    0    0  501    0  0.00000000000E+00 -0.00000000000E+00 -0.29147618371E+04  0.29147618371E+04  0.00000000000E+00 0. -1.
         23    2    1    2    0    0  0.00000000000E+00  0.00000000000E+00 -0.29139913456E+04  0.29155323286E+04  0.94779728083E+02 0.  0.
          2    1    3    3  502    0 -0.45762137681E+02  0.11314736991E+02 -0.16064412978E+04  0.16071328009E+04  0.00000000000E+00 0. -1.
         -2    1    3    3    0  502  0.45762137681E+02 -0.11314736991E+02 -0.13075500478E+04  0.13083995277E+04  0.00000000000E+00 0.  1.
<mgrwt>
<rscale>  0 0.94779728E+02</rscale>
<asrwt>0</asrwt>
<pdfrwt beam="2">  1        1 0.44842828E+00 0.94779728E+02</pdfrwt>
<pdfrwt beam="1">  1       -1 0.11853626E-03 0.94779728E+02</pdfrwt>
<totfact> 0.31100706E+04</totfact>
</mgrwt>
</event>
<event>
 5    1  0.3858870E+001  0.9116846E+02  0.7546771E-02  0.1300047E+00
          2   -1    0    0  501    0  0.00000000000E+00  0.00000000000E+00  0.11010380638E+02  0.11010380638E+02  0.00000000000E+00 0. -1.
         -2   -1    0    0    0  501 -0.00000000000E+00 -0.00000000000E+00 -0.18872389111E+03  0.18872389111E+03  0.00000000000E+00 0.  1.
         23    2    1    2    0    0  0.00000000000E+00  0.00000000000E+00 -0.17771351047E+03  0.19973427175E+03  0.91168456751E+02 0.  0.
          2    1    3    3  502    0  0.33518588025E+02  0.11356905073E+02 -0.25913015594E+02  0.43862961747E+02  0.00000000000E+00 0. -1.
         -2    1    3    3    0  502 -0.33518588025E+02 -0.11356905073E+02 -0.15180049488E+03  0.15587131000E+03  0.00000000000E+00 0.  1.
<mgrwt>
<rscale>  0 0.91168457E+02</rscale>
<asrwt>0</asrwt>
<pdfrwt beam="1">  1        2 0.16939049E-02 0.91168457E+02</pdfrwt>
<pdfrwt beam="2">  1       -2 0.29034441E-01 0.91168457E+02</pdfrwt>
<totfact> 0.63891495E+04</totfact>
</mgrwt>
</event>
<event>
 5    1  0.3858870E+001  0.9291422E+02  0.7546771E-02  0.1295944E+00
         -1   -1    0    0    0  501 -0.00000000000E+00  0.00000000000E+00  0.21115312023E+01  0.21115312023E+01  0.00000000000E+00 0.  1.
          1   -1    0    0  501    0  0.00000000000E+00 -0.00000000000E+00 -0.10221318410E+04  0.10221318410E+04  0.00000000000E+00 0. -1.
         23    2    1    2    0    0  0.00000000000E+00  0.00000000000E+00 -0.10200203098E+04  0.10242433722E+04  0.92914224427E+02 0.  0.
          2    1    3    3  502    0  0.25015692378E+02  0.12480168231E+02 -0.91902998894E+03  0.91945508865E+03  0.00000000000E+00 0. -1.
         -2    1    3    3    0  502 -0.25015692378E+02 -0.12480168231E+02 -0.10099032090E+03  0.10478828360E+03  0.00000000000E+00 0.  1.
<mgrwt>
<rscale>  0 0.92914224E+02</rscale>
<asrwt>0</asrwt>
<pdfrwt beam="2">  1        1 0.15725100E+00 0.92914224E+02</pdfrwt>
<pdfrwt beam="1">  1       -1 0.32485105E-03 0.92914224E+02</pdfrwt>
<totfact> 0.12860852E+05</totfact>
</mgrwt>
</event>
<event>
 5    1  0.3858870E+001  0.9181362E+02  0.7546771E-02  0.1298518E+00
         -1   -1    0    0    0  501 -0.00000000000E+00  0.00000000000E+00  0.62848139529E+03  0.62848139529E+03  0.00000000000E+00 0.  1.
          1   -1    0    0  501    0  0.00000000000E+00 -0.00000000000E+00 -0.33532180241E+01  0.33532180241E+01  0.00000000000E+00 0. -1.
         23    2    1    2    0    0  0.00000000000E+00  0.00000000000E+00  0.62512817726E+03  0.63183461331E+03  0.91813618651E+02 0.  0.
          2    1    3    3  502    0 -0.28511765814E+01  0.32300008191E+02  0.88933381954E+02  0.94660267076E+02  0.00000000000E+00 0. -1.
         -2    1    3    3    0  502  0.28511765814E+01 -0.32300008191E+02  0.53619479531E+03  0.53717434623E+03  0.00000000000E+00 0.  1.
<mgrwt>
<rscale>  0 0.91813619E+02</rscale>
<asrwt>0</asrwt>
<pdfrwt beam="2">  1        1 0.51588020E-03 0.91813619E+02</pdfrwt>
<pdfrwt beam="1">  1       -1 0.96689352E-01 0.91813619E+02</pdfrwt>
<totfact> 0.39469148E+04</totfact>
</mgrwt>
</event>
<event>
 5    1  0.3858870E+001  0.9027046E+02  0.7546771E-02  0.1302198E+00
         -4   -1    0    0    0  501 -0.00000000000E+00  0.00000000000E+00  0.55379924668E+02  0.55379924668E+02  0.00000000000E+00 0. -1.
          4   -1    0    0  501    0  0.00000000000E+00 -0.00000000000E+00 -0.36785692241E+02  0.36785692241E+02  0.00000000000E+00 0.  1.
         23    2    1    2    0    0  0.00000000000E+00  0.00000000000E+00  0.18594232427E+02  0.92165616909E+02  0.90270457298E+02 0.  0.
          2    1    3    3  502    0 -0.41326441525E+01 -0.25546003507E+02  0.47053364782E+02  0.53700057544E+02  0.00000000000E+00 0. -1.
         -2    1    3    3    0  502  0.41326441525E+01  0.25546003507E+02 -0.28459132355E+02  0.38465559366E+02  0.00000000000E+00 0.  1.
<mgrwt>
<rscale>  0 0.90270457E+02</rscale>
<asrwt>0</asrwt>
<pdfrwt beam="2">  1        4 0.56593373E-02 0.90270457E+02</pdfrwt>
<pdfrwt beam="1">  1       -4 0.85199884E-02 0.90270457E+02</pdfrwt>
<totfact> 0.27692059E+04</totfact>
</mgrwt>
</event>
<event>
 5    1  0.3858870E+001  0.9878051E+02  0.7546771E-02  0.1282881E+00
         -1   -1    0    0    0  501 -0.00000000000E+00  0.00000000000E+00  0.35982177983E+01  0.35982177983E+01  0.00000000000E+00 0.  1.
          1   -1    0    0  501    0  0.00000000000E+00 -0.00000000000E+00 -0.67794594481E+03  0.67794594481E+03  0.00000000000E+00 0. -1.
         23    2    1    2    0    0  0.00000000000E+00  0.00000000000E+00 -0.67434772701E+03  0.68154416261E+03  0.98780507489E+02 0.  0.
          2    1    3    3  502    0  0.10990866515E+02  0.48142634912E+02 -0.34366358623E+03  0.34719327894E+03  0.00000000000E+00 0.  1.
         -2    1    3    3    0  502 -0.10990866515E+02 -0.48142634912E+02 -0.33068414078E+03  0.33435088367E+03  0.00000000000E+00 0. -1.
<mgrwt>
<rscale>  0 0.98780507E+02</rscale>
<asrwt>0</asrwt>
<pdfrwt beam="2">  1        1 0.10429935E+00 0.98780507E+02</pdfrwt>
<pdfrwt beam="1">  1       -1 0.55357213E-03 0.98780507E+02</pdfrwt>
<totfact> 0.11493520E+05</totfact>
</mgrwt>
</event>
<event>
 5    1  0.3858870E+001  0.1026666E+03  0.7546771E-02  0.1274786E+00
         -2   -1    0    0    0  501 -0.00000000000E+00  0.00000000000E+00  0.96982960852E+01  0.96982960852E+01  0.00000000000E+00 0.  1.
          2   -1    0    0  501    0  0.00000000000E+00 -0.00000000000E+00 -0.27170808115E+03  0.27170808115E+03  0.00000000000E+00 0. -1.
         23    2    1    2    0    0  0.00000000000E+00  0.00000000000E+00 -0.26200978507E+03  0.28140637724E+03  0.10266655580E+03 0.  0.
          2    1    3    3  502    0  0.18350007025E+02  0.40769950998E+02 -0.20014015949E+03  0.20507314573E+03  0.00000000000E+00 0. -1.
         -2    1    3    3    0  502 -0.18350007025E+02 -0.40769950998E+02 -0.61869625583E+02  0.76333231505E+02  0.00000000000E+00 0.  1.
<mgrwt>
<rscale>  0 0.10266656E+03</rscale>
<asrwt>0</asrwt>
<pdfrwt beam="2">  1        2 0.41801246E-01 0.10266656E+03</pdfrwt>
<pdfrwt beam="1">  1       -2 0.14920455E-02 0.10266656E+03</pdfrwt>
<totfact> 0.12578174E+05</totfact>
</mgrwt>
</event>
<event>
 5    1  0.3858870E+001  0.8939667E+02  0.7546771E-02  0.1304319E+00
          1   -1    0    0  501    0  0.00000000000E+00  0.00000000000E+00  0.93796269101E+03  0.93796269101E+03  0.00000000000E+00 0. -1.
         -1   -1    0    0    0  501 -0.00000000000E+00 -0.00000000000E+00 -0.21300858450E+01  0.21300858450E+01  0.00000000000E+00 0.  1.
         23    2    1    2    0    0  0.00000000000E+00  0.00000000000E+00  0.93583260516E+03  0.94009277685E+03  0.89396667750E+02 0.  0.
          2    1    3    3  502    0 -0.22262597236E+02  0.13483695486E+00  0.87551019320E+03  0.87579320608E+03  0.00000000000E+00 0. -1.
         -2    1    3    3    0  502  0.22262597236E+02 -0.13483695486E+00  0.60322411961E+02  0.64299570772E+02  0.00000000000E+00 0.  1.
<mgrwt>
<rscale>  0 0.89396668E+02</rscale>
<asrwt>0</asrwt>
<pdfrwt beam="1">  1        1 0.14430162E+00 0.89396668E+02</pdfrwt>
<pdfrwt beam="2">  1       -1 0.32770626E-03 0.89396668E+02</pdfrwt>
<totfact> 0.14546895E+05</totfact>
</mgrwt>
</event>
<event>
 5    1  0.3858870E+001  0.9015118E+02  0.7546771E-02  0.1302486E+00
         -2   -1    0    0    0  501 -0.00000000000E+00  0.00000000000E+00  0.89684972528E+00  0.89684972528E+00  0.00000000000E+00 0.  1.
          2   -1    0    0  501    0  0.00000000000E+00 -0.00000000000E+00 -0.22654953200E+04  0.22654953200E+04  0.00000000000E+00 0. -1.
         23    2    1    2    0    0  0.00000000000E+00  0.00000000000E+00 -0.22645984703E+04  0.22663921697E+04  0.90151180921E+02 0.  0.
          2    1    3    3  502    0 -0.34983311996E+02  0.28396258230E+02 -0.11002100814E+04  0.11011323276E+04  0.00000000000E+00 0. -1.
         -2    1    3    3    0  502  0.34983311996E+02 -0.28396258230E+02 -0.11643883889E+04  0.11652598422E+04  0.00000000000E+00 0.  1.
<mgrwt>
<rscale>  0 0.90151181E+02</rscale>
<asrwt>0</asrwt>
<pdfrwt beam="2">  1        2 0.34853308E+00 0.90151181E+02</pdfrwt>
<pdfrwt beam="1">  1       -2 0.13797872E-03 0.90151181E+02</pdfrwt>
<totfact> 0.17674115E+05</totfact>
</mgrwt>
</event>
<event>
 5    1  0.3858870E+001  0.9364103E+02  0.7546771E-02  0.1294266E+00
          1   -1    0    0  501    0  0.00000000000E+00  0.00000000000E+00  0.23913401037E+03  0.23913401037E+03  0.00000000000E+00 0. -1.
         -1   -1    0    0    0  501 -0.00000000000E+00 -0.00000000000E+00 -0.91670807548E+01  0.91670807548E+01  0.00000000000E+00 0.  1.
         23    2    1    2    0    0  0.00000000000E+00  0.00000000000E+00  0.22996692961E+03  0.24830109112E+03  0.93641033405E+02 0.  0.
          2    1    3    3  502    0 -0.31782537662E+02  0.31558880821E+01  0.20576331769E+03  0.20822735709E+03  0.00000000000E+00 0. -1.
         -2    1    3    3    0  502  0.31782537662E+02 -0.31558880821E+01  0.24203611919E+02  0.40073734038E+02  0.00000000000E+00 0.  1.
<mgrwt>
<rscale>  0 0.93641033E+02</rscale>
<asrwt>0</asrwt>
<pdfrwt beam="1">  1        1 0.36789843E-01 0.93641033E+02</pdfrwt>
<pdfrwt beam="2">  1       -1 0.14103203E-02 0.93641033E+02</pdfrwt>
<totfact> 0.11414953E+05</totfact>
</mgrwt>
</event>
<event>
 5    1  0.3858870E+001  0.9083571E+02  0.7546771E-02  0.1300840E+00
         -1   -1    0    0    0  501 -0.00000000000E+00  0.00000000000E+00  0.57222385014E+02  0.57222385014E+02  0.00000000000E+00 0.  1.
          1   -1    0    0  501    0  0.00000000000E+00 -0.00000000000E+00 -0.36048507439E+02  0.36048507439E+02  0.00000000000E+00 0. -1.
         23    2    1    2    0    0  0.00000000000E+00  0.00000000000E+00  0.21173877575E+02  0.93270892453E+02  0.90835710420E+02 0.  0.
          2    1    3    3  502    0 -0.33858067644E+01 -0.27480207173E+02 -0.26380398406E+02  0.38243311752E+02  0.00000000000E+00 0. -1.
         -2    1    3    3    0  502  0.33858067644E+01  0.27480207173E+02  0.47554275981E+02  0.55027580701E+02  0.00000000000E+00 0.  1.
<mgrwt>
<rscale>  0 0.90835710E+02</rscale>
<asrwt>0</asrwt>
<pdfrwt beam="2">  1        1 0.55459242E-02 0.90835710E+02</pdfrwt>
<pdfrwt beam="1">  1       -1 0.88034438E-02 0.90835710E+02</pdfrwt>
<totfact> 0.90185798E+04</totfact>
</mgrwt>
</event>
<event>
 5    1  0.3858870E+001  0.9115008E+02  0.7546771E-02  0.1300090E+00
         -2   -1    0    0    0  501 -0.00000000000E+00  0.00000000000E+00  0.19210524772E+01  0.19210524772E+01  0.00000000000E+00 0.  1.
          2   -1    0    0  501    0  0.00000000000E+00 -0.00000000000E+00 -0.10812220139E+04  0.10812220139E+04  0.00000000000E+00 0. -1.
         23    2    1    2    0    0  0.00000000000E+00  0.00000000000E+00 -0.10793009614E+04  0.10831430664E+04  0.91150079061E+02 0.  0.
          2    1    3    3  502    0  0.35429425713E+02 -0.26376264814E+02 -0.67310785613E+03  0.67455551109E+03  0.00000000000E+00 0. -1.
         -2    1    3    3    0  502 -0.35429425713E+02  0.26376264814E+02 -0.40619310530E+03  0.40858755530E+03  0.00000000000E+00 0.  1.
<mgrwt>
<rscale>  0 0.91150079E+02</rscale>
<asrwt>0</asrwt>
<pdfrwt beam="2">  1        2 0.16634209E+00 0.91150079E+02</pdfrwt>
<pdfrwt beam="1">  1       -2 0.29554611E-03 0.91150079E+02</pdfrwt>
<totfact> 0.25048486E+05</totfact>
</mgrwt>
</event>
<event>
 5    1  0.3858870E+001  0.9168008E+02  0.7546771E-02  0.1298833E+00
          2   -1    0    0  501    0  0.00000000000E+00  0.00000000000E+00  0.20706018480E+04  0.20706018480E+04  0.00000000000E+00 0. -1.
         -2   -1    0    0    0  501 -0.00000000000E+00 -0.00000000000E+00 -0.10148302400E+01  0.10148302400E+01  0.00000000000E+00 0.  1.
         23    2    1    2    0    0  0.00000000000E+00  0.00000000000E+00  0.20695870177E+04  0.20716166782E+04  0.91680082248E+02 0.  0.
          2    1    3    3  502    0 -0.26940006196E+01 -0.43583398917E+02  0.71962862489E+03  0.72095223702E+03  0.00000000000E+00 0.  1.
         -2    1    3    3    0  502  0.26940006196E+01  0.43583398917E+02  0.13499583929E+04  0.13506644412E+04  0.00000000000E+00 0. -1.
<mgrwt>
<rscale>  0 0.91680082E+02</rscale>
<asrwt>0</asrwt>
<pdfrwt beam="1">  1        2 0.31855075E+00 0.91680082E+02</pdfrwt>
<pdfrwt beam="2">  1       -2 0.15612939E-03 0.91680082E+02</pdfrwt>
<totfact> 0.18749774E+05</totfact>
</mgrwt>
</event>
<event>
 5    1  0.3858870E+001  0.9015547E+02  0.7546771E-02  0.1302476E+00
         -1   -1    0    0    0  501 -0.00000000000E+00  0.00000000000E+00  0.92566959675E+01  0.92566959675E+01  0.00000000000E+00 0.  1.
          1   -1    0    0  501    0  0.00000000000E+00 -0.00000000000E+00 -0.21951698301E+03  0.21951698301E+03  0.00000000000E+00 0. -1.
         23    2    1    2    0    0  0.00000000000E+00  0.00000000000E+00 -0.21026028704E+03  0.22877367897E+03  0.90155465090E+02 0.  0.
          2    1    3    3  502    0 -0.20437948291E+02  0.59673919030E+01 -0.20595355589E+03  0.20705116923E+03  0.00000000000E+00 0. -1.
         -2    1    3    3    0  502  0.20437948291E+02 -0.59673919030E+01 -0.43067311528E+01  0.21722509746E+02  0.00000000000E+00 0.  1.
<mgrwt>
<rscale>  0 0.90155465E+02</rscale>
<asrwt>0</asrwt>
<pdfrwt beam="2">  1        1 0.33771839E-01 0.90155465E+02</pdfrwt>
<pdfrwt beam="1">  1       -1 0.14241072E-02 0.90155465E+02</pdfrwt>
<totfact> 0.12425937E+05</totfact>
</mgrwt>
</event>
<event>
 5    1  0.3858870E+001  0.8991034E+02  0.7546771E-02  0.1303069E+00
          1   -1    0    0  501    0  0.00000000000E+00  0.00000000000E+00  0.12909959577E+02  0.12909959577E+02  0.00000000000E+00 0. -1.
         -1   -1    0    0    0  501 -0.00000000000E+00 -0.00000000000E+00 -0.15654327641E+03  0.15654327641E+03  0.00000000000E+00 0.  1.
         23    2    1    2    0    0  0.00000000000E+00  0.00000000000E+00 -0.14363331684E+03  0.16945323599E+03  0.89910341353E+02 0.  0.
          2    1    3    3  502    0 -0.41495315120E+02 -0.12763280007E+02 -0.49821021121E+02  0.66082498734E+02  0.00000000000E+00 0. -1.
         -2    1    3    3    0  502  0.41495315120E+02  0.12763280007E+02 -0.93812295716E+02  0.10337073726E+03  0.00000000000E+00 0.  1.
<mgrwt>
<rscale>  0 0.89910341E+02</rscale>
<asrwt>0</asrwt>
<pdfrwt beam="1">  1        1 0.19861477E-02 0.89910341E+02</pdfrwt>
<pdfrwt beam="2">  1       -1 0.24083580E-01 0.89910341E+02</pdfrwt>
<totfact> 0.76770257E+04</totfact>
</mgrwt>
</event>
<event>
 5    1  0.3858870E+001  0.9104759E+02  0.7546771E-02  0.1300334E+00
         -2   -1    0    0    0  501 -0.00000000000E+00  0.00000000000E+00  0.15444747625E+01  0.15444747625E+01  0.00000000000E+00 0.  1.
          2   -1    0    0  501    0  0.00000000000E+00 -0.00000000000E+00 -0.13418255417E+04  0.13418255417E+04  0.00000000000E+00 0. -1.
         23    2    1    2    0    0  0.00000000000E+00  0.00000000000E+00 -0.13402810669E+04  0.13433700164E+04  0.91047585025E+02 0.  0.
          2    1    3    3  502    0 -0.26988909418E+02 -0.24664289507E+02 -0.26994352089E+03  0.27240821000E+03  0.00000000000E+00 0.  1.
         -2    1    3    3    0  502  0.26988909418E+02  0.24664289507E+02 -0.10703375460E+04  0.10709618064E+04  0.00000000000E+00 0. -1.
<mgrwt>
<rscale>  0 0.91047585E+02</rscale>
<asrwt>0</asrwt>
<pdfrwt beam="2">  1        2 0.20643627E+00 0.91047585E+02</pdfrwt>
<pdfrwt beam="1">  1       -2 0.23760970E-03 0.91047585E+02</pdfrwt>
<totfact> 0.24495907E+05</totfact>
</mgrwt>
</event>
<event>
 5    1  0.3858870E+001  0.9147053E+02  0.7546771E-02  0.1299329E+00
          1   -1    0    0  501    0  0.00000000000E+00  0.00000000000E+00  0.33977489302E+02  0.33977489302E+02  0.00000000000E+00 0. -1.
         -1   -1    0    0    0  501 -0.00000000000E+00 -0.00000000000E+00 -0.61561772834E+02  0.61561772834E+02  0.00000000000E+00 0.  1.
         23    2    1    2    0    0  0.00000000000E+00  0.00000000000E+00 -0.27584283531E+02  0.95539262136E+02  0.91470530290E+02 0.  0.
          2    1    3    3  502    0 -0.27001125432E+02  0.33469553001E+02  0.24710305861E+01  0.43074095984E+02  0.00000000000E+00 0. -1.
         -2    1    3    3    0  502  0.27001125432E+02 -0.33469553001E+02 -0.30055314117E+02  0.52465166152E+02  0.00000000000E+00 0.  1.
<mgrwt>
<rscale>  0 0.91470530E+02</rscale>
<asrwt>0</asrwt>
<pdfrwt beam="1">  1        1 0.52273061E-02 0.91470530E+02</pdfrwt>
<pdfrwt beam="2">  1       -1 0.94710420E-02 0.91470530E+02</pdfrwt>
<totfact> 0.87606662E+04</totfact>
</mgrwt>
</event>
<event>
 5    1  0.3858870E+001  0.9177882E+02  0.7546771E-02  0.1298600E+00
          2   -1    0    0  501    0  0.00000000000E+00  0.00000000000E+00  0.16274959120E+04  0.16274959120E+04  0.00000000000E+00 0. -1.
         -2   -1    0    0    0  501 -0.00000000000E+00 -0.00000000000E+00 -0.12939129140E+01  0.12939129140E+01  0.00000000000E+00 0.  1.
         23    2    1    2    0    0  0.00000000000E+00  0.00000000000E+00  0.16262019991E+04  0.16287898249E+04  0.91778820607E+02 0.  0.
          2    1    3    3  502    0 -0.36345723012E+02 -0.19518017268E+01  0.13090680003E+04  0.13095739194E+04  0.00000000000E+00 0. -1.
         -2    1    3    3    0  502  0.36345723012E+02  0.19518017268E+01  0.31713399885E+03  0.31921590553E+03  0.00000000000E+00 0.  1.
<mgrwt>
<rscale>  0 0.91778821E+02</rscale>
<asrwt>0</asrwt>
<pdfrwt beam="1">  1        2 0.25038235E+00 0.91778821E+02</pdfrwt>
<pdfrwt beam="2">  1       -2 0.19906483E-03 0.91778821E+02</pdfrwt>
<totfact> 0.22371383E+05</totfact>
</mgrwt>
</event>
<event>
 5    1  0.3858870E+001  0.9039453E+02  0.7546771E-02  0.1301899E+00
          1   -1    0    0  501    0  0.00000000000E+00  0.00000000000E+00  0.12775447924E+03  0.12775447924E+03  0.00000000000E+00 0. -1.
         -1   -1    0    0    0  501 -0.00000000000E+00 -0.00000000000E+00 -0.15989988439E+02  0.15989988439E+02  0.00000000000E+00 0.  1.
         23    2    1    2    0    0  0.00000000000E+00  0.00000000000E+00  0.11176449080E+03  0.14374446768E+03  0.90394527404E+02 0.  0.
          2    1    3    3  502    0  0.56260668573E+01 -0.33853180938E+02  0.10265389615E+03  0.10823822284E+03  0.00000000000E+00 0. -1.
         -2    1    3    3    0  502 -0.56260668573E+01  0.33853180938E+02  0.91105946490E+01  0.35506244842E+02  0.00000000000E+00 0.  1.
<mgrwt>
<rscale>  0 0.90394527E+02</rscale>
<asrwt>0</asrwt>
<pdfrwt beam="1">  1        1 0.19654535E-01 0.90394527E+02</pdfrwt>
<pdfrwt beam="2">  1       -1 0.24599983E-02 0.90394527E+02</pdfrwt>
<totfact> 0.11149860E+05</totfact>
</mgrwt>
</event>
<event>
 5    1  0.3858870E+001  0.9457734E+02  0.7546771E-02  0.1292131E+00
          1   -1    0    0  501    0  0.00000000000E+00  0.00000000000E+00  0.42929014203E+02  0.42929014203E+02  0.00000000000E+00 0. -1.
         -1   -1    0    0    0  501 -0.00000000000E+00 -0.00000000000E+00 -0.52091071567E+02  0.52091071567E+02  0.00000000000E+00 0.  1.
         23    2    1    2    0    0  0.00000000000E+00  0.00000000000E+00 -0.91620573641E+01  0.95020085770E+02  0.94577340862E+02 0.  0.
          2    1    3    3  502    0  0.31565738663E+02 -0.74558773867E+01  0.29992745083E+02  0.44176359317E+02  0.00000000000E+00 0. -1.
         -2    1    3    3    0  502 -0.31565738663E+02  0.74558773867E+01 -0.39154802447E+02  0.50843726453E+02  0.00000000000E+00 0.  1.
<mgrwt>
<rscale>  0 0.94577341E+02</rscale>
<asrwt>0</asrwt>
<pdfrwt beam="1">  1        1 0.66044637E-02 0.94577341E+02</pdfrwt>
<pdfrwt beam="2">  1       -1 0.80140110E-02 0.94577341E+02</pdfrwt>
<totfact> 0.82629915E+04</totfact>
</mgrwt>
</event>
<event>
 5    1  0.3858870E+001  0.8629228E+02  0.7546771E-02  0.1312087E+00
         -2   -1    0    0    0  501 -0.00000000000E+00  0.00000000000E+00  0.98198038290E+02  0.98198038290E+02  0.00000000000E+00 0.  1.
          2   -1    0    0  501    0  0.00000000000E+00 -0.00000000000E+00 -0.18957499284E+02  0.18957499284E+02  0.00000000000E+00 0. -1.
         23    2    1    2    0    0  0.00000000000E+00  0.00000000000E+00  0.79240539007E+02  0.11715553757E+03  0.86292276376E+02 0.  0.
          2    1    3    3  502    0 -0.29653939158E+02 -0.28306997472E+02  0.21357500690E+02  0.46225372353E+02  0.00000000000E+00 0. -1.
         -2    1    3    3    0  502  0.29653939158E+02  0.28306997472E+02  0.57883038317E+02  0.70930165221E+02  0.00000000000E+00 0.  1.
<mgrwt>
<rscale>  0 0.86292276E+02</rscale>
<asrwt>0</asrwt>
<pdfrwt beam="2">  1        2 0.29165384E-02 0.86292276E+02</pdfrwt>
<pdfrwt beam="1">  1       -2 0.15107390E-01 0.86292276E+02</pdfrwt>
<totfact> 0.92005069E+04</totfact>
</mgrwt>
</event>
<event>
 5    1  0.3858870E+001  0.8989643E+02  0.7546771E-02  0.1303103E+00
         -1   -1    0    0    0  501 -0.00000000000E+00  0.00000000000E+00  0.23625632399E+01  0.23625632399E+01  0.00000000000E+00 0.  1.
          1   -1    0    0  501    0  0.00000000000E+00 -0.00000000000E+00 -0.85514838239E+03  0.85514838239E+03  0.00000000000E+00 0. -1.
         23    2    1    2    0    0  0.00000000000E+00  0.00000000000E+00 -0.85278581915E+03  0.85751094563E+03  0.89896432252E+02 0.  0.
          2    1    3    3  502    0  0.14123908998E+02 -0.31288261310E+02 -0.70316863324E+03  0.70400608440E+03  0.00000000000E+00 0. -1.
         -2    1    3    3    0  502 -0.14123908998E+02  0.31288261310E+02 -0.14961718591E+03  0.15350486123E+03  0.00000000000E+00 0.  1.
<mgrwt>
<rscale>  0 0.89896432E+02</rscale>
<asrwt>0</asrwt>
<pdfrwt beam="2">  1        1 0.13156136E+00 0.89896432E+02</pdfrwt>
<pdfrwt beam="1">  1       -1 0.36347107E-03 0.89896432E+02</pdfrwt>
<totfact> 0.14560717E+05</totfact>
</mgrwt>
</event>
<event>
 5    1  0.3858870E+001  0.9083472E+02  0.7546771E-02  0.1300843E+00
         -1   -1    0    0    0  501 -0.00000000000E+00  0.00000000000E+00  0.82121607928E+01  0.82121607928E+01  0.00000000000E+00 0.  1.
          1   -1    0    0  501    0  0.00000000000E+00 -0.00000000000E+00 -0.25118072793E+03  0.25118072793E+03  0.00000000000E+00 0. -1.
         23    2    1    2    0    0  0.00000000000E+00  0.00000000000E+00 -0.24296856714E+03  0.25939288872E+03  0.90834718600E+02 0.  0.
          2    1    3    3  502    0 -0.32469020797E+02 -0.11500403109E+02 -0.20601561582E+03  0.20887539478E+03  0.00000000000E+00 0. -1.
         -2    1    3    3    0  502  0.32469020797E+02  0.11500403109E+02 -0.36952951320E+02  0.50517493945E+02  0.00000000000E+00 0.  1.
<mgrwt>
<rscale>  0 0.90834719E+02</rscale>
<asrwt>0</asrwt>
<pdfrwt beam="2">  1        1 0.38643186E-01 0.90834719E+02</pdfrwt>
<pdfrwt beam="1">  1       -1 0.12634095E-02 0.90834719E+02</pdfrwt>
<totfact> 0.12503244E+05</totfact>
</mgrwt>
</event>
<event>
 5    1  0.3858870E+001  0.1074860E+03  0.7546771E-02  0.1265297E+00
         -3   -1    0    0    0  501 -0.00000000000E+00  0.00000000000E+00  0.70120998582E+02  0.70120998582E+02  0.00000000000E+00 0.  1.
          3   -1    0    0  501    0  0.00000000000E+00 -0.00000000000E+00 -0.41190409782E+02  0.41190409782E+02  0.00000000000E+00 0. -1.
         23    2    1    2    0    0  0.00000000000E+00  0.00000000000E+00  0.28930588800E+02  0.11131140836E+03  0.10748604869E+03 0.  0.
          2    1    3    3  502    0  0.49553335277E+02  0.19648537642E+02  0.21543348608E+02  0.57495338401E+02  0.00000000000E+00 0. -1.
         -2    1    3    3    0  502 -0.49553335277E+02 -0.19648537642E+02  0.73872401918E+01  0.53816069963E+02  0.00000000000E+00 0.  1.
<mgrwt>
<rscale>  0 0.10748605E+03</rscale>
<asrwt>0</asrwt>
<pdfrwt beam="2">  1        3 0.63369861E-02 0.10748605E+03</pdfrwt>
<pdfrwt beam="1">  1       -3 0.10787846E-01 0.10748605E+03</pdfrwt>
<totfact> 0.21540989E+04</totfact>
</mgrwt>
</event>
<event>
 5    1  0.3858870E+001  0.9251519E+02  0.7546771E-02  0.1296873E+00
          1   -1    0    0  501    0  0.00000000000E+00  0.00000000000E+00  0.69907713120E+01  0.69907713120E+01  0.00000000000E+00 0. -1.
         -1   -1    0    0    0  501 -0.00000000000E+00 -0.00000000000E+00 -0.30608429644E+03  0.30608429644E+03  0.00000000000E+00 0.  1.
         23    2    1    2    0    0  0.00000000000E+00  0.00000000000E+00 -0.29909352513E+03  0.31307506775E+03  0.92515194830E+02 0.  0.
          2    1    3    3  502    0  0.90385893692E+01 -0.24207007996E+02 -0.27938499498E+03  0.28057735253E+03  0.00000000000E+00 0.  1.
         -2    1    3    3    0  502 -0.90385893692E+01  0.24207007996E+02 -0.19708530146E+02  0.32497715218E+02  0.00000000000E+00 0. -1.
<mgrwt>
<rscale>  0 0.92515195E+02</rscale>
<asrwt>0</asrwt>
<pdfrwt beam="1">  1        1 0.10755032E-02 0.92515195E+02</pdfrwt>
<pdfrwt beam="2">  1       -1 0.47089897E-01 0.92515195E+02</pdfrwt>
<totfact> 0.57855026E+04</totfact>
</mgrwt>
</event>
<event>
 5    1  0.3858870E+001  0.9065495E+02  0.7546771E-02  0.1301273E+00
         -1   -1    0    0    0  501 -0.00000000000E+00  0.00000000000E+00  0.20272404115E+03  0.20272404115E+03  0.00000000000E+00 0.  1.
          1   -1    0    0  501    0  0.00000000000E+00 -0.00000000000E+00 -0.10134861711E+02  0.10134861711E+02  0.00000000000E+00 0. -1.
         23    2    1    2    0    0  0.00000000000E+00  0.00000000000E+00  0.19258917944E+03  0.21285890286E+03  0.90654952927E+02 0.  0.
          2    1    3    3  502    0 -0.14970319495E+01 -0.28892867967E+02  0.14364748085E+02  0.32301469185E+02  0.00000000000E+00 0. -1.
         -2    1    3    3    0  502  0.14970319495E+01  0.28892867967E+02  0.17822443135E+03  0.18055743368E+03  0.00000000000E+00 0.  1.
<mgrwt>
<rscale>  0 0.90654953E+02</rscale>
<asrwt>0</asrwt>
<pdfrwt beam="2">  1        1 0.15592096E-02 0.90654953E+02</pdfrwt>
<pdfrwt beam="1">  1       -1 0.31188311E-01 0.90654953E+02</pdfrwt>
<totfact> 0.70196760E+04</totfact>
</mgrwt>
</event>
<event>
 5    1  0.3858870E+001  0.9391095E+02  0.7546771E-02  0.1293648E+00
          1   -1    0    0  501    0  0.00000000000E+00  0.00000000000E+00  0.20987823388E+04  0.20987823388E+04  0.00000000000E+00 0. -1.
         -1   -1    0    0    0  501 -0.00000000000E+00 -0.00000000000E+00 -0.10505217878E+01  0.10505217878E+01  0.00000000000E+00 0.  1.
         23    2    1    2    0    0  0.00000000000E+00  0.00000000000E+00  0.20977318170E+04  0.20998328606E+04  0.93910948769E+02 0.  0.
          2    1    3    3  502    0  0.33545810911E+02 -0.19044526596E+02  0.16475088233E+04  0.16479603570E+04  0.00000000000E+00 0. -1.
         -2    1    3    3    0  502 -0.33545810911E+02  0.19044526596E+02  0.45022299368E+03  0.45187250355E+03  0.00000000000E+00 0.  1.
<mgrwt>
<rscale>  0 0.93910949E+02</rscale>
<asrwt>0</asrwt>
<pdfrwt beam="1">  1        1 0.32288624E+00 0.93910949E+02</pdfrwt>
<pdfrwt beam="2">  1       -1 0.16162042E-03 0.93910949E+02</pdfrwt>
<totfact> 0.68306124E+04</totfact>
</mgrwt>
</event>
<event>
 5    1  0.3858870E+001  0.9137504E+02  0.7546771E-02  0.1299556E+00
         -2   -1    0    0    0  501 -0.00000000000E+00  0.00000000000E+00  0.30142336071E+01  0.30142336071E+01  0.00000000000E+00 0.  1.
          2   -1    0    0  501    0  0.00000000000E+00 -0.00000000000E+00 -0.69249750908E+03  0.69249750908E+03  0.00000000000E+00 0. -1.
         23    2    1    2    0    0  0.00000000000E+00  0.00000000000E+00 -0.68948327547E+03  0.69551174269E+03  0.91375035206E+02 0.  0.
          2    1    3    3  502    0  0.24807963618E+02  0.37942142421E+02 -0.30147708906E+03  0.30486632556E+03  0.00000000000E+00 0. -1.
         -2    1    3    3    0  502 -0.24807963618E+02 -0.37942142421E+02 -0.38800618641E+03  0.39064541713E+03  0.00000000000E+00 0.  1.
<mgrwt>
<rscale>  0 0.91375035E+02</rscale>
<asrwt>0</asrwt>
<pdfrwt beam="2">  1        2 0.10653821E+00 0.91375035E+02</pdfrwt>
<pdfrwt beam="1">  1       -2 0.46372769E-03 0.91375035E+02</pdfrwt>
<totfact> 0.23519216E+05</totfact>
</mgrwt>
</event>
<event>
 5    1  0.3858870E+001  0.9104737E+02  0.7546771E-02  0.1300335E+00
         -3   -1    0    0    0  501 -0.00000000000E+00  0.00000000000E+00  0.78195154162E+03  0.78195154162E+03  0.00000000000E+00 0.  1.
          3   -1    0    0  501    0  0.00000000000E+00 -0.00000000000E+00 -0.26502996899E+01  0.26502996899E+01  0.00000000000E+00 0. -1.
         23    2    1    2    0    0  0.00000000000E+00  0.00000000000E+00  0.77930124193E+03  0.78460184131E+03  0.91047370710E+02 0.  0.
          2    1    3    3  502    0 -0.33713725669E+02  0.22953503782E+02  0.56391353163E+03  0.56538654900E+03  0.00000000000E+00 0. -1.
         -2    1    3    3    0  502  0.33713725669E+02 -0.22953503782E+02  0.21538771030E+03  0.21921529231E+03  0.00000000000E+00 0.  1.
<mgrwt>
<rscale>  0 0.91047371E+02</rscale>
<asrwt>0</asrwt>
<pdfrwt beam="2">  1        3 0.40773904E-03 0.91047371E+02</pdfrwt>
<pdfrwt beam="1">  1       -3 0.12030005E+00 0.91047371E+02</pdfrwt>
<totfact> 0.12641431E+04</totfact>
</mgrwt>
</event>
<event>
 5    1  0.3858870E+001  0.9005736E+02  0.7546771E-02  0.1302713E+00
          1   -1    0    0  501    0  0.00000000000E+00  0.00000000000E+00  0.41524124065E+03  0.41524124065E+03  0.00000000000E+00 0.  1.
         -1   -1    0    0    0  501 -0.00000000000E+00 -0.00000000000E+00 -0.48829014483E+01  0.48829014483E+01  0.00000000000E+00 0. -1.
         23    2    1    2    0    0  0.00000000000E+00  0.00000000000E+00  0.41035833920E+03  0.42012414209E+03  0.90057360728E+02 0.  0.
          2    1    3    3  502    0  0.14009656971E+02  0.35445974100E+02  0.93324918229E+02  0.10080787633E+03  0.00000000000E+00 0. -1.
         -2    1    3    3    0  502 -0.14009656971E+02 -0.35445974100E+02  0.31703342097E+03  0.31931626576E+03  0.00000000000E+00 0.  1.
<mgrwt>
<rscale>  0 0.90057361E+02</rscale>
<asrwt>0</asrwt>
<pdfrwt beam="1">  1        1 0.63883240E-01 0.90057361E+02</pdfrwt>
<pdfrwt beam="2">  1       -1 0.75121594E-03 0.90057361E+02</pdfrwt>
<totfact> 0.14022450E+05</totfact>
</mgrwt>
</event>
<event>
 5    1  0.3858870E+001  0.9130241E+02  0.7546771E-02  0.1299728E+00
          1   -1    0    0  501    0  0.00000000000E+00  0.00000000000E+00  0.29701017711E+03  0.29701017711E+03  0.00000000000E+00 0. -1.
         -1   -1    0    0    0  501 -0.00000000000E+00 -0.00000000000E+00 -0.70167035935E+01  0.70167035935E+01  0.00000000000E+00 0.  1.
         23    2    1    2    0    0  0.00000000000E+00  0.00000000000E+00  0.28999347352E+03  0.30402688070E+03  0.91302406913E+02 0.  0.
          2    1    3    3  502    0 -0.23589433025E+02 -0.18898916522E+01  0.27499038911E+03  0.27600678822E+03  0.00000000000E+00 0. -1.
         -2    1    3    3    0  502  0.23589433025E+02  0.18898916522E+01  0.15003084401E+02  0.28020092478E+02  0.00000000000E+00 0.  1.
<mgrwt>
<rscale>  0 0.91302407E+02</rscale>
<asrwt>0</asrwt>
<pdfrwt beam="1">  1        1 0.45693864E-01 0.91302407E+02</pdfrwt>
<pdfrwt beam="2">  1       -1 0.10794931E-02 0.91302407E+02</pdfrwt>
<totfact> 0.12740867E+05</totfact>
</mgrwt>
</event>
<event>
 5    1  0.3858870E+001  0.9273950E+02  0.7546771E-02  0.1296350E+00
         -1   -1    0    0    0  501 -0.00000000000E+00  0.00000000000E+00  0.11637107100E+02  0.11637107100E+02  0.00000000000E+00 0.  1.
          1   -1    0    0  501    0  0.00000000000E+00 -0.00000000000E+00 -0.18476704887E+03  0.18476704887E+03  0.00000000000E+00 0. -1.
         23    2    1    2    0    0  0.00000000000E+00  0.00000000000E+00 -0.17312994177E+03  0.19640415597E+03  0.92739504770E+02 0.  0.
          2    1    3    3  502    0  0.19141498916E+02 -0.36470820241E+02 -0.13167153692E+03  0.13796344206E+03  0.00000000000E+00 0. -1.
         -2    1    3    3    0  502 -0.19141498916E+02  0.36470820241E+02 -0.41458404849E+02  0.58440713911E+02  0.00000000000E+00 0.  1.
<mgrwt>
<rscale>  0 0.92739505E+02</rscale>
<asrwt>0</asrwt>
<pdfrwt beam="2">  1        1 0.28425699E-01 0.92739505E+02</pdfrwt>
<pdfrwt beam="1">  1       -1 0.17903242E-02 0.92739505E+02</pdfrwt>
<totfact> 0.11139751E+05</totfact>
</mgrwt>
</event>
<event>
 5    1  0.3858870E+001  0.9230995E+02  0.7546771E-02  0.1297352E+00
          1   -1    0    0  501    0  0.00000000000E+00  0.00000000000E+00  0.18735118355E+04  0.18735118355E+04  0.00000000000E+00 0. -1.
         -1   -1    0    0    0  501 -0.00000000000E+00 -0.00000000000E+00 -0.11370527777E+01  0.11370527777E+01  0.00000000000E+00 0.  1.
         23    2    1    2    0    0  0.00000000000E+00  0.00000000000E+00  0.18723747827E+04  0.18746488882E+04  0.92309952585E+02 0.  0.
          2    1    3    3  502    0  0.41175809736E+02 -0.18309072313E+02  0.73349935603E+03  0.73488228631E+03  0.00000000000E+00 0. -1.
         -2    1    3    3    0  502 -0.41175809736E+02  0.18309072313E+02  0.11388754267E+04  0.11397666019E+04  0.00000000000E+00 0.  1.
<mgrwt>
<rscale>  0 0.92309953E+02</rscale>
<asrwt>0</asrwt>
<pdfrwt beam="1">  1        1 0.28823012E+00 0.92309953E+02</pdfrwt>
<pdfrwt beam="2">  1       -1 0.17493270E-03 0.92309953E+02</pdfrwt>
<totfact> 0.84613658E+04</totfact>
</mgrwt>
</event>
<event>
 5    1  0.3858870E+001  0.9122635E+02  0.7546771E-02  0.1299909E+00
          1   -1    0    0  501    0  0.00000000000E+00  0.00000000000E+00  0.14818097805E+04  0.14818097805E+04  0.00000000000E+00 0. -1.
         -1   -1    0    0    0  501 -0.00000000000E+00 -0.00000000000E+00 -0.14040680963E+01  0.14040680963E+01  0.00000000000E+00 0.  1.
         23    2    1    2    0    0  0.00000000000E+00  0.00000000000E+00  0.14804057124E+04  0.14832138486E+04  0.91226352282E+02 0.  0.
          2    1    3    3  502    0 -0.21648718894E+02 -0.26847114866E+02  0.12255509403E+04  0.12260361095E+04  0.00000000000E+00 0. -1.
         -2    1    3    3    0  502  0.21648718894E+02  0.26847114866E+02  0.25485477216E+03  0.25717773912E+03  0.00000000000E+00 0.  1.
<mgrwt>
<rscale>  0 0.91226352E+02</rscale>
<asrwt>0</asrwt>
<pdfrwt beam="1">  1        1 0.22796948E+00 0.91226352E+02</pdfrwt>
<pdfrwt beam="2">  1       -1 0.21601166E-03 0.91226352E+02</pdfrwt>
<totfact> 0.11144401E+05</totfact>
</mgrwt>
</event>
<event>
 5    1  0.3858870E+001  0.9137170E+02  0.7546771E-02  0.1299564E+00
          2   -1    0    0  501    0  0.00000000000E+00  0.00000000000E+00  0.53501163510E+02  0.53501163510E+02  0.00000000000E+00 0.  1.
         -2   -1    0    0    0  501 -0.00000000000E+00 -0.00000000000E+00 -0.39012177672E+02  0.39012177672E+02  0.00000000000E+00 0. -1.
         23    2    1    2    0    0  0.00000000000E+00  0.00000000000E+00  0.14488985838E+02  0.92513341182E+02  0.91371700137E+02 0.  0.
          2    1    3    3  502    0 -0.40934214043E+02 -0.38337613944E+01 -0.12926503416E+02  0.43097588057E+02  0.00000000000E+00 0. -1.
         -2    1    3    3    0  502  0.40934214043E+02  0.38337613944E+01  0.27415489255E+02  0.49415753124E+02  0.00000000000E+00 0.  1.
<mgrwt>
<rscale>  0 0.91371700E+02</rscale>
<asrwt>0</asrwt>
<pdfrwt beam="1">  1        2 0.82309482E-02 0.91371700E+02</pdfrwt>
<pdfrwt beam="2">  1       -2 0.60018735E-02 0.91371700E+02</pdfrwt>
<totfact> 0.10226540E+05</totfact>
</mgrwt>
</event>
<event>
 5    1  0.3858870E+001  0.9265943E+02  0.7546771E-02  0.1296536E+00
         -2   -1    0    0    0  501 -0.00000000000E+00  0.00000000000E+00  0.11386232618E+01  0.11386232618E+01  0.00000000000E+00 0.  1.
          2   -1    0    0  501    0  0.00000000000E+00 -0.00000000000E+00 -0.18851210732E+04  0.18851210732E+04  0.00000000000E+00 0. -1.
         23    2    1    2    0    0  0.00000000000E+00  0.00000000000E+00 -0.18839824499E+04  0.18862596964E+04  0.92659434603E+02 0.  0.
          2    1    3    3  502    0 -0.72206886119E+01  0.38765261183E+02 -0.44687081315E+03  0.44860718615E+03  0.00000000000E+00 0.  1.
         -2    1    3    3    0  502  0.72206886119E+01 -0.38765261183E+02 -0.14371116368E+04  0.14376525103E+04  0.00000000000E+00 0. -1.
<mgrwt>
<rscale>  0 0.92659435E+02</rscale>
<asrwt>0</asrwt>
<pdfrwt beam="2">  1        2 0.29002006E+00 0.92659435E+02</pdfrwt>
<pdfrwt beam="1">  1       -2 0.17517194E-03 0.92659435E+02</pdfrwt>
<totfact> 0.19845887E+05</totfact>
</mgrwt>
</event>
<event>
 5    1  0.3858870E+001  0.9390465E+02  0.7546771E-02  0.1293662E+00
         -2   -1    0    0    0  501 -0.00000000000E+00  0.00000000000E+00  0.29407040644E+01  0.29407040644E+01  0.00000000000E+00 0.  1.
          2   -1    0    0  501    0  0.00000000000E+00 -0.00000000000E+00 -0.74965744284E+03  0.74965744284E+03  0.00000000000E+00 0. -1.
         23    2    1    2    0    0  0.00000000000E+00  0.00000000000E+00 -0.74671673878E+03  0.75259814691E+03  0.93904647149E+02 0.  0.
          2    1    3    3  502    0  0.20249285324E+02 -0.46847052328E+01 -0.71078096647E+03  0.71108477857E+03  0.00000000000E+00 0. -1.
         -2    1    3    3    0  502 -0.20249285324E+02  0.46847052328E+01 -0.35935772310E+02  0.41513368338E+02  0.00000000000E+00 0.  1.
<mgrwt>
<rscale>  0 0.93904647E+02</rscale>
<asrwt>0</asrwt>
<pdfrwt beam="2">  1        2 0.11533198E+00 0.93904647E+02</pdfrwt>
<pdfrwt beam="1">  1       -2 0.45241574E-03 0.93904647E+02</pdfrwt>
<totfact> 0.22270633E+05</totfact>
</mgrwt>
</event>
<event>
 5    1  0.3858870E+001  0.8934766E+02  0.7546771E-02  0.1304439E+00
         -1   -1    0    0    0  501 -0.00000000000E+00  0.00000000000E+00  0.14028740146E+02  0.14028740146E+02  0.00000000000E+00 0.  1.
          1   -1    0    0  501    0  0.00000000000E+00 -0.00000000000E+00 -0.14226161276E+03  0.14226161276E+03  0.00000000000E+00 0. -1.
         23    2    1    2    0    0  0.00000000000E+00  0.00000000000E+00 -0.12823287261E+03  0.15629035291E+03  0.89347662491E+02 0.  0.
          2    1    3    3  502    0  0.31031986763E+02  0.71038239195E+01 -0.11894055280E+03  0.12312718472E+03  0.00000000000E+00 0. -1.
         -2    1    3    3    0  502 -0.31031986763E+02 -0.71038239195E+01 -0.92923198162E+01  0.33163168188E+02  0.00000000000E+00 0.  1.
<mgrwt>
<rscale>  0 0.89347662E+02</rscale>
<asrwt>0</asrwt>
<pdfrwt beam="2">  1        1 0.21886402E-01 0.89347662E+02</pdfrwt>
<pdfrwt beam="1">  1       -1 0.21582677E-02 0.89347662E+02</pdfrwt>
<totfact> 0.11728823E+05</totfact>
</mgrwt>
</event>
<event>
 5    1  0.3858870E+001  0.9670144E+02  0.7546771E-02  0.1287389E+00
          2   -1    0    0  501    0  0.00000000000E+00  0.00000000000E+00  0.25364663366E+02  0.25364663366E+02  0.00000000000E+00 0. -1.
         -2   -1    0    0    0  501 -0.00000000000E+00 -0.00000000000E+00 -0.92167291288E+02  0.92167291288E+02  0.00000000000E+00 0.  1.
         23    2    1    2    0    0  0.00000000000E+00  0.00000000000E+00 -0.66802627921E+02  0.11753195465E+03  0.96701443979E+02 0.  0.
          2    1    3    3  502    0  0.19090956354E+02 -0.42166993063E+02 -0.16417179088E+02  0.49112561404E+02  0.00000000000E+00 0. -1.
         -2    1    3    3    0  502 -0.19090956354E+02  0.42166993063E+02 -0.50385448834E+02  0.68419393250E+02  0.00000000000E+00 0.  1.
<mgrwt>
<rscale>  0 0.96701444E+02</rscale>
<asrwt>0</asrwt>
<pdfrwt beam="1">  1        2 0.39022559E-02 0.96701444E+02</pdfrwt>
<pdfrwt beam="2">  1       -2 0.14179583E-01 0.96701444E+02</pdfrwt>
<totfact> 0.70657278E+04</totfact>
</mgrwt>
</event>
<event>
 5    1  0.3858870E+001  0.8196135E+02  0.7546771E-02  0.1323576E+00
         -2   -1    0    0    0  501 -0.00000000000E+00  0.00000000000E+00  0.80400493154E+00  0.80400493154E+00  0.00000000000E+00 0.  1.
          2   -1    0    0  501    0  0.00000000000E+00 -0.00000000000E+00 -0.20888127634E+04  0.20888127634E+04  0.00000000000E+00 0. -1.
         23    2    1    2    0    0  0.00000000000E+00  0.00000000000E+00 -0.20880087584E+04  0.20896167683E+04  0.81961350960E+02 0.  0.
          2    1    3    3  502    0 -0.23371586050E+01 -0.40504998872E+02 -0.11911237960E+04  0.11918145890E+04  0.00000000000E+00 0. -1.
         -2    1    3    3    0  502  0.23371586050E+01  0.40504998872E+02 -0.89688496243E+03  0.89780217925E+03  0.00000000000E+00 0.  1.
<mgrwt>
<rscale>  0 0.81961351E+02</rscale>
<asrwt>0</asrwt>
<pdfrwt beam="2">  1        2 0.32135091E+00 0.81961351E+02</pdfrwt>
<pdfrwt beam="1">  1       -2 0.12369495E-03 0.81961351E+02</pdfrwt>
<totfact> 0.24958092E+05</totfact>
</mgrwt>
</event>
<event>
 5    1  0.3858870E+001  0.1101000E+03  0.7546771E-02  0.1260385E+00
         -1   -1    0    0    0  501 -0.00000000000E+00  0.00000000000E+00  0.48920525204E+01  0.48920525204E+01  0.00000000000E+00 0.  1.
          1   -1    0    0  501    0  0.00000000000E+00 -0.00000000000E+00 -0.61947496586E+03  0.61947496586E+03  0.00000000000E+00 0. -1.
         23    2    1    2    0    0  0.00000000000E+00  0.00000000000E+00 -0.61458291334E+03  0.62436701838E+03  0.11010002848E+03 0.  0.
          2    1    3    3  502    0 -0.52217063581E+02 -0.88761660301E+00 -0.20856318531E+03  0.21500235315E+03  0.00000000000E+00 0. -1.
         -2    1    3    3    0  502  0.52217063581E+02  0.88761660301E+00 -0.40601972803E+03  0.40936466523E+03  0.00000000000E+00 0.  1.
<mgrwt>
<rscale>  0 0.11010003E+03</rscale>
<asrwt>0</asrwt>
<pdfrwt beam="2">  1        1 0.95303790E-01 0.11010003E+03</pdfrwt>
<pdfrwt beam="1">  1       -1 0.75262387E-03 0.11010003E+03</pdfrwt>
<totfact> 0.85711193E+04</totfact>
</mgrwt>
</event>
<event>
 5    1  0.3858870E+001  0.8244985E+02  0.7546771E-02  0.1322239E+00
          2   -1    0    0  501    0  0.00000000000E+00  0.00000000000E+00  0.63172380840E+03  0.63172380840E+03  0.00000000000E+00 0. -1.
         -2   -1    0    0    0  501 -0.00000000000E+00 -0.00000000000E+00 -0.26902494008E+01  0.26902494008E+01  0.00000000000E+00 0.  1.
         23    2    1    2    0    0  0.00000000000E+00  0.00000000000E+00  0.62903355900E+03  0.63441405780E+03  0.82449853779E+02 0.  0.
          2    1    3    3  502    0 -0.30173793201E+02  0.31381313695E+01  0.99731607637E+02  0.10424346131E+03  0.00000000000E+00 0.  1.
         -2    1    3    3    0  502  0.30173793201E+02 -0.31381313695E+01  0.52930195137E+03  0.53017059649E+03  0.00000000000E+00 0. -1.
<mgrwt>
<rscale>  0 0.82449854E+02</rscale>
<asrwt>0</asrwt>
<pdfrwt beam="1">  1        2 0.97188161E-01 0.82449854E+02</pdfrwt>
<pdfrwt beam="2">  1       -2 0.41388502E-03 0.82449854E+02</pdfrwt>
<totfact> 0.30099720E+05</totfact>
</mgrwt>
</event>
<event>
 5    1  0.3858870E+001  0.9420423E+02  0.7546771E-02  0.1292978E+00
         -3   -1    0    0    0  501 -0.00000000000E+00  0.00000000000E+00  0.88974563670E+02  0.88974563670E+02  0.00000000000E+00 0.  1.
          3   -1    0    0  501    0  0.00000000000E+00 -0.00000000000E+00 -0.24935318107E+02  0.24935318107E+02  0.00000000000E+00 0. -1.
         23    2    1    2    0    0  0.00000000000E+00  0.00000000000E+00  0.64039245563E+02  0.11390988178E+03  0.94204225989E+02 0.  0.
          2    1    3    3  502    0  0.44704799185E+02  0.51655461297E+01  0.15203447134E+02  0.47501018323E+02  0.00000000000E+00 0. -1.
         -2    1    3    3    0  502 -0.44704799185E+02 -0.51655461297E+01  0.48835798429E+02  0.66408863454E+02  0.00000000000E+00 0.  1.
<mgrwt>
<rscale>  0 0.94204226E+02</rscale>
<asrwt>0</asrwt>
<pdfrwt beam="2">  1        3 0.38362028E-02 0.94204226E+02</pdfrwt>
<pdfrwt beam="1">  1       -3 0.13688394E-01 0.94204226E+02</pdfrwt>
<totfact> 0.30800704E+04</totfact>
</mgrwt>
</event>
<event>
 5    1  0.3858870E+001  0.9446871E+02  0.7546771E-02  0.1292377E+00
          1   -1    0    0  501    0  0.00000000000E+00  0.00000000000E+00  0.45758303347E+03  0.45758303347E+03  0.00000000000E+00 0. -1.
         -1   -1    0    0    0  501 -0.00000000000E+00 -0.00000000000E+00 -0.48758021666E+01  0.48758021666E+01  0.00000000000E+00 0.  1.
         23    2    1    2    0    0  0.00000000000E+00  0.00000000000E+00  0.45270723131E+03  0.46245883564E+03  0.94468711138E+02 0.  0.
          2    1    3    3  502    0 -0.76536702443E+01  0.20289029835E+02  0.20931299361E+02  0.30138724140E+02  0.00000000000E+00 0.  1.
         -2    1    3    3    0  502  0.76536702443E+01 -0.20289029835E+02  0.43177593195E+03  0.43232011150E+03  0.00000000000E+00 0. -1.
<mgrwt>
<rscale>  0 0.94468711E+02</rscale>
<asrwt>0</asrwt>
<pdfrwt beam="1">  1        1 0.70397356E-01 0.94468711E+02</pdfrwt>
<pdfrwt beam="2">  1       -1 0.75012377E-03 0.94468711E+02</pdfrwt>
<totfact> 0.12529636E+05</totfact>
</mgrwt>
</event>
<event>
 5    1  0.3858870E+001  0.8862615E+02  0.7546771E-02  0.1306213E+00
         -2   -1    0    0    0  501 -0.00000000000E+00  0.00000000000E+00  0.16111819377E+01  0.16111819377E+01  0.00000000000E+00 0. -1.
          2   -1    0    0  501    0  0.00000000000E+00 -0.00000000000E+00 -0.12187628627E+04  0.12187628627E+04  0.00000000000E+00 0.  1.
         23    2    1    2    0    0  0.00000000000E+00  0.00000000000E+00 -0.12171516807E+04  0.12203740446E+04  0.88626152139E+02 0.  0.
          2    1    3    3  502    0 -0.10943102120E+02 -0.29450034707E+02 -0.17825953630E+03  0.18100695652E+03  0.00000000000E+00 0. -1.
         -2    1    3    3    0  502  0.10943102120E+02  0.29450034707E+02 -0.10388921444E+04  0.10393670881E+04  0.00000000000E+00 0.  1.
<mgrwt>
<rscale>  0 0.88626152E+02</rscale>
<asrwt>0</asrwt>
<pdfrwt beam="2">  1        2 0.18750190E+00 0.88626152E+02</pdfrwt>
<pdfrwt beam="1">  1       -2 0.24787425E-03 0.88626152E+02</pdfrwt>
<totfact> 0.26745995E+05</totfact>
</mgrwt>
</event>
<event>
 5    1  0.3858870E+001  0.9013515E+02  0.7546771E-02  0.1302525E+00
         -1   -1    0    0    0  501 -0.00000000000E+00  0.00000000000E+00  0.19193110242E+02  0.19193110242E+02  0.00000000000E+00 0.  1.
          1   -1    0    0  501    0  0.00000000000E+00 -0.00000000000E+00 -0.10582372464E+03  0.10582372464E+03  0.00000000000E+00 0. -1.
         23    2    1    2    0    0  0.00000000000E+00  0.00000000000E+00 -0.86630614401E+02  0.12501683489E+03  0.90135152150E+02 0.  0.
          2    1    3    3  502    0  0.19339434584E+02 -0.40031888287E+02 -0.33074017999E+02  0.55411699816E+02  0.00000000000E+00 0.  1.
         -2    1    3    3    0  502 -0.19339434584E+02  0.40031888287E+02 -0.53556596402E+02  0.69605135069E+02  0.00000000000E+00 0. -1.
<mgrwt>
<rscale>  0 0.90135152E+02</rscale>
<asrwt>0</asrwt>
<pdfrwt beam="2">  1        1 0.16280573E-01 0.90135152E+02</pdfrwt>
<pdfrwt beam="1">  1       -1 0.29527862E-02 0.90135152E+02</pdfrwt>
<totfact> 0.10879127E+05</totfact>
</mgrwt>
</event>
<event>
 5    1  0.3858870E+001  0.8950491E+02  0.7546771E-02  0.1304055E+00
          1   -1    0    0  501    0  0.00000000000E+00  0.00000000000E+00  0.14902272770E+04  0.14902272770E+04  0.00000000000E+00 0. -1.
         -1   -1    0    0    0  501 -0.00000000000E+00 -0.00000000000E+00 -0.13439441365E+01  0.13439441365E+01  0.00000000000E+00 0.  1.
         23    2    1    2    0    0  0.00000000000E+00  0.00000000000E+00  0.14888833328E+04  0.14915712211E+04  0.89504909605E+02 0.  0.
          2    1    3    3  502    0 -0.27506394464E+02  0.87486232971E+01  0.17450889944E+03  0.17687989182E+03  0.00000000000E+00 0.  1.
         -2    1    3    3    0  502  0.27506394464E+02 -0.87486232971E+01  0.13143744334E+04  0.13146913293E+04  0.00000000000E+00 0. -1.
<mgrwt>
<rscale>  0 0.89504910E+02</rscale>
<asrwt>0</asrwt>
<pdfrwt beam="1">  1        1 0.22926441E+00 0.89504910E+02</pdfrwt>
<pdfrwt beam="2">  1       -1 0.20676183E-03 0.89504910E+02</pdfrwt>
<totfact> 0.11667640E+05</totfact>
</mgrwt>
</event>
<event>
 5    1  0.3858870E+001  0.9035824E+02  0.7546771E-02  0.1301986E+00
          3   -1    0    0  501    0  0.00000000000E+00  0.00000000000E+00  0.60876769312E+01  0.60876769312E+01  0.00000000000E+00 0. -1.
         -3   -1    0    0    0  501 -0.00000000000E+00 -0.00000000000E+00 -0.33529255951E+03  0.33529255951E+03  0.00000000000E+00 0.  1.
         23    2    1    2    0    0  0.00000000000E+00  0.00000000000E+00 -0.32920488258E+03  0.34138023644E+03  0.90358237693E+02 0.  0.
          2    1    3    3  502    0  0.28149893084E+02  0.13113634739E+02 -0.40628082394E+02  0.51137314905E+02  0.00000000000E+00 0. -1.
         -2    1    3    3    0  502 -0.28149893084E+02 -0.13113634739E+02 -0.28857680018E+03  0.29024292153E+03  0.00000000000E+00 0.  1.
<mgrwt>
<rscale>  0 0.90358238E+02</rscale>
<asrwt>0</asrwt>
<pdfrwt beam="1">  1        3 0.93656531E-03 0.90358238E+02</pdfrwt>
<pdfrwt beam="2">  1       -3 0.51583491E-01 0.90358238E+02</pdfrwt>
<totfact> 0.23052846E+04</totfact>
</mgrwt>
</event>
<event>
 5    1  0.3858870E+001  0.9403985E+02  0.7546771E-02  0.1293353E+00
          1   -1    0    0  501    0  0.00000000000E+00  0.00000000000E+00  0.19818119433E+03  0.19818119433E+03  0.00000000000E+00 0. -1.
         -1   -1    0    0    0  501 -0.00000000000E+00 -0.00000000000E+00 -0.11155818739E+02  0.11155818739E+02  0.00000000000E+00 0.  1.
         23    2    1    2    0    0  0.00000000000E+00  0.00000000000E+00  0.18702537559E+03  0.20933701307E+03  0.94039852860E+02 0.  0.
          2    1    3    3  502    0  0.17132645515E+02  0.30326903713E+02  0.16382278714E+03  0.16748478801E+03  0.00000000000E+00 0. -1.
         -2    1    3    3    0  502 -0.17132645515E+02 -0.30326903713E+02  0.23202588458E+02  0.41852225058E+02  0.00000000000E+00 0.  1.
<mgrwt>
<rscale>  0 0.94039853E+02</rscale>
<asrwt>0</asrwt>
<pdfrwt beam="1">  1        1 0.30489412E-01 0.94039853E+02</pdfrwt>
<pdfrwt beam="2">  1       -1 0.17162799E-02 0.94039853E+02</pdfrwt>
<totfact> 0.10876792E+05</totfact>
</mgrwt>
</event>
<event>
 5    1  0.3858870E+001  0.9107792E+02  0.7546771E-02  0.1300262E+00
          2   -1    0    0  501    0  0.00000000000E+00  0.00000000000E+00  0.33123374214E+02  0.33123374214E+02  0.00000000000E+00 0. -1.
         -2   -1    0    0    0  501 -0.00000000000E+00 -0.00000000000E+00 -0.62608263331E+02  0.62608263331E+02  0.00000000000E+00 0.  1.
         23    2    1    2    0    0  0.00000000000E+00  0.00000000000E+00 -0.29484889117E+02  0.95731637544E+02  0.91077921258E+02 0.  0.
          2    1    3    3  502    0 -0.14638188132E+02  0.24691386028E+02  0.22417267476E+02  0.36420804176E+02  0.00000000000E+00 0. -1.
         -2    1    3    3    0  502  0.14638188132E+02 -0.24691386028E+02 -0.51902156593E+02  0.59310833368E+02  0.00000000000E+00 0.  1.
<mgrwt>
<rscale>  0 0.91077921E+02</rscale>
<asrwt>0</asrwt>
<pdfrwt beam="1">  1        2 0.50959038E-02 0.91077921E+02</pdfrwt>
<pdfrwt beam="2">  1       -2 0.96320404E-02 0.91077921E+02</pdfrwt>
<totfact> 0.91107597E+04</totfact>
</mgrwt>
</event>
<event>
 5    1  0.3858870E+001  0.9011549E+02  0.7546771E-02  0.1302572E+00
         -1   -1    0    0    0  501 -0.00000000000E+00  0.00000000000E+00  0.60465500886E+02  0.60465500886E+02  0.00000000000E+00 0.  1.
          1   -1    0    0  501    0  0.00000000000E+00 -0.00000000000E+00 -0.33576180686E+02  0.33576180686E+02  0.00000000000E+00 0. -1.
         23    2    1    2    0    0  0.00000000000E+00  0.00000000000E+00  0.26889320201E+02  0.94041681572E+02  0.90115494406E+02 0.  0.
          2    1    3    3  502    0 -0.83316995463E+01 -0.23730593074E+02 -0.25569201353E+02  0.35865614770E+02  0.00000000000E+00 0. -1.
         -2    1    3    3    0  502  0.83316995463E+01  0.23730593074E+02  0.52458521554E+02  0.58176066802E+02  0.00000000000E+00 0.  1.
<mgrwt>
<rscale>  0 0.90115494E+02</rscale>
<asrwt>0</asrwt>
<pdfrwt beam="2">  1        1 0.51655663E-02 0.90115494E+02</pdfrwt>
<pdfrwt beam="1">  1       -1 0.93023847E-02 0.90115494E+02</pdfrwt>
<totfact> 0.91241108E+04</totfact>
</mgrwt>
</event>
<event>
 5    1  0.3858870E+001  0.9099888E+02  0.7546771E-02  0.1300451E+00
         -2   -1    0    0    0  501 -0.00000000000E+00  0.00000000000E+00  0.71442087076E+00  0.71442087076E+00  0.00000000000E+00 0. -1.
          2   -1    0    0  501    0  0.00000000000E+00 -0.00000000000E+00 -0.28977302596E+04  0.28977302596E+04  0.00000000000E+00 0.  1.
         23    2    1    2    0    0  0.00000000000E+00  0.00000000000E+00 -0.28970158388E+04  0.28984446805E+04  0.90998878572E+02 0.  0.
          2    1    3    3  502    0 -0.31074368101E+02  0.27999339095E+02 -0.87818078863E+03  0.87917636278E+03  0.00000000000E+00 0. -1.
         -2    1    3    3    0  502  0.31074368101E+02 -0.27999339095E+02 -0.20188350501E+04  0.20192683177E+04  0.00000000000E+00 0.  1.
<mgrwt>
<rscale>  0 0.90998879E+02</rscale>
<asrwt>0</asrwt>
<pdfrwt beam="2">  1        2 0.44579931E+00 0.90998879E+02</pdfrwt>
<pdfrwt beam="1">  1       -2 0.10991222E-03 0.90998879E+02</pdfrwt>
<totfact> 0.11154155E+05</totfact>
</mgrwt>
</event>
<event>
 5    1  0.3858870E+001  0.9098078E+02  0.7546771E-02  0.1300494E+00
         -2   -1    0    0    0  501 -0.00000000000E+00  0.00000000000E+00  0.52047586196E+01  0.52047586196E+01  0.00000000000E+00 0. -1.
          2   -1    0    0  501    0  0.00000000000E+00 -0.00000000000E+00 -0.39759301822E+03  0.39759301822E+03  0.00000000000E+00 0.  1.
         23    2    1    2    0    0  0.00000000000E+00  0.00000000000E+00 -0.39238825960E+03  0.40279777684E+03  0.90980782338E+02 0.  0.
          2    1    3    3  502    0 -0.44411514823E+02 -0.90184732039E+01 -0.21371419772E+03  0.21846618460E+03  0.00000000000E+00 0. -1.
         -2    1    3    3    0  502  0.44411514823E+02  0.90184732039E+01 -0.17867406188E+03  0.18433159224E+03  0.00000000000E+00 0.  1.
<mgrwt>
<rscale>  0 0.90980782E+02</rscale>
<asrwt>0</asrwt>
<pdfrwt beam="2">  1        2 0.61168158E-01 0.90980782E+02</pdfrwt>
<pdfrwt beam="1">  1       -2 0.80073208E-03 0.90980782E+02</pdfrwt>
<totfact> 0.20033621E+05</totfact>
</mgrwt>
</event>
<event>
 5    1  0.3858870E+001  0.9104881E+02  0.7546771E-02  0.1300332E+00
         -2   -1    0    0    0  501 -0.00000000000E+00  0.00000000000E+00  0.38911191049E+01  0.38911191049E+01  0.00000000000E+00 0.  1.
          2   -1    0    0  501    0  0.00000000000E+00 -0.00000000000E+00 -0.53261577170E+03  0.53261577170E+03  0.00000000000E+00 0. -1.
         23    2    1    2    0    0  0.00000000000E+00  0.00000000000E+00 -0.52872465259E+03  0.53650689080E+03  0.91048808994E+02 0.  0.
          2    1    3    3  502    0 -0.17271793382E+02 -0.35119223998E+02 -0.12733157555E+03  0.13321037825E+03  0.00000000000E+00 0. -1.
         -2    1    3    3    0  502  0.17271793382E+02  0.35119223998E+02 -0.40139307704E+03  0.40329651256E+03  0.00000000000E+00 0.  1.
<mgrwt>
<rscale>  0 0.91048809E+02</rscale>
<asrwt>0</asrwt>
<pdfrwt beam="2">  1        2 0.81940810E-01 0.91048809E+02</pdfrwt>
<pdfrwt beam="1">  1       -2 0.59863427E-03 0.91048809E+02</pdfrwt>
<totfact> 0.22069966E+05</totfact>
</mgrwt>
</event>
<event>
 5    1  0.3858870E+001  0.9123661E+02  0.7546771E-02  0.1299884E+00
          2   -1    0    0  501    0  0.00000000000E+00  0.00000000000E+00  0.16483824285E+03  0.16483824285E+03  0.00000000000E+00 0. -1.
         -2   -1    0    0    0  501 -0.00000000000E+00 -0.00000000000E+00 -0.12624679019E+02  0.12624679019E+02  0.00000000000E+00 0.  1.
         23    2    1    2    0    0  0.00000000000E+00  0.00000000000E+00  0.15221356383E+03  0.17746292187E+03  0.91236613398E+02 0.  0.
          2    1    3    3  502    0 -0.16058849072E+02  0.42163665032E+02  0.63005425139E+02  0.77494160292E+02  0.00000000000E+00 0.  1.
         -2    1    3    3    0  502  0.16058849072E+02 -0.42163665032E+02  0.89208138691E+02  0.99968761577E+02  0.00000000000E+00 0. -1.
<mgrwt>
<rscale>  0 0.91236613E+02</rscale>
<asrwt>0</asrwt>
<pdfrwt beam="1">  1        2 0.25359728E-01 0.91236613E+02</pdfrwt>
<pdfrwt beam="2">  1       -2 0.19422584E-02 0.91236613E+02</pdfrwt>
<totfact> 0.14416211E+05</totfact>
</mgrwt>
</event>
<event>
 5    1  0.3858870E+001  0.8920934E+02  0.7546771E-02  0.1304778E+00
         -1   -1    0    0    0  501 -0.00000000000E+00  0.00000000000E+00  0.14530122487E+01  0.14530122487E+01  0.00000000000E+00 0.  1.
          1   -1    0    0  501    0  0.00000000000E+00 -0.00000000000E+00 -0.13692772659E+04  0.13692772659E+04  0.00000000000E+00 0. -1.
         23    2    1    2    0    0  0.00000000000E+00  0.00000000000E+00 -0.13678242536E+04  0.13707302781E+04  0.89209341196E+02 0.  0.
          2    1    3    3  502    0 -0.30347918408E+02  0.59323804097E+01 -0.11778510429E+04  0.11782568771E+04  0.00000000000E+00 0. -1.
         -2    1    3    3    0  502  0.30347918408E+02 -0.59323804097E+01 -0.18997321074E+03  0.19247340099E+03  0.00000000000E+00 0.  1.
<mgrwt>
<rscale>  0 0.89209341E+02</rscale>
<asrwt>0</asrwt>
<pdfrwt beam="2">  1        1 0.21065830E+00 0.89209341E+02</pdfrwt>
<pdfrwt beam="1">  1       -1 0.22354008E-03 0.89209341E+02</pdfrwt>
<totfact> 0.12521915E+05</totfact>
</mgrwt>
</event>
<event>
 5    1  0.3858870E+001  0.6765506E+02  0.7546771E-02  0.1368254E+00
         -3   -1    0    0    0  501 -0.00000000000E+00  0.00000000000E+00  0.16835468416E+02  0.16835468416E+02  0.00000000000E+00 0.  1.
          3   -1    0    0  501    0  0.00000000000E+00 -0.00000000000E+00 -0.67969692888E+02  0.67969692888E+02  0.00000000000E+00 0. -1.
         23    2    1    2    0    0  0.00000000000E+00  0.00000000000E+00 -0.51134224471E+02  0.84805161304E+02  0.67655055033E+02 0.  0.
          2    1    3    3  502    0  0.23875417561E+02 -0.90642317597E+01  0.22397032862E+01  0.25636148929E+02  0.00000000000E+00 0.  1.
         -2    1    3    3    0  502 -0.23875417561E+02  0.90642317597E+01 -0.53373927758E+02  0.59169012375E+02  0.00000000000E+00 0. -1.
<mgrwt>
<rscale>  0 0.67655055E+02</rscale>
<asrwt>0</asrwt>
<pdfrwt beam="2">  1        3 0.10456876E-01 0.67655055E+02</pdfrwt>
<pdfrwt beam="1">  1       -3 0.25900720E-02 0.67655055E+02</pdfrwt>
<totfact> 0.79582197E+04</totfact>
</mgrwt>
</event>
<event>
 5    1  0.3858870E+001  0.9796011E+02  0.7546771E-02  0.1284645E+00
          1   -1    0    0  501    0  0.00000000000E+00  0.00000000000E+00  0.59257647524E+03  0.59257647524E+03  0.00000000000E+00 0. -1.
         -1   -1    0    0    0  501 -0.00000000000E+00 -0.00000000000E+00 -0.40485002387E+01  0.40485002387E+01  0.00000000000E+00 0.  1.
         23    2    1    2    0    0  0.00000000000E+00  0.00000000000E+00  0.58852797500E+03  0.59662497548E+03  0.97960114362E+02 0.  0.
          2    1    3    3  502    0  0.34705978683E+02 -0.38814766515E+01  0.50343261658E+03  0.50464241821E+03  0.00000000000E+00 0. -1.
         -2    1    3    3    0  502 -0.34705978683E+02  0.38814766515E+01  0.85095358421E+02  0.91982557271E+02  0.00000000000E+00 0.  1.
<mgrwt>
<rscale>  0 0.97960114E+02</rscale>
<asrwt>0</asrwt>
<pdfrwt beam="1">  1        1 0.91165543E-01 0.97960114E+02</pdfrwt>
<pdfrwt beam="2">  1       -1 0.62284666E-03 0.97960114E+02</pdfrwt>
<totfact> 0.11692109E+05</totfact>
</mgrwt>
</event>
<event>
 5    1  0.3858870E+001  0.9638702E+02  0.7546771E-02  0.1288082E+00
          1   -1    0    0  501    0  0.00000000000E+00  0.00000000000E+00  0.43396583418E+03  0.43396583418E+03  0.00000000000E+00 0. -1.
         -1   -1    0    0    0  501 -0.00000000000E+00 -0.00000000000E+00 -0.53520673197E+01  0.53520673197E+01  0.00000000000E+00 0.  1.
         23    2    1    2    0    0  0.00000000000E+00  0.00000000000E+00  0.42861376686E+03  0.43931790150E+03  0.96387019022E+02 0.  0.
          2    1    3    3  502    0  0.24940323888E+02  0.35084223047E+02  0.31308639746E+03  0.31603166730E+03  0.00000000000E+00 0. -1.
         -2    1    3    3    0  502 -0.24940323888E+02 -0.35084223047E+02  0.11552736940E+03  0.12328623420E+03  0.00000000000E+00 0.  1.
<mgrwt>
<rscale>  0 0.96387019E+02</rscale>
<asrwt>0</asrwt>
<pdfrwt beam="1">  1        1 0.66763947E-01 0.96387019E+02</pdfrwt>
<pdfrwt beam="2">  1       -1 0.82339531E-03 0.96387019E+02</pdfrwt>
<totfact> 0.11784503E+05</totfact>
</mgrwt>
</event>
<event>
 5    1  0.3858870E+001  0.8829152E+02  0.7546771E-02  0.1307043E+00
          2   -1    0    0  501    0  0.00000000000E+00  0.00000000000E+00  0.42719563872E+02  0.42719563872E+02  0.00000000000E+00 0. -1.
         -2   -1    0    0    0  501 -0.00000000000E+00 -0.00000000000E+00 -0.45619573868E+02  0.45619573868E+02  0.00000000000E+00 0.  1.
         23    2    1    2    0    0  0.00000000000E+00  0.00000000000E+00 -0.29000099962E+01  0.88339137739E+02  0.88291523934E+02 0.  0.
          2    1    3    3  502    0  0.33413019402E+02 -0.13941316284E+02  0.23823429735E+02  0.43339888897E+02  0.00000000000E+00 0. -1.
         -2    1    3    3    0  502 -0.33413019402E+02  0.13941316284E+02 -0.26723439731E+02  0.44999248842E+02  0.00000000000E+00 0.  1.
<mgrwt>
<rscale>  0 0.88291524E+02</rscale>
<asrwt>0</asrwt>
<pdfrwt beam="1">  1        2 0.65722406E-02 0.88291524E+02</pdfrwt>
<pdfrwt beam="2">  1       -2 0.70183959E-02 0.88291524E+02</pdfrwt>
<totfact> 0.10640961E+05</totfact>
</mgrwt>
</event>
<event>
 5    1  0.3858870E+001  0.9173717E+02  0.7546771E-02  0.1298699E+00
         -1   -1    0    0    0  501 -0.00000000000E+00  0.00000000000E+00  0.14189954946E+01  0.14189954946E+01  0.00000000000E+00 0.  1.
          1   -1    0    0  501    0  0.00000000000E+00 -0.00000000000E+00 -0.14826876152E+04  0.14826876152E+04  0.00000000000E+00 0. -1.
         23    2    1    2    0    0  0.00000000000E+00  0.00000000000E+00 -0.14812686197E+04  0.14841066107E+04  0.91737169039E+02 0.  0.
          2    1    3    3  502    0 -0.36121283071E+02 -0.14690582608E+02 -0.11313767616E+04  0.11320485577E+04  0.00000000000E+00 0. -1.
         -2    1    3    3    0  502  0.36121283071E+02  0.14690582608E+02 -0.34989185811E+03  0.35205805299E+03  0.00000000000E+00 0.  1.
<mgrwt>
<rscale>  0 0.91737169E+02</rscale>
<asrwt>0</asrwt>
<pdfrwt beam="2">  1        1 0.22810469E+00 0.91737169E+02</pdfrwt>
<pdfrwt beam="1">  1       -1 0.21830805E-03 0.91737169E+02</pdfrwt>
<totfact> 0.10975687E+05</totfact>
</mgrwt>
</event>
<event>
 5    1  0.3858870E+001  0.9333228E+02  0.7546771E-02  0.1294977E+00
          2   -1    0    0  501    0  0.00000000000E+00  0.00000000000E+00  0.35332885716E+03  0.35332885716E+03  0.00000000000E+00 0. -1.
         -2   -1    0    0    0  501 -0.00000000000E+00 -0.00000000000E+00 -0.61634606742E+01  0.61634606742E+01  0.00000000000E+00 0.  1.
         23    2    1    2    0    0  0.00000000000E+00  0.00000000000E+00  0.34716539649E+03  0.35949231783E+03  0.93332277722E+02 0.  0.
          2    1    3    3  502    0 -0.98782951574E+01 -0.25249329603E+02  0.27286312568E+02  0.38466247727E+02  0.00000000000E+00 0.  1.
         -2    1    3    3    0  502  0.98782951574E+01  0.25249329603E+02  0.31987908392E+03  0.32102607011E+03  0.00000000000E+00 0. -1.
<mgrwt>
<rscale>  0 0.93332278E+02</rscale>
<asrwt>0</asrwt>
<pdfrwt beam="1">  1        2 0.54358270E-01 0.93332278E+02</pdfrwt>
<pdfrwt beam="2">  1       -2 0.94822499E-03 0.93332278E+02</pdfrwt>
<totfact> 0.17933482E+05</totfact>
</mgrwt>
</event>
<event>
 5    1  0.3858870E+001  0.9108533E+02  0.7546771E-02  0.1300245E+00
         -3   -1    0    0    0  501 -0.00000000000E+00  0.00000000000E+00  0.11068942018E+02  0.11068942018E+02  0.00000000000E+00 0.  1.
          3   -1    0    0  501    0  0.00000000000E+00 -0.00000000000E+00 -0.18738323777E+03  0.18738323777E+03  0.00000000000E+00 0. -1.
         23    2    1    2    0    0  0.00000000000E+00  0.00000000000E+00 -0.17631429575E+03  0.19845217978E+03  0.91085326896E+02 0.  0.
          2    1    3    3  502    0 -0.39292217463E+02 -0.13037527939E+02 -0.12951202639E+03  0.13596771847E+03  0.00000000000E+00 0. -1.
         -2    1    3    3    0  502  0.39292217463E+02  0.13037527939E+02 -0.46802269362E+02  0.62484461311E+02  0.00000000000E+00 0.  1.
<mgrwt>
<rscale>  0 0.91085327E+02</rscale>
<asrwt>0</asrwt>
<pdfrwt beam="2">  1        3 0.28828187E-01 0.91085327E+02</pdfrwt>
<pdfrwt beam="1">  1       -3 0.17029143E-02 0.91085327E+02</pdfrwt>
<totfact> 0.28656416E+04</totfact>
</mgrwt>
</event>
<event>
 5    1  0.3858870E+001  0.9143276E+02  0.7546771E-02  0.1299419E+00
         -2   -1    0    0    0  501 -0.00000000000E+00  0.00000000000E+00  0.37517180114E+02  0.37517180114E+02  0.00000000000E+00 0.  1.
          2   -1    0    0  501    0  0.00000000000E+00 -0.00000000000E+00 -0.55707473938E+02  0.55707473938E+02  0.00000000000E+00 0. -1.
         23    2    1    2    0    0  0.00000000000E+00  0.00000000000E+00 -0.18190293823E+02  0.93224654052E+02  0.91432758537E+02 0.  0.
          2    1    3    3  502    0 -0.31258834213E+02  0.13608900305E+02 -0.40149738285E+02  0.52671798605E+02  0.00000000000E+00 0. -1.
         -2    1    3    3    0  502  0.31258834213E+02 -0.13608900305E+02  0.21959444462E+02  0.40552855448E+02  0.00000000000E+00 0.  1.
<mgrwt>
<rscale>  0 0.91432759E+02</rscale>
<asrwt>0</asrwt>
<pdfrwt beam="2">  1        2 0.85703806E-02 0.91432759E+02</pdfrwt>
<pdfrwt beam="1">  1       -2 0.57718739E-02 0.91432759E+02</pdfrwt>
<totfact> 0.10316818E+05</totfact>
</mgrwt>
</event>
<event>
 5    1  0.3858870E+001  0.9154990E+02  0.7546771E-02  0.1299141E+00
         -1   -1    0    0    0  501 -0.00000000000E+00  0.00000000000E+00  0.20264244694E+01  0.20264244694E+01  0.00000000000E+00 0.  1.
          1   -1    0    0  501    0  0.00000000000E+00 -0.00000000000E+00 -0.10340113465E+04  0.10340113465E+04  0.00000000000E+00 0. -1.
         23    2    1    2    0    0  0.00000000000E+00  0.00000000000E+00 -0.10319849220E+04  0.10360377710E+04  0.91549896650E+02 0.  0.
          2    1    3    3  502    0  0.15262859551E+02  0.41685791490E+02 -0.64235729442E+03  0.64388939562E+03  0.00000000000E+00 0. -1.
         -2    1    3    3    0  502 -0.15262859551E+02 -0.41685791490E+02 -0.38962762760E+03  0.39214837534E+03  0.00000000000E+00 0.  1.
<mgrwt>
<rscale>  0 0.91549897E+02</rscale>
<asrwt>0</asrwt>
<pdfrwt beam="2">  1        1 0.15907873E+00 0.91549897E+02</pdfrwt>
<pdfrwt beam="1">  1       -1 0.31175748E-03 0.91549897E+02</pdfrwt>
<totfact> 0.13329022E+05</totfact>
</mgrwt>
</event>
<event>
 5    1  0.3858870E+001  0.9187059E+02  0.7546771E-02  0.1298384E+00
          1   -1    0    0  501    0  0.00000000000E+00  0.00000000000E+00  0.19147265584E+03  0.19147265584E+03  0.00000000000E+00 0. -1.
         -1   -1    0    0    0  501 -0.00000000000E+00 -0.00000000000E+00 -0.11020118143E+02  0.11020118143E+02  0.00000000000E+00 0.  1.
         23    2    1    2    0    0  0.00000000000E+00  0.00000000000E+00  0.18045253770E+03  0.20249277398E+03  0.91870589170E+02 0.  0.
          2    1    3    3  502    0 -0.79341779654E+01 -0.35262390713E+02  0.27742062017E+02  0.45563245975E+02  0.00000000000E+00 0. -1.
         -2    1    3    3    0  502  0.79341779654E+01  0.35262390713E+02  0.15271047568E+03  0.15692952801E+03  0.00000000000E+00 0.  1.
<mgrwt>
<rscale>  0 0.91870589E+02</rscale>
<asrwt>0</asrwt>
<pdfrwt beam="1">  1        1 0.29457329E-01 0.91870589E+02</pdfrwt>
<pdfrwt beam="2">  1       -1 0.16954029E-02 0.91870589E+02</pdfrwt>
<totfact> 0.11504456E+05</totfact>
</mgrwt>
</event>
<event>
 5    1  0.3858870E+001  0.9152514E+02  0.7546771E-02  0.1299200E+00
         -1   -1    0    0    0  501 -0.00000000000E+00  0.00000000000E+00  0.17945452673E+01  0.17945452673E+01  0.00000000000E+00 0.  1.
          1   -1    0    0  501    0  0.00000000000E+00 -0.00000000000E+00 -0.11669879895E+04  0.11669879895E+04  0.00000000000E+00 0. -1.
         23    2    1    2    0    0  0.00000000000E+00  0.00000000000E+00 -0.11651934442E+04  0.11687825348E+04  0.91525139140E+02 0.  0.
          2    1    3    3  502    0  0.10767502681E+02 -0.42327515453E+02 -0.75706370079E+03  0.75832249388E+03  0.00000000000E+00 0. -1.
         -2    1    3    3    0  502 -0.10767502681E+02  0.42327515453E+02 -0.40812974346E+03  0.41046004090E+03  0.00000000000E+00 0.  1.
<mgrwt>
<rscale>  0 0.91525139E+02</rscale>
<asrwt>0</asrwt>
<pdfrwt beam="2">  1        1 0.17953577E+00 0.91525139E+02</pdfrwt>
<pdfrwt beam="1">  1       -1 0.27608519E-03 0.91525139E+02</pdfrwt>
<totfact> 0.12762625E+05</totfact>
</mgrwt>
</event>
<event>
 5    1  0.3858870E+001  0.8933643E+02  0.7546771E-02  0.1304467E+00
          1   -1    0    0  501    0  0.00000000000E+00  0.00000000000E+00  0.33776268313E+01  0.33776268313E+01  0.00000000000E+00 0.  1.
         -1   -1    0    0    0  501 -0.00000000000E+00 -0.00000000000E+00 -0.59072519140E+03  0.59072519140E+03  0.00000000000E+00 0. -1.
         23    2    1    2    0    0  0.00000000000E+00  0.00000000000E+00 -0.58734756457E+03  0.59410281823E+03  0.89336426085E+02 0.  0.
          2    1    3    3  502    0  0.28179302348E+02 -0.14894645839E+02 -0.50178553846E+03  0.50279682792E+03  0.00000000000E+00 0. -1.
         -2    1    3    3    0  502 -0.28179302348E+02  0.14894645839E+02 -0.85562026102E+02  0.91305990308E+02  0.00000000000E+00 0.  1.
<mgrwt>
<rscale>  0 0.89336426E+02</rscale>
<asrwt>0</asrwt>
<pdfrwt beam="1">  1        1 0.51963461E-03 0.89336426E+02</pdfrwt>
<pdfrwt beam="2">  1       -1 0.90880849E-01 0.89336426E+02</pdfrwt>
<totfact> 0.44400797E+04</totfact>
</mgrwt>
</event>
<event>
 5    1  0.3858870E+001  0.9306263E+02  0.7546771E-02  0.1295600E+00
          1   -1    0    0  501    0  0.00000000000E+00  0.00000000000E+00  0.95073183531E+03  0.95073183531E+03  0.00000000000E+00 0. -1.
         -1   -1    0    0    0  501 -0.00000000000E+00 -0.00000000000E+00 -0.22773647841E+01  0.22773647841E+01  0.00000000000E+00 0.  1.
         23    2    1    2    0    0  0.00000000000E+00  0.00000000000E+00  0.94845447053E+03  0.95300920010E+03  0.93062628393E+02 0.  0.
          2    1    3    3  502    0 -0.14453887856E+02 -0.25583415812E+02  0.84370085093E+03  0.84421238554E+03  0.00000000000E+00 0. -1.
         -2    1    3    3    0  502  0.14453887856E+02  0.25583415812E+02  0.10475361960E+03  0.10879681456E+03  0.00000000000E+00 0.  1.
<mgrwt>
<rscale>  0 0.93062628E+02</rscale>
<asrwt>0</asrwt>
<pdfrwt beam="1">  1        1 0.14626612E+00 0.93062628E+02</pdfrwt>
<pdfrwt beam="2">  1       -1 0.35036457E-03 0.93062628E+02</pdfrwt>
<totfact> 0.13042993E+05</totfact>
</mgrwt>
</event>
<event>
 5    1  0.3858870E+001  0.8820351E+02  0.7546771E-02  0.1307261E+00
         -2   -1    0    0    0  501 -0.00000000000E+00  0.00000000000E+00  0.25748565202E+02  0.25748565202E+02  0.00000000000E+00 0.  1.
          2   -1    0    0  501    0  0.00000000000E+00 -0.00000000000E+00 -0.75536823229E+02  0.75536823229E+02  0.00000000000E+00 0. -1.
         23    2    1    2    0    0  0.00000000000E+00  0.00000000000E+00 -0.49788258027E+02  0.10128538843E+03  0.88203510543E+02 0.  0.
          2    1    3    3  502    0  0.16627869088E+02  0.24716741186E+02 -0.62237519157E+02  0.68999363157E+02  0.00000000000E+00 0. -1.
         -2    1    3    3    0  502 -0.16627869088E+02 -0.24716741186E+02  0.12449261130E+02  0.32286025273E+02  0.00000000000E+00 0.  1.
<mgrwt>
<rscale>  0 0.88203511E+02</rscale>
<asrwt>0</asrwt>
<pdfrwt beam="2">  1        2 0.11621050E-01 0.88203511E+02</pdfrwt>
<pdfrwt beam="1">  1       -2 0.39613178E-02 0.88203511E+02</pdfrwt>
<totfact> 0.12389619E+05</totfact>
</mgrwt>
</event>
<event>
 5    1  0.3858870E+001  0.9375233E+02  0.7546771E-02  0.1294011E+00
         -3   -1    0    0    0  501 -0.00000000000E+00  0.00000000000E+00  0.87150350063E+02  0.87150350063E+02  0.00000000000E+00 0.  1.
          3   -1    0    0  501    0  0.00000000000E+00 -0.00000000000E+00 -0.25213609174E+02  0.25213609174E+02  0.00000000000E+00 0. -1.
         23    2    1    2    0    0  0.00000000000E+00  0.00000000000E+00  0.61936740889E+02  0.11236395924E+03  0.93752330443E+02 0.  0.
          2    1    3    3  502    0  0.37291175558E+02 -0.99901908511E+01 -0.89824847819E+00  0.38616609613E+02  0.00000000000E+00 0. -1.
         -2    1    3    3    0  502 -0.37291175558E+02  0.99901908511E+01  0.62834989368E+02  0.73747349624E+02  0.00000000000E+00 0.  1.
<mgrwt>
<rscale>  0 0.93752330E+02</rscale>
<asrwt>0</asrwt>
<pdfrwt beam="2">  1        3 0.38790168E-02 0.93752330E+02</pdfrwt>
<pdfrwt beam="1">  1       -3 0.13407746E-01 0.93752330E+02</pdfrwt>
<totfact> 0.31308325E+04</totfact>
</mgrwt>
</event>
<event>
 5    1  0.3858870E+001  0.9223285E+02  0.7546771E-02  0.1297533E+00
         -4   -1    0    0    0  501 -0.00000000000E+00  0.00000000000E+00  0.51669052245E+02  0.51669052245E+02  0.00000000000E+00 0.  1.
          4   -1    0    0  501    0  0.00000000000E+00 -0.00000000000E+00 -0.41160513033E+02  0.41160513033E+02  0.00000000000E+00 0. -1.
         23    2    1    2    0    0  0.00000000000E+00  0.00000000000E+00  0.10508539212E+02  0.92829565279E+02  0.92232850945E+02 0.  0.
          2    1    3    3  502    0  0.18438345647E+02 -0.36973898955E+02  0.25872971656E+02  0.48748871335E+02  0.00000000000E+00 0.  1.
         -2    1    3    3    0  502 -0.18438345647E+02  0.36973898955E+02 -0.15364432444E+02  0.44080693943E+02  0.00000000000E+00 0. -1.
<mgrwt>
<rscale>  0 0.92232851E+02</rscale>
<asrwt>0</asrwt>
<pdfrwt beam="2">  1        4 0.63323866E-02 0.92232851E+02</pdfrwt>
<pdfrwt beam="1">  1       -4 0.79490849E-02 0.92232851E+02</pdfrwt>
<totfact> 0.26080101E+04</totfact>
</mgrwt>
</event>
<event>
 5    1  0.3858870E+001  0.9076951E+02  0.7546771E-02  0.1300999E+00
          1   -1    0    0  501    0  0.00000000000E+00  0.00000000000E+00  0.12524353073E+02  0.12524353073E+02  0.00000000000E+00 0. -1.
         -1   -1    0    0    0  501 -0.00000000000E+00 -0.00000000000E+00 -0.16446166957E+03  0.16446166957E+03  0.00000000000E+00 0.  1.
         23    2    1    2    0    0  0.00000000000E+00  0.00000000000E+00 -0.15193731650E+03  0.17698602264E+03  0.90769510668E+02 0.  0.
          2    1    3    3  502    0  0.12599457200E+02  0.43595616303E+02 -0.74657857858E+02  0.87367727580E+02  0.00000000000E+00 0.  1.
         -2    1    3    3    0  502 -0.12599457200E+02 -0.43595616303E+02 -0.77279458639E+02  0.89618295063E+02  0.00000000000E+00 0. -1.
<mgrwt>
<rscale>  0 0.90769511E+02</rscale>
<asrwt>0</asrwt>
<pdfrwt beam="1">  1        1 0.19268236E-02 0.90769511E+02</pdfrwt>
<pdfrwt beam="2">  1       -1 0.25301795E-01 0.90769511E+02</pdfrwt>
<totfact> 0.74001249E+04</totfact>
</mgrwt>
</event>
<event>
 5    1  0.3858870E+001  0.9186542E+02  0.7546771E-02  0.1298396E+00
         -2   -1    0    0    0  501 -0.00000000000E+00  0.00000000000E+00  0.34945997130E+02  0.34945997130E+02  0.00000000000E+00 0. -1.
          2   -1    0    0  501    0  0.00000000000E+00 -0.00000000000E+00 -0.60373546432E+02  0.60373546432E+02  0.00000000000E+00 0.  1.
         23    2    1    2    0    0  0.00000000000E+00  0.00000000000E+00 -0.25427549302E+02  0.95319543562E+02  0.91865418528E+02 0.  0.
          2    1    3    3  502    0  0.38505366591E+01 -0.43651790732E+02  0.15700341954E+01  0.43849406770E+02  0.00000000000E+00 0.  1.
         -2    1    3    3    0  502 -0.38505366591E+01  0.43651790732E+02 -0.26997583498E+02  0.51470136792E+02  0.00000000000E+00 0. -1.
<mgrwt>
<rscale>  0 0.91865419E+02</rscale>
<asrwt>0</asrwt>
<pdfrwt beam="2">  1        2 0.92882379E-02 0.91865419E+02</pdfrwt>
<pdfrwt beam="1">  1       -2 0.53763073E-02 0.91865419E+02</pdfrwt>
<totfact> 0.10401234E+05</totfact>
</mgrwt>
</event>
<event>
 5    1  0.3858870E+001  0.8632112E+02  0.7546771E-02  0.1312013E+00
          2   -1    0    0  501    0  0.00000000000E+00  0.00000000000E+00  0.56967373679E+03  0.56967373679E+03  0.00000000000E+00 0. -1.
         -2   -1    0    0    0  501 -0.00000000000E+00 -0.00000000000E+00 -0.32700014091E+01  0.32700014091E+01  0.00000000000E+00 0.  1.
         23    2    1    2    0    0  0.00000000000E+00  0.00000000000E+00  0.56640373538E+03  0.57294373820E+03  0.86321119595E+02 0.  0.
          2    1    3    3  502    0 -0.22797521043E+02 -0.11020958087E+02  0.51519092584E+03  0.51581283287E+03  0.00000000000E+00 0. -1.
         -2    1    3    3    0  502  0.22797521043E+02  0.11020958087E+02  0.51212809534E+02  0.57130905325E+02  0.00000000000E+00 0.  1.
<mgrwt>
<rscale>  0 0.86321120E+02</rscale>
<asrwt>0</asrwt>
<pdfrwt beam="1">  1        2 0.87642035E-01 0.86321120E+02</pdfrwt>
<pdfrwt beam="2">  1       -2 0.50307759E-03 0.86321120E+02</pdfrwt>
<totfact> 0.25925144E+05</totfact>
</mgrwt>
</event>
<event>
 5    1  0.3858870E+001  0.8902560E+02  0.7546771E-02  0.1305229E+00
         -1   -1    0    0    0  501 -0.00000000000E+00  0.00000000000E+00  0.51377832682E+01  0.51377832682E+01  0.00000000000E+00 0.  1.
          1   -1    0    0  501    0  0.00000000000E+00 -0.00000000000E+00 -0.38565065616E+03  0.38565065616E+03  0.00000000000E+00 0. -1.
         23    2    1    2    0    0  0.00000000000E+00  0.00000000000E+00 -0.38051287289E+03  0.39078843943E+03  0.89025602802E+02 0.  0.
          2    1    3    3  502    0 -0.86295412360E+01 -0.23953736699E+02 -0.35053096283E+03  0.35145441580E+03  0.00000000000E+00 0.  1.
         -2    1    3    3    0  502  0.86295412360E+01  0.23953736699E+02 -0.29981910067E+02  0.39334023632E+02  0.00000000000E+00 0. -1.
<mgrwt>
<rscale>  0 0.89025603E+02</rscale>
<asrwt>0</asrwt>
<pdfrwt beam="2">  1        1 0.59330855E-01 0.89025603E+02</pdfrwt>
<pdfrwt beam="1">  1       -1 0.79042839E-03 0.89025603E+02</pdfrwt>
<totfact> 0.14283827E+05</totfact>
</mgrwt>
</event>
<event>
 5    1  0.3858870E+001  0.9001264E+02  0.7546771E-02  0.1302821E+00
         -3   -1    0    0    0  501 -0.00000000000E+00  0.00000000000E+00  0.18761940923E+04  0.18761940923E+04  0.00000000000E+00 0.  1.
          3   -1    0    0  501    0  0.00000000000E+00 -0.00000000000E+00 -0.10796158944E+01  0.10796158944E+01  0.00000000000E+00 0. -1.
         23    2    1    2    0    0  0.00000000000E+00  0.00000000000E+00  0.18751144764E+04  0.18772737082E+04  0.90012642735E+02 0.  0.
          2    1    3    3  502    0  0.42346147248E+02  0.45142203433E+01  0.63389801607E+03  0.63532689944E+03  0.00000000000E+00 0. -1.
         -2    1    3    3    0  502 -0.42346147248E+02 -0.45142203433E+01  0.12412164603E+04  0.12419468088E+04  0.00000000000E+00 0.  1.
<mgrwt>
<rscale>  0 0.90012643E+02</rscale>
<asrwt>0</asrwt>
<pdfrwt beam="2">  1        3 0.16609625E-03 0.90012643E+02</pdfrwt>
<pdfrwt beam="1">  1       -3 0.28864264E+00 0.90012643E+02</pdfrwt>
<totfact> 0.42628416E+03</totfact>
</mgrwt>
</event>
<event>
 5    1  0.3858870E+001  0.9131811E+02  0.7546771E-02  0.1299691E+00
         -2   -1    0    0    0  501 -0.00000000000E+00  0.00000000000E+00  0.42654581130E+01  0.42654581130E+01  0.00000000000E+00 0.  1.
          2   -1    0    0  501    0  0.00000000000E+00 -0.00000000000E+00 -0.48875152644E+03  0.48875152644E+03  0.00000000000E+00 0. -1.
         23    2    1    2    0    0  0.00000000000E+00  0.00000000000E+00 -0.48448606832E+03  0.49301698455E+03  0.91318106937E+02 0.  0.
          2    1    3    3  502    0 -0.30953717153E+02 -0.24633156707E+02 -0.36533599177E+03  0.36747151168E+03  0.00000000000E+00 0. -1.
         -2    1    3    3    0  502  0.30953717153E+02  0.24633156707E+02 -0.11915007655E+03  0.12554547287E+03  0.00000000000E+00 0.  1.
<mgrwt>
<rscale>  0 0.91318107E+02</rscale>
<asrwt>0</asrwt>
<pdfrwt beam="2">  1        2 0.75192527E-01 0.91318107E+02</pdfrwt>
<pdfrwt beam="1">  1       -2 0.65622446E-03 0.91318107E+02</pdfrwt>
<totfact> 0.21302373E+05</totfact>
</mgrwt>
</event>
<event>
 5    1  0.3858870E+001  0.8846033E+02  0.7546771E-02  0.1306624E+00
          2   -1    0    0  501    0  0.00000000000E+00  0.00000000000E+00  0.97484448152E+03  0.97484448152E+03  0.00000000000E+00 0. -1.
         -2   -1    0    0    0  501 -0.00000000000E+00 -0.00000000000E+00 -0.20067892886E+01  0.20067892886E+01  0.00000000000E+00 0.  1.
         23    2    1    2    0    0  0.00000000000E+00  0.00000000000E+00  0.97283769223E+03  0.97685127081E+03  0.88460329267E+02 0.  0.
          2    1    3    3  502    0  0.35126413456E+02 -0.20147586214E+02  0.68288087646E+03  0.68408046426E+03  0.00000000000E+00 0. -1.
         -2    1    3    3    0  502 -0.35126413456E+02  0.20147586214E+02  0.28995681577E+03  0.29277080655E+03  0.00000000000E+00 0.  1.
<mgrwt>
<rscale>  0 0.88460329E+02</rscale>
<asrwt>0</asrwt>
<pdfrwt beam="1">  1        2 0.14997570E+00 0.88460329E+02</pdfrwt>
<pdfrwt beam="2">  1       -2 0.30873759E-03 0.88460329E+02</pdfrwt>
<totfact> 0.27034602E+05</totfact>
</mgrwt>
</event>
<event>
 5    1  0.3858870E+001  0.9011545E+02  0.7546771E-02  0.1302572E+00
         -2   -1    0    0    0  501 -0.00000000000E+00  0.00000000000E+00  0.66954553812E+01  0.66954553812E+01  0.00000000000E+00 0.  1.
          2   -1    0    0  501    0  0.00000000000E+00 -0.00000000000E+00 -0.30322036987E+03  0.30322036987E+03  0.00000000000E+00 0. -1.
         23    2    1    2    0    0  0.00000000000E+00  0.00000000000E+00 -0.29652491449E+03  0.30991582525E+03  0.90115447225E+02 0.  0.
          2    1    3    3  502    0 -0.44821334209E+02 -0.29036046375E+01 -0.16057401238E+03  0.16673750739E+03  0.00000000000E+00 0. -1.
         -2    1    3    3    0  502  0.44821334209E+02  0.29036046375E+01 -0.13595090211E+03  0.14317831786E+03  0.00000000000E+00 0.  1.
<mgrwt>
<rscale>  0 0.90115447E+02</rscale>
<asrwt>0</asrwt>
<pdfrwt beam="2">  1        2 0.46649288E-01 0.90115447E+02</pdfrwt>
<pdfrwt beam="1">  1       -2 0.10300701E-02 0.90115447E+02</pdfrwt>
<totfact> 0.18609231E+05</totfact>
</mgrwt>
</event>
<event>
 5    1  0.3858870E+001  0.8741772E+02  0.7546771E-02  0.1309228E+00
          1   -1    0    0  501    0  0.00000000000E+00  0.00000000000E+00  0.75098327603E+01  0.75098327603E+01  0.00000000000E+00 0. -1.
         -1   -1    0    0    0  501 -0.00000000000E+00 -0.00000000000E+00 -0.25439505214E+03  0.25439505214E+03  0.00000000000E+00 0.  1.
         23    2    1    2    0    0  0.00000000000E+00  0.00000000000E+00 -0.24688521938E+03  0.26190488490E+03  0.87417716662E+02 0.  0.
          2    1    3    3  502    0  0.34297377934E+02  0.22914033008E+02 -0.80119216970E+02  0.90113550423E+02  0.00000000000E+00 0. -1.
         -2    1    3    3    0  502 -0.34297377934E+02 -0.22914033008E+02 -0.16676600241E+03  0.17179133448E+03  0.00000000000E+00 0.  1.
<mgrwt>
<rscale>  0 0.87417717E+02</rscale>
<asrwt>0</asrwt>
<pdfrwt beam="1">  1        1 0.11553588E-02 0.87417717E+02</pdfrwt>
<pdfrwt beam="2">  1       -1 0.39137703E-01 0.87417717E+02</pdfrwt>
<totfact> 0.71848301E+04</totfact>
</mgrwt>
</event>
<event>
 5    1  0.3858870E+001  0.9245657E+02  0.7546771E-02  0.1297009E+00
         -3   -1    0    0    0  501 -0.00000000000E+00  0.00000000000E+00  0.71154953081E+02  0.71154953081E+02  0.00000000000E+00 0.  1.
          3   -1    0    0  501    0  0.00000000000E+00 -0.00000000000E+00 -0.30033806668E+02  0.30033806668E+02  0.00000000000E+00 0. -1.
         23    2    1    2    0    0  0.00000000000E+00  0.00000000000E+00  0.41121146413E+02  0.10118875975E+03  0.92456565030E+02 0.  0.
          2    1    3    3  502    0  0.53392939764E+01 -0.40049210064E+02 -0.40244756302E+01  0.40603493581E+02  0.00000000000E+00 0. -1.
         -2    1    3    3    0  502 -0.53392939764E+01  0.40049210064E+02  0.45145622043E+02  0.60585266167E+02  0.00000000000E+00 0.  1.
<mgrwt>
<rscale>  0 0.92456565E+02</rscale>
<asrwt>0</asrwt>
<pdfrwt beam="2">  1        3 0.46205857E-02 0.92456565E+02</pdfrwt>
<pdfrwt beam="1">  1       -3 0.10946916E-01 0.92456565E+02</pdfrwt>
<totfact> 0.33293978E+04</totfact>
</mgrwt>
</event>
<event>
 5    1  0.3858870E+001  0.9052757E+02  0.7546771E-02  0.1301579E+00
         -2   -1    0    0    0  501 -0.00000000000E+00  0.00000000000E+00  0.86030599285E+01  0.86030599285E+01  0.00000000000E+00 0.  1.
          2   -1    0    0  501    0  0.00000000000E+00 -0.00000000000E+00 -0.23814902065E+03  0.23814902065E+03  0.00000000000E+00 0. -1.
         23    2    1    2    0    0  0.00000000000E+00  0.00000000000E+00 -0.22954596072E+03  0.24675208058E+03  0.90527571414E+02 0.  0.
          2    1    3    3  502    0  0.38629777745E+02 -0.17261272561E+02 -0.70940766579E+02  0.82600264054E+02  0.00000000000E+00 0.  1.
         -2    1    3    3    0  502 -0.38629777745E+02  0.17261272561E+02 -0.15860519414E+03  0.16415181652E+03  0.00000000000E+00 0. -1.
<mgrwt>
<rscale>  0 0.90527571E+02</rscale>
<asrwt>0</asrwt>
<pdfrwt beam="2">  1        2 0.36638308E-01 0.90527571E+02</pdfrwt>
<pdfrwt beam="1">  1       -2 0.13235478E-02 0.90527571E+02</pdfrwt>
<totfact> 0.16806190E+05</totfact>
</mgrwt>
</event>
<event>
 5    1  0.3858870E+001  0.9031158E+02  0.7546771E-02  0.1302099E+00
         -1   -1    0    0    0  501 -0.00000000000E+00  0.00000000000E+00  0.10787353203E+02  0.10787353203E+02  0.00000000000E+00 0.  1.
          1   -1    0    0  501    0  0.00000000000E+00 -0.00000000000E+00 -0.18902184720E+03  0.18902184720E+03  0.00000000000E+00 0. -1.
         23    2    1    2    0    0  0.00000000000E+00  0.00000000000E+00 -0.17823449400E+03  0.19980920040E+03  0.90311581291E+02 0.  0.
          2    1    3    3  502    0 -0.13379039120E+02 -0.40456487569E+02 -0.12217971107E+03  0.12939709375E+03  0.00000000000E+00 0. -1.
         -2    1    3    3    0  502  0.13379039120E+02  0.40456487569E+02 -0.56054782930E+02  0.70412106655E+02  0.00000000000E+00 0.  1.
<mgrwt>
<rscale>  0 0.90311581E+02</rscale>
<asrwt>0</asrwt>
<pdfrwt beam="2">  1        1 0.29080283E-01 0.90311581E+02</pdfrwt>
<pdfrwt beam="1">  1       -1 0.16595928E-02 0.90311581E+02</pdfrwt>
<totfact> 0.12015425E+05</totfact>
</mgrwt>
</event>
<event>
 5    1  0.3858870E+001  0.9331773E+02  0.7546771E-02  0.1295011E+00
         -2   -1    0    0    0  501 -0.00000000000E+00  0.00000000000E+00  0.50572043346E+02  0.50572043346E+02  0.00000000000E+00 0.  1.
          2   -1    0    0  501    0  0.00000000000E+00 -0.00000000000E+00 -0.43048479158E+02  0.43048479158E+02  0.00000000000E+00 0. -1.
         23    2    1    2    0    0  0.00000000000E+00  0.00000000000E+00  0.75235641880E+01  0.93620522503E+02  0.93317727232E+02 0.  0.
          2    1    3    3  502    0 -0.57801254652E+01 -0.34266521306E+02 -0.27475162319E+02  0.44299987328E+02  0.00000000000E+00 0. -1.
         -2    1    3    3    0  502  0.57801254652E+01  0.34266521306E+02  0.34998726507E+02  0.49320535175E+02  0.00000000000E+00 0.  1.
<mgrwt>
<rscale>  0 0.93317727E+02</rscale>
<asrwt>0</asrwt>
<pdfrwt beam="2">  1        2 0.66228429E-02 0.93317727E+02</pdfrwt>
<pdfrwt beam="1">  1       -2 0.77803144E-02 0.93317727E+02</pdfrwt>
<totfact> 0.90910181E+04</totfact>
</mgrwt>
</event>
<event>
 5    1  0.3858870E+001  0.9201311E+02  0.7546771E-02  0.1298049E+00
         -1   -1    0    0    0  501 -0.00000000000E+00  0.00000000000E+00  0.29585025091E+01  0.29585025091E+01  0.00000000000E+00 0.  1.
          1   -1    0    0  501    0  0.00000000000E+00 -0.00000000000E+00 -0.71543049954E+03  0.71543049954E+03  0.00000000000E+00 0. -1.
         23    2    1    2    0    0  0.00000000000E+00  0.00000000000E+00 -0.71247199703E+03  0.71838900205E+03  0.92013106196E+02 0.  0.
          2    1    3    3  502    0  0.36025137953E+02  0.12854816681E+02 -0.55583027373E+03  0.55714481965E+03  0.00000000000E+00 0. -1.
         -2    1    3    3    0  502 -0.36025137953E+02 -0.12854816681E+02 -0.15664172331E+03  0.16124418240E+03  0.00000000000E+00 0.  1.
<mgrwt>
<rscale>  0 0.92013106E+02</rscale>
<asrwt>0</asrwt>
<pdfrwt beam="2">  1        1 0.11006624E+00 0.92013106E+02</pdfrwt>
<pdfrwt beam="1">  1       -1 0.45515419E-03 0.92013106E+02</pdfrwt>
<totfact> 0.13873685E+05</totfact>
</mgrwt>
</event>
<event>
 5    1  0.3858870E+001  0.8596257E+02  0.7546771E-02  0.1312934E+00
          2   -1    0    0  501    0  0.00000000000E+00  0.00000000000E+00  0.83272003589E+02  0.83272003589E+02  0.00000000000E+00 0. -1.
         -2   -1    0    0    0  501 -0.00000000000E+00 -0.00000000000E+00 -0.22185019530E+02  0.22185019530E+02  0.00000000000E+00 0.  1.
         23    2    1    2    0    0  0.00000000000E+00  0.00000000000E+00  0.61086984059E+02  0.10545702312E+03  0.85962573854E+02 0.  0.
          2    1    3    3  502    0 -0.24642091576E+02 -0.28728023470E+02  0.55530621311E+02  0.67202543947E+02  0.00000000000E+00 0. -1.
         -2    1    3    3    0  502  0.24642091576E+02  0.28728023470E+02  0.55563627480E+01  0.38254479172E+02  0.00000000000E+00 0.  1.
<mgrwt>
<rscale>  0 0.85962574E+02</rscale>
<asrwt>0</asrwt>
<pdfrwt beam="1">  1        2 0.12811077E-01 0.85962574E+02</pdfrwt>
<pdfrwt beam="2">  1       -2 0.34130800E-02 0.85962574E+02</pdfrwt>
<totfact> 0.13668808E+05</totfact>
</mgrwt>
</event>
<event>
 5    1  0.3858870E+001  0.7314726E+02  0.7546771E-02  0.1349706E+00
          2   -1    0    0  501    0  0.00000000000E+00  0.00000000000E+00  0.17254468889E+04  0.17254468889E+04  0.00000000000E+00 0. -1.
         -2   -1    0    0    0  501 -0.00000000000E+00 -0.00000000000E+00 -0.77523708220E+00  0.77523708220E+00  0.00000000000E+00 0.  1.
         23    2    1    2    0    0  0.00000000000E+00  0.00000000000E+00  0.17246716518E+04  0.17262221260E+04  0.73147260007E+02 0.  0.
          2    1    3    3  502    0  0.26297095832E+02 -0.96497853930E+01  0.14172825448E+04  0.14175593347E+04  0.00000000000E+00 0. -1.
         -2    1    3    3    0  502 -0.26297095832E+02  0.96497853930E+01  0.30738910700E+03  0.30866279127E+03  0.00000000000E+00 0.  1.
<mgrwt>
<rscale>  0 0.73147260E+02</rscale>
<asrwt>0</asrwt>
<pdfrwt beam="1">  1        2 0.26545029E+00 0.73147260E+02</pdfrwt>
<pdfrwt beam="2">  1       -2 0.11926862E-03 0.73147260E+02</pdfrwt>
<totfact> 0.39156884E+05</totfact>
</mgrwt>
</event>
<event>
 5    1  0.3858870E+001  0.9252968E+02  0.7546771E-02  0.1296839E+00
          1   -1    0    0  501    0  0.00000000000E+00  0.00000000000E+00  0.11832287946E+03  0.11832287946E+03  0.00000000000E+00 0. -1.
         -1   -1    0    0    0  501 -0.00000000000E+00 -0.00000000000E+00 -0.18089783572E+02  0.18089783572E+02  0.00000000000E+00 0.  1.
         23    2    1    2    0    0  0.00000000000E+00  0.00000000000E+00  0.10023309589E+03  0.13641266304E+03  0.92529676992E+02 0.  0.
          2    1    3    3  502    0  0.32586754439E+02 -0.32822931413E+02  0.48505695588E+02  0.67022711792E+02  0.00000000000E+00 0. -1.
         -2    1    3    3    0  502 -0.32586754439E+02  0.32822931413E+02  0.51727400304E+02  0.69389951244E+02  0.00000000000E+00 0.  1.
<mgrwt>
<rscale>  0 0.92529677E+02</rscale>
<asrwt>0</asrwt>
<pdfrwt beam="1">  1        1 0.18203519E-01 0.92529677E+02</pdfrwt>
<pdfrwt beam="2">  1       -1 0.27830437E-02 0.92529677E+02</pdfrwt>
<totfact> 0.10325858E+05</totfact>
</mgrwt>
</event>
<event>
 5    1  0.3858870E+001  0.9172578E+02  0.7546771E-02  0.1298725E+00
         -1   -1    0    0    0  501 -0.00000000000E+00  0.00000000000E+00  0.24623421400E+02  0.24623421400E+02  0.00000000000E+00 0.  1.
          1   -1    0    0  501    0  0.00000000000E+00 -0.00000000000E+00 -0.85422926765E+02  0.85422926765E+02  0.00000000000E+00 0. -1.
         23    2    1    2    0    0  0.00000000000E+00  0.00000000000E+00 -0.60799505365E+02  0.11004634816E+03  0.91725780955E+02 0.  0.
          2    1    3    3  502    0  0.29799899172E+02  0.30974504301E+02 -0.49593619462E+02  0.65627593272E+02  0.00000000000E+00 0. -1.
         -2    1    3    3    0  502 -0.29799899172E+02 -0.30974504301E+02 -0.11205885902E+02  0.44418754892E+02  0.00000000000E+00 0.  1.
<mgrwt>
<rscale>  0 0.91725781E+02</rscale>
<asrwt>0</asrwt>
<pdfrwt beam="2">  1        1 0.13141989E-01 0.91725781E+02</pdfrwt>
<pdfrwt beam="1">  1       -1 0.37882187E-02 0.91725781E+02</pdfrwt>
<totfact> 0.10013789E+05</totfact>
</mgrwt>
</event>
<event>
 5    1  0.3858870E+001  0.9087804E+02  0.7546771E-02  0.1300739E+00
         -1   -1    0    0    0  501 -0.00000000000E+00  0.00000000000E+00  0.63342682561E+02  0.63342682561E+02  0.00000000000E+00 0.  1.
          1   -1    0    0  501    0  0.00000000000E+00 -0.00000000000E+00 -0.32595789421E+02  0.32595789421E+02  0.00000000000E+00 0. -1.
         23    2    1    2    0    0  0.00000000000E+00  0.00000000000E+00  0.30746893139E+02  0.95938471982E+02  0.90878044480E+02 0.  0.
          2    1    3    3  502    0  0.33635093754E+02 -0.47251165456E+00 -0.16875262419E+02  0.37633991030E+02  0.00000000000E+00 0. -1.
         -2    1    3    3    0  502 -0.33635093754E+02  0.47251165456E+00  0.47622155558E+02  0.58304480952E+02  0.00000000000E+00 0.  1.
<mgrwt>
<rscale>  0 0.90878044E+02</rscale>
<asrwt>0</asrwt>
<pdfrwt beam="2">  1        1 0.50147368E-02 0.90878044E+02</pdfrwt>
<pdfrwt beam="1">  1       -1 0.97450281E-02 0.90878044E+02</pdfrwt>
<totfact> 0.88666876E+04</totfact>
</mgrwt>
</event>
<event>
 5    1  0.3858870E+001  0.1072059E+03  0.7546771E-02  0.1265833E+00
         -1   -1    0    0    0  501 -0.00000000000E+00  0.00000000000E+00  0.91726889685E+02  0.91726889685E+02  0.00000000000E+00 0.  1.
          1   -1    0    0  501    0  0.00000000000E+00 -0.00000000000E+00 -0.31324245499E+02  0.31324245499E+02  0.00000000000E+00 0. -1.
         23    2    1    2    0    0  0.00000000000E+00  0.00000000000E+00  0.60402644185E+02  0.12305113518E+03  0.10720588811E+03 0.  0.
          2    1    3    3  502    0 -0.49980864147E+01 -0.31618130595E+02 -0.19148673283E+02  0.37300921418E+02  0.00000000000E+00 0. -1.
         -2    1    3    3    0  502  0.49980864147E+01  0.31618130595E+02  0.79551317468E+02  0.85750213767E+02  0.00000000000E+00 0.  1.
<mgrwt>
<rscale>  0 0.10720589E+03</rscale>
<asrwt>0</asrwt>
<pdfrwt beam="2">  1        1 0.48191148E-02 0.10720589E+03</pdfrwt>
<pdfrwt beam="1">  1       -1 0.14111829E-01 0.10720589E+03</pdfrwt>
<totfact> 0.54473525E+04</totfact>
</mgrwt>
</event>
<event>
 5    1  0.3858870E+001  0.9020854E+02  0.7546771E-02  0.1302347E+00
          1   -1    0    0  501    0  0.00000000000E+00  0.00000000000E+00  0.93901666879E+02  0.93901666879E+02  0.00000000000E+00 0. -1.
         -1   -1    0    0    0  501 -0.00000000000E+00 -0.00000000000E+00 -0.21665164028E+02  0.21665164028E+02  0.00000000000E+00 0.  1.
         23    2    1    2    0    0  0.00000000000E+00  0.00000000000E+00  0.72236502851E+02  0.11556683091E+03  0.90208536524E+02 0.  0.
          2    1    3    3  502    0  0.20301639938E+02  0.72667396844E+01  0.86870693795E+02  0.89506868621E+02  0.00000000000E+00 0. -1.
         -2    1    3    3    0  502 -0.20301639938E+02 -0.72667396844E+01 -0.14634190944E+02  0.26059962287E+02  0.00000000000E+00 0.  1.
<mgrwt>
<rscale>  0 0.90208537E+02</rscale>
<asrwt>0</asrwt>
<pdfrwt beam="1">  1        1 0.14446410E-01 0.90208537E+02</pdfrwt>
<pdfrwt beam="2">  1       -1 0.33331022E-02 0.90208537E+02</pdfrwt>
<totfact> 0.10642721E+05</totfact>
</mgrwt>
</event>
<event>
 5    1  0.3858870E+001  0.9145045E+02  0.7546771E-02  0.1299377E+00
          1   -1    0    0  501    0  0.00000000000E+00  0.00000000000E+00  0.61633329275E+02  0.61633329275E+02  0.00000000000E+00 0. -1.
         -1   -1    0    0    0  501 -0.00000000000E+00 -0.00000000000E+00 -0.33923143915E+02  0.33923143915E+02  0.00000000000E+00 0.  1.
         23    2    1    2    0    0  0.00000000000E+00  0.00000000000E+00  0.27710185359E+02  0.95556473190E+02  0.91450452136E+02 0.  0.
          2    1    3    3  502    0 -0.23309801393E+02 -0.19505899892E+02  0.49549812385E+02  0.58129260093E+02  0.00000000000E+00 0. -1.
         -2    1    3    3    0  502  0.23309801393E+02  0.19505899892E+02 -0.21839627026E+02  0.37427213097E+02  0.00000000000E+00 0.  1.
<mgrwt>
<rscale>  0 0.91450452E+02</rscale>
<asrwt>0</asrwt>
<pdfrwt beam="1">  1        1 0.94820506E-02 0.91450452E+02</pdfrwt>
<pdfrwt beam="2">  1       -1 0.52189452E-02 0.91450452E+02</pdfrwt>
<totfact> 0.95963257E+04</totfact>
</mgrwt>
</event>
<event>
 5    1  0.3858870E+001  0.9036100E+02  0.7546771E-02  0.1301980E+00
          2   -1    0    0  501    0  0.00000000000E+00  0.00000000000E+00  0.28739540927E+02  0.28739540927E+02  0.00000000000E+00 0. -1.
         -2   -1    0    0    0  501 -0.00000000000E+00 -0.00000000000E+00 -0.71026791659E+02  0.71026791659E+02  0.00000000000E+00 0.  1.
         23    2    1    2    0    0  0.00000000000E+00  0.00000000000E+00 -0.42287250733E+02  0.99766332586E+02  0.90360995696E+02 0.  0.
          2    1    3    3  502    0  0.19816573313E+02 -0.37871264595E+02 -0.49791041594E+01  0.43031624861E+02  0.00000000000E+00 0. -1.
         -2    1    3    3    0  502 -0.19816573313E+02  0.37871264595E+02 -0.37308146573E+02  0.56734707725E+02  0.00000000000E+00 0.  1.
<mgrwt>
<rscale>  0 0.90360996E+02</rscale>
<asrwt>0</asrwt>
<pdfrwt beam="1">  1        2 0.44214679E-02 0.90360996E+02</pdfrwt>
<pdfrwt beam="2">  1       -2 0.10927198E-01 0.90360996E+02</pdfrwt>
<totfact> 0.89823211E+04</totfact>
</mgrwt>
</event>
<event>
 5    1  0.3858870E+001  0.9649323E+02  0.7546771E-02  0.1287848E+00
         -2   -1    0    0    0  501 -0.00000000000E+00  0.00000000000E+00  0.36711122021E+03  0.36711122021E+03  0.00000000000E+00 0.  1.
          2   -1    0    0  501    0  0.00000000000E+00 -0.00000000000E+00 -0.63406825966E+01  0.63406825966E+01  0.00000000000E+00 0. -1.
         23    2    1    2    0    0  0.00000000000E+00  0.00000000000E+00  0.36077053761E+03  0.37345190281E+03  0.96493227223E+02 0.  0.
          2    1    3    3  502    0  0.18892805339E+02 -0.42999202734E+02  0.13766052455E+03  0.14545201803E+03  0.00000000000E+00 0. -1.
         -2    1    3    3    0  502 -0.18892805339E+02  0.42999202734E+02  0.22311001306E+03  0.22799988477E+03  0.00000000000E+00 0.  1.
<mgrwt>
<rscale>  0 0.96493227E+02</rscale>
<asrwt>0</asrwt>
<pdfrwt beam="2">  1        2 0.97548992E-03 0.96493227E+02</pdfrwt>
<pdfrwt beam="1">  1       -2 0.56478633E-01 0.96493227E+02</pdfrwt>
<totfact> 0.39011812E+04</totfact>
</mgrwt>
</event>
<event>
 5    1  0.3858870E+001  0.8774273E+02  0.7546771E-02  0.1308412E+00
         -2   -1    0    0    0  501 -0.00000000000E+00  0.00000000000E+00  0.92757557870E+02  0.92757557870E+02  0.00000000000E+00 0. -1.
          2   -1    0    0  501    0  0.00000000000E+00 -0.00000000000E+00 -0.20749756776E+02  0.20749756776E+02  0.00000000000E+00 0.  1.
         23    2    1    2    0    0  0.00000000000E+00  0.00000000000E+00  0.72007801094E+02  0.11350731465E+03  0.87742732233E+02 0.  0.
          2    1    3    3  502    0 -0.37595545295E+02  0.20182802516E+02  0.49191788976E+02  0.65119909752E+02  0.00000000000E+00 0. -1.
         -2    1    3    3    0  502  0.37595545295E+02 -0.20182802516E+02  0.22816012118E+02  0.48387404894E+02  0.00000000000E+00 0.  1.
<mgrwt>
<rscale>  0 0.87742732E+02</rscale>
<asrwt>0</asrwt>
<pdfrwt beam="2">  1        2 0.31922703E-02 0.87742732E+02</pdfrwt>
<pdfrwt beam="1">  1       -2 0.14270393E-01 0.87742732E+02</pdfrwt>
<totfact> 0.89731881E+04</totfact>
</mgrwt>
</event>
<event>
 5    1  0.3858870E+001  0.8829265E+02  0.7546771E-02  0.1307040E+00
         -3   -1    0    0    0  501 -0.00000000000E+00  0.00000000000E+00  0.12964313335E+03  0.12964313335E+03  0.00000000000E+00 0.  1.
          3   -1    0    0  501    0  0.00000000000E+00 -0.00000000000E+00 -0.15032790159E+02  0.15032790159E+02  0.00000000000E+00 0. -1.
         23    2    1    2    0    0  0.00000000000E+00  0.00000000000E+00  0.11461034319E+03  0.14467592351E+03  0.88292650185E+02 0.  0.
          2    1    3    3  502    0  0.21589517619E+02 -0.17169703102E+02  0.82727986476E+00  0.27596926778E+02  0.00000000000E+00 0. -1.
         -2    1    3    3    0  502 -0.21589517619E+02  0.17169703102E+02  0.11378306332E+03  0.11707899673E+03  0.00000000000E+00 0.  1.
<mgrwt>
<rscale>  0 0.88292650E+02</rscale>
<asrwt>0</asrwt>
<pdfrwt beam="2">  1        3 0.23127370E-02 0.88292650E+02</pdfrwt>
<pdfrwt beam="1">  1       -3 0.19945097E-01 0.88292650E+02</pdfrwt>
<totfact> 0.34505927E+04</totfact>
</mgrwt>
</event>
<event>
 5    1  0.3858870E+001  0.9196247E+02  0.7546771E-02  0.1298168E+00
         -2   -1    0    0    0  501 -0.00000000000E+00  0.00000000000E+00  0.18049596297E+01  0.18049596297E+01  0.00000000000E+00 0. -1.
          2   -1    0    0  501    0  0.00000000000E+00 -0.00000000000E+00 -0.11713690596E+04  0.11713690596E+04  0.00000000000E+00 0.  1.
         23    2    1    2    0    0  0.00000000000E+00  0.00000000000E+00 -0.11695640999E+04  0.11731740192E+04  0.91962467648E+02 0.  0.
          2    1    3    3  502    0 -0.94247674361E+01 -0.32052680892E+02 -0.18175607916E+03  0.18480117127E+03  0.00000000000E+00 0. -1.
         -2    1    3    3    0  502  0.94247674361E+01  0.32052680892E+02 -0.98780802078E+03  0.98837284792E+03  0.00000000000E+00 0.  1.
<mgrwt>
<rscale>  0 0.91962468E+02</rscale>
<asrwt>0</asrwt>
<pdfrwt beam="2">  1        2 0.18021022E+00 0.91962468E+02</pdfrwt>
<pdfrwt beam="1">  1       -2 0.27768672E-03 0.91962468E+02</pdfrwt>
<totfact> 0.24370637E+05</totfact>
</mgrwt>
</event>
<event>
 5    1  0.3858870E+001  0.9215974E+02  0.7546771E-02  0.1297704E+00
          2   -1    0    0  501    0  0.00000000000E+00  0.00000000000E+00  0.10188951174E+04  0.10188951174E+04  0.00000000000E+00 0. -1.
         -2   -1    0    0    0  501 -0.00000000000E+00 -0.00000000000E+00 -0.20839774652E+01  0.20839774652E+01  0.00000000000E+00 0.  1.
         23    2    1    2    0    0  0.00000000000E+00  0.00000000000E+00  0.10168111400E+04  0.10209790949E+04  0.92159740974E+02 0.  0.
          2    1    3    3  502    0 -0.33121407492E+02  0.12827117637E+02  0.83362523934E+03  0.83438156873E+03  0.00000000000E+00 0. -1.
         -2    1    3    3    0  502  0.33121407492E+02 -0.12827117637E+02  0.18318590063E+03  0.18659752616E+03  0.00000000000E+00 0.  1.
<mgrwt>
<rscale>  0 0.92159741E+02</rscale>
<asrwt>0</asrwt>
<pdfrwt beam="1">  1        2 0.15675270E+00 0.92159741E+02</pdfrwt>
<pdfrwt beam="2">  1       -2 0.32061273E-03 0.92159741E+02</pdfrwt>
<totfact> 0.24321780E+05</totfact>
</mgrwt>
</event>
<event>
 5    1  0.3858870E+001  0.9148463E+02  0.7546771E-02  0.1299296E+00
         -4   -1    0    0    0  501 -0.00000000000E+00  0.00000000000E+00  0.48473759297E+03  0.48473759297E+03  0.00000000000E+00 0.  1.
          4   -1    0    0  501    0  0.00000000000E+00 -0.00000000000E+00 -0.43164783039E+01  0.43164783039E+01  0.00000000000E+00 0. -1.
         23    2    1    2    0    0  0.00000000000E+00  0.00000000000E+00  0.48042111467E+03  0.48905407128E+03  0.91484628286E+02 0.  0.
          2    1    3    3  502    0 -0.59033755214E+01  0.24359523169E+02  0.35661470060E+02  0.43588721688E+02  0.00000000000E+00 0. -1.
         -2    1    3    3    0  502  0.59033755214E+01 -0.24359523169E+02  0.44475964461E+03  0.44546534959E+03  0.00000000000E+00 0.  1.
<mgrwt>
<rscale>  0 0.91484628E+02</rscale>
<asrwt>0</asrwt>
<pdfrwt beam="2">  1        4 0.66407397E-03 0.91484628E+02</pdfrwt>
<pdfrwt beam="1">  1       -4 0.74574971E-01 0.91484628E+02</pdfrwt>
<totfact> 0.13157650E+04</totfact>
</mgrwt>
</event>
<event>
 5    1  0.3858870E+001  0.8694921E+02  0.7546771E-02  0.1310412E+00
         -1   -1    0    0    0  501 -0.00000000000E+00  0.00000000000E+00  0.51538052126E+02  0.51538052126E+02  0.00000000000E+00 0.  1.
          1   -1    0    0  501    0  0.00000000000E+00 -0.00000000000E+00 -0.36672734147E+02  0.36672734147E+02  0.00000000000E+00 0. -1.
         23    2    1    2    0    0  0.00000000000E+00  0.00000000000E+00  0.14865317980E+02  0.88210786273E+02  0.86949210096E+02 0.  0.
          2    1    3    3  502    0 -0.18811199067E+02  0.80937450332E+01 -0.31473098064E+02  0.37548978958E+02  0.00000000000E+00 0. -1.
         -2    1    3    3    0  502  0.18811199067E+02 -0.80937450332E+01  0.46338416044E+02  0.50661807315E+02  0.00000000000E+00 0.  1.
<mgrwt>
<rscale>  0 0.86949210E+02</rscale>
<asrwt>0</asrwt>
<pdfrwt beam="2">  1        1 0.56419591E-02 0.86949210E+02</pdfrwt>
<pdfrwt beam="1">  1       -1 0.79289311E-02 0.86949210E+02</pdfrwt>
<totfact> 0.10230126E+05</totfact>
</mgrwt>
</event>
<event>
 5    1  0.3858870E+001  0.9223304E+02  0.7546771E-02  0.1297532E+00
          1   -1    0    0  501    0  0.00000000000E+00  0.00000000000E+00  0.40166469349E+01  0.40166469349E+01  0.00000000000E+00 0. -1.
         -1   -1    0    0    0  501 -0.00000000000E+00 -0.00000000000E+00 -0.52947974874E+03  0.52947974874E+03  0.00000000000E+00 0.  1.
         23    2    1    2    0    0  0.00000000000E+00  0.00000000000E+00 -0.52546310180E+03  0.53349639567E+03  0.92233035510E+02 0.  0.
          2    1    3    3  502    0 -0.14471667055E+01  0.22823422821E+02 -0.31093099192E+02  0.38597716747E+02  0.00000000000E+00 0. -1.
         -2    1    3    3    0  502  0.14471667055E+01 -0.22823422821E+02 -0.49437000261E+03  0.49489867892E+03  0.00000000000E+00 0.  1.
<mgrwt>
<rscale>  0 0.92233036E+02</rscale>
<asrwt>0</asrwt>
<pdfrwt beam="1">  1        1 0.61794545E-03 0.92233036E+02</pdfrwt>
<pdfrwt beam="2">  1       -1 0.81458453E-01 0.92233036E+02</pdfrwt>
<totfact> 0.44014676E+04</totfact>
</mgrwt>
</event>
<event>
 5    1  0.3858870E+001  0.9309370E+02  0.7546771E-02  0.1295528E+00
          4   -1    0    0  501    0  0.00000000000E+00  0.00000000000E+00  0.12566051956E+04  0.12566051956E+04  0.00000000000E+00 0. -1.
         -4   -1    0    0    0  501 -0.00000000000E+00 -0.00000000000E+00 -0.17241765541E+01  0.17241765541E+01  0.00000000000E+00 0.  1.
         23    2    1    2    0    0  0.00000000000E+00  0.00000000000E+00  0.12548810190E+04  0.12583293721E+04  0.93093699379E+02 0.  0.
          2    1    3    3  502    0  0.35570492437E+02 -0.14427082965E+02  0.98332249437E+03  0.98407140422E+03  0.00000000000E+00 0. -1.
         -2    1    3    3    0  502 -0.35570492437E+02  0.14427082965E+02  0.27155852466E+03  0.27425796792E+03  0.00000000000E+00 0.  1.
<mgrwt>
<rscale>  0 0.93093699E+02</rscale>
<asrwt>0</asrwt>
<pdfrwt beam="1">  1        4 0.19332314E+00 0.93093699E+02</pdfrwt>
<pdfrwt beam="2">  1       -4 0.26525894E-03 0.93093699E+02</pdfrwt>
<totfact> 0.51183738E+03</totfact>
</mgrwt>
</event>
<event>
 5    1  0.3858870E+001  0.8907443E+02  0.7546771E-02  0.1305109E+00
          2   -1    0    0  501    0  0.00000000000E+00  0.00000000000E+00  0.13548736543E+03  0.13548736543E+03  0.00000000000E+00 0. -1.
         -2   -1    0    0    0  501 -0.00000000000E+00 -0.00000000000E+00 -0.14640211345E+02  0.14640211345E+02  0.00000000000E+00 0.  1.
         23    2    1    2    0    0  0.00000000000E+00  0.00000000000E+00  0.12084715408E+03  0.15012757677E+03  0.89074433243E+02 0.  0.
          2    1    3    3  502    0 -0.36938145410E+01 -0.25257714397E+02  0.12193477458E+03  0.12457803038E+03  0.00000000000E+00 0. -1.
         -2    1    3    3    0  502  0.36938145410E+01  0.25257714397E+02 -0.10876204949E+01  0.25549546391E+02  0.00000000000E+00 0.  1.
<mgrwt>
<rscale>  0 0.89074433E+02</rscale>
<asrwt>0</asrwt>
<pdfrwt beam="1">  1        2 0.20844209E-01 0.89074433E+02</pdfrwt>
<pdfrwt beam="2">  1       -2 0.22523403E-02 0.89074433E+02</pdfrwt>
<totfact> 0.14395071E+05</totfact>
</mgrwt>
</event>
<event>
 5    1  0.3858870E+001  0.9307730E+02  0.7546771E-02  0.1295566E+00
         -2   -1    0    0    0  501 -0.00000000000E+00  0.00000000000E+00  0.12862638034E+01  0.12862638034E+01  0.00000000000E+00 0.  1.
          2   -1    0    0  501    0  0.00000000000E+00 -0.00000000000E+00 -0.16838272693E+04  0.16838272693E+04  0.00000000000E+00 0. -1.
         23    2    1    2    0    0  0.00000000000E+00  0.00000000000E+00 -0.16825410055E+04  0.16851135331E+04  0.93077302662E+02 0.  0.
          2    1    3    3  502    0  0.11665957217E+02  0.42447851174E+02 -0.56794038087E+03  0.56964391584E+03  0.00000000000E+00 0.  1.
         -2    1    3    3    0  502 -0.11665957217E+02 -0.42447851174E+02 -0.11146006246E+04  0.11154696172E+04  0.00000000000E+00 0. -1.
<mgrwt>
<rscale>  0 0.93077303E+02</rscale>
<asrwt>0</asrwt>
<pdfrwt beam="2">  1        2 0.25904858E+00 0.93077303E+02</pdfrwt>
<pdfrwt beam="1">  1       -2 0.19788809E-03 0.93077303E+02</pdfrwt>
<totfact> 0.21167198E+05</totfact>
</mgrwt>
</event>
<event>
 5    1  0.3858870E+001  0.9090296E+02  0.7546771E-02  0.1300680E+00
          2   -1    0    0  501    0  0.00000000000E+00  0.00000000000E+00  0.80248790326E+03  0.80248790326E+03  0.00000000000E+00 0. -1.
         -2   -1    0    0    0  501 -0.00000000000E+00 -0.00000000000E+00 -0.25742903658E+01  0.25742903658E+01  0.00000000000E+00 0.  1.
         23    2    1    2    0    0  0.00000000000E+00  0.00000000000E+00  0.79991361289E+03  0.80506219362E+03  0.90902956564E+02 0.  0.
          2    1    3    3  502    0 -0.10302768787E+02 -0.42228669755E+02  0.28232175153E+03  0.28564834846E+03  0.00000000000E+00 0.  1.
         -2    1    3    3    0  502  0.10302768787E+02  0.42228669755E+02  0.51759186137E+03  0.51941384516E+03  0.00000000000E+00 0. -1.
<mgrwt>
<rscale>  0 0.90902957E+02</rscale>
<asrwt>0</asrwt>
<pdfrwt beam="1">  1        2 0.12345948E+00 0.90902957E+02</pdfrwt>
<pdfrwt beam="2">  1       -2 0.39604531E-03 0.90902957E+02</pdfrwt>
<totfact> 0.24581268E+05</totfact>
</mgrwt>
</event>
<event>
 5    1  0.3858870E+001  0.8842226E+02  0.7546771E-02  0.1306718E+00
          1   -1    0    0  501    0  0.00000000000E+00  0.00000000000E+00  0.51672864998E+03  0.51672864998E+03  0.00000000000E+00 0. -1.
         -1   -1    0    0    0  501 -0.00000000000E+00 -0.00000000000E+00 -0.37826890989E+01  0.37826890989E+01  0.00000000000E+00 0.  1.
         23    2    1    2    0    0  0.00000000000E+00  0.00000000000E+00  0.51294596088E+03  0.52051133908E+03  0.88422255827E+02 0.  0.
          2    1    3    3  502    0 -0.12120069772E+01 -0.34162849428E+02  0.42151516301E+03  0.42289904456E+03  0.00000000000E+00 0. -1.
         -2    1    3    3    0  502  0.12120069772E+01  0.34162849428E+02  0.91430797870E+02  0.97612294519E+02  0.00000000000E+00 0.  1.
<mgrwt>
<rscale>  0 0.88422256E+02</rscale>
<asrwt>0</asrwt>
<pdfrwt beam="1">  1        1 0.79496660E-01 0.88422256E+02</pdfrwt>
<pdfrwt beam="2">  1       -1 0.58195258E-03 0.88422256E+02</pdfrwt>
<totfact> 0.15159946E+05</totfact>
</mgrwt>
</event>
<event>
 5    1  0.3858870E+001  0.8918148E+02  0.7546771E-02  0.1304846E+00
          1   -1    0    0  501    0  0.00000000000E+00  0.00000000000E+00  0.93080216207E+02  0.93080216207E+02  0.00000000000E+00 0. -1.
         -1   -1    0    0    0  501 -0.00000000000E+00 -0.00000000000E+00 -0.21361509841E+02  0.21361509841E+02  0.00000000000E+00 0.  1.
         23    2    1    2    0    0  0.00000000000E+00  0.00000000000E+00  0.71718706366E+02  0.11444172605E+03  0.89181476877E+02 0.  0.
          2    1    3    3  502    0 -0.18626408055E+01 -0.44466157089E+02  0.39402922903E+02  0.59441558613E+02  0.00000000000E+00 0. -1.
         -2    1    3    3    0  502  0.18626408055E+01  0.44466157089E+02  0.32315783463E+02  0.55000167435E+02  0.00000000000E+00 0.  1.
<mgrwt>
<rscale>  0 0.89181477E+02</rscale>
<asrwt>0</asrwt>
<pdfrwt beam="1">  1        1 0.14320033E-01 0.89181477E+02</pdfrwt>
<pdfrwt beam="2">  1       -1 0.32863862E-02 0.89181477E+02</pdfrwt>
<totfact> 0.10964154E+05</totfact>
</mgrwt>
</event>
<event>
 5    1  0.3858870E+001  0.8686159E+02  0.7546771E-02  0.1310635E+00
          3   -1    0    0  501    0  0.00000000000E+00  0.00000000000E+00  0.53110011402E+02  0.53110011402E+02  0.00000000000E+00 0. -1.
         -3   -1    0    0    0  501 -0.00000000000E+00 -0.00000000000E+00 -0.35515596840E+02  0.35515596840E+02  0.00000000000E+00 0.  1.
         23    2    1    2    0    0  0.00000000000E+00  0.00000000000E+00  0.17594414563E+02  0.88625608242E+02  0.86861585367E+02 0.  0.
          2    1    3    3  502    0  0.37959866004E+02 -0.10855921369E+02  0.27259752480E+02  0.47978084174E+02  0.00000000000E+00 0. -1.
         -2    1    3    3    0  502 -0.37959866004E+02  0.10855921369E+02 -0.96653379170E+01  0.40647524068E+02  0.00000000000E+00 0.  1.
<mgrwt>
<rscale>  0 0.86861585E+02</rscale>
<asrwt>0</asrwt>
<pdfrwt beam="1">  1        3 0.81707709E-02 0.86861585E+02</pdfrwt>
<pdfrwt beam="2">  1       -3 0.54639380E-02 0.86861585E+02</pdfrwt>
<totfact> 0.40532865E+04</totfact>
</mgrwt>
</event>
<event>
 5    1  0.3858870E+001  0.9112874E+02  0.7546771E-02  0.1300141E+00
          2   -1    0    0  501    0  0.00000000000E+00  0.00000000000E+00  0.82272637783E+02  0.82272637783E+02  0.00000000000E+00 0. -1.
         -2   -1    0    0    0  501 -0.00000000000E+00 -0.00000000000E+00 -0.25234534102E+02  0.25234534102E+02  0.00000000000E+00 0.  1.
         23    2    1    2    0    0  0.00000000000E+00  0.00000000000E+00  0.57038103681E+02  0.10750717188E+03  0.91128737153E+02 0.  0.
          2    1    3    3  502    0 -0.89662050289E+01 -0.27440886307E+02  0.70107061572E+02  0.75818171675E+02  0.00000000000E+00 0. -1.
         -2    1    3    3    0  502  0.89662050289E+01  0.27440886307E+02 -0.13068957891E+02  0.31689000209E+02  0.00000000000E+00 0.  1.
<mgrwt>
<rscale>  0 0.91128737E+02</rscale>
<asrwt>0</asrwt>
<pdfrwt beam="1">  1        2 0.12657329E-01 0.91128737E+02</pdfrwt>
<pdfrwt beam="2">  1       -2 0.38822360E-02 0.91128737E+02</pdfrwt>
<totfact> 0.11595299E+05</totfact>
</mgrwt>
</event>
<event>
 5    1  0.3858870E+001  0.9003320E+02  0.7546771E-02  0.1302771E+00
          2   -1    0    0  501    0  0.00000000000E+00  0.00000000000E+00  0.16696374673E+02  0.16696374673E+02  0.00000000000E+00 0. -1.
         -2   -1    0    0    0  501 -0.00000000000E+00 -0.00000000000E+00 -0.12137330524E+03  0.12137330524E+03  0.00000000000E+00 0.  1.
         23    2    1    2    0    0  0.00000000000E+00  0.00000000000E+00 -0.10467693056E+03  0.13806967991E+03  0.90033197868E+02 0.  0.
          2    1    3    3  502    0  0.24652525423E+02  0.36731660452E+02 -0.65126061349E+02  0.78729700597E+02  0.00000000000E+00 0. -1.
         -2    1    3    3    0  502 -0.24652525423E+02 -0.36731660452E+02 -0.39550869216E+02  0.59339979314E+02  0.00000000000E+00 0.  1.
<mgrwt>
<rscale>  0 0.90033198E+02</rscale>
<asrwt>0</asrwt>
<pdfrwt beam="1">  1        2 0.25686730E-02 0.90033198E+02</pdfrwt>
<pdfrwt beam="2">  1       -2 0.18672816E-01 0.90033198E+02</pdfrwt>
<totfact> 0.77556603E+04</totfact>
</mgrwt>
</event>
<event>
 5    1  0.3858870E+001  0.9091552E+02  0.7546771E-02  0.1300650E+00
         -2   -1    0    0    0  501 -0.00000000000E+00  0.00000000000E+00  0.18179182955E+03  0.18179182955E+03  0.00000000000E+00 0.  1.
          2   -1    0    0  501    0  0.00000000000E+00 -0.00000000000E+00 -0.11366891660E+02  0.11366891660E+02  0.00000000000E+00 0. -1.
         23    2    1    2    0    0  0.00000000000E+00  0.00000000000E+00  0.17042493789E+03  0.19315872121E+03  0.90915521912E+02 0.  0.
          2    1    3    3  502    0  0.20090924038E+02 -0.33192713938E+02  0.34890196012E+02  0.52179759151E+02  0.00000000000E+00 0. -1.
         -2    1    3    3    0  502 -0.20090924038E+02  0.33192713938E+02  0.13553474188E+03  0.14097896206E+03  0.00000000000E+00 0.  1.
<mgrwt>
<rscale>  0 0.90915522E+02</rscale>
<asrwt>0</asrwt>
<pdfrwt beam="2">  1        2 0.17487527E-02 0.90915522E+02</pdfrwt>
<pdfrwt beam="1">  1       -2 0.27967972E-01 0.90915522E+02</pdfrwt>
<totfact> 0.65347442E+04</totfact>
</mgrwt>
</event>
<event>
 5    1  0.3858870E+001  0.9132731E+02  0.7546771E-02  0.1299669E+00
          1   -1    0    0  501    0  0.00000000000E+00  0.00000000000E+00  0.78241264331E+00  0.78241264331E+00  0.00000000000E+00 0. -1.
         -1   -1    0    0    0  501 -0.00000000000E+00 -0.00000000000E+00 -0.26650505503E+04  0.26650505503E+04  0.00000000000E+00 0.  1.
         23    2    1    2    0    0  0.00000000000E+00  0.00000000000E+00 -0.26642681376E+04  0.26658329629E+04  0.91327306882E+02 0.  0.
          2    1    3    3  502    0  0.24137074428E+02 -0.38606704704E+02 -0.14336428324E+04  0.14343656602E+04  0.00000000000E+00 0. -1.
         -2    1    3    3    0  502 -0.24137074428E+02  0.38606704704E+02 -0.12306253052E+04  0.12314673028E+04  0.00000000000E+00 0.  1.
<mgrwt>
<rscale>  0 0.91327307E+02</rscale>
<asrwt>0</asrwt>
<pdfrwt beam="1">  1        1 0.12036948E-03 0.91327307E+02</pdfrwt>
<pdfrwt beam="2">  1       -1 0.41001357E+00 0.91327307E+02</pdfrwt>
<totfact> 0.23246300E+03</totfact>
</mgrwt>
</event>
<event>
 5    1  0.3858870E+001  0.9009700E+02  0.7546771E-02  0.1302617E+00
         -3   -1    0    0    0  501 -0.00000000000E+00  0.00000000000E+00  0.99023441901E+02  0.99023441901E+02  0.00000000000E+00 0.  1.
          3   -1    0    0  501    0  0.00000000000E+00 -0.00000000000E+00 -0.20493806534E+02  0.20493806534E+02  0.00000000000E+00 0. -1.
         23    2    1    2    0    0  0.00000000000E+00  0.00000000000E+00  0.78529635367E+02  0.11951724843E+03  0.90096997966E+02 0.  0.
          2    1    3    3  502    0  0.21048556174E+02 -0.38134501952E+02  0.24019112530E+02  0.49741328117E+02  0.00000000000E+00 0. -1.
         -2    1    3    3    0  502 -0.21048556174E+02  0.38134501952E+02  0.54510522837E+02  0.69775920318E+02  0.00000000000E+00 0.  1.
<mgrwt>
<rscale>  0 0.90096998E+02</rscale>
<asrwt>0</asrwt>
<pdfrwt beam="2">  1        3 0.31528934E-02 0.90096998E+02</pdfrwt>
<pdfrwt beam="1">  1       -3 0.15234375E-01 0.90096998E+02</pdfrwt>
<totfact> 0.34373424E+04</totfact>
</mgrwt>
</event>
<event>
 5    1  0.3858870E+001  0.9108620E+02  0.7546771E-02  0.1300242E+00
          2   -1    0    0  501    0  0.00000000000E+00  0.00000000000E+00  0.48859841100E+03  0.48859841100E+03  0.00000000000E+00 0. -1.
         -2   -1    0    0    0  501 -0.00000000000E+00 -0.00000000000E+00 -0.42451513021E+01  0.42451513021E+01  0.00000000000E+00 0.  1.
         23    2    1    2    0    0  0.00000000000E+00  0.00000000000E+00  0.48435325970E+03  0.49284356231E+03  0.91086204898E+02 0.  0.
          2    1    3    3  502    0 -0.39525389731E+02 -0.15333013482E+02  0.33219941058E+03  0.33489372363E+03  0.00000000000E+00 0. -1.
         -2    1    3    3    0  502  0.39525389731E+02  0.15333013482E+02  0.15215384912E+03  0.15794983868E+03  0.00000000000E+00 0.  1.
<mgrwt>
<rscale>  0 0.91086205E+02</rscale>
<asrwt>0</asrwt>
<pdfrwt beam="1">  1        2 0.75168942E-01 0.91086205E+02</pdfrwt>
<pdfrwt beam="2">  1       -2 0.65310059E-03 0.91086205E+02</pdfrwt>
<totfact> 0.21444109E+05</totfact>
</mgrwt>
</event>
<event>
 5    1  0.3858870E+001  0.9105910E+02  0.7546771E-02  0.1300307E+00
          4   -1    0    0  501    0  0.00000000000E+00  0.00000000000E+00  0.34908718565E+02  0.34908718565E+02  0.00000000000E+00 0. -1.
         -4   -1    0    0    0  501 -0.00000000000E+00 -0.00000000000E+00 -0.59381719218E+02  0.59381719218E+02  0.00000000000E+00 0.  1.
         23    2    1    2    0    0  0.00000000000E+00  0.00000000000E+00 -0.24473000653E+02  0.94290437783E+02  0.91059095627E+02 0.  0.
          2    1    3    3  502    0  0.15797332290E+02  0.42038837751E+02 -0.19993676974E+02  0.49158587305E+02  0.00000000000E+00 0. -1.
         -2    1    3    3    0  502 -0.15797332290E+02 -0.42038837751E+02 -0.44793236789E+01  0.45131850478E+02  0.00000000000E+00 0.  1.
<mgrwt>
<rscale>  0 0.91059096E+02</rscale>
<asrwt>0</asrwt>
<pdfrwt beam="1">  1        4 0.53705722E-02 0.91059096E+02</pdfrwt>
<pdfrwt beam="2">  1       -4 0.91356490E-02 0.91059096E+02</pdfrwt>
<totfact> 0.26911367E+04</totfact>
</mgrwt>
</event>
<event>
 5    1  0.3858870E+001  0.9097008E+02  0.7546771E-02  0.1300519E+00
          1   -1    0    0  501    0  0.00000000000E+00  0.00000000000E+00  0.69288571386E+03  0.69288571386E+03  0.00000000000E+00 0. -1.
         -1   -1    0    0    0  501 -0.00000000000E+00 -0.00000000000E+00 -0.29859017842E+01  0.29859017842E+01  0.00000000000E+00 0.  1.
         23    2    1    2    0    0  0.00000000000E+00  0.00000000000E+00  0.68989981208E+03  0.69587161565E+03  0.90970076164E+02 0.  0.
          2    1    3    3  502    0 -0.23740408524E+02  0.38586407451E+02  0.31399950999E+03  0.31725102066E+03  0.00000000000E+00 0. -1.
         -2    1    3    3    0  502  0.23740408524E+02 -0.38586407451E+02  0.37590030209E+03  0.37862059498E+03  0.00000000000E+00 0.  1.
<mgrwt>
<rscale>  0 0.90970076E+02</rscale>
<asrwt>0</asrwt>
<pdfrwt beam="1">  1        1 0.10659767E+00 0.90970076E+02</pdfrwt>
<pdfrwt beam="2">  1       -1 0.45937006E-03 0.90970076E+02</pdfrwt>
<totfact> 0.14304105E+05</totfact>
</mgrwt>
</event>
<event>
 5    1  0.3858870E+001  0.9343182E+02  0.7546771E-02  0.1294748E+00
         -1   -1    0    0    0  501 -0.00000000000E+00  0.00000000000E+00  0.73261449396E+00  0.73261449396E+00  0.00000000000E+00 0.  1.
          1   -1    0    0  501    0  0.00000000000E+00 -0.00000000000E+00 -0.29788875738E+04  0.29788875738E+04  0.00000000000E+00 0. -1.
         23    2    1    2    0    0  0.00000000000E+00  0.00000000000E+00 -0.29781549593E+04  0.29796201883E+04  0.93431819258E+02 0.  0.
          2    1    3    3  502    0 -0.20729431707E+02 -0.41847783532E+02 -0.15272118838E+04  0.15279257457E+04  0.00000000000E+00 0. -1.
         -2    1    3    3    0  502  0.20729431707E+02  0.41847783532E+02 -0.14509430755E+04  0.14516944426E+04  0.00000000000E+00 0.  1.
<mgrwt>
<rscale>  0 0.93431819E+02</rscale>
<asrwt>0</asrwt>
<pdfrwt beam="2">  1        1 0.45829801E+00 0.93431819E+02</pdfrwt>
<pdfrwt beam="1">  1       -1 0.11270805E-03 0.93431819E+02</pdfrwt>
<totfact> 0.30141229E+04</totfact>
</mgrwt>
</event>
<event>
 5    1  0.3858870E+001  0.9047149E+02  0.7546771E-02  0.1301714E+00
          1   -1    0    0  501    0  0.00000000000E+00  0.00000000000E+00  0.42066407930E+03  0.42066407930E+03  0.00000000000E+00 0. -1.
         -1   -1    0    0    0  501 -0.00000000000E+00 -0.00000000000E+00 -0.48643865283E+01  0.48643865283E+01  0.00000000000E+00 0.  1.
         23    2    1    2    0    0  0.00000000000E+00  0.00000000000E+00  0.41579969277E+03  0.42552846583E+03  0.90471491207E+02 0.  0.
          2    1    3    3  502    0 -0.73240030743E+01 -0.41665748810E+02  0.13255688503E+03  0.13914382276E+03  0.00000000000E+00 0.  1.
         -2    1    3    3    0  502  0.73240030743E+01  0.41665748810E+02  0.28324280774E+03  0.28638464306E+03  0.00000000000E+00 0. -1.
<mgrwt>
<rscale>  0 0.90471491E+02</rscale>
<asrwt>0</asrwt>
<pdfrwt beam="1">  1        1 0.64717522E-01 0.90471491E+02</pdfrwt>
<pdfrwt beam="2">  1       -1 0.74836749E-03 0.90471491E+02</pdfrwt>
<totfact> 0.13881127E+05</totfact>
</mgrwt>
</event>
<event>
 5    1  0.3858870E+001  0.9151420E+02  0.7546771E-02  0.1299226E+00
         -1   -1    0    0    0  501 -0.00000000000E+00  0.00000000000E+00  0.33017238143E+03  0.33017238143E+03  0.00000000000E+00 0.  1.
          1   -1    0    0  501    0  0.00000000000E+00 -0.00000000000E+00 -0.63412700267E+01  0.63412700267E+01  0.00000000000E+00 0. -1.
         23    2    1    2    0    0  0.00000000000E+00  0.00000000000E+00  0.32383111140E+03  0.33651365145E+03  0.91514200559E+02 0.  0.
          2    1    3    3  502    0  0.38432135406E+02 -0.23704645939E+02  0.18912986291E+03  0.19444547903E+03  0.00000000000E+00 0. -1.
         -2    1    3    3    0  502 -0.38432135406E+02  0.23704645939E+02  0.13470124849E+03  0.14206817243E+03  0.00000000000E+00 0.  1.
<mgrwt>
<rscale>  0 0.91514201E+02</rscale>
<asrwt>0</asrwt>
<pdfrwt beam="2">  1        1 0.97558026E-03 0.91514201E+02</pdfrwt>
<pdfrwt beam="1">  1       -1 0.50795737E-01 0.91514201E+02</pdfrwt>
<totfact> 0.57692622E+04</totfact>
</mgrwt>
</event>
<event>
 5    1  0.3858870E+001  0.9195868E+02  0.7546771E-02  0.1298177E+00
          1   -1    0    0  501    0  0.00000000000E+00  0.00000000000E+00  0.12586180528E+04  0.12586180528E+04  0.00000000000E+00 0. -1.
         -1   -1    0    0    0  501 -0.00000000000E+00 -0.00000000000E+00 -0.16796990343E+01  0.16796990343E+01  0.00000000000E+00 0.  1.
         23    2    1    2    0    0  0.00000000000E+00  0.00000000000E+00  0.12569383538E+04  0.12602977519E+04  0.91958676108E+02 0.  0.
          2    1    3    3  502    0  0.50873139286E+01  0.45684575200E+02  0.64309159003E+03  0.64473231215E+03  0.00000000000E+00 0. -1.
         -2    1    3    3    0  502 -0.50873139286E+01 -0.45684575200E+02  0.61384676376E+03  0.61556543970E+03  0.00000000000E+00 0.  1.
<mgrwt>
<rscale>  0 0.91958676E+02</rscale>
<asrwt>0</asrwt>
<pdfrwt beam="1">  1        1 0.19363279E+00 0.91958676E+02</pdfrwt>
<pdfrwt beam="2">  1       -1 0.25841624E-03 0.91958676E+02</pdfrwt>
<totfact> 0.12151412E+05</totfact>
</mgrwt>
</event>
<event>
 5    1  0.3858870E+001  0.9205895E+02  0.7546771E-02  0.1297941E+00
          2   -1    0    0  501    0  0.00000000000E+00  0.00000000000E+00  0.46067539712E+03  0.46067539712E+03  0.00000000000E+00 0. -1.
         -2   -1    0    0    0  501 -0.00000000000E+00 -0.00000000000E+00 -0.45991443884E+01  0.45991443884E+01  0.00000000000E+00 0.  1.
         23    2    1    2    0    0  0.00000000000E+00  0.00000000000E+00  0.45607625273E+03  0.46527454151E+03  0.92058952146E+02 0.  0.
          2    1    3    3  502    0  0.20163268416E+02  0.10097714073E+02  0.43084469635E+03  0.43143443719E+03  0.00000000000E+00 0. -1.
         -2    1    3    3    0  502 -0.20163268416E+02 -0.10097714073E+02  0.25231556385E+02  0.33840104320E+02  0.00000000000E+00 0.  1.
<mgrwt>
<rscale>  0 0.92058952E+02</rscale>
<asrwt>0</asrwt>
<pdfrwt beam="1">  1        2 0.70873102E-01 0.92058952E+02</pdfrwt>
<pdfrwt beam="2">  1       -2 0.70756104E-03 0.92058952E+02</pdfrwt>
<totfact> 0.20442280E+05</totfact>
</mgrwt>
</event>
<event>
 5    1  0.3858870E+001  0.8752846E+02  0.7546771E-02  0.1308950E+00
          1   -1    0    0  501    0  0.00000000000E+00  0.00000000000E+00  0.16155199941E+04  0.16155199941E+04  0.00000000000E+00 0. -1.
         -1   -1    0    0    0  501 -0.00000000000E+00 -0.00000000000E+00 -0.11855673313E+01  0.11855673313E+01  0.00000000000E+00 0.  1.
         23    2    1    2    0    0  0.00000000000E+00  0.00000000000E+00  0.16143344268E+04  0.16167055615E+04  0.87528457728E+02 0.  0.
          2    1    3    3  502    0 -0.39823035162E+02 -0.49761130616E+00  0.47204568942E+03  0.47372276137E+03  0.00000000000E+00 0. -1.
         -2    1    3    3    0  502  0.39823035162E+02  0.49761130616E+00  0.11422887374E+04  0.11429828001E+04  0.00000000000E+00 0.  1.
<mgrwt>
<rscale>  0 0.87528458E+02</rscale>
<asrwt>0</asrwt>
<pdfrwt beam="1">  1        1 0.24853978E+00 0.87528458E+02</pdfrwt>
<pdfrwt beam="2">  1       -1 0.18239627E-03 0.87528458E+02</pdfrwt>
<totfact> 0.11524830E+05</totfact>
</mgrwt>
</event>
<event>
 5    1  0.3858870E+001  0.9168428E+02  0.7546771E-02  0.1298823E+00
         -1   -1    0    0    0  501 -0.00000000000E+00  0.00000000000E+00  0.73451949566E+02  0.73451949566E+02  0.00000000000E+00 0. -1.
          1   -1    0    0  501    0  0.00000000000E+00 -0.00000000000E+00 -0.28610562324E+02  0.28610562324E+02  0.00000000000E+00 0.  1.
         23    2    1    2    0    0  0.00000000000E+00  0.00000000000E+00  0.44841387242E+02  0.10206251189E+03  0.91684275224E+02 0.  0.
          2    1    3    3  502    0  0.32958675417E+02 -0.22305053042E+02  0.47749543628E+02  0.62159541449E+02  0.00000000000E+00 0. -1.
         -2    1    3    3    0  502 -0.32958675417E+02  0.22305053042E+02 -0.29081563865E+01  0.39902970441E+02  0.00000000000E+00 0.  1.
<mgrwt>
<rscale>  0 0.91684275E+02</rscale>
<asrwt>0</asrwt>
<pdfrwt beam="2">  1        1 0.44016250E-02 0.91684275E+02</pdfrwt>
<pdfrwt beam="1">  1       -1 0.11300300E-01 0.91684275E+02</pdfrwt>
<totfact> 0.84653716E+04</totfact>
</mgrwt>
</event>
<event>
 5    1  0.3858870E+001  0.8825592E+02  0.7546771E-02  0.1307131E+00
          2   -1    0    0  501    0  0.00000000000E+00  0.00000000000E+00  0.73236024068E+03  0.73236024068E+03  0.00000000000E+00 0. -1.
         -2   -1    0    0    0  501 -0.00000000000E+00 -0.00000000000E+00 -0.26589057924E+01  0.26589057924E+01  0.00000000000E+00 0.  1.
         23    2    1    2    0    0  0.00000000000E+00  0.00000000000E+00  0.72970133489E+03  0.73501914647E+03  0.88255920733E+02 0.  0.
          2    1    3    3  502    0  0.40276452149E+01 -0.28247033053E+02  0.64520058710E+03  0.64583118103E+03  0.00000000000E+00 0. -1.
         -2    1    3    3    0  502 -0.40276452149E+01  0.28247033053E+02  0.84500747787E+02  0.89187965438E+02  0.00000000000E+00 0.  1.
<mgrwt>
<rscale>  0 0.88255921E+02</rscale>
<asrwt>0</asrwt>
<pdfrwt beam="1">  1        2 0.11267065E+00 0.88255921E+02</pdfrwt>
<pdfrwt beam="2">  1       -2 0.40906301E-03 0.88255921E+02</pdfrwt>
<totfact> 0.26099186E+05</totfact>
</mgrwt>
</event>
<event>
 5    1  0.3858870E+001  0.9256621E+02  0.7546771E-02  0.1296754E+00
          1   -1    0    0  501    0  0.00000000000E+00  0.00000000000E+00  0.19550998677E+03  0.19550998677E+03  0.00000000000E+00 0.  1.
         -1   -1    0    0    0  501 -0.00000000000E+00 -0.00000000000E+00 -0.10956604707E+02  0.10956604707E+02  0.00000000000E+00 0. -1.
         23    2    1    2    0    0  0.00000000000E+00  0.00000000000E+00  0.18455338206E+03  0.20646659148E+03  0.92566206391E+02 0.  0.
          2    1    3    3  502    0  0.42358687584E+02 -0.53496452999E+01  0.13212976000E+03  0.13885658283E+03  0.00000000000E+00 0.  1.
         -2    1    3    3    0  502 -0.42358687584E+02  0.53496452999E+01  0.52423622064E+02  0.67610008645E+02  0.00000000000E+00 0. -1.
<mgrwt>
<rscale>  0 0.92566206E+02</rscale>
<asrwt>0</asrwt>
<pdfrwt beam="1">  1        1 0.30078457E-01 0.92566206E+02</pdfrwt>
<pdfrwt beam="2">  1       -1 0.16856316E-02 0.92566206E+02</pdfrwt>
<totfact> 0.11319149E+05</totfact>
</mgrwt>
</event>
<event>
 5    1  0.3858870E+001  0.9102749E+02  0.7546771E-02  0.1300382E+00
         -2   -1    0    0    0  501 -0.00000000000E+00  0.00000000000E+00  0.19761300881E+02  0.19761300881E+02  0.00000000000E+00 0.  1.
          2   -1    0    0  501    0  0.00000000000E+00 -0.00000000000E+00 -0.10482615282E+03  0.10482615282E+03  0.00000000000E+00 0. -1.
         23    2    1    2    0    0  0.00000000000E+00  0.00000000000E+00 -0.85064851942E+02  0.12458745370E+03  0.91027493565E+02 0.  0.
          2    1    3    3  502    0  0.31199333953E+01 -0.37561451608E+02 -0.77451310931E+02  0.86135371342E+02  0.00000000000E+00 0. -1.
         -2    1    3    3    0  502 -0.31199333953E+01  0.37561451608E+02 -0.76135410113E+01  0.38452082363E+02  0.00000000000E+00 0.  1.
<mgrwt>
<rscale>  0 0.91027494E+02</rscale>
<asrwt>0</asrwt>
<pdfrwt beam="2">  1        2 0.16127101E-01 0.91027494E+02</pdfrwt>
<pdfrwt beam="1">  1       -2 0.30402001E-02 0.91027494E+02</pdfrwt>
<totfact> 0.12502380E+05</totfact>
</mgrwt>
</event>
<event>
 5    1  0.3858870E+001  0.9088798E+02  0.7546771E-02  0.1300715E+00
          1   -1    0    0  501    0  0.00000000000E+00  0.00000000000E+00  0.10729772397E+04  0.10729772397E+04  0.00000000000E+00 0. -1.
         -1   -1    0    0    0  501 -0.00000000000E+00 -0.00000000000E+00 -0.19246972495E+01  0.19246972495E+01  0.00000000000E+00 0.  1.
         23    2    1    2    0    0  0.00000000000E+00  0.00000000000E+00  0.10710525424E+04  0.10749019369E+04  0.90887982527E+02 0.  0.
          2    1    3    3  502    0 -0.27680510658E+02 -0.23127979914E+02  0.86243089257E+03  0.86318489247E+03  0.00000000000E+00 0. -1.
         -2    1    3    3    0  502  0.27680510658E+02  0.23127979914E+02  0.20862164987E+03  0.21171704447E+03  0.00000000000E+00 0.  1.
<mgrwt>
<rscale>  0 0.90887983E+02</rscale>
<asrwt>0</asrwt>
<pdfrwt beam="1">  1        1 0.16507294E+00 0.90887983E+02</pdfrwt>
<pdfrwt beam="2">  1       -1 0.29610813E-03 0.90887983E+02</pdfrwt>
<totfact> 0.13428147E+05</totfact>
</mgrwt>
</event>
<event>
 5    1  0.3858870E+001  0.1265918E+03  0.7546771E-02  0.1232602E+00
          1   -1    0    0  501    0  0.00000000000E+00  0.00000000000E+00  0.16800181991E+03  0.16800181991E+03  0.00000000000E+00 0. -1.
         -1   -1    0    0    0  501 -0.00000000000E+00 -0.00000000000E+00 -0.23847173567E+02  0.23847173567E+02  0.00000000000E+00 0.  1.
         23    2    1    2    0    0  0.00000000000E+00  0.00000000000E+00  0.14415464634E+03  0.19184899347E+03  0.12659176212E+03 0.  0.
          2    1    3    3  502    0 -0.22574237576E+02 -0.36170415550E+02  0.11808362231E+01  0.42653130453E+02  0.00000000000E+00 0.  1.
         -2    1    3    3    0  502  0.22574237576E+02  0.36170415550E+02  0.14297381012E+03  0.14919586302E+03  0.00000000000E+00 0. -1.
<mgrwt>
<rscale>  0 0.12659176E+03</rscale>
<asrwt>0</asrwt>
<pdfrwt beam="1">  1        1 0.25846433E-01 0.12659176E+03</pdfrwt>
<pdfrwt beam="2">  1       -1 0.36687960E-02 0.12659176E+03</pdfrwt>
<totfact> 0.46513981E+04</totfact>
</mgrwt>
</event>
<event>
 5    1  0.3858870E+001  0.8925637E+02  0.7546771E-02  0.1304663E+00
          2   -1    0    0  501    0  0.00000000000E+00  0.00000000000E+00  0.27566848192E+03  0.27566848192E+03  0.00000000000E+00 0. -1.
         -2   -1    0    0    0  501 -0.00000000000E+00 -0.00000000000E+00 -0.72248916918E+01  0.72248916918E+01  0.00000000000E+00 0.  1.
         23    2    1    2    0    0  0.00000000000E+00  0.00000000000E+00  0.26844359023E+03  0.28289337361E+03  0.89256370635E+02 0.  0.
          2    1    3    3  502    0 -0.27428006885E+02  0.10832903294E+02  0.24038776103E+03  0.24218984910E+03  0.00000000000E+00 0. -1.
         -2    1    3    3    0  502  0.27428006885E+02 -0.10832903294E+02  0.28055829199E+02  0.40703524510E+02  0.00000000000E+00 0.  1.
<mgrwt>
<rscale>  0 0.89256371E+02</rscale>
<asrwt>0</asrwt>
<pdfrwt beam="1">  1        2 0.42410527E-01 0.89256371E+02</pdfrwt>
<pdfrwt beam="2">  1       -2 0.11115220E-02 0.89256371E+02</pdfrwt>
<totfact> 0.18425414E+05</totfact>
</mgrwt>
</event>
<event>
 5    1  0.3858870E+001  0.9146667E+02  0.7546771E-02  0.1299338E+00
          2   -1    0    0  501    0  0.00000000000E+00  0.00000000000E+00  0.13506648954E+03  0.13506648954E+03  0.00000000000E+00 0. -1.
         -2   -1    0    0    0  501 -0.00000000000E+00 -0.00000000000E+00 -0.15485246845E+02  0.15485246845E+02  0.00000000000E+00 0.  1.
         23    2    1    2    0    0  0.00000000000E+00  0.00000000000E+00  0.11958124269E+03  0.15055173638E+03  0.91466670016E+02 0.  0.
          2    1    3    3  502    0 -0.92396737349E+01 -0.44330813225E+02  0.70322970369E+02  0.83641572997E+02  0.00000000000E+00 0. -1.
         -2    1    3    3    0  502  0.92396737349E+01  0.44330813225E+02  0.49258272326E+02  0.66910163387E+02  0.00000000000E+00 0.  1.
<mgrwt>
<rscale>  0 0.91466670E+02</rscale>
<asrwt>0</asrwt>
<pdfrwt beam="1">  1        2 0.20779459E-01 0.91466670E+02</pdfrwt>
<pdfrwt beam="2">  1       -2 0.23823458E-02 0.91466670E+02</pdfrwt>
<totfact> 0.13380888E+05</totfact>
</mgrwt>
</event>
<event>
 5    1  0.3858870E+001  0.9360050E+02  0.7546771E-02  0.1294360E+00
          3   -1    0    0  501    0  0.00000000000E+00  0.00000000000E+00  0.36638827559E+02  0.36638827559E+02  0.00000000000E+00 0. -1.
         -3   -1    0    0    0  501 -0.00000000000E+00 -0.00000000000E+00 -0.59779841541E+02  0.59779841541E+02  0.00000000000E+00 0.  1.
         23    2    1    2    0    0  0.00000000000E+00  0.00000000000E+00 -0.23141013983E+02  0.96418669100E+02  0.93600497984E+02 0.  0.
          2    1    3    3  502    0  0.74342222403E+01 -0.25911611350E+02  0.27838165539E+02  0.38751035130E+02  0.00000000000E+00 0. -1.
         -2    1    3    3    0  502 -0.74342222403E+01  0.25911611350E+02 -0.50979179521E+02  0.57667633970E+02  0.00000000000E+00 0.  1.
<mgrwt>
<rscale>  0 0.93600498E+02</rscale>
<asrwt>0</asrwt>
<pdfrwt beam="1">  1        3 0.56367428E-02 0.93600498E+02</pdfrwt>
<pdfrwt beam="2">  1       -3 0.91968986E-02 0.93600498E+02</pdfrwt>
<totfact> 0.32524240E+04</totfact>
</mgrwt>
</event>
<event>
 5    1  0.3858870E+001  0.1011773E+03  0.7546771E-02  0.1277840E+00
         -1   -1    0    0    0  501 -0.00000000000E+00  0.00000000000E+00  0.87440264168E+01  0.87440264168E+01  0.00000000000E+00 0.  1.
          1   -1    0    0  501    0  0.00000000000E+00 -0.00000000000E+00 -0.29268097787E+03  0.29268097787E+03  0.00000000000E+00 0. -1.
         23    2    1    2    0    0  0.00000000000E+00  0.00000000000E+00 -0.28393695145E+03  0.30142500429E+03  0.10117727417E+03 0.  0.
          2    1    3    3  502    0 -0.35951348685E+02  0.34236362036E+02 -0.17094198557E+03  0.17800502911E+03  0.00000000000E+00 0. -1.
         -2    1    3    3    0  502  0.35951348685E+02 -0.34236362036E+02 -0.11299496588E+03  0.12341997517E+03  0.00000000000E+00 0.  1.
<mgrwt>
<rscale>  0 0.10117727E+03</rscale>
<asrwt>0</asrwt>
<pdfrwt beam="2">  1        1 0.45027836E-01 0.10117727E+03</pdfrwt>
<pdfrwt beam="1">  1       -1 0.13452350E-02 0.10117727E+03</pdfrwt>
<totfact> 0.96471049E+04</totfact>
</mgrwt>
</event>
<event>
 5    1  0.3858870E+001  0.9326409E+02  0.7546771E-02  0.1295134E+00
         -1   -1    0    0    0  501 -0.00000000000E+00  0.00000000000E+00  0.13572504050E+02  0.13572504050E+02  0.00000000000E+00 0.  1.
          1   -1    0    0  501    0  0.00000000000E+00 -0.00000000000E+00 -0.16021712370E+03  0.16021712370E+03  0.00000000000E+00 0. -1.
         23    2    1    2    0    0  0.00000000000E+00  0.00000000000E+00 -0.14664461965E+03  0.17378962775E+03  0.93264088701E+02 0.  0.
          2    1    3    3  502    0  0.24960921415E+01  0.40896608140E+02 -0.11481349938E+03  0.12190530208E+03  0.00000000000E+00 0. -1.
         -2    1    3    3    0  502 -0.24960921415E+01 -0.40896608140E+02 -0.31831120268E+02  0.51884325676E+02  0.00000000000E+00 0.  1.
<mgrwt>
<rscale>  0 0.93264089E+02</rscale>
<asrwt>0</asrwt>
<pdfrwt beam="2">  1        1 0.24648786E-01 0.93264089E+02</pdfrwt>
<pdfrwt beam="1">  1       -1 0.20880777E-02 0.93264089E+02</pdfrwt>
<totfact> 0.10678078E+05</totfact>
</mgrwt>
</event>
<event>
 5    1  0.3858870E+001  0.8531639E+02  0.7546771E-02  0.1314607E+00
         -3   -1    0    0    0  501 -0.00000000000E+00  0.00000000000E+00  0.17863415380E+01  0.17863415380E+01  0.00000000000E+00 0.  1.
          3   -1    0    0  501    0  0.00000000000E+00 -0.00000000000E+00 -0.10186861683E+04  0.10186861683E+04  0.00000000000E+00 0. -1.
         23    2    1    2    0    0  0.00000000000E+00  0.00000000000E+00 -0.10168998267E+04  0.10204725098E+04  0.85316385685E+02 0.  0.
          2    1    3    3  502    0  0.17012842551E+02 -0.36509875066E+02 -0.34043516665E+03  0.34280972927E+03  0.00000000000E+00 0. -1.
         -2    1    3    3    0  502 -0.17012842551E+02  0.36509875066E+02 -0.67646466008E+03  0.67766278054E+03  0.00000000000E+00 0.  1.
<mgrwt>
<rscale>  0 0.85316386E+02</rscale>
<asrwt>0</asrwt>
<pdfrwt beam="2">  1        3 0.15672118E+00 0.85316386E+02</pdfrwt>
<pdfrwt beam="1">  1       -3 0.27482138E-03 0.85316386E+02</pdfrwt>
<totfact> 0.11697246E+04</totfact>
</mgrwt>
</event>
<event>
 5    1  0.3858870E+001  0.8875441E+02  0.7546771E-02  0.1305896E+00
         -2   -1    0    0    0  501 -0.00000000000E+00  0.00000000000E+00  0.12567558306E+02  0.12567558306E+02  0.00000000000E+00 0.  1.
          2   -1    0    0  501    0  0.00000000000E+00 -0.00000000000E+00 -0.15669998953E+03  0.15669998953E+03  0.00000000000E+00 0. -1.
         23    2    1    2    0    0  0.00000000000E+00  0.00000000000E+00 -0.14413243122E+03  0.16926754783E+03  0.88754408454E+02 0.  0.
          2    1    3    3  502    0 -0.41779907622E+02 -0.10357332365E+02 -0.92651128975E+02  0.10216196315E+03  0.00000000000E+00 0. -1.
         -2    1    3    3    0  502  0.41779907622E+02  0.10357332365E+02 -0.51481302246E+02  0.67105584682E+02  0.00000000000E+00 0.  1.
<mgrwt>
<rscale>  0 0.88754408E+02</rscale>
<asrwt>0</asrwt>
<pdfrwt beam="2">  1        2 0.24107690E-01 0.88754408E+02</pdfrwt>
<pdfrwt beam="1">  1       -2 0.19334705E-02 0.88754408E+02</pdfrwt>
<totfact> 0.15263197E+05</totfact>
</mgrwt>
</event>
<event>
 5    1  0.3858870E+001  0.9188498E+02  0.7546771E-02  0.1298350E+00
          2   -1    0    0  501    0  0.00000000000E+00  0.00000000000E+00  0.30888117966E+02  0.30888117966E+02  0.00000000000E+00 0.  1.
         -2   -1    0    0    0  501 -0.00000000000E+00 -0.00000000000E+00 -0.68334123498E+02  0.68334123498E+02  0.00000000000E+00 0. -1.
         23    2    1    2    0    0  0.00000000000E+00  0.00000000000E+00 -0.37446005532E+02  0.99222241465E+02  0.91884981749E+02 0.  0.
          2    1    3    3  502    0  0.29310321721E+02 -0.18751310692E+02 -0.51118687793E+02  0.61837099332E+02  0.00000000000E+00 0. -1.
         -2    1    3    3    0  502 -0.29310321721E+02  0.18751310692E+02  0.13672682261E+02  0.37385142133E+02  0.00000000000E+00 0.  1.
<mgrwt>
<rscale>  0 0.91884982E+02</rscale>
<asrwt>0</asrwt>
<pdfrwt beam="1">  1        2 0.47520183E-02 0.91884982E+02</pdfrwt>
<pdfrwt beam="2">  1       -2 0.10512942E-01 0.91884982E+02</pdfrwt>
<totfact> 0.87133791E+04</totfact>
</mgrwt>
</event>
<event>
 5    1  0.3858870E+001  0.8920060E+02  0.7546771E-02  0.1304799E+00
          2   -1    0    0  501    0  0.00000000000E+00  0.00000000000E+00  0.20283156042E+04  0.20283156042E+04  0.00000000000E+00 0. -1.
         -2   -1    0    0    0  501 -0.00000000000E+00 -0.00000000000E+00 -0.98070875909E+00  0.98070875909E+00  0.00000000000E+00 0.  1.
         23    2    1    2    0    0  0.00000000000E+00  0.00000000000E+00  0.20273348955E+04  0.20292963130E+04  0.89200602672E+02 0.  0.
          2    1    3    3  502    0 -0.24298849604E+02  0.11877670194E+02  0.18204596161E+04  0.18206605195E+04  0.00000000000E+00 0. -1.
         -2    1    3    3    0  502  0.24298849604E+02 -0.11877670194E+02  0.20687527935E+03  0.20863579354E+03  0.00000000000E+00 0.  1.
<mgrwt>
<rscale>  0 0.89200603E+02</rscale>
<asrwt>0</asrwt>
<pdfrwt beam="1">  1        2 0.31204520E+00 0.89200603E+02</pdfrwt>
<pdfrwt beam="2">  1       -2 0.15087989E-03 0.89200603E+02</pdfrwt>
<totfact> 0.20577419E+05</totfact>
</mgrwt>
</event>
<event>
 5    1  0.3858870E+001  0.9160913E+02  0.7546771E-02  0.1299001E+00
          2   -1    0    0  501    0  0.00000000000E+00  0.00000000000E+00  0.56952661611E+02  0.56952661611E+02  0.00000000000E+00 0. -1.
         -2   -1    0    0    0  501 -0.00000000000E+00 -0.00000000000E+00 -0.36838632262E+02  0.36838632262E+02  0.00000000000E+00 0.  1.
         23    2    1    2    0    0  0.00000000000E+00  0.00000000000E+00  0.20114029349E+02  0.93791293873E+02  0.91609129620E+02 0.  0.
          2    1    3    3  502    0  0.23218932664E+02  0.37524489779E+02  0.22631762727E+02  0.49592366866E+02  0.00000000000E+00 0. -1.
         -2    1    3    3    0  502 -0.23218932664E+02 -0.37524489779E+02 -0.25177333786E+01  0.44198927007E+02  0.00000000000E+00 0.  1.
<mgrwt>
<rscale>  0 0.91609130E+02</rscale>
<asrwt>0</asrwt>
<pdfrwt beam="1">  1        2 0.87619480E-02 0.91609130E+02</pdfrwt>
<pdfrwt beam="2">  1       -2 0.56674819E-02 0.91609130E+02</pdfrwt>
<totfact> 0.10321083E+05</totfact>
</mgrwt>
</event>
<event>
 5    1  0.3858870E+001  0.9474685E+02  0.7546771E-02  0.1291747E+00
         -3   -1    0    0    0  501 -0.00000000000E+00  0.00000000000E+00  0.23020744258E+03  0.23020744258E+03  0.00000000000E+00 0.  1.
          3   -1    0    0  501    0  0.00000000000E+00 -0.00000000000E+00 -0.97487796216E+01  0.97487796216E+01  0.00000000000E+00 0. -1.
         23    2    1    2    0    0  0.00000000000E+00  0.00000000000E+00  0.22045866296E+03  0.23995622220E+03  0.94746854829E+02 0.  0.
          2    1    3    3  502    0 -0.22855095473E+02  0.35886144220E+02  0.57464136895E+02  0.71500334021E+02  0.00000000000E+00 0. -1.
         -2    1    3    3    0  502  0.22855095473E+02 -0.35886144220E+02  0.16299452606E+03  0.16845588818E+03  0.00000000000E+00 0.  1.
<mgrwt>
<rscale>  0 0.94746855E+02</rscale>
<asrwt>0</asrwt>
<pdfrwt beam="2">  1        3 0.14998124E-02 0.94746855E+02</pdfrwt>
<pdfrwt beam="1">  1       -3 0.35416526E-01 0.94746855E+02</pdfrwt>
<totfact> 0.23936037E+04</totfact>
</mgrwt>
</event>
<event>
 5    1  0.3858870E+001  0.9414976E+02  0.7546771E-02  0.1293103E+00
         -1   -1    0    0    0  501 -0.00000000000E+00  0.00000000000E+00  0.16731067861E+03  0.16731067861E+03  0.00000000000E+00 0.  1.
          1   -1    0    0  501    0  0.00000000000E+00 -0.00000000000E+00 -0.13245086879E+02  0.13245086879E+02  0.00000000000E+00 0. -1.
         23    2    1    2    0    0  0.00000000000E+00  0.00000000000E+00  0.15406559173E+03  0.18055576549E+03  0.94149763122E+02 0.  0.
          2    1    3    3  502    0 -0.32614168870E+02  0.28742044677E+02  0.42393349883E+02  0.60720550537E+02  0.00000000000E+00 0. -1.
         -2    1    3    3    0  502  0.32614168870E+02 -0.28742044677E+02  0.11167224184E+03  0.11983521495E+03  0.00000000000E+00 0.  1.
<mgrwt>
<rscale>  0 0.94149763E+02</rscale>
<asrwt>0</asrwt>
<pdfrwt beam="2">  1        1 0.20377058E-02 0.94149763E+02</pdfrwt>
<pdfrwt beam="1">  1       -1 0.25740103E-01 0.94149763E+02</pdfrwt>
<totfact> 0.66994252E+04</totfact>
</mgrwt>
</event>
<event>
 5    1  0.3858870E+001  0.9069399E+02  0.7546771E-02  0.1301180E+00
          1   -1    0    0  501    0  0.00000000000E+00  0.00000000000E+00  0.89976074335E+03  0.89976074335E+03  0.00000000000E+00 0. -1.
         -1   -1    0    0    0  501 -0.00000000000E+00 -0.00000000000E+00 -0.22854408528E+01  0.22854408528E+01  0.00000000000E+00 0.  1.
         23    2    1    2    0    0  0.00000000000E+00  0.00000000000E+00  0.89747530250E+03  0.90204618421E+03  0.90693990112E+02 0.  0.
          2    1    3    3  502    0  0.12984983088E+02 -0.41888038464E+02  0.56349807915E+03  0.56520200173E+03  0.00000000000E+00 0. -1.
         -2    1    3    3    0  502 -0.12984983088E+02  0.41888038464E+02  0.33397722335E+03  0.33684418248E+03  0.00000000000E+00 0.  1.
<mgrwt>
<rscale>  0 0.90693990E+02</rscale>
<asrwt>0</asrwt>
<pdfrwt beam="1">  1        1 0.13842445E+00 0.90693990E+02</pdfrwt>
<pdfrwt beam="2">  1       -1 0.35160700E-03 0.90693990E+02</pdfrwt>
<totfact> 0.14114953E+05</totfact>
</mgrwt>
</event>
<event>
 5    1  0.3858870E+001  0.8730907E+02  0.7546771E-02  0.1309502E+00
         -3   -1    0    0    0  501 -0.00000000000E+00  0.00000000000E+00  0.24898919920E+01  0.24898919920E+01  0.00000000000E+00 0.  1.
          3   -1    0    0  501    0  0.00000000000E+00 -0.00000000000E+00 -0.76538197205E+03  0.76538197205E+03  0.00000000000E+00 0. -1.
         23    2    1    2    0    0  0.00000000000E+00  0.00000000000E+00 -0.76289208005E+03  0.76787186404E+03  0.87309070388E+02 0.  0.
          2    1    3    3  502    0  0.53097016256E+01 -0.26337698922E+02 -0.78839760153E+02  0.83292107050E+02  0.00000000000E+00 0.  1.
         -2    1    3    3    0  502 -0.53097016256E+01  0.26337698922E+02 -0.68405231990E+03  0.68457975699E+03  0.00000000000E+00 0. -1.
<mgrwt>
<rscale>  0 0.87309070E+02</rscale>
<asrwt>0</asrwt>
<pdfrwt beam="2">  1        3 0.11775115E+00 0.87309070E+02</pdfrwt>
<pdfrwt beam="1">  1       -3 0.38306004E-03 0.87309070E+02</pdfrwt>
<totfact> 0.14436693E+04</totfact>
</mgrwt>
</event>
<event>
 5    1  0.3858870E+001  0.9205525E+02  0.7546771E-02  0.1297950E+00
          1   -1    0    0  501    0  0.00000000000E+00  0.00000000000E+00  0.14138832564E+02  0.14138832564E+02  0.00000000000E+00 0. -1.
         -1   -1    0    0    0  501 -0.00000000000E+00 -0.00000000000E+00 -0.14983856685E+03  0.14983856685E+03  0.00000000000E+00 0.  1.
         23    2    1    2    0    0  0.00000000000E+00  0.00000000000E+00 -0.13569973429E+03  0.16397739942E+03  0.92055253154E+02 0.  0.
          2    1    3    3  502    0 -0.30746368025E+02  0.86928320679E+01 -0.88345192923E+01  0.33150463152E+02  0.00000000000E+00 0. -1.
         -2    1    3    3    0  502  0.30746368025E+02 -0.86928320679E+01 -0.12686521500E+03  0.13082693626E+03  0.00000000000E+00 0.  1.
<mgrwt>
<rscale>  0 0.92055253E+02</rscale>
<asrwt>0</asrwt>
<pdfrwt beam="1">  1        1 0.21752050E-02 0.92055253E+02</pdfrwt>
<pdfrwt beam="2">  1       -1 0.23052087E-01 0.92055253E+02</pdfrwt>
<totfact> 0.72966592E+04</totfact>
</mgrwt>
</event>
<event>
 5    1  0.3858870E+001  0.1139678E+03  0.7546771E-02  0.1253394E+00
          2   -1    0    0  501    0  0.00000000000E+00  0.00000000000E+00  0.11906436918E+04  0.11906436918E+04  0.00000000000E+00 0. -1.
         -2   -1    0    0    0  501 -0.00000000000E+00 -0.00000000000E+00 -0.27272337049E+01  0.27272337049E+01  0.00000000000E+00 0.  1.
         23    2    1    2    0    0  0.00000000000E+00  0.00000000000E+00  0.11879164581E+04  0.11933709255E+04  0.11396777802E+03 0.  0.
          2    1    3    3  502    0  0.11911169460E+02  0.24071031822E+02  0.11202167411E+04  0.11205386373E+04  0.00000000000E+00 0. -1.
         -2    1    3    3    0  502 -0.11911169460E+02 -0.24071031822E+02  0.67699716970E+02  0.72832288229E+02  0.00000000000E+00 0.  1.
<mgrwt>
<rscale>  0 0.11396778E+03</rscale>
<asrwt>0</asrwt>
<pdfrwt beam="1">  1        2 0.18317554E+00 0.11396778E+03</pdfrwt>
<pdfrwt beam="2">  1       -2 0.41957537E-03 0.11396778E+03</pdfrwt>
<totfact> 0.13744369E+05</totfact>
</mgrwt>
</event>
<event>
 5    1  0.3858870E+001  0.9093227E+02  0.7546771E-02  0.1300610E+00
          2   -1    0    0  501    0  0.00000000000E+00  0.00000000000E+00  0.10140788883E+03  0.10140788883E+03  0.00000000000E+00 0. -1.
         -2   -1    0    0    0  501 -0.00000000000E+00 -0.00000000000E+00 -0.20384700804E+02  0.20384700804E+02  0.00000000000E+00 0.  1.
         23    2    1    2    0    0  0.00000000000E+00  0.00000000000E+00  0.81023188023E+02  0.12179258963E+03  0.90932270904E+02 0.  0.
          2    1    3    3  502    0 -0.42611556142E+02  0.10304415463E+02  0.56653380419E+02  0.71634706727E+02  0.00000000000E+00 0. -1.
         -2    1    3    3    0  502  0.42611556142E+02 -0.10304415463E+02  0.24369807604E+02  0.50157882905E+02  0.00000000000E+00 0.  1.
<mgrwt>
<rscale>  0 0.90932271E+02</rscale>
<asrwt>0</asrwt>
<pdfrwt beam="1">  1        2 0.15601213E-01 0.90932271E+02</pdfrwt>
<pdfrwt beam="2">  1       -2 0.31361079E-02 0.90932271E+02</pdfrwt>
<totfact> 0.12411444E+05</totfact>
</mgrwt>
</event>
<event>
 5    1  0.3858870E+001  0.9120278E+02  0.7546771E-02  0.1299965E+00
         -2   -1    0    0    0  501 -0.00000000000E+00  0.00000000000E+00  0.16913907213E+02  0.16913907213E+02  0.00000000000E+00 0.  1.
          2   -1    0    0  501    0  0.00000000000E+00 -0.00000000000E+00 -0.12294538026E+03  0.12294538026E+03  0.00000000000E+00 0. -1.
         23    2    1    2    0    0  0.00000000000E+00  0.00000000000E+00 -0.10603147305E+03  0.13985928748E+03  0.91202779652E+02 0.  0.
          2    1    3    3  502    0 -0.21281010625E+02 -0.39792928747E+02 -0.63086530570E+02  0.77564611331E+02  0.00000000000E+00 0. -1.
         -2    1    3    3    0  502  0.21281010625E+02  0.39792928747E+02 -0.42944942478E+02  0.62294676144E+02  0.00000000000E+00 0.  1.
<mgrwt>
<rscale>  0 0.91202780E+02</rscale>
<asrwt>0</asrwt>
<pdfrwt beam="2">  1        2 0.18914674E-01 0.91202780E+02</pdfrwt>
<pdfrwt beam="1">  1       -2 0.26021396E-02 0.91202780E+02</pdfrwt>
<totfact> 0.13077909E+05</totfact>
</mgrwt>
</event>
<event>
 5    1  0.3858870E+001  0.1001000E+03  0.7546771E-02  0.1280086E+00
          3   -1    0    0  501    0  0.00000000000E+00  0.00000000000E+00  0.29419442228E+03  0.29419442228E+03  0.00000000000E+00 0. -1.
         -3   -1    0    0    0  501 -0.00000000000E+00 -0.00000000000E+00 -0.85147779194E+01  0.85147779194E+01  0.00000000000E+00 0.  1.
         23    2    1    2    0    0  0.00000000000E+00  0.00000000000E+00  0.28567964436E+03  0.30270920020E+03  0.10009995346E+03 0.  0.
          2    1    3    3  502    0  0.22233901083E+02  0.44772487436E+02  0.15029535362E+03  0.15839070461E+03  0.00000000000E+00 0. -1.
         -2    1    3    3    0  502 -0.22233901083E+02 -0.44772487436E+02  0.13538429075E+03  0.14431849559E+03  0.00000000000E+00 0.  1.
<mgrwt>
<rscale>  0 0.10009995E+03</rscale>
<asrwt>0</asrwt>
<pdfrwt beam="1">  1        3 0.45260673E-01 0.10009995E+03</pdfrwt>
<pdfrwt beam="2">  1       -3 0.13099661E-02 0.10009995E+03</pdfrwt>
<totfact> 0.18594147E+04</totfact>
</mgrwt>
</event>
<event>
 5    1  0.3858870E+001  0.9299428E+02  0.7546771E-02  0.1295758E+00
         -1   -1    0    0    0  501 -0.00000000000E+00  0.00000000000E+00  0.50023337648E+03  0.50023337648E+03  0.00000000000E+00 0.  1.
          1   -1    0    0  501    0  0.00000000000E+00 -0.00000000000E+00 -0.43219511144E+01  0.43219511144E+01  0.00000000000E+00 0. -1.
         23    2    1    2    0    0  0.00000000000E+00  0.00000000000E+00  0.49591142537E+03  0.50455532760E+03  0.92994283673E+02 0.  0.
          2    1    3    3  502    0  0.39790777438E+02  0.17629112811E+02  0.15915163447E+03  0.16499495248E+03  0.00000000000E+00 0. -1.
         -2    1    3    3    0  502 -0.39790777438E+02 -0.17629112811E+02  0.33675979090E+03  0.33956037512E+03  0.00000000000E+00 0.  1.
<mgrwt>
<rscale>  0 0.92994284E+02</rscale>
<asrwt>0</asrwt>
<pdfrwt beam="2">  1        1 0.66491595E-03 0.92994284E+02</pdfrwt>
<pdfrwt beam="1">  1       -1 0.76958935E-01 0.92994284E+02</pdfrwt>
<totfact> 0.44653607E+04</totfact>
</mgrwt>
</event>
<event>
 5    1  0.3858870E+001  0.9751958E+02  0.7546771E-02  0.1285600E+00
         -1   -1    0    0    0  501 -0.00000000000E+00  0.00000000000E+00  0.50379601910E+02  0.50379601910E+02  0.00000000000E+00 0.  1.
          1   -1    0    0  501    0  0.00000000000E+00 -0.00000000000E+00 -0.47192061459E+02  0.47192061459E+02  0.00000000000E+00 0. -1.
         23    2    1    2    0    0  0.00000000000E+00  0.00000000000E+00  0.31875404507E+01  0.97571663369E+02  0.97519583051E+02 0.  0.
          2    1    3    3  502    0 -0.21837509642E+02 -0.13474125773E+02 -0.39890263148E+02  0.47430601796E+02  0.00000000000E+00 0. -1.
         -2    1    3    3    0  502  0.21837509642E+02  0.13474125773E+02  0.43077803599E+02  0.50141061572E+02  0.00000000000E+00 0.  1.
<mgrwt>
<rscale>  0 0.97519583E+02</rscale>
<asrwt>0</asrwt>
<pdfrwt beam="2">  1        1 0.72603171E-02 0.97519583E+02</pdfrwt>
<pdfrwt beam="1">  1       -1 0.77507080E-02 0.97519583E+02</pdfrwt>
<totfact> 0.76894991E+04</totfact>
</mgrwt>
</event>
<event>
 5    1  0.3858870E+001  0.8577265E+02  0.7546771E-02  0.1313424E+00
          1   -1    0    0  501    0  0.00000000000E+00  0.00000000000E+00  0.10830583266E+03  0.10830583266E+03  0.00000000000E+00 0. -1.
         -1   -1    0    0    0  501 -0.00000000000E+00 -0.00000000000E+00 -0.16981882259E+02  0.16981882259E+02  0.00000000000E+00 0.  1.
         23    2    1    2    0    0  0.00000000000E+00  0.00000000000E+00  0.91323950405E+02  0.12528771492E+03  0.85772650612E+02 0.  0.
          2    1    3    3  502    0  0.36560142184E+02  0.40483353436E+01  0.77870354243E+02  0.86120990969E+02  0.00000000000E+00 0. -1.
         -2    1    3    3    0  502 -0.36560142184E+02 -0.40483353436E+01  0.13453596162E+02  0.39166723954E+02  0.00000000000E+00 0.  1.
<mgrwt>
<rscale>  0 0.85772651E+02</rscale>
<asrwt>0</asrwt>
<pdfrwt beam="1">  1        1 0.16662435E-01 0.85772651E+02</pdfrwt>
<pdfrwt beam="2">  1       -1 0.26125973E-02 0.85772651E+02</pdfrwt>
<totfact> 0.12490132E+05</totfact>
</mgrwt>
</event>
<event>
 5    1  0.3858870E+001  0.8862701E+02  0.7546771E-02  0.1306211E+00
          1   -1    0    0  501    0  0.00000000000E+00  0.00000000000E+00  0.96500182320E+03  0.96500182320E+03  0.00000000000E+00 0. -1.
         -1   -1    0    0    0  501 -0.00000000000E+00 -0.00000000000E+00 -0.20349047111E+01  0.20349047111E+01  0.00000000000E+00 0.  1.
         23    2    1    2    0    0  0.00000000000E+00  0.00000000000E+00  0.96296691849E+03  0.96703672791E+03  0.88627010696E+02 0.  0.
          2    1    3    3  502    0  0.43308233773E+02  0.13707797801E+01  0.58279107732E+03  0.58439962522E+03  0.00000000000E+00 0. -1.
         -2    1    3    3    0  502 -0.43308233773E+02 -0.13707797801E+01  0.38017584117E+03  0.38263710269E+03  0.00000000000E+00 0.  1.
<mgrwt>
<rscale>  0 0.88627011E+02</rscale>
<asrwt>0</asrwt>
<pdfrwt beam="1">  1        1 0.14846145E+00 0.88627011E+02</pdfrwt>
<pdfrwt beam="2">  1       -1 0.31306303E-03 0.88627011E+02</pdfrwt>
<totfact> 0.14789771E+05</totfact>
</mgrwt>
</event>
<event>
 5    1  0.3858870E+001  0.1117214E+03  0.7546771E-02  0.1257415E+00
          2   -1    0    0  501    0  0.00000000000E+00  0.00000000000E+00  0.13788896082E+03  0.13788896082E+03  0.00000000000E+00 0. -1.
         -2   -1    0    0    0  501 -0.00000000000E+00 -0.00000000000E+00 -0.22629921702E+02  0.22629921702E+02  0.00000000000E+00 0.  1.
         23    2    1    2    0    0  0.00000000000E+00  0.00000000000E+00  0.11525903912E+03  0.16051888253E+03  0.11172137463E+03 0.  0.
          2    1    3    3  502    0  0.11622379719E+02  0.53537021080E+02  0.73311091086E+02  0.91519442812E+02  0.00000000000E+00 0. -1.
         -2    1    3    3    0  502 -0.11622379719E+02 -0.53537021080E+02  0.41947948037E+02  0.68999439715E+02  0.00000000000E+00 0.  1.
<mgrwt>
<rscale>  0 0.11172137E+03</rscale>
<asrwt>0</asrwt>
<pdfrwt beam="1">  1        2 0.21213686E-01 0.11172137E+03</pdfrwt>
<pdfrwt beam="2">  1       -2 0.34815265E-02 0.11172137E+03</pdfrwt>
<totfact> 0.77550615E+04</totfact>
</mgrwt>
</event>
<event>
 5    1  0.3858870E+001  0.8479732E+02  0.7546771E-02  0.1315963E+00
         -2   -1    0    0    0  501 -0.00000000000E+00  0.00000000000E+00  0.11749416779E+01  0.11749416779E+01  0.00000000000E+00 0.  1.
          2   -1    0    0  501    0  0.00000000000E+00 -0.00000000000E+00 -0.15299878993E+04  0.15299878993E+04  0.00000000000E+00 0. -1.
         23    2    1    2    0    0  0.00000000000E+00  0.00000000000E+00 -0.15288129576E+04  0.15311628410E+04  0.84797324242E+02 0.  0.
          2    1    3    3  502    0  0.26135040407E+02 -0.63556969810E+00 -0.13671343170E+04  0.13673842493E+04  0.00000000000E+00 0. -1.
         -2    1    3    3    0  502 -0.26135040407E+02  0.63556969810E+00 -0.16167864061E+03  0.16377859174E+03  0.00000000000E+00 0.  1.
<mgrwt>
<rscale>  0 0.84797324E+02</rscale>
<asrwt>0</asrwt>
<pdfrwt beam="2">  1        2 0.23538358E+00 0.84797324E+02</pdfrwt>
<pdfrwt beam="1">  1       -2 0.18075962E-03 0.84797324E+02</pdfrwt>
<totfact> 0.28328039E+05</totfact>
</mgrwt>
</event>
<event>
 5    1  0.3858870E+001  0.9154603E+02  0.7546771E-02  0.1299150E+00
          1   -1    0    0  501    0  0.00000000000E+00  0.00000000000E+00  0.13837917264E+03  0.13837917264E+03  0.00000000000E+00 0. -1.
         -1   -1    0    0    0  501 -0.00000000000E+00 -0.00000000000E+00 -0.15140783364E+02  0.15140783364E+02  0.00000000000E+00 0.  1.
         23    2    1    2    0    0  0.00000000000E+00  0.00000000000E+00  0.12323838927E+03  0.15351995600E+03  0.91546033775E+02 0.  0.
          2    1    3    3  502    0 -0.79724785277E+01 -0.44516424842E+02  0.73464893702E+02  0.86269131798E+02  0.00000000000E+00 0. -1.
         -2    1    3    3    0  502  0.79724785277E+01  0.44516424842E+02  0.49773495572E+02  0.67250824203E+02  0.00000000000E+00 0.  1.
<mgrwt>
<rscale>  0 0.91546034E+02</rscale>
<asrwt>0</asrwt>
<pdfrwt beam="1">  1        1 0.21289103E-01 0.91546034E+02</pdfrwt>
<pdfrwt beam="2">  1       -1 0.23293514E-02 0.91546034E+02</pdfrwt>
<totfact> 0.10929554E+05</totfact>
</mgrwt>
</event>
<event>
 5    1  0.3858870E+001  0.6705514E+02  0.7546771E-02  0.1370403E+00
          2   -1    0    0  501    0  0.00000000000E+00  0.00000000000E+00  0.33056361245E+02  0.33056361245E+02  0.00000000000E+00 0. -1.
         -2   -1    0    0    0  501 -0.00000000000E+00 -0.00000000000E+00 -0.34005500503E+02  0.34005500503E+02  0.00000000000E+00 0.  1.
         23    2    1    2    0    0  0.00000000000E+00  0.00000000000E+00 -0.94913925807E+00  0.67061861748E+02  0.67055144738E+02 0.  0.
          2    1    3    3  502    0 -0.21240666421E+02 -0.20041796850E+02  0.15997009695E+02  0.33297805485E+02  0.00000000000E+00 0.  1.
         -2    1    3    3    0  502  0.21240666421E+02  0.20041796850E+02 -0.16946148953E+02  0.33764056263E+02  0.00000000000E+00 0. -1.
<mgrwt>
<rscale>  0 0.67055145E+02</rscale>
<asrwt>0</asrwt>
<pdfrwt beam="1">  1        2 0.50855940E-02 0.67055145E+02</pdfrwt>
<pdfrwt beam="2">  1       -2 0.52316155E-02 0.67055145E+02</pdfrwt>
<totfact> 0.21734765E+05</totfact>
</mgrwt>
</event>
<event>
 4    1  0.3858870E+001  0.1346124E+03  0.7546771E-02  0.1220768E+00
          1   -1    0    0  501    0  0.00000000000E+00  0.00000000000E+00  0.51594996026E+03  0.51594996026E+03  0.00000000000E+00 0. -1.
         -1   -1    0    0    0  501 -0.00000000000E+00 -0.00000000000E+00 -0.87801675909E+01  0.87801675909E+01  0.00000000000E+00 0.  1.
          2    1    1    2  502    0  0.43373153034E+02 -0.10300764174E+02  0.45014987370E+03  0.45235190387E+03  0.00000000000E+00 0. -1.
         -2    1    1    2    0  502 -0.43373153034E+02  0.10300764174E+02  0.57019918968E+02  0.72378223976E+02  0.00000000000E+00 0.  1.
<mgrwt>
<rscale>  0 0.13461244E+03</rscale>
<asrwt>0</asrwt>
<pdfrwt beam="1">  1        1 0.79376893E-01 0.13461244E+03</pdfrwt>
<pdfrwt beam="2">  1       -1 0.13507954E-02 0.13461244E+03</pdfrwt>
<totfact> 0.48801150E+04</totfact>
</mgrwt>
</event>
<event>
 5    1  0.3858870E+001  0.8887340E+02  0.7546771E-02  0.1305603E+00
         -1   -1    0    0    0  501 -0.00000000000E+00  0.00000000000E+00  0.27123903005E+02  0.27123903005E+02  0.00000000000E+00 0.  1.
          1   -1    0    0  501    0  0.00000000000E+00 -0.00000000000E+00 -0.72800014030E+02  0.72800014030E+02  0.00000000000E+00 0. -1.
         23    2    1    2    0    0  0.00000000000E+00  0.00000000000E+00 -0.45676111024E+02  0.99923917035E+02  0.88873404780E+02 0.  0.
          2    1    3    3  502    0 -0.79283507617E+01  0.32701167507E+02  0.97948414277E+01  0.35045171146E+02  0.00000000000E+00 0.  1.
         -2    1    3    3    0  502  0.79283507617E+01 -0.32701167507E+02 -0.55470952452E+02  0.64878745888E+02  0.00000000000E+00 0. -1.
<mgrwt>
<rscale>  0 0.88873405E+02</rscale>
<asrwt>0</asrwt>
<pdfrwt beam="2">  1        1 0.11200002E-01 0.88873405E+02</pdfrwt>
<pdfrwt beam="1">  1       -1 0.41729081E-02 0.88873405E+02</pdfrwt>
<totfact> 0.10649565E+05</totfact>
</mgrwt>
</event>
<event>
 5    1  0.3858870E+001  0.9043626E+02  0.7546771E-02  0.1301799E+00
         -1   -1    0    0    0  501 -0.00000000000E+00  0.00000000000E+00  0.19925764334E+02  0.19925764334E+02  0.00000000000E+00 0.  1.
          1   -1    0    0  501    0  0.00000000000E+00 -0.00000000000E+00 -0.10261485255E+03  0.10261485255E+03  0.00000000000E+00 0. -1.
         23    2    1    2    0    0  0.00000000000E+00  0.00000000000E+00 -0.82689088220E+02  0.12254061689E+03  0.90436261956E+02 0.  0.
          2    1    3    3  502    0  0.79975110395E+01  0.39250056823E+02 -0.69772059958E+02  0.80452889906E+02  0.00000000000E+00 0. -1.
         -2    1    3    3    0  502 -0.79975110395E+01 -0.39250056823E+02 -0.12917028262E+02  0.42087726982E+02  0.00000000000E+00 0.  1.
<mgrwt>
<rscale>  0 0.90436262E+02</rscale>
<asrwt>0</asrwt>
<pdfrwt beam="2">  1        1 0.15786901E-01 0.90436262E+02</pdfrwt>
<pdfrwt beam="1">  1       -1 0.30655021E-02 0.90436262E+02</pdfrwt>
<totfact> 0.10725634E+05</totfact>
</mgrwt>
</event>
<event>
 5    1  0.3858870E+001  0.8883069E+02  0.7546771E-02  0.1305708E+00
          3   -1    0    0  501    0  0.00000000000E+00  0.00000000000E+00  0.41427687733E+01  0.41427687733E+01  0.00000000000E+00 0. -1.
         -3   -1    0    0    0  501 -0.00000000000E+00 -0.00000000000E+00 -0.47618467770E+03  0.47618467770E+03  0.00000000000E+00 0.  1.
         23    2    1    2    0    0  0.00000000000E+00  0.00000000000E+00 -0.47204190893E+03  0.48032744647E+03  0.88830693189E+02 0.  0.
          2    1    3    3  502    0 -0.23193571080E+02  0.14806242689E+02 -0.47499006511E+02  0.54893735358E+02  0.00000000000E+00 0. -1.
         -2    1    3    3    0  502  0.23193571080E+02 -0.14806242689E+02 -0.42454290242E+03  0.42543371112E+03  0.00000000000E+00 0.  1.
<mgrwt>
<rscale>  0 0.88830693E+02</rscale>
<asrwt>0</asrwt>
<pdfrwt beam="1">  1        3 0.63734913E-03 0.88830693E+02</pdfrwt>
<pdfrwt beam="2">  1       -3 0.73259172E-01 0.88830693E+02</pdfrwt>
<totfact> 0.19699192E+04</totfact>
</mgrwt>
</event>
<event>
 5    1  0.3858870E+001  0.9144740E+02  0.7546771E-02  0.1299384E+00
         -2   -1    0    0    0  501 -0.00000000000E+00  0.00000000000E+00  0.17902644404E+03  0.17902644404E+03  0.00000000000E+00 0.  1.
          2   -1    0    0  501    0  0.00000000000E+00 -0.00000000000E+00 -0.11677920144E+02  0.11677920144E+02  0.00000000000E+00 0. -1.
         23    2    1    2    0    0  0.00000000000E+00  0.00000000000E+00  0.16734852390E+03  0.19070436418E+03  0.91447395091E+02 0.  0.
          2    1    3    3  502    0  0.79028266483E+01 -0.31334738125E+02  0.16217594195E+02  0.36157030352E+02  0.00000000000E+00 0. -1.
         -2    1    3    3    0  502 -0.79028266483E+01  0.31334738125E+02  0.15113092970E+03  0.15454733383E+03  0.00000000000E+00 0.  1.
<mgrwt>
<rscale>  0 0.91447395E+02</rscale>
<asrwt>0</asrwt>
<pdfrwt beam="2">  1        2 0.17966032E-02 0.91447395E+02</pdfrwt>
<pdfrwt beam="1">  1       -2 0.27542528E-01 0.91447395E+02</pdfrwt>
<totfact> 0.64785867E+04</totfact>
</mgrwt>
</event>
<event>
 5    1  0.3858870E+001  0.9341762E+02  0.7546771E-02  0.1294780E+00
          2   -1    0    0  501    0  0.00000000000E+00  0.00000000000E+00  0.56465140201E+03  0.56465140201E+03  0.00000000000E+00 0. -1.
         -2   -1    0    0    0  501 -0.00000000000E+00 -0.00000000000E+00 -0.38638223415E+01  0.38638223415E+01  0.00000000000E+00 0.  1.
         23    2    1    2    0    0  0.00000000000E+00  0.00000000000E+00  0.56078757967E+03  0.56851522435E+03  0.93417615090E+02 0.  0.
          2    1    3    3  502    0  0.43426087651E+02 -0.79098424671E+01  0.37335273223E+03  0.37595299355E+03  0.00000000000E+00 0. -1.
         -2    1    3    3    0  502 -0.43426087651E+02  0.79098424671E+01  0.18743484744E+03  0.19256223080E+03  0.00000000000E+00 0.  1.
<mgrwt>
<rscale>  0 0.93417615E+02</rscale>
<asrwt>0</asrwt>
<pdfrwt beam="1">  1        2 0.86869381E-01 0.93417615E+02</pdfrwt>
<pdfrwt beam="2">  1       -2 0.59443465E-03 0.93417615E+02</pdfrwt>
<totfact> 0.20991599E+05</totfact>
</mgrwt>
</event>
<event>
 5    1  0.3858870E+001  0.9532223E+02  0.7546771E-02  0.1290452E+00
         -2   -1    0    0    0  501 -0.00000000000E+00  0.00000000000E+00  0.25767802756E+01  0.25767802756E+01  0.00000000000E+00 0.  1.
          2   -1    0    0  501    0  0.00000000000E+00 -0.00000000000E+00 -0.88155832369E+03  0.88155832369E+03  0.00000000000E+00 0. -1.
         23    2    1    2    0    0  0.00000000000E+00  0.00000000000E+00 -0.87898154341E+03  0.88413510396E+03  0.95322234558E+02 0.  0.
          2    1    3    3  502    0  0.39031888485E+02 -0.26867370374E+02 -0.39198007899E+03  0.39483379571E+03  0.00000000000E+00 0. -1.
         -2    1    3    3    0  502 -0.39031888485E+02  0.26867370374E+02 -0.48700146442E+03  0.48930130825E+03  0.00000000000E+00 0.  1.
<mgrwt>
<rscale>  0 0.95322235E+02</rscale>
<asrwt>0</asrwt>
<pdfrwt beam="2">  1        2 0.13562438E+00 0.95322235E+02</pdfrwt>
<pdfrwt beam="1">  1       -2 0.39642768E-03 0.95322235E+02</pdfrwt>
<totfact> 0.21993975E+05</totfact>
</mgrwt>
</event>
<event>
 5    1  0.3858870E+001  0.9220742E+02  0.7546771E-02  0.1297592E+00
         -3   -1    0    0    0  501 -0.00000000000E+00  0.00000000000E+00  0.25694013783E+02  0.25694013783E+02  0.00000000000E+00 0.  1.
          3   -1    0    0  501    0  0.00000000000E+00 -0.00000000000E+00 -0.82725580117E+02  0.82725580117E+02  0.00000000000E+00 0. -1.
         23    2    1    2    0    0  0.00000000000E+00  0.00000000000E+00 -0.57031566334E+02  0.10841959390E+03  0.92207422602E+02 0.  0.
          2    1    3    3  502    0 -0.12614709876E+02  0.40348184488E+02 -0.68843080391E+01  0.42831070427E+02  0.00000000000E+00 0.  1.
         -2    1    3    3    0  502  0.12614709876E+02 -0.40348184488E+02 -0.50147258295E+02  0.65588523472E+02  0.00000000000E+00 0. -1.
<mgrwt>
<rscale>  0 0.92207423E+02</rscale>
<asrwt>0</asrwt>
<pdfrwt beam="2">  1        3 0.12727012E-01 0.92207423E+02</pdfrwt>
<pdfrwt beam="1">  1       -3 0.39529252E-02 0.92207423E+02</pdfrwt>
<totfact> 0.33030402E+04</totfact>
</mgrwt>
</event>
<event>
 5    1  0.3858870E+001  0.8440763E+02  0.7546771E-02  0.1316989E+00
          2   -1    0    0  501    0  0.00000000000E+00  0.00000000000E+00  0.46471051130E+03  0.46471051130E+03  0.00000000000E+00 0. -1.
         -2   -1    0    0    0  501 -0.00000000000E+00 -0.00000000000E+00 -0.38328420249E+01  0.38328420249E+01  0.00000000000E+00 0.  1.
         23    2    1    2    0    0  0.00000000000E+00  0.00000000000E+00  0.46087766927E+03  0.46854335332E+03  0.84407629445E+02 0.  0.
          2    1    3    3  502    0  0.40216354820E+02  0.86677475459E+01  0.28271135180E+03  0.28568898033E+03  0.00000000000E+00 0. -1.
         -2    1    3    3    0  502 -0.40216354820E+02 -0.86677475459E+01  0.17816631747E+03  0.18285437300E+03  0.00000000000E+00 0.  1.
<mgrwt>
<rscale>  0 0.84407629E+02</rscale>
<asrwt>0</asrwt>
<pdfrwt beam="1">  1        2 0.71493880E-01 0.84407629E+02</pdfrwt>
<pdfrwt beam="2">  1       -2 0.58966837E-03 0.84407629E+02</pdfrwt>
<totfact> 0.25779115E+05</totfact>
</mgrwt>
</event>
<event>
 5    1  0.3858870E+001  0.8934502E+02  0.7546771E-02  0.1304446E+00
         -2   -1    0    0    0  501 -0.00000000000E+00  0.00000000000E+00  0.20388429465E+01  0.20388429465E+01  0.00000000000E+00 0.  1.
          2   -1    0    0  501    0  0.00000000000E+00 -0.00000000000E+00 -0.97880665550E+03  0.97880665550E+03  0.00000000000E+00 0. -1.
         23    2    1    2    0    0  0.00000000000E+00  0.00000000000E+00 -0.97676781256E+03  0.98084549845E+03  0.89345017668E+02 0.  0.
          2    1    3    3  502    0 -0.19323397313E+02 -0.35466189247E+02 -0.69794601671E+03  0.69911364348E+03  0.00000000000E+00 0. -1.
         -2    1    3    3    0  502  0.19323397313E+02  0.35466189247E+02 -0.27882179585E+03  0.28173185497E+03  0.00000000000E+00 0.  1.
<mgrwt>
<rscale>  0 0.89345018E+02</rscale>
<asrwt>0</asrwt>
<pdfrwt beam="2">  1        2 0.15058568E+00 0.89345018E+02</pdfrwt>
<pdfrwt beam="1">  1       -2 0.31366806E-03 0.89345018E+02</pdfrwt>
<totfact> 0.26343566E+05</totfact>
</mgrwt>
</event>
<event>
 5    1  0.3858870E+001  0.7908147E+02  0.7546771E-02  0.1331678E+00
          1   -1    0    0  501    0  0.00000000000E+00  0.00000000000E+00  0.67316571277E+03  0.67316571277E+03  0.00000000000E+00 0. -1.
         -1   -1    0    0    0  501 -0.00000000000E+00 -0.00000000000E+00 -0.23225628000E+01  0.23225628000E+01  0.00000000000E+00 0.  1.
         23    2    1    2    0    0  0.00000000000E+00  0.00000000000E+00  0.67084314997E+03  0.67548827557E+03  0.79081467935E+02 0.  0.
          2    1    3    3  502    0  0.49614092224E+01 -0.39088883847E+02  0.30720400804E+03  0.30972061439E+03  0.00000000000E+00 0. -1.
         -2    1    3    3    0  502 -0.49614092224E+01  0.39088883847E+02  0.36363914193E+03  0.36576766118E+03  0.00000000000E+00 0.  1.
<mgrwt>
<rscale>  0 0.79081468E+02</rscale>
<asrwt>0</asrwt>
<pdfrwt beam="1">  1        1 0.10356380E+00 0.79081468E+02</pdfrwt>
<pdfrwt beam="2">  1       -1 0.35731789E-03 0.79081468E+02</pdfrwt>
<totfact> 0.20661802E+05</totfact>
</mgrwt>
</event>
<event>
 5    1  0.3858870E+001  0.8637149E+02  0.7546771E-02  0.1311884E+00
          2   -1    0    0  501    0  0.00000000000E+00  0.00000000000E+00  0.10367582528E+03  0.10367582528E+03  0.00000000000E+00 0. -1.
         -2   -1    0    0    0  501 -0.00000000000E+00 -0.00000000000E+00 -0.17988845449E+02  0.17988845449E+02  0.00000000000E+00 0.  1.
         23    2    1    2    0    0  0.00000000000E+00  0.00000000000E+00  0.85686979832E+02  0.12166467073E+03  0.86371485983E+02 0.  0.
          2    1    3    3  502    0  0.19243970909E+02 -0.11046890623E+02  0.95031781658E+02  0.97587928218E+02  0.00000000000E+00 0. -1.
         -2    1    3    3    0  502 -0.19243970909E+02  0.11046890623E+02 -0.93448018262E+01  0.24076742511E+02  0.00000000000E+00 0.  1.
<mgrwt>
<rscale>  0 0.86371486E+02</rscale>
<asrwt>0</asrwt>
<pdfrwt beam="1">  1        2 0.15950127E-01 0.86371486E+02</pdfrwt>
<pdfrwt beam="2">  1       -2 0.27675147E-02 0.86371486E+02</pdfrwt>
<totfact> 0.14384544E+05</totfact>
</mgrwt>
</event>
<event>
 5    1  0.3858870E+001  0.9031412E+02  0.7546771E-02  0.1302093E+00
          3   -1    0    0  501    0  0.00000000000E+00  0.00000000000E+00  0.11252614770E+03  0.11252614770E+03  0.00000000000E+00 0. -1.
         -3   -1    0    0    0  501 -0.00000000000E+00 -0.00000000000E+00 -0.18121655664E+02  0.18121655664E+02  0.00000000000E+00 0.  1.
         23    2    1    2    0    0  0.00000000000E+00  0.00000000000E+00  0.94404492037E+02  0.13064780337E+03  0.90314120753E+02 0.  0.
          2    1    3    3  502    0 -0.44095590321E+02  0.43980006249E+01  0.34641299869E+02  0.56247516851E+02  0.00000000000E+00 0.  1.
         -2    1    3    3    0  502  0.44095590321E+02 -0.43980006249E+01  0.59763192169E+02  0.74400286515E+02  0.00000000000E+00 0. -1.
<mgrwt>
<rscale>  0 0.90314121E+02</rscale>
<asrwt>0</asrwt>
<pdfrwt beam="1">  1        3 0.17311715E-01 0.90314121E+02</pdfrwt>
<pdfrwt beam="2">  1       -3 0.27879471E-02 0.90314121E+02</pdfrwt>
<totfact> 0.33381678E+04</totfact>
</mgrwt>
</event>
<event>
 5    1  0.3858870E+001  0.9145695E+02  0.7546771E-02  0.1299361E+00
          1   -1    0    0  501    0  0.00000000000E+00  0.00000000000E+00  0.52925256095E+03  0.52925256095E+03  0.00000000000E+00 0. -1.
         -1   -1    0    0    0  501 -0.00000000000E+00 -0.00000000000E+00 -0.39510315798E+01  0.39510315798E+01  0.00000000000E+00 0.  1.
         23    2    1    2    0    0  0.00000000000E+00  0.00000000000E+00  0.52530152937E+03  0.53320359253E+03  0.91456953416E+02 0.  0.
          2    1    3    3  502    0  0.37787323586E+02  0.21676315737E+02  0.34371838182E+03  0.34646799345E+03  0.00000000000E+00 0. -1.
         -2    1    3    3    0  502 -0.37787323586E+02 -0.21676315737E+02  0.18158314755E+03  0.18673559908E+03  0.00000000000E+00 0.  1.
<mgrwt>
<rscale>  0 0.91456953E+02</rscale>
<asrwt>0</asrwt>
<pdfrwt beam="1">  1        1 0.81423415E-01 0.91456953E+02</pdfrwt>
<pdfrwt beam="2">  1       -1 0.60785143E-03 0.91456953E+02</pdfrwt>
<totfact> 0.13900606E+05</totfact>
</mgrwt>
</event>
<event>
 5    1  0.3858870E+001  0.9151176E+02  0.7546771E-02  0.1299231E+00
         -2   -1    0    0    0  501 -0.00000000000E+00  0.00000000000E+00  0.11015687541E+01  0.11015687541E+01  0.00000000000E+00 0.  1.
          2   -1    0    0  501    0  0.00000000000E+00 -0.00000000000E+00 -0.19005629166E+04  0.19005629166E+04  0.00000000000E+00 0. -1.
         23    2    1    2    0    0  0.00000000000E+00  0.00000000000E+00 -0.18994613478E+04  0.19016644853E+04  0.91511763704E+02 0.  0.
          2    1    3    3  502    0 -0.30588136171E+02  0.32297550485E+02 -0.11724171717E+04  0.11732607512E+04  0.00000000000E+00 0. -1.
         -2    1    3    3    0  502  0.30588136171E+02 -0.32297550485E+02 -0.72704417617E+03  0.72840373416E+03  0.00000000000E+00 0.  1.
<mgrwt>
<rscale>  0 0.91511764E+02</rscale>
<asrwt>0</asrwt>
<pdfrwt beam="2">  1        2 0.29239284E+00 0.91511764E+02</pdfrwt>
<pdfrwt beam="1">  1       -2 0.16947296E-03 0.91511764E+02</pdfrwt>
<totfact> 0.20376570E+05</totfact>
</mgrwt>
</event>
<event>
 5    1  0.3858870E+001  0.9085248E+02  0.7546771E-02  0.1300800E+00
         -1   -1    0    0    0  501 -0.00000000000E+00  0.00000000000E+00  0.51686405020E+03  0.51686405020E+03  0.00000000000E+00 0.  1.
          1   -1    0    0  501    0  0.00000000000E+00 -0.00000000000E+00 -0.39924296147E+01  0.39924296147E+01  0.00000000000E+00 0. -1.
         23    2    1    2    0    0  0.00000000000E+00  0.00000000000E+00  0.51287162059E+03  0.52085647982E+03  0.90852481327E+02 0.  0.
          2    1    3    3  502    0 -0.53738603920E+01 -0.25119333497E+02  0.41644869173E+02  0.48930097274E+02  0.00000000000E+00 0. -1.
         -2    1    3    3    0  502  0.53738603920E+01  0.25119333497E+02  0.47122675142E+03  0.47192638254E+03  0.00000000000E+00 0.  1.
<mgrwt>
<rscale>  0 0.90852481E+02</rscale>
<asrwt>0</asrwt>
<pdfrwt beam="2">  1        1 0.61422035E-03 0.90852481E+02</pdfrwt>
<pdfrwt beam="1">  1       -1 0.79517493E-01 0.90852481E+02</pdfrwt>
<totfact> 0.46507889E+04</totfact>
</mgrwt>
</event>
<event>
 5    1  0.3858870E+001  0.9132063E+02  0.7546771E-02  0.1299685E+00
         -2   -1    0    0    0  501 -0.00000000000E+00  0.00000000000E+00  0.98586472304E+00  0.98586472304E+00  0.00000000000E+00 0.  1.
          2   -1    0    0  501    0  0.00000000000E+00 -0.00000000000E+00 -0.21147569887E+04  0.21147569887E+04  0.00000000000E+00 0. -1.
         23    2    1    2    0    0  0.00000000000E+00  0.00000000000E+00 -0.21137711240E+04  0.21157428534E+04  0.91320628840E+02 0.  0.
          2    1    3    3  502    0  0.17831440694E+02  0.27790789945E+02 -0.17875416096E+04  0.17878465522E+04  0.00000000000E+00 0. -1.
         -2    1    3    3    0  502 -0.17831440694E+02 -0.27790789945E+02 -0.32622951439E+03  0.32789630121E+03  0.00000000000E+00 0.  1.
<mgrwt>
<rscale>  0 0.91320629E+02</rscale>
<asrwt>0</asrwt>
<pdfrwt beam="2">  1        2 0.32534712E+00 0.91320629E+02</pdfrwt>
<pdfrwt beam="1">  1       -2 0.15167154E-03 0.91320629E+02</pdfrwt>
<totfact> 0.18529440E+05</totfact>
</mgrwt>
</event>
<event>
 5    1  0.3858870E+001  0.9219959E+02  0.7546771E-02  0.1297611E+00
         -3   -1    0    0    0  501 -0.00000000000E+00  0.00000000000E+00  0.44922343971E+01  0.44922343971E+01  0.00000000000E+00 0.  1.
          3   -1    0    0  501    0  0.00000000000E+00 -0.00000000000E+00 -0.47308107283E+03  0.47308107283E+03  0.00000000000E+00 0. -1.
         23    2    1    2    0    0  0.00000000000E+00  0.00000000000E+00 -0.46858883843E+03  0.47757330723E+03  0.92199589326E+02 0.  0.
          2    1    3    3  502    0  0.24489474890E+02  0.34503094622E+02 -0.32909893427E+03  0.33180763472E+03  0.00000000000E+00 0. -1.
         -2    1    3    3    0  502 -0.24489474890E+02 -0.34503094622E+02 -0.13948990416E+03  0.14576567251E+03  0.00000000000E+00 0.  1.
<mgrwt>
<rscale>  0 0.92199589E+02</rscale>
<asrwt>0</asrwt>
<pdfrwt beam="2">  1        3 0.72781660E-01 0.92199589E+02</pdfrwt>
<pdfrwt beam="1">  1       -3 0.69111340E-03 0.92199589E+02</pdfrwt>
<totfact> 0.17925025E+04</totfact>
</mgrwt>
</event>
<event>
 5    1  0.3858870E+001  0.9083061E+02  0.7546771E-02  0.1300853E+00
         -2   -1    0    0    0  501 -0.00000000000E+00  0.00000000000E+00  0.20089973641E+01  0.20089973641E+01  0.00000000000E+00 0. -1.
          2   -1    0    0  501    0  0.00000000000E+00 -0.00000000000E+00 -0.10266564292E+04  0.10266564292E+04  0.00000000000E+00 0.  1.
         23    2    1    2    0    0  0.00000000000E+00  0.00000000000E+00 -0.10246474318E+04  0.10286654266E+04  0.90830612904E+02 0.  0.
          2    1    3    3  502    0  0.21823268416E+02  0.36146614222E+02 -0.32291430235E+03  0.32566313796E+03  0.00000000000E+00 0. -1.
         -2    1    3    3    0  502 -0.21823268416E+02 -0.36146614222E+02 -0.70173312949E+03  0.70300228861E+03  0.00000000000E+00 0.  1.
<mgrwt>
<rscale>  0 0.90830613E+02</rscale>
<asrwt>0</asrwt>
<pdfrwt beam="2">  1        2 0.15794709E+00 0.90830613E+02</pdfrwt>
<pdfrwt beam="1">  1       -2 0.30907663E-03 0.90830613E+02</pdfrwt>
<totfact> 0.25275586E+05</totfact>
</mgrwt>
</event>
<event>
 5    1  0.3858870E+001  0.8957343E+02  0.7546771E-02  0.1303888E+00
         -1   -1    0    0    0  501 -0.00000000000E+00  0.00000000000E+00  0.71877620994E+01  0.71877620994E+01  0.00000000000E+00 0.  1.
          1   -1    0    0  501    0  0.00000000000E+00 -0.00000000000E+00 -0.27906456864E+03  0.27906456864E+03  0.00000000000E+00 0. -1.
         23    2    1    2    0    0  0.00000000000E+00  0.00000000000E+00 -0.27187680654E+03  0.28625233074E+03  0.89573427527E+02 0.  0.
          2    1    3    3  502    0 -0.36983608273E+02 -0.39678630012E+01 -0.21566003858E+03  0.21884419905E+03  0.00000000000E+00 0. -1.
         -2    1    3    3    0  502  0.36983608273E+02  0.39678630012E+01 -0.56216767953E+02  0.67408131681E+02  0.00000000000E+00 0.  1.
<mgrwt>
<rscale>  0 0.89573428E+02</rscale>
<asrwt>0</asrwt>
<pdfrwt beam="2">  1        1 0.42933013E-01 0.89573428E+02</pdfrwt>
<pdfrwt beam="1">  1       -1 0.11058095E-02 0.89573428E+02</pdfrwt>
<totfact> 0.13246481E+05</totfact>
</mgrwt>
</event>
<event>
 5    1  0.3858870E+001  0.9646359E+02  0.7546771E-02  0.1287913E+00
          2   -1    0    0  501    0  0.00000000000E+00  0.00000000000E+00  0.67605526711E+03  0.67605526711E+03  0.00000000000E+00 0. -1.
         -2   -1    0    0    0  501 -0.00000000000E+00 -0.00000000000E+00 -0.34409999117E+01  0.34409999117E+01  0.00000000000E+00 0.  1.
         23    2    1    2    0    0  0.00000000000E+00  0.00000000000E+00  0.67261426720E+03  0.67949626702E+03  0.96463591359E+02 0.  0.
          2    1    3    3  502    0  0.38010818272E+02  0.28913506184E+02  0.28879595668E+03  0.29271815410E+03  0.00000000000E+00 0. -1.
         -2    1    3    3    0  502 -0.38010818272E+02 -0.28913506184E+02  0.38381831052E+03  0.38677811293E+03  0.00000000000E+00 0.  1.
<mgrwt>
<rscale>  0 0.96463591E+02</rscale>
<asrwt>0</asrwt>
<pdfrwt beam="1">  1        2 0.10400840E+00 0.96463591E+02</pdfrwt>
<pdfrwt beam="2">  1       -2 0.52938514E-03 0.96463591E+02</pdfrwt>
<totfact> 0.20258500E+05</totfact>
</mgrwt>
</event>
<event>
 5    1  0.3858870E+001  0.9046054E+02  0.7546771E-02  0.1301740E+00
          1   -1    0    0  501    0  0.00000000000E+00  0.00000000000E+00  0.60257336463E+01  0.60257336463E+01  0.00000000000E+00 0. -1.
         -1   -1    0    0    0  501 -0.00000000000E+00 -0.00000000000E+00 -0.33950673818E+03  0.33950673818E+03  0.00000000000E+00 0.  1.
         23    2    1    2    0    0  0.00000000000E+00  0.00000000000E+00 -0.33348100453E+03  0.34553247182E+03  0.90460536708E+02 0.  0.
          2    1    3    3  502    0 -0.24494170715E+02  0.30893470417E+01 -0.31150016301E+03  0.31247697518E+03  0.00000000000E+00 0.  1.
         -2    1    3    3    0  502  0.24494170715E+02 -0.30893470417E+01 -0.21980841520E+02  0.33055496640E+02  0.00000000000E+00 0. -1.
<mgrwt>
<rscale>  0 0.90460537E+02</rscale>
<asrwt>0</asrwt>
<pdfrwt beam="1">  1        1 0.92703600E-03 0.90460537E+02</pdfrwt>
<pdfrwt beam="2">  1       -1 0.52231803E-01 0.90460537E+02</pdfrwt>
<totfact> 0.58756540E+04</totfact>
</mgrwt>
</event>
<event>
 5    1  0.3858870E+001  0.8955128E+02  0.7546771E-02  0.1303942E+00
          3   -1    0    0  501    0  0.00000000000E+00  0.00000000000E+00  0.21902848834E+03  0.21902848834E+03  0.00000000000E+00 0. -1.
         -3   -1    0    0    0  501 -0.00000000000E+00 -0.00000000000E+00 -0.91534110372E+01  0.91534110372E+01  0.00000000000E+00 0.  1.
         23    2    1    2    0    0  0.00000000000E+00  0.00000000000E+00  0.20987507730E+03  0.22818189937E+03  0.89551276543E+02 0.  0.
          2    1    3    3  502    0  0.20350729012E+02 -0.23394409818E+01  0.20638844025E+03  0.20740253958E+03  0.00000000000E+00 0. -1.
         -2    1    3    3    0  502 -0.20350729012E+02  0.23394409818E+01  0.34866370468E+01  0.20779359791E+02  0.00000000000E+00 0.  1.
<mgrwt>
<rscale>  0 0.89551277E+02</rscale>
<asrwt>0</asrwt>
<pdfrwt beam="1">  1        3 0.33696687E-01 0.89551277E+02</pdfrwt>
<pdfrwt beam="2">  1       -3 0.14082172E-02 0.89551277E+02</pdfrwt>
<totfact> 0.28446768E+04</totfact>
</mgrwt>
</event>
<event>
 5    1  0.3858870E+001  0.9460233E+02  0.7546771E-02  0.1292074E+00
         -3   -1    0    0    0  501 -0.00000000000E+00  0.00000000000E+00  0.17737359349E+03  0.17737359349E+03  0.00000000000E+00 0.  1.
          3   -1    0    0  501    0  0.00000000000E+00 -0.00000000000E+00 -0.12614055895E+02  0.12614055895E+02  0.00000000000E+00 0. -1.
         23    2    1    2    0    0  0.00000000000E+00  0.00000000000E+00  0.16475953760E+03  0.18998764939E+03  0.94602334486E+02 0.  0.
          2    1    3    3  502    0  0.89582387350E+01 -0.24588007320E+02  0.16151147838E+03  0.16361777957E+03  0.00000000000E+00 0.  1.
         -2    1    3    3    0  502 -0.89582387350E+01  0.24588007320E+02  0.32480592200E+01  0.26369869812E+02  0.00000000000E+00 0. -1.
<mgrwt>
<rscale>  0 0.94602334E+02</rscale>
<asrwt>0</asrwt>
<pdfrwt beam="2">  1        3 0.19406241E-02 0.94602334E+02</pdfrwt>
<pdfrwt beam="1">  1       -3 0.27288243E-01 0.94602334E+02</pdfrwt>
<totfact> 0.26264170E+04</totfact>
</mgrwt>
</event>
<event>
 5    1  0.3858870E+001  0.9126251E+02  0.7546771E-02  0.1299823E+00
         -1   -1    0    0    0  501 -0.00000000000E+00  0.00000000000E+00  0.49641964845E+01  0.49641964845E+01  0.00000000000E+00 0.  1.
          1   -1    0    0  501    0  0.00000000000E+00 -0.00000000000E+00 -0.41944578150E+03  0.41944578150E+03  0.00000000000E+00 0. -1.
         23    2    1    2    0    0  0.00000000000E+00  0.00000000000E+00 -0.41448158501E+03  0.42440997798E+03  0.91262506517E+02 0.  0.
          2    1    3    3  502    0  0.43130185307E+02  0.60573974435E+01 -0.27054583657E+03  0.27402911275E+03  0.00000000000E+00 0. -1.
         -2    1    3    3    0  502 -0.43130185307E+02 -0.60573974435E+01 -0.14393574844E+03  0.15038086523E+03  0.00000000000E+00 0.  1.
<mgrwt>
<rscale>  0 0.91262507E+02</rscale>
<asrwt>0</asrwt>
<pdfrwt beam="2">  1        1 0.64530140E-01 0.91262507E+02</pdfrwt>
<pdfrwt beam="1">  1       -1 0.76372230E-03 0.91262507E+02</pdfrwt>
<totfact> 0.13558140E+05</totfact>
</mgrwt>
</event>
<event>
 5    1  0.3858870E+001  0.8860598E+02  0.7546771E-02  0.1306263E+00
         -2   -1    0    0    0  501 -0.00000000000E+00  0.00000000000E+00  0.22365913724E+01  0.22365913724E+01  0.00000000000E+00 0.  1.
          2   -1    0    0  501    0  0.00000000000E+00 -0.00000000000E+00 -0.87756528089E+03  0.87756528089E+03  0.00000000000E+00 0. -1.
         23    2    1    2    0    0  0.00000000000E+00  0.00000000000E+00 -0.87532868952E+03  0.87980187226E+03  0.88605980294E+02 0.  0.
          2    1    3    3  502    0 -0.22989119557E+02 -0.19507434704E+02 -0.75998155246E+03  0.76057938422E+03  0.00000000000E+00 0. -1.
         -2    1    3    3    0  502  0.22989119557E+02  0.19507434704E+02 -0.11534713706E+03  0.11922248804E+03  0.00000000000E+00 0.  1.
<mgrwt>
<rscale>  0 0.88605980E+02</rscale>
<asrwt>0</asrwt>
<pdfrwt beam="2">  1        2 0.13501025E+00 0.88605980E+02</pdfrwt>
<pdfrwt beam="1">  1       -2 0.34409046E-03 0.88605980E+02</pdfrwt>
<totfact> 0.26650548E+05</totfact>
</mgrwt>
</event>
<event>
 5    1  0.3858870E+001  0.9061383E+02  0.7546771E-02  0.1301372E+00
          1   -1    0    0  501    0  0.00000000000E+00  0.00000000000E+00  0.52613129861E+03  0.52613129861E+03  0.00000000000E+00 0. -1.
         -1   -1    0    0    0  501 -0.00000000000E+00 -0.00000000000E+00 -0.39015291830E+01  0.39015291830E+01  0.00000000000E+00 0.  1.
         23    2    1    2    0    0  0.00000000000E+00  0.00000000000E+00  0.52222976942E+03  0.53003282779E+03  0.90613831518E+02 0.  0.
          2    1    3    3  502    0 -0.25085024010E+02  0.87686598286E+01  0.47576075957E+03  0.47650230657E+03  0.00000000000E+00 0. -1.
         -2    1    3    3    0  502  0.25085024010E+02 -0.87686598286E+01  0.46469009856E+02  0.53530521217E+02  0.00000000000E+00 0.  1.
<mgrwt>
<rscale>  0 0.90613832E+02</rscale>
<asrwt>0</asrwt>
<pdfrwt beam="1">  1        1 0.80943220E-01 0.90613832E+02</pdfrwt>
<pdfrwt beam="2">  1       -1 0.60023568E-03 0.90613832E+02</pdfrwt>
<totfact> 0.14237109E+05</totfact>
</mgrwt>
</event>
<event>
 5    1  0.3858870E+001  0.9292429E+02  0.7546771E-02  0.1295921E+00
          1   -1    0    0  501    0  0.00000000000E+00  0.00000000000E+00  0.11896185244E+04  0.11896185244E+04  0.00000000000E+00 0. -1.
         -1   -1    0    0    0  501 -0.00000000000E+00 -0.00000000000E+00 -0.18146413352E+01  0.18146413352E+01  0.00000000000E+00 0.  1.
         23    2    1    2    0    0  0.00000000000E+00  0.00000000000E+00  0.11878038830E+04  0.11914331657E+04  0.92924290634E+02 0.  0.
          2    1    3    3  502    0 -0.23060779421E+02 -0.57248089179E+00  0.11110099981E+04  0.11112494514E+04  0.00000000000E+00 0. -1.
         -2    1    3    3    0  502  0.23060779421E+02  0.57248089179E+00  0.76793884927E+02  0.80183714332E+02  0.00000000000E+00 0.  1.
<mgrwt>
<rscale>  0 0.92924291E+02</rscale>
<asrwt>0</asrwt>
<pdfrwt beam="1">  1        1 0.18301761E+00 0.92924291E+02</pdfrwt>
<pdfrwt beam="2">  1       -1 0.27917654E-03 0.92924291E+02</pdfrwt>
<totfact> 0.12155462E+05</totfact>
</mgrwt>
</event>
<event>
 5    1  0.3858870E+001  0.8987730E+02  0.7546771E-02  0.1303149E+00
         -1   -1    0    0    0  501 -0.00000000000E+00  0.00000000000E+00  0.22734858887E+01  0.22734858887E+01  0.00000000000E+00 0.  1.
          1   -1    0    0  501    0  0.00000000000E+00 -0.00000000000E+00 -0.88827574509E+03  0.88827574509E+03  0.00000000000E+00 0. -1.
         23    2    1    2    0    0  0.00000000000E+00  0.00000000000E+00 -0.88600225921E+03  0.89054923098E+03  0.89877302403E+02 0.  0.
          2    1    3    3  502    0  0.27539832846E+02 -0.91983863329E+01 -0.78285395755E+03  0.78339222077E+03  0.00000000000E+00 0. -1.
         -2    1    3    3    0  502 -0.27539832846E+02  0.91983863329E+01 -0.10314830165E+03  0.10715701021E+03  0.00000000000E+00 0.  1.
<mgrwt>
<rscale>  0 0.89877302E+02</rscale>
<asrwt>0</asrwt>
<pdfrwt beam="2">  1        1 0.13665802E+00 0.89877302E+02</pdfrwt>
<pdfrwt beam="1">  1       -1 0.34976651E-03 0.89877302E+02</pdfrwt>
<totfact> 0.14487395E+05</totfact>
</mgrwt>
</event>
<event>
 5    1  0.3858870E+001  0.9379119E+02  0.7546771E-02  0.1293922E+00
         -2   -1    0    0    0  501 -0.00000000000E+00  0.00000000000E+00  0.39564326779E+01  0.39564326779E+01  0.00000000000E+00 0.  1.
          2   -1    0    0  501    0  0.00000000000E+00 -0.00000000000E+00 -0.55585349976E+03  0.55585349976E+03  0.00000000000E+00 0. -1.
         23    2    1    2    0    0  0.00000000000E+00  0.00000000000E+00 -0.55189706708E+03  0.55980993244E+03  0.93791192563E+02 0.  0.
          2    1    3    3  502    0 -0.23882721907E+02  0.42475095943E+01 -0.51549814492E+03  0.51606856440E+03  0.00000000000E+00 0. -1.
         -2    1    3    3    0  502  0.23882721907E+02 -0.42475095943E+01 -0.36398922158E+02  0.43741368037E+02  0.00000000000E+00 0.  1.
<mgrwt>
<rscale>  0 0.93791193E+02</rscale>
<asrwt>0</asrwt>
<pdfrwt beam="2">  1        2 0.85515865E-01 0.93791193E+02</pdfrwt>
<pdfrwt beam="1">  1       -2 0.60868236E-03 0.93791193E+02</pdfrwt>
<totfact> 0.20672303E+05</totfact>
</mgrwt>
</event>
<event>
 5    1  0.3858870E+001  0.9002622E+02  0.7546771E-02  0.1302788E+00
          2   -1    0    0  501    0  0.00000000000E+00  0.00000000000E+00  0.86886566446E+03  0.86886566446E+03  0.00000000000E+00 0. -1.
         -2   -1    0    0    0  501 -0.00000000000E+00 -0.00000000000E+00 -0.23319829064E+01  0.23319829064E+01  0.00000000000E+00 0.  1.
         23    2    1    2    0    0  0.00000000000E+00  0.00000000000E+00  0.86653368155E+03  0.87119764736E+03  0.90026215681E+02 0.  0.
          2    1    3    3  502    0 -0.22008962037E+02 -0.38190873432E+02  0.34497498230E+03  0.34777963661E+03  0.00000000000E+00 0. -1.
         -2    1    3    3    0  502  0.22008962037E+02  0.38190873432E+02  0.52155869925E+03  0.52341801076E+03  0.00000000000E+00 0.  1.
<mgrwt>
<rscale>  0 0.90026216E+02</rscale>
<asrwt>0</asrwt>
<pdfrwt beam="1">  1        2 0.13367138E+00 0.90026216E+02</pdfrwt>
<pdfrwt beam="2">  1       -2 0.35876729E-03 0.90026216E+02</pdfrwt>
<totfact> 0.25526573E+05</totfact>
</mgrwt>
</event>
<event>
 5    1  0.3858870E+001  0.9640408E+02  0.7546771E-02  0.1288045E+00
          1   -1    0    0  501    0  0.00000000000E+00  0.00000000000E+00  0.34897340200E+03  0.34897340200E+03  0.00000000000E+00 0. -1.
         -1   -1    0    0    0  501 -0.00000000000E+00 -0.00000000000E+00 -0.66579194696E+01  0.66579194696E+01  0.00000000000E+00 0.  1.
         23    2    1    2    0    0  0.00000000000E+00  0.00000000000E+00  0.34231548253E+03  0.35563132147E+03  0.96404083057E+02 0.  0.
          2    1    3    3  502    0  0.38142556373E+02 -0.29471570745E+02  0.17081328882E+03  0.17748410556E+03  0.00000000000E+00 0. -1.
         -2    1    3    3    0  502 -0.38142556373E+02  0.29471570745E+02  0.17150219370E+03  0.17814721590E+03  0.00000000000E+00 0.  1.
<mgrwt>
<rscale>  0 0.96404083E+02</rscale>
<asrwt>0</asrwt>
<pdfrwt beam="1">  1        1 0.53688201E-01 0.96404083E+02</pdfrwt>
<pdfrwt beam="2">  1       -1 0.10242956E-02 0.96404083E+02</pdfrwt>
<totfact> 0.11355226E+05</totfact>
</mgrwt>
</event>
<event>
 5    1  0.3858870E+001  0.9067502E+02  0.7546771E-02  0.1301225E+00
         -2   -1    0    0    0  501 -0.00000000000E+00  0.00000000000E+00  0.29964124076E+02  0.29964124076E+02  0.00000000000E+00 0.  1.
          2   -1    0    0  501    0  0.00000000000E+00 -0.00000000000E+00 -0.68598359166E+02  0.68598359166E+02  0.00000000000E+00 0. -1.
         23    2    1    2    0    0  0.00000000000E+00  0.00000000000E+00 -0.38634235090E+02  0.98562483242E+02  0.90675018511E+02 0.  0.
          2    1    3    3  502    0  0.17062501000E+02 -0.11941950340E+02 -0.63091096139E+02  0.66439638246E+02  0.00000000000E+00 0. -1.
         -2    1    3    3    0  502 -0.17062501000E+02  0.11941950340E+02  0.24456861049E+02  0.32122844996E+02  0.00000000000E+00 0.  1.
<mgrwt>
<rscale>  0 0.90675019E+02</rscale>
<asrwt>0</asrwt>
<pdfrwt beam="2">  1        2 0.10553594E-01 0.90675019E+02</pdfrwt>
<pdfrwt beam="1">  1       -2 0.46098653E-02 0.90675019E+02</pdfrwt>
<totfact> 0.11171470E+05</totfact>
</mgrwt>
</event>
<event>
 5    1  0.3858870E+001  0.9703524E+02  0.7546771E-02  0.1286657E+00
          2   -1    0    0  501    0  0.00000000000E+00  0.00000000000E+00  0.20076117328E+03  0.20076117328E+03  0.00000000000E+00 0. -1.
         -2   -1    0    0    0  501 -0.00000000000E+00 -0.00000000000E+00 -0.11725171692E+02  0.11725171692E+02  0.00000000000E+00 0.  1.
         23    2    1    2    0    0  0.00000000000E+00  0.00000000000E+00  0.18903600159E+03  0.21248634497E+03  0.97035235371E+02 0.  0.
          2    1    3    3  502    0  0.39817637014E+02  0.10632573428E+02  0.15058092967E+03  0.15611890409E+03  0.00000000000E+00 0. -1.
         -2    1    3    3    0  502 -0.39817637014E+02 -0.10632573428E+02  0.38455071918E+02  0.56367440879E+02  0.00000000000E+00 0.  1.
<mgrwt>
<rscale>  0 0.97035235E+02</rscale>
<asrwt>0</asrwt>
<pdfrwt beam="1">  1        2 0.30886332E-01 0.97035235E+02</pdfrwt>
<pdfrwt beam="2">  1       -2 0.18038727E-02 0.97035235E+02</pdfrwt>
<totfact> 0.13088878E+05</totfact>
</mgrwt>
</event>
<event>
 5    1  0.3858870E+001  0.9159752E+02  0.7546771E-02  0.1299029E+00
         -1   -1    0    0    0  501 -0.00000000000E+00  0.00000000000E+00  0.65386626707E+01  0.65386626707E+01  0.00000000000E+00 0.  1.
          1   -1    0    0  501    0  0.00000000000E+00 -0.00000000000E+00 -0.32078827361E+03  0.32078827361E+03  0.00000000000E+00 0. -1.
         23    2    1    2    0    0  0.00000000000E+00  0.00000000000E+00 -0.31424961094E+03  0.32732693629E+03  0.91597517650E+02 0.  0.
          2    1    3    3  502    0  0.44591270484E+02 -0.97386676788E+01 -0.17063978938E+03  0.17663850309E+03  0.00000000000E+00 0. -1.
         -2    1    3    3    0  502 -0.44591270484E+02  0.97386676788E+01 -0.14360982156E+03  0.15068843320E+03  0.00000000000E+00 0.  1.
<mgrwt>
<rscale>  0 0.91597518E+02</rscale>
<asrwt>0</asrwt>
<pdfrwt beam="2">  1        1 0.49352040E-01 0.91597518E+02</pdfrwt>
<pdfrwt beam="1">  1       -1 0.10059481E-02 0.91597518E+02</pdfrwt>
<totfact> 0.12816915E+05</totfact>
</mgrwt>
</event>
<event>
 5    1  0.3858870E+001  0.9037737E+02  0.7546771E-02  0.1301940E+00
          2   -1    0    0  501    0  0.00000000000E+00  0.00000000000E+00  0.56221113521E+02  0.56221113521E+02  0.00000000000E+00 0. -1.
         -2   -1    0    0    0  501 -0.00000000000E+00 -0.00000000000E+00 -0.36321178940E+02  0.36321178940E+02  0.00000000000E+00 0.  1.
         23    2    1    2    0    0  0.00000000000E+00  0.00000000000E+00  0.19899934581E+02  0.92542292461E+02  0.90377367176E+02 0.  0.
          2    1    3    3  502    0  0.14633009575E+02 -0.14002658391E+02  0.51313382511E+02  0.55165774136E+02  0.00000000000E+00 0. -1.
         -2    1    3    3    0  502 -0.14633009575E+02  0.14002658391E+02 -0.31413447931E+02  0.37376518325E+02  0.00000000000E+00 0.  1.
<mgrwt>
<rscale>  0 0.90377367E+02</rscale>
<asrwt>0</asrwt>
<pdfrwt beam="1">  1        2 0.86494021E-02 0.90377367E+02</pdfrwt>
<pdfrwt beam="2">  1       -2 0.55878737E-02 0.90377367E+02</pdfrwt>
<totfact> 0.10687295E+05</totfact>
</mgrwt>
</event>
<event>
 5    1  0.3858870E+001  0.9151436E+02  0.7546771E-02  0.1299225E+00
          4   -1    0    0  501    0  0.00000000000E+00  0.00000000000E+00  0.27824835949E+02  0.27824835949E+02  0.00000000000E+00 0. -1.
         -4   -1    0    0    0  501 -0.00000000000E+00 -0.00000000000E+00 -0.75246428038E+02  0.75246428038E+02  0.00000000000E+00 0.  1.
         23    2    1    2    0    0  0.00000000000E+00  0.00000000000E+00 -0.47421592089E+02  0.10307126399E+03  0.91514359877E+02 0.  0.
          2    1    3    3  502    0  0.20171666611E+02  0.27536063618E+02  0.10610211238E+02  0.35745034843E+02  0.00000000000E+00 0. -1.
         -2    1    3    3    0  502 -0.20171666611E+02 -0.27536063618E+02 -0.58031803327E+02  0.67326229145E+02  0.00000000000E+00 0.  1.
<mgrwt>
<rscale>  0 0.91514360E+02</rscale>
<asrwt>0</asrwt>
<pdfrwt beam="1">  1        4 0.42807441E-02 0.91514360E+02</pdfrwt>
<pdfrwt beam="2">  1       -4 0.11576373E-01 0.91514360E+02</pdfrwt>
<totfact> 0.26007341E+04</totfact>
</mgrwt>
</event>
<event>
 5    1  0.3858870E+001  0.9721498E+02  0.7546771E-02  0.1286264E+00
          1   -1    0    0  501    0  0.00000000000E+00  0.00000000000E+00  0.22512899557E+04  0.22512899557E+04  0.00000000000E+00 0. -1.
         -1   -1    0    0    0  501 -0.00000000000E+00 -0.00000000000E+00 -0.10494818182E+01  0.10494818182E+01  0.00000000000E+00 0.  1.
         23    2    1    2    0    0  0.00000000000E+00  0.00000000000E+00  0.22502404739E+04  0.22523394375E+04  0.97214975717E+02 0.  0.
          2    1    3    3  502    0 -0.16818892964E+02  0.37814146533E+02  0.17157630890E+04  0.17162621485E+04  0.00000000000E+00 0. -1.
         -2    1    3    3    0  502  0.16818892964E+02 -0.37814146533E+02  0.53447738487E+03  0.53607728900E+03  0.00000000000E+00 0.  1.
<mgrwt>
<rscale>  0 0.97214976E+02</rscale>
<asrwt>0</asrwt>
<pdfrwt beam="1">  1        1 0.34634844E+00 0.97214976E+02</pdfrwt>
<pdfrwt beam="2">  1       -1 0.16146054E-03 0.97214976E+02</pdfrwt>
<totfact> 0.54979564E+04</totfact>
</mgrwt>
</event>
<event>
 5    1  0.3858870E+001  0.8876786E+02  0.7546771E-02  0.1305863E+00
         -2   -1    0    0    0  501 -0.00000000000E+00  0.00000000000E+00  0.15517878043E+02  0.15517878043E+02  0.00000000000E+00 0.  1.
          2   -1    0    0  501    0  0.00000000000E+00 -0.00000000000E+00 -0.12694605856E+03  0.12694605856E+03  0.00000000000E+00 0. -1.
         23    2    1    2    0    0  0.00000000000E+00  0.00000000000E+00 -0.11142818052E+03  0.14246393661E+03  0.88767864789E+02 0.  0.
          2    1    3    3  502    0  0.25669705334E+02  0.90194540082E+01 -0.11199223486E+03  0.11524992404E+03  0.00000000000E+00 0. -1.
         -2    1    3    3    0  502 -0.25669705334E+02 -0.90194540082E+01  0.56405434053E+00  0.27214012564E+02  0.00000000000E+00 0.  1.
<mgrwt>
<rscale>  0 0.88767865E+02</rscale>
<asrwt>0</asrwt>
<pdfrwt beam="2">  1        2 0.19530163E-01 0.88767865E+02</pdfrwt>
<pdfrwt beam="1">  1       -2 0.23873658E-02 0.88767865E+02</pdfrwt>
<totfact> 0.14224608E+05</totfact>
</mgrwt>
</event>
<event>
 5    1  0.3858870E+001  0.9269118E+02  0.7546771E-02  0.1296462E+00
         -2   -1    0    0    0  501 -0.00000000000E+00  0.00000000000E+00  0.98819072499E+00  0.98819072499E+00  0.00000000000E+00 0.  1.
          2   -1    0    0  501    0  0.00000000000E+00 -0.00000000000E+00 -0.21735819759E+04  0.21735819759E+04  0.00000000000E+00 0. -1.
         23    2    1    2    0    0  0.00000000000E+00  0.00000000000E+00 -0.21725937852E+04  0.21745701666E+04  0.92691176465E+02 0.  0.
          2    1    3    3  502    0 -0.41967158485E+02 -0.48328335974E+01 -0.15334709723E+04  0.15340527441E+04  0.00000000000E+00 0. -1.
         -2    1    3    3    0  502  0.41967158485E+02  0.48328335974E+01 -0.63912281289E+03  0.64051742258E+03  0.00000000000E+00 0.  1.
<mgrwt>
<rscale>  0 0.92691176E+02</rscale>
<asrwt>0</asrwt>
<pdfrwt beam="2">  1        2 0.33439685E+00 0.92691176E+02</pdfrwt>
<pdfrwt beam="1">  1       -2 0.15202951E-03 0.92691176E+02</pdfrwt>
<totfact> 0.17273823E+05</totfact>
</mgrwt>
</event>
<event>
 5    1  0.3858870E+001  0.8867514E+02  0.7546771E-02  0.1306092E+00
          2   -1    0    0  501    0  0.00000000000E+00  0.00000000000E+00  0.21218199491E+02  0.21218199491E+02  0.00000000000E+00 0. -1.
         -2   -1    0    0    0  501 -0.00000000000E+00 -0.00000000000E+00 -0.92647825678E+02  0.92647825678E+02  0.00000000000E+00 0.  1.
         23    2    1    2    0    0  0.00000000000E+00  0.00000000000E+00 -0.71429626187E+02  0.11386602517E+03  0.88675138514E+02 0.  0.
          2    1    3    3  502    0  0.36686037266E+02  0.22804545716E+02 -0.48549673209E+02  0.64984485874E+02  0.00000000000E+00 0. -1.
         -2    1    3    3    0  502 -0.36686037266E+02 -0.22804545716E+02 -0.22879952977E+02  0.48881539295E+02  0.00000000000E+00 0.  1.
<mgrwt>
<rscale>  0 0.88675139E+02</rscale>
<asrwt>0</asrwt>
<pdfrwt beam="1">  1        2 0.32643385E-02 0.88675139E+02</pdfrwt>
<pdfrwt beam="2">  1       -2 0.14253511E-01 0.88675139E+02</pdfrwt>
<totfact> 0.87441405E+04</totfact>
</mgrwt>
</event>
<event>
 5    1  0.3858870E+001  0.9070188E+02  0.7546771E-02  0.1301161E+00
          2   -1    0    0  501    0  0.00000000000E+00  0.00000000000E+00  0.30860760683E+03  0.30860760683E+03  0.00000000000E+00 0. -1.
         -2   -1    0    0    0  501 -0.00000000000E+00 -0.00000000000E+00 -0.66644757020E+01  0.66644757020E+01  0.00000000000E+00 0.  1.
         23    2    1    2    0    0  0.00000000000E+00  0.00000000000E+00  0.30194313112E+03  0.31527208253E+03  0.90701883049E+02 0.  0.
          2    1    3    3  502    0  0.20918138745E+02 -0.40179192168E+02  0.15856457971E+03  0.16490804089E+03  0.00000000000E+00 0. -1.
         -2    1    3    3    0  502 -0.20918138745E+02  0.40179192168E+02  0.14337855141E+03  0.15036404164E+03  0.00000000000E+00 0.  1.
<mgrwt>
<rscale>  0 0.90701883E+02</rscale>
<asrwt>0</asrwt>
<pdfrwt beam="1">  1        2 0.47478082E-01 0.90701883E+02</pdfrwt>
<pdfrwt beam="2">  1       -2 0.10253042E-02 0.90701883E+02</pdfrwt>
<totfact> 0.18410601E+05</totfact>
</mgrwt>
</event>
<event>
 5    1  0.3858870E+001  0.9746396E+02  0.7546771E-02  0.1285721E+00
          2   -1    0    0  501    0  0.00000000000E+00  0.00000000000E+00  0.27445476324E+03  0.27445476324E+03  0.00000000000E+00 0. -1.
         -2   -1    0    0    0  501 -0.00000000000E+00 -0.00000000000E+00 -0.86528127650E+01  0.86528127650E+01  0.00000000000E+00 0.  1.
         23    2    1    2    0    0  0.00000000000E+00  0.00000000000E+00  0.26580195047E+03  0.28310757600E+03  0.97463955979E+02 0.  0.
          2    1    3    3  502    0  0.26175904173E+02  0.51680611495E+01  0.25135313567E+03  0.25276527773E+03  0.00000000000E+00 0. -1.
         -2    1    3    3    0  502 -0.26175904173E+02 -0.51680611495E+01  0.14448814806E+02  0.30342298275E+02  0.00000000000E+00 0.  1.
<mgrwt>
<rscale>  0 0.97463956E+02</rscale>
<asrwt>0</asrwt>
<pdfrwt beam="1">  1        2 0.42223803E-01 0.97463956E+02</pdfrwt>
<pdfrwt beam="2">  1       -2 0.13312022E-02 0.97463956E+02</pdfrwt>
<totfact> 0.14531141E+05</totfact>
</mgrwt>
</event>
<event>
 5    1  0.3858870E+001  0.8895297E+02  0.7546771E-02  0.1305407E+00
         -2   -1    0    0    0  501 -0.00000000000E+00  0.00000000000E+00  0.43614450091E+01  0.43614450091E+01  0.00000000000E+00 0.  1.
          2   -1    0    0  501    0  0.00000000000E+00 -0.00000000000E+00 -0.45355555566E+03  0.45355555566E+03  0.00000000000E+00 0. -1.
         23    2    1    2    0    0  0.00000000000E+00  0.00000000000E+00 -0.44919411065E+03  0.45791700067E+03  0.88952967676E+02 0.  0.
          2    1    3    3  502    0  0.98864726665E+00  0.41974886758E+02 -0.30013015710E+03  0.30305276726E+03  0.00000000000E+00 0. -1.
         -2    1    3    3    0  502 -0.98864726665E+00 -0.41974886758E+02 -0.14906395355E+03  0.15486423341E+03  0.00000000000E+00 0.  1.
<mgrwt>
<rscale>  0 0.88952968E+02</rscale>
<asrwt>0</asrwt>
<pdfrwt beam="2">  1        2 0.69777768E-01 0.88952968E+02</pdfrwt>
<pdfrwt beam="1">  1       -2 0.67099163E-03 0.88952968E+02</pdfrwt>
<totfact> 0.22268352E+05</totfact>
</mgrwt>
</event>
<event>
 5    1  0.3858870E+001  0.8568808E+02  0.7546771E-02  0.1313643E+00
         -1   -1    0    0    0  501 -0.00000000000E+00  0.00000000000E+00  0.43128607597E+02  0.43128607597E+02  0.00000000000E+00 0.  1.
          1   -1    0    0  501    0  0.00000000000E+00 -0.00000000000E+00 -0.42561354787E+02  0.42561354787E+02  0.00000000000E+00 0. -1.
         23    2    1    2    0    0  0.00000000000E+00  0.00000000000E+00  0.56725281016E+00  0.85689962384E+02  0.85688084806E+02 0.  0.
          2    1    3    3  502    0  0.10883496401E+02  0.21015150662E+02  0.35998900684E+02  0.43081410164E+02  0.00000000000E+00 0.  1.
         -2    1    3    3    0  502 -0.10883496401E+02 -0.21015150662E+02 -0.35431647874E+02  0.42608552220E+02  0.00000000000E+00 0. -1.
<mgrwt>
<rscale>  0 0.85688085E+02</rscale>
<asrwt>0</asrwt>
<pdfrwt beam="2">  1        1 0.65479007E-02 0.85688085E+02</pdfrwt>
<pdfrwt beam="1">  1       -1 0.66351704E-02 0.85688085E+02</pdfrwt>
<totfact> 0.10889243E+05</totfact>
</mgrwt>
</event>
<event>
 5    1  0.3858870E+001  0.9266513E+02  0.7546771E-02  0.1296523E+00
         -2   -1    0    0    0  501 -0.00000000000E+00  0.00000000000E+00  0.19717465093E+01  0.19717465093E+01  0.00000000000E+00 0.  1.
          2   -1    0    0  501    0  0.00000000000E+00 -0.00000000000E+00 -0.10887335377E+04  0.10887335377E+04  0.00000000000E+00 0. -1.
         23    2    1    2    0    0  0.00000000000E+00  0.00000000000E+00 -0.10867617912E+04  0.10907052842E+04  0.92665129418E+02 0.  0.
          2    1    3    3  502    0 -0.24534158996E+02 -0.12484311838E+02 -0.98204313546E+03  0.98242887931E+03  0.00000000000E+00 0. -1.
         -2    1    3    3    0  502  0.24534158996E+02  0.12484311838E+02 -0.10471865573E+03  0.10827640490E+03  0.00000000000E+00 0.  1.
<mgrwt>
<rscale>  0 0.92665129E+02</rscale>
<asrwt>0</asrwt>
<pdfrwt beam="2">  1        2 0.16749774E+00 0.92665129E+02</pdfrwt>
<pdfrwt beam="1">  1       -2 0.30334513E-03 0.92665129E+02</pdfrwt>
<totfact> 0.23980701E+05</totfact>
</mgrwt>
</event>
<event>
 5    1  0.3858870E+001  0.9155307E+02  0.7546771E-02  0.1299134E+00
         -4   -1    0    0    0  501 -0.00000000000E+00  0.00000000000E+00  0.38543076464E+02  0.38543076464E+02  0.00000000000E+00 0.  1.
          4   -1    0    0  501    0  0.00000000000E+00 -0.00000000000E+00 -0.54367509301E+02  0.54367509301E+02  0.00000000000E+00 0. -1.
         23    2    1    2    0    0  0.00000000000E+00  0.00000000000E+00 -0.15824432837E+02  0.92910585765E+02  0.91553068068E+02 0.  0.
          2    1    3    3  502    0  0.19382918929E+02  0.75816212138E+01 -0.49288229093E+02  0.53502411661E+02  0.00000000000E+00 0. -1.
         -2    1    3    3    0  502 -0.19382918929E+02 -0.75816212138E+01  0.33463796256E+02  0.39408174105E+02  0.00000000000E+00 0.  1.
<mgrwt>
<rscale>  0 0.91553068E+02</rscale>
<asrwt>0</asrwt>
<pdfrwt beam="2">  1        4 0.83642322E-02 0.91553068E+02</pdfrwt>
<pdfrwt beam="1">  1       -4 0.59297041E-02 0.91553068E+02</pdfrwt>
<totfact> 0.26605552E+04</totfact>
</mgrwt>
</event>
<event>
 5    1  0.3858870E+001  0.9079816E+02  0.7546771E-02  0.1300930E+00
          2   -1    0    0  501    0  0.00000000000E+00  0.00000000000E+00  0.33174009287E+03  0.33174009287E+03  0.00000000000E+00 0. -1.
         -2   -1    0    0    0  501 -0.00000000000E+00 -0.00000000000E+00 -0.62129259542E+01  0.62129259542E+01  0.00000000000E+00 0.  1.
         23    2    1    2    0    0  0.00000000000E+00  0.00000000000E+00  0.32552716692E+03  0.33795301883E+03  0.90798163705E+02 0.  0.
          2    1    3    3  502    0  0.31098888018E+02 -0.48409841597E+01  0.28454267680E+03  0.28627803074E+03  0.00000000000E+00 0. -1.
         -2    1    3    3    0  502 -0.31098888018E+02  0.48409841597E+01  0.40984490119E+02  0.51674988088E+02  0.00000000000E+00 0.  1.
<mgrwt>
<rscale>  0 0.90798164E+02</rscale>
<asrwt>0</asrwt>
<pdfrwt beam="1">  1        2 0.51036924E-01 0.90798164E+02</pdfrwt>
<pdfrwt beam="2">  1       -2 0.95583502E-03 0.90798164E+02</pdfrwt>
<totfact> 0.18856590E+05</totfact>
</mgrwt>
</event>
<event>
 5    1  0.3858870E+001  0.9195639E+02  0.7546771E-02  0.1298182E+00
         -2   -1    0    0    0  501 -0.00000000000E+00  0.00000000000E+00  0.46325230222E+01  0.46325230222E+01  0.00000000000E+00 0. -1.
          2   -1    0    0  501    0  0.00000000000E+00 -0.00000000000E+00 -0.45633756682E+03  0.45633756682E+03  0.00000000000E+00 0.  1.
         23    2    1    2    0    0  0.00000000000E+00  0.00000000000E+00 -0.45170504380E+03  0.46097008984E+03  0.91956387145E+02 0.  0.
          2    1    3    3  502    0 -0.22655366767E+02 -0.39928754517E+02 -0.23855728847E+03  0.24293445816E+03  0.00000000000E+00 0. -1.
         -2    1    3    3    0  502  0.22655366767E+02  0.39928754517E+02 -0.21314775533E+03  0.21803563168E+03  0.00000000000E+00 0.  1.
<mgrwt>
<rscale>  0 0.91956387E+02</rscale>
<asrwt>0</asrwt>
<pdfrwt beam="2">  1        2 0.70205782E-01 0.91956387E+02</pdfrwt>
<pdfrwt beam="1">  1       -2 0.71269582E-03 0.91956387E+02</pdfrwt>
<totfact> 0.20436943E+05</totfact>
</mgrwt>
</event>
<event>
 5    1  0.3858870E+001  0.9603801E+02  0.7546771E-02  0.1288855E+00
         -1   -1    0    0    0  501 -0.00000000000E+00  0.00000000000E+00  0.22847809218E+04  0.22847809218E+04  0.00000000000E+00 0.  1.
          1   -1    0    0  501    0  0.00000000000E+00 -0.00000000000E+00 -0.10092105119E+01  0.10092105119E+01  0.00000000000E+00 0. -1.
         23    2    1    2    0    0  0.00000000000E+00  0.00000000000E+00  0.22837717113E+04  0.22857901323E+04  0.96038011717E+02 0.  0.
          2    1    3    3  502    0 -0.64425459879E+01  0.46102059608E+02  0.86135965427E+03  0.86261657781E+03  0.00000000000E+00 0. -1.
         -2    1    3    3    0  502  0.64425459879E+01 -0.46102059608E+02  0.14224120570E+04  0.14231735545E+04  0.00000000000E+00 0.  1.
<mgrwt>
<rscale>  0 0.96038012E+02</rscale>
<asrwt>0</asrwt>
<pdfrwt beam="2">  1        1 0.15526498E-03 0.96038012E+02</pdfrwt>
<pdfrwt beam="1">  1       -1 0.35150062E+00 0.96038012E+02</pdfrwt>
<totfact> 0.39093735E+03</totfact>
</mgrwt>
</event>
<event>
 5    1  0.3858870E+001  0.9246212E+02  0.7546771E-02  0.1296997E+00
         -2   -1    0    0    0  501 -0.00000000000E+00  0.00000000000E+00  0.84391359972E+00  0.84391359972E+00  0.00000000000E+00 0.  1.
          2   -1    0    0  501    0  0.00000000000E+00 -0.00000000000E+00 -0.25326179361E+04  0.25326179361E+04  0.00000000000E+00 0. -1.
         23    2    1    2    0    0  0.00000000000E+00  0.00000000000E+00 -0.25317740225E+04  0.25334618497E+04  0.92462115901E+02 0.  0.
          2    1    3    3  502    0 -0.50445475996E+01  0.45265760947E+02 -0.14831504185E+04  0.14838495882E+04  0.00000000000E+00 0. -1.
         -2    1    3    3    0  502  0.50445475996E+01 -0.45265760947E+02 -0.10486236041E+04  0.10496122615E+04  0.00000000000E+00 0.  1.
<mgrwt>
<rscale>  0 0.92462116E+02</rscale>
<asrwt>0</asrwt>
<pdfrwt beam="2">  1        2 0.38963184E+00 0.92462116E+02</pdfrwt>
<pdfrwt beam="1">  1       -2 0.12983342E-03 0.92462116E+02</pdfrwt>
<totfact> 0.14006617E+05</totfact>
</mgrwt>
</event>
<event>
 5    1  0.3858870E+001  0.8851105E+02  0.7546771E-02  0.1306498E+00
         -2   -1    0    0    0  501 -0.00000000000E+00  0.00000000000E+00  0.16315777653E+01  0.16315777653E+01  0.00000000000E+00 0.  1.
          2   -1    0    0  501    0  0.00000000000E+00 -0.00000000000E+00 -0.12004034832E+04  0.12004034832E+04  0.00000000000E+00 0. -1.
         23    2    1    2    0    0  0.00000000000E+00  0.00000000000E+00 -0.11987719054E+04  0.12020350609E+04  0.88511053151E+02 0.  0.
          2    1    3    3  502    0  0.15802542594E+02 -0.31464527886E+02 -0.96349219258E+03  0.96413533387E+03  0.00000000000E+00 0. -1.
         -2    1    3    3    0  502 -0.15802542594E+02  0.31464527886E+02 -0.23527971282E+03  0.23789972705E+03  0.00000000000E+00 0.  1.
<mgrwt>
<rscale>  0 0.88511053E+02</rscale>
<asrwt>0</asrwt>
<pdfrwt beam="2">  1        2 0.18467843E+00 0.88511053E+02</pdfrwt>
<pdfrwt beam="1">  1       -2 0.25101065E-03 0.88511053E+02</pdfrwt>
<totfact> 0.26885368E+05</totfact>
</mgrwt>
</event>
<event>
 5    1  0.3858870E+001  0.9105067E+02  0.7546771E-02  0.1300327E+00
          3   -1    0    0  501    0  0.00000000000E+00  0.00000000000E+00  0.26277545235E+03  0.26277545235E+03  0.00000000000E+00 0. -1.
         -3   -1    0    0    0  501 -0.00000000000E+00 -0.00000000000E+00 -0.78871754932E+01  0.78871754932E+01  0.00000000000E+00 0.  1.
         23    2    1    2    0    0  0.00000000000E+00  0.00000000000E+00  0.25488827685E+03  0.27066262784E+03  0.91050669585E+02 0.  0.
          2    1    3    3  502    0 -0.99044241764E+01 -0.18212625911E+02  0.24792887828E+03  0.24879414391E+03  0.00000000000E+00 0. -1.
         -2    1    3    3    0  502  0.99044241764E+01  0.18212625911E+02  0.69593985774E+01  0.21868483930E+02  0.00000000000E+00 0.  1.
<mgrwt>
<rscale>  0 0.91050670E+02</rscale>
<asrwt>0</asrwt>
<pdfrwt beam="1">  1        3 0.40426986E-01 0.91050670E+02</pdfrwt>
<pdfrwt beam="2">  1       -3 0.12134118E-02 0.91050670E+02</pdfrwt>
<totfact> 0.25306641E+04</totfact>
</mgrwt>
</event>
<event>
 5    1  0.3858870E+001  0.9091381E+02  0.7546771E-02  0.1300654E+00
         -4   -1    0    0    0  501 -0.00000000000E+00  0.00000000000E+00  0.21023509499E+02  0.21023509499E+02  0.00000000000E+00 0.  1.
          4   -1    0    0  501    0  0.00000000000E+00 -0.00000000000E+00 -0.98286653327E+02  0.98286653327E+02  0.00000000000E+00 0. -1.
         23    2    1    2    0    0  0.00000000000E+00  0.00000000000E+00 -0.77263143828E+02  0.11931016283E+03  0.90913813909E+02 0.  0.
          2    1    3    3  502    0  0.36179195969E+01 -0.44786234292E+02 -0.47670015497E+02  0.65508217056E+02  0.00000000000E+00 0. -1.
         -2    1    3    3    0  502 -0.36179195969E+01  0.44786234292E+02 -0.29593128330E+02  0.53801945770E+02  0.00000000000E+00 0.  1.
<mgrwt>
<rscale>  0 0.90913814E+02</rscale>
<asrwt>0</asrwt>
<pdfrwt beam="2">  1        4 0.15121023E-01 0.90913814E+02</pdfrwt>
<pdfrwt beam="1">  1       -4 0.32343861E-02 0.90913814E+02</pdfrwt>
<totfact> 0.25510229E+04</totfact>
</mgrwt>
</event>
<event>
 5    1  0.3858870E+001  0.8908057E+02  0.7546771E-02  0.1305094E+00
         -2   -1    0    0    0  501 -0.00000000000E+00  0.00000000000E+00  0.55355926280E+01  0.55355926280E+01  0.00000000000E+00 0.  1.
          2   -1    0    0  501    0  0.00000000000E+00 -0.00000000000E+00 -0.35837839690E+03  0.35837839690E+03  0.00000000000E+00 0. -1.
         23    2    1    2    0    0  0.00000000000E+00  0.00000000000E+00 -0.35284280428E+03  0.36391398953E+03  0.89080566050E+02 0.  0.
          2    1    3    3  502    0  0.34311503842E+02  0.27701085776E+02 -0.15084145757E+03  0.15715525690E+03  0.00000000000E+00 0.  1.
         -2    1    3    3    0  502 -0.34311503842E+02 -0.27701085776E+02 -0.20200134670E+03  0.20675873263E+03  0.00000000000E+00 0. -1.
<mgrwt>
<rscale>  0 0.89080566E+02</rscale>
<asrwt>0</asrwt>
<pdfrwt beam="2">  1        2 0.55135129E-01 0.89080566E+02</pdfrwt>
<pdfrwt beam="1">  1       -2 0.85162978E-03 0.89080566E+02</pdfrwt>
<totfact> 0.20406755E+05</totfact>
</mgrwt>
</event>
<event>
 5    1  0.3858870E+001  0.8380216E+02  0.7546771E-02  0.1318595E+00
         -2   -1    0    0    0  501 -0.00000000000E+00  0.00000000000E+00  0.65694739316E+03  0.65694739316E+03  0.00000000000E+00 0.  1.
          2   -1    0    0  501    0  0.00000000000E+00 -0.00000000000E+00 -0.26725129563E+01  0.26725129563E+01  0.00000000000E+00 0. -1.
         23    2    1    2    0    0  0.00000000000E+00  0.00000000000E+00  0.65427488020E+03  0.65961990611E+03  0.83802157964E+02 0.  0.
          2    1    3    3  502    0  0.35683930170E+02  0.21962318332E+02  0.32620209794E+03  0.32888219015E+03  0.00000000000E+00 0. -1.
         -2    1    3    3    0  502 -0.35683930170E+02 -0.21962318332E+02  0.32807278226E+03  0.33073771596E+03  0.00000000000E+00 0.  1.
<mgrwt>
<rscale>  0 0.83802158E+02</rscale>
<asrwt>0</asrwt>
<pdfrwt beam="2">  1        2 0.41115636E-03 0.83802158E+02</pdfrwt>
<pdfrwt beam="1">  1       -2 0.10106870E+00 0.83802158E+02</pdfrwt>
<totfact> 0.35871675E+04</totfact>
</mgrwt>
</event>
<event>
 5    1  0.3858870E+001  0.8509805E+02  0.7546771E-02  0.1315176E+00
          1   -1    0    0  501    0  0.00000000000E+00  0.00000000000E+00  0.13022954875E+03  0.13022954875E+03  0.00000000000E+00 0. -1.
         -1   -1    0    0    0  501 -0.00000000000E+00 -0.00000000000E+00 -0.13901758375E+02  0.13901758375E+02  0.00000000000E+00 0.  1.
         23    2    1    2    0    0  0.00000000000E+00  0.00000000000E+00  0.11632779038E+03  0.14413130713E+03  0.85098054503E+02 0.  0.
          2    1    3    3  502    0  0.22597509895E+02  0.35866026882E+02  0.51963815267E+02  0.67061594336E+02  0.00000000000E+00 0. -1.
         -2    1    3    3    0  502 -0.22597509895E+02 -0.35866026882E+02  0.64363975108E+02  0.77069712790E+02  0.00000000000E+00 0.  1.
<mgrwt>
<rscale>  0 0.85098055E+02</rscale>
<asrwt>0</asrwt>
<pdfrwt beam="1">  1        1 0.20035314E-01 0.85098055E+02</pdfrwt>
<pdfrwt beam="2">  1       -1 0.21387321E-02 0.85098055E+02</pdfrwt>
<totfact> 0.13162486E+05</totfact>
</mgrwt>
</event>
<event>
 5    1  0.3858870E+001  0.9168516E+02  0.7546771E-02  0.1298821E+00
         -1   -1    0    0    0  501 -0.00000000000E+00  0.00000000000E+00  0.97628500366E+00  0.97628500366E+00  0.00000000000E+00 0.  1.
          1   -1    0    0  501    0  0.00000000000E+00 -0.00000000000E+00 -0.21525908664E+04  0.21525908664E+04  0.00000000000E+00 0. -1.
         23    2    1    2    0    0  0.00000000000E+00  0.00000000000E+00 -0.21516145814E+04  0.21535671514E+04  0.91685160892E+02 0.  0.
          2    1    3    3  502    0  0.27781961856E+02 -0.17629675471E+02 -0.18255720144E+04  0.18258685118E+04  0.00000000000E+00 0.  1.
         -2    1    3    3    0  502 -0.27781961856E+02  0.17629675471E+02 -0.32604256706E+03  0.32769863960E+03  0.00000000000E+00 0. -1.
<mgrwt>
<rscale>  0 0.91685161E+02</rscale>
<asrwt>0</asrwt>
<pdfrwt beam="2">  1        1 0.33116336E+00 0.91685161E+02</pdfrwt>
<pdfrwt beam="1">  1       -1 0.15019972E-03 0.91685161E+02</pdfrwt>
<totfact> 0.69743788E+04</totfact>
</mgrwt>
</event>
<event>
 5    1  0.3858870E+001  0.9312460E+02  0.7546771E-02  0.1295457E+00
          1   -1    0    0  501    0  0.00000000000E+00  0.00000000000E+00  0.76161448842E+03  0.76161448842E+03  0.00000000000E+00 0. -1.
         -1   -1    0    0    0  501 -0.00000000000E+00 -0.00000000000E+00 -0.28466470161E+01  0.28466470161E+01  0.00000000000E+00 0.  1.
         23    2    1    2    0    0  0.00000000000E+00  0.00000000000E+00  0.75876784140E+03  0.76446113544E+03  0.93124596340E+02 0.  0.
          2    1    3    3  502    0  0.82989117825E+01  0.35393827313E+02  0.14055201417E+03  0.14517735236E+03  0.00000000000E+00 0.  1.
         -2    1    3    3    0  502 -0.82989117825E+01 -0.35393827313E+02  0.61821582723E+03  0.61928378308E+03  0.00000000000E+00 0. -1.
<mgrwt>
<rscale>  0 0.93124596E+02</rscale>
<asrwt>0</asrwt>
<pdfrwt beam="1">  1        1 0.11717130E+00 0.93124596E+02</pdfrwt>
<pdfrwt beam="2">  1       -1 0.43794630E-03 0.93124596E+02</pdfrwt>
<totfact> 0.13408014E+05</totfact>
</mgrwt>
</event>
<event>
 5    1  0.3858870E+001  0.8196165E+02  0.7546771E-02  0.1323575E+00
         -1   -1    0    0    0  501 -0.00000000000E+00  0.00000000000E+00  0.41621944133E+02  0.41621944133E+02  0.00000000000E+00 0.  1.
          1   -1    0    0  501    0  0.00000000000E+00 -0.00000000000E+00 -0.40349580144E+02  0.40349580144E+02  0.00000000000E+00 0. -1.
         23    2    1    2    0    0  0.00000000000E+00  0.00000000000E+00  0.12723639893E+01  0.81971524277E+02  0.81961648850E+02 0.  0.
          2    1    3    3  502    0  0.28936701407E+01  0.22578808979E+02 -0.33445072096E+02  0.40456752085E+02  0.00000000000E+00 0. -1.
         -2    1    3    3    0  502 -0.28936701407E+01 -0.22578808979E+02  0.34717436085E+02  0.41514772192E+02  0.00000000000E+00 0.  1.
<mgrwt>
<rscale>  0 0.81961649E+02</rscale>
<asrwt>0</asrwt>
<pdfrwt beam="2">  1        1 0.62076277E-02 0.81961649E+02</pdfrwt>
<pdfrwt beam="1">  1       -1 0.64033760E-02 0.81961649E+02</pdfrwt>
<totfact> 0.12229547E+05</totfact>
</mgrwt>
</event>
<event>
 5    1  0.3858870E+001  0.9029187E+02  0.7546771E-02  0.1302146E+00
         -2   -1    0    0    0  501 -0.00000000000E+00  0.00000000000E+00  0.19694915973E+03  0.19694915973E+03  0.00000000000E+00 0.  1.
          2   -1    0    0  501    0  0.00000000000E+00 -0.00000000000E+00 -0.10348637060E+02  0.10348637060E+02  0.00000000000E+00 0. -1.
         23    2    1    2    0    0  0.00000000000E+00  0.00000000000E+00  0.18660052267E+03  0.20729779679E+03  0.90291868366E+02 0.  0.
          2    1    3    3  502    0 -0.43202880029E+02 -0.80856961940E+01  0.69630806168E+02  0.82342677229E+02  0.00000000000E+00 0. -1.
         -2    1    3    3    0  502  0.43202880029E+02  0.80856961940E+01  0.11696971650E+03  0.12495511956E+03  0.00000000000E+00 0.  1.
<mgrwt>
<rscale>  0 0.90291868E+02</rscale>
<asrwt>0</asrwt>
<pdfrwt beam="2">  1        2 0.15920982E-02 0.90291868E+02</pdfrwt>
<pdfrwt beam="1">  1       -2 0.30299868E-01 0.90291868E+02</pdfrwt>
<totfact> 0.64313651E+04</totfact>
</mgrwt>
</event>
<event>
 5    1  0.3858870E+001  0.9105858E+02  0.7546771E-02  0.1300308E+00
          1   -1    0    0  501    0  0.00000000000E+00  0.00000000000E+00  0.11766610667E+03  0.11766610667E+03  0.00000000000E+00 0. -1.
         -1   -1    0    0    0  501 -0.00000000000E+00 -0.00000000000E+00 -0.17616936077E+02  0.17616936077E+02  0.00000000000E+00 0.  1.
         23    2    1    2    0    0  0.00000000000E+00  0.00000000000E+00  0.10004917059E+03  0.13528304275E+03  0.91058580698E+02 0.  0.
          2    1    3    3  502    0  0.39532957631E+02 -0.12426544665E+02  0.78042082062E+02  0.88361984608E+02  0.00000000000E+00 0. -1.
         -2    1    3    3    0  502 -0.39532957631E+02  0.12426544665E+02  0.22007088533E+02  0.46921058141E+02  0.00000000000E+00 0.  1.
<mgrwt>
<rscale>  0 0.91058581E+02</rscale>
<asrwt>0</asrwt>
<pdfrwt beam="1">  1        1 0.18102477E-01 0.91058581E+02</pdfrwt>
<pdfrwt beam="2">  1       -1 0.27102979E-02 0.91058581E+02</pdfrwt>
<totfact> 0.10775178E+05</totfact>
</mgrwt>
</event>
<event>
 5    1  0.3858870E+001  0.9511781E+02  0.7546771E-02  0.1290911E+00
         -2   -1    0    0    0  501 -0.00000000000E+00  0.00000000000E+00  0.14851003631E+02  0.14851003631E+02  0.00000000000E+00 0.  1.
          2   -1    0    0  501    0  0.00000000000E+00 -0.00000000000E+00 -0.15230279519E+03  0.15230279519E+03  0.00000000000E+00 0. -1.
         23    2    1    2    0    0  0.00000000000E+00  0.00000000000E+00 -0.13745179156E+03  0.16715379882E+03  0.95117808309E+02 0.  0.
          2    1    3    3  502    0  0.10620244295E+02  0.46279594651E+02 -0.73460565151E+02  0.87470252670E+02  0.00000000000E+00 0. -1.
         -2    1    3    3    0  502 -0.10620244295E+02 -0.46279594651E+02 -0.63991226409E+02  0.79683546151E+02  0.00000000000E+00 0.  1.
<mgrwt>
<rscale>  0 0.95117808E+02</rscale>
<asrwt>0</asrwt>
<pdfrwt beam="2">  1        2 0.23431199E-01 0.95117808E+02</pdfrwt>
<pdfrwt beam="1">  1       -2 0.22847698E-02 0.95117808E+02</pdfrwt>
<totfact> 0.12524525E+05</totfact>
</mgrwt>
</event>
<event>
 5    1  0.3858870E+001  0.7880806E+02  0.7546771E-02  0.1332468E+00
          2   -1    0    0  501    0  0.00000000000E+00  0.00000000000E+00  0.70655221190E+03  0.70655221190E+03  0.00000000000E+00 0.  1.
         -2   -1    0    0    0  501 -0.00000000000E+00 -0.00000000000E+00 -0.21975409872E+01  0.21975409872E+01  0.00000000000E+00 0. -1.
         23    2    1    2    0    0  0.00000000000E+00  0.00000000000E+00  0.70435467091E+03  0.70874975288E+03  0.78808056573E+02 0.  0.
          2    1    3    3  502    0 -0.39276245954E+02 -0.16349483511E+01  0.37661033309E+03  0.37865636076E+03  0.00000000000E+00 0. -1.
         -2    1    3    3    0  502  0.39276245954E+02  0.16349483511E+01  0.32774433782E+03  0.33009339213E+03  0.00000000000E+00 0.  1.
<mgrwt>
<rscale>  0 0.78808057E+02</rscale>
<asrwt>0</asrwt>
<pdfrwt beam="1">  1        2 0.10870016E+00 0.78808057E+02</pdfrwt>
<pdfrwt beam="2">  1       -2 0.33808379E-03 0.78808057E+02</pdfrwt>
<totfact> 0.34808463E+05</totfact>
</mgrwt>
</event>
<event>
 5    1  0.3858870E+001  0.9051946E+02  0.7546771E-02  0.1301599E+00
          1   -1    0    0  501    0  0.00000000000E+00  0.00000000000E+00  0.46645699655E+02  0.46645699655E+02  0.00000000000E+00 0. -1.
         -1   -1    0    0    0  501 -0.00000000000E+00 -0.00000000000E+00 -0.43914937160E+02  0.43914937160E+02  0.00000000000E+00 0.  1.
         23    2    1    2    0    0  0.00000000000E+00  0.00000000000E+00  0.27307624948E+01  0.90560636815E+02  0.90519455790E+02 0.  0.
          2    1    3    3  502    0  0.26715549517E+02  0.69497364543E+01  0.37248445590E+02  0.46362335162E+02  0.00000000000E+00 0. -1.
         -2    1    3    3    0  502 -0.26715549517E+02 -0.69497364543E+01 -0.34517683095E+02  0.44198301653E+02  0.00000000000E+00 0.  1.
<mgrwt>
<rscale>  0 0.90519456E+02</rscale>
<asrwt>0</asrwt>
<pdfrwt beam="1">  1        1 0.71762615E-02 0.90519456E+02</pdfrwt>
<pdfrwt beam="2">  1       -1 0.67561442E-02 0.90519456E+02</pdfrwt>
<totfact> 0.94691171E+04</totfact>
</mgrwt>
</event>
<event>
 5    1  0.3858870E+001  0.8953787E+02  0.7546771E-02  0.1303975E+00
         -2   -1    0    0    0  501 -0.00000000000E+00  0.00000000000E+00  0.22924972322E+01  0.22924972322E+01  0.00000000000E+00 0.  1.
          2   -1    0    0  501    0  0.00000000000E+00 -0.00000000000E+00 -0.87426818909E+03  0.87426818909E+03  0.00000000000E+00 0. -1.
         23    2    1    2    0    0  0.00000000000E+00  0.00000000000E+00 -0.87197569185E+03  0.87656068632E+03  0.89537866932E+02 0.  0.
          2    1    3    3  502    0  0.38985650888E+02  0.15491319022E+02 -0.28294190533E+03  0.28603493446E+03  0.00000000000E+00 0. -1.
         -2    1    3    3    0  502 -0.38985650888E+02 -0.15491319022E+02 -0.58903378652E+03  0.59052575185E+03  0.00000000000E+00 0.  1.
<mgrwt>
<rscale>  0 0.89537867E+02</rscale>
<asrwt>0</asrwt>
<pdfrwt beam="2">  1        2 0.13450274E+00 0.89537867E+02</pdfrwt>
<pdfrwt beam="1">  1       -2 0.35269204E-03 0.89537867E+02</pdfrwt>
<totfact> 0.25915355E+05</totfact>
</mgrwt>
</event>
<event>
 5    1  0.3858870E+001  0.9082970E+02  0.7546771E-02  0.1300855E+00
         -1   -1    0    0    0  501 -0.00000000000E+00  0.00000000000E+00  0.20509020923E+01  0.20509020923E+01  0.00000000000E+00 0.  1.
          1   -1    0    0  501    0  0.00000000000E+00 -0.00000000000E+00 -0.10056591573E+04  0.10056591573E+04  0.00000000000E+00 0. -1.
         23    2    1    2    0    0  0.00000000000E+00  0.00000000000E+00 -0.10036082552E+04  0.10077100594E+04  0.90829697125E+02 0.  0.
          2    1    3    3  502    0  0.13757227218E+02 -0.22856732531E+02 -0.90956540230E+03  0.90995654434E+03  0.00000000000E+00 0. -1.
         -2    1    3    3    0  502 -0.13757227218E+02  0.22856732531E+02 -0.94042852948E+02  0.97753515095E+02  0.00000000000E+00 0.  1.
<mgrwt>
<rscale>  0 0.90829697E+02</rscale>
<asrwt>0</asrwt>
<pdfrwt beam="2">  1        1 0.15471697E+00 0.90829697E+02</pdfrwt>
<pdfrwt beam="1">  1       -1 0.31552304E-03 0.90829697E+02</pdfrwt>
<totfact> 0.13718543E+05</totfact>
</mgrwt>
</event>
<event>
 5    1  0.3858870E+001  0.9199678E+02  0.7546771E-02  0.1298087E+00
         -2   -1    0    0    0  501 -0.00000000000E+00  0.00000000000E+00  0.14139345345E+01  0.14139345345E+01  0.00000000000E+00 0.  1.
          2   -1    0    0  501    0  0.00000000000E+00 -0.00000000000E+00 -0.14964284830E+04  0.14964284830E+04  0.00000000000E+00 0. -1.
         23    2    1    2    0    0  0.00000000000E+00  0.00000000000E+00 -0.14950145485E+04  0.14978424176E+04  0.91996780609E+02 0.  0.
          2    1    3    3  502    0  0.24309001753E+02  0.16293450699E+02 -0.13253153177E+04  0.13256383728E+04  0.00000000000E+00 0. -1.
         -2    1    3    3    0  502 -0.24309001753E+02 -0.16293450699E+02 -0.16969923084E+03  0.17220404481E+03  0.00000000000E+00 0.  1.
<mgrwt>
<rscale>  0 0.91996781E+02</rscale>
<asrwt>0</asrwt>
<pdfrwt beam="2">  1        2 0.23021905E+00 0.91996781E+02</pdfrwt>
<pdfrwt beam="1">  1       -2 0.21752906E-03 0.91996781E+02</pdfrwt>
<totfact> 0.23067044E+05</totfact>
</mgrwt>
</event>
<event>
 5    1  0.3858870E+001  0.8637369E+02  0.7546771E-02  0.1311879E+00
          2   -1    0    0  501    0  0.00000000000E+00  0.00000000000E+00  0.20076771475E+04  0.20076771475E+04  0.00000000000E+00 0. -1.
         -2   -1    0    0    0  501 -0.00000000000E+00 -0.00000000000E+00 -0.92898571958E+00  0.92898571958E+00  0.00000000000E+00 0.  1.
         23    2    1    2    0    0  0.00000000000E+00  0.00000000000E+00  0.20067481617E+04  0.20086061332E+04  0.86373685797E+02 0.  0.
          2    1    3    3  502    0  0.21198956139E+02 -0.27762773084E+02  0.15939444752E+04  0.15943271801E+04  0.00000000000E+00 0. -1.
         -2    1    3    3    0  502 -0.21198956139E+02  0.27762773084E+02  0.41280368654E+03  0.41427895304E+03  0.00000000000E+00 0.  1.
<mgrwt>
<rscale>  0 0.86373686E+02</rscale>
<asrwt>0</asrwt>
<pdfrwt beam="1">  1        2 0.30886993E+00 0.86373686E+02</pdfrwt>
<pdfrwt beam="2">  1       -2 0.14292249E-03 0.86373686E+02</pdfrwt>
<totfact> 0.22619764E+05</totfact>
</mgrwt>
</event>
<event>
 5    1  0.3858870E+001  0.9190196E+02  0.7546771E-02  0.1298310E+00
          3   -1    0    0  501    0  0.00000000000E+00  0.00000000000E+00  0.19655328828E+03  0.19655328828E+03  0.00000000000E+00 0. -1.
         -3   -1    0    0    0  501 -0.00000000000E+00 -0.00000000000E+00 -0.10742594895E+02  0.10742594895E+02  0.00000000000E+00 0.  1.
         23    2    1    2    0    0  0.00000000000E+00  0.00000000000E+00  0.18581069339E+03  0.20729588318E+03  0.91901955393E+02 0.  0.
          2    1    3    3  502    0  0.34983289650E+02 -0.27811632483E+02  0.11700724424E+03  0.12525179704E+03  0.00000000000E+00 0. -1.
         -2    1    3    3    0  502 -0.34983289650E+02  0.27811632483E+02  0.68803449145E+02  0.82044086139E+02  0.00000000000E+00 0.  1.
<mgrwt>
<rscale>  0 0.91901955E+02</rscale>
<asrwt>0</asrwt>
<pdfrwt beam="1">  1        3 0.30238965E-01 0.91901955E+02</pdfrwt>
<pdfrwt beam="2">  1       -3 0.16527071E-02 0.91901955E+02</pdfrwt>
<totfact> 0.27530130E+04</totfact>
</mgrwt>
</event>
<event>
 5    1  0.3858870E+001  0.1123389E+03  0.7546771E-02  0.1256299E+00
          2   -1    0    0  501    0  0.00000000000E+00  0.00000000000E+00  0.17662595592E+02  0.17662595592E+02  0.00000000000E+00 0. -1.
         -2   -1    0    0    0  501 -0.00000000000E+00 -0.00000000000E+00 -0.17862643880E+03  0.17862643880E+03  0.00000000000E+00 0.  1.
         23    2    1    2    0    0  0.00000000000E+00  0.00000000000E+00 -0.16096384321E+03  0.19628903439E+03  0.11233888998E+03 0.  0.
          2    1    3    3  502    0 -0.23063587365E+02  0.45110075725E+02 -0.38106588996E+02  0.63395268900E+02  0.00000000000E+00 0. -1.
         -2    1    3    3    0  502  0.23063587365E+02 -0.45110075725E+02 -0.12285725421E+03  0.13289376549E+03  0.00000000000E+00 0.  1.
<mgrwt>
<rscale>  0 0.11233889E+03</rscale>
<asrwt>0</asrwt>
<pdfrwt beam="1">  1        2 0.27173224E-02 0.11233889E+03</pdfrwt>
<pdfrwt beam="2">  1       -2 0.27480990E-01 0.11233889E+03</pdfrwt>
<totfact> 0.38373576E+04</totfact>
</mgrwt>
</event>
<event>
 5    1  0.3858870E+001  0.8780207E+02  0.7546771E-02  0.1308263E+00
          1   -1    0    0  501    0  0.00000000000E+00  0.00000000000E+00  0.42943596201E+01  0.42943596201E+01  0.00000000000E+00 0. -1.
         -1   -1    0    0    0  501 -0.00000000000E+00 -0.00000000000E+00 -0.44879818427E+03  0.44879818427E+03  0.00000000000E+00 0.  1.
         23    2    1    2    0    0  0.00000000000E+00  0.00000000000E+00 -0.44450382465E+03  0.45309254389E+03  0.87802068315E+02 0.  0.
          2    1    3    3  502    0 -0.12183828385E+02  0.37561964748E+02 -0.12326474599E+03  0.12943548383E+03  0.00000000000E+00 0. -1.
         -2    1    3    3    0  502  0.12183828385E+02 -0.37561964748E+02 -0.32123907866E+03  0.32365706007E+03  0.00000000000E+00 0.  1.
<mgrwt>
<rscale>  0 0.87802068E+02</rscale>
<asrwt>0</asrwt>
<pdfrwt beam="1">  1        1 0.66067085E-03 0.87802068E+02</pdfrwt>
<pdfrwt beam="2">  1       -1 0.69045860E-01 0.87802068E+02</pdfrwt>
<totfact> 0.55325441E+04</totfact>
</mgrwt>
</event>
<event>
 5    1  0.3858870E+001  0.9115651E+02  0.7546771E-02  0.1300075E+00
          1   -1    0    0  501    0  0.00000000000E+00  0.00000000000E+00  0.38682364925E+02  0.38682364925E+02  0.00000000000E+00 0. -1.
         -1   -1    0    0    0  501 -0.00000000000E+00 -0.00000000000E+00 -0.53703474944E+02  0.53703474944E+02  0.00000000000E+00 0.  1.
         23    2    1    2    0    0  0.00000000000E+00  0.00000000000E+00 -0.15021110019E+02  0.92385839869E+02  0.91156511902E+02 0.  0.
          2    1    3    3  502    0  0.22159109583E+02 -0.42515258082E+01  0.32624968681E+02  0.39667243296E+02  0.00000000000E+00 0. -1.
         -2    1    3    3    0  502 -0.22159109583E+02  0.42515258082E+01 -0.47646078700E+02  0.52718596574E+02  0.00000000000E+00 0.  1.
<mgrwt>
<rscale>  0 0.91156512E+02</rscale>
<asrwt>0</asrwt>
<pdfrwt beam="1">  1        1 0.59511330E-02 0.91156512E+02</pdfrwt>
<pdfrwt beam="2">  1       -1 0.82620731E-02 0.91156512E+02</pdfrwt>
<totfact> 0.90259279E+04</totfact>
</mgrwt>
</event>
<event>
 5    1  0.3858870E+001  0.9264435E+02  0.7546771E-02  0.1296571E+00
          2   -1    0    0  501    0  0.00000000000E+00  0.00000000000E+00  0.10189639144E+04  0.10189639144E+04  0.00000000000E+00 0.  1.
         -2   -1    0    0    0  501 -0.00000000000E+00 -0.00000000000E+00 -0.21058095664E+01  0.21058095664E+01  0.00000000000E+00 0. -1.
         23    2    1    2    0    0  0.00000000000E+00  0.00000000000E+00  0.10168581048E+04  0.10210697240E+04  0.92644351338E+02 0.  0.
          2    1    3    3  502    0  0.15786132997E+02 -0.31863180561E+02  0.18124409049E+03  0.18469944398E+03  0.00000000000E+00 0. -1.
         -2    1    3    3    0  502 -0.15786132997E+02  0.31863180561E+02  0.83561401435E+03  0.83637027999E+03  0.00000000000E+00 0.  1.
<mgrwt>
<rscale>  0 0.92644351E+02</rscale>
<asrwt>0</asrwt>
<pdfrwt beam="1">  1        2 0.15676328E+00 0.92644351E+02</pdfrwt>
<pdfrwt beam="2">  1       -2 0.32397152E-03 0.92644351E+02</pdfrwt>
<totfact> 0.23987843E+05</totfact>
</mgrwt>
</event>
<event>
 5    1  0.3858870E+001  0.9331453E+02  0.7546771E-02  0.1295018E+00
         -3   -1    0    0    0  501 -0.00000000000E+00  0.00000000000E+00  0.73409213609E+02  0.73409213609E+02  0.00000000000E+00 0.  1.
          3   -1    0    0  501    0  0.00000000000E+00 -0.00000000000E+00 -0.29654321157E+02  0.29654321157E+02  0.00000000000E+00 0. -1.
         23    2    1    2    0    0  0.00000000000E+00  0.00000000000E+00  0.43754892452E+02  0.10306353477E+03  0.93314530406E+02 0.  0.
          2    1    3    3  502    0  0.33300411552E+02  0.21174381699E+02 -0.56155116885E+01  0.39859827162E+02  0.00000000000E+00 0. -1.
         -2    1    3    3    0  502 -0.33300411552E+02 -0.21174381699E+02  0.49370404140E+02  0.63203707604E+02  0.00000000000E+00 0.  1.
<mgrwt>
<rscale>  0 0.93314530E+02</rscale>
<asrwt>0</asrwt>
<pdfrwt beam="2">  1        3 0.45622033E-02 0.93314530E+02</pdfrwt>
<pdfrwt beam="1">  1       -3 0.11293725E-01 0.93314530E+02</pdfrwt>
<totfact> 0.32335640E+04</totfact>
</mgrwt>
</event>
<event>
 5    1  0.3858870E+001  0.8734020E+02  0.7546771E-02  0.1309424E+00
          4   -1    0    0  501    0  0.00000000000E+00  0.00000000000E+00  0.72003681805E+02  0.72003681805E+02  0.00000000000E+00 0. -1.
         -4   -1    0    0    0  501 -0.00000000000E+00 -0.00000000000E+00 -0.26485837887E+02  0.26485837887E+02  0.00000000000E+00 0.  1.
         23    2    1    2    0    0  0.00000000000E+00  0.00000000000E+00  0.45517843918E+02  0.98489519692E+02  0.87340204798E+02 0.  0.
          2    1    3    3  502    0 -0.34231258627E+02  0.22021910361E+02  0.49172339188E+01  0.40999058435E+02  0.00000000000E+00 0. -1.
         -2    1    3    3    0  502  0.34231258627E+02 -0.22021910361E+02  0.40600610000E+02  0.57490461257E+02  0.00000000000E+00 0.  1.
<mgrwt>
<rscale>  0 0.87340205E+02</rscale>
<asrwt>0</asrwt>
<pdfrwt beam="1">  1        4 0.11077489E-01 0.87340205E+02</pdfrwt>
<pdfrwt beam="2">  1       -4 0.40747443E-02 0.87340205E+02</pdfrwt>
<totfact> 0.29817603E+04</totfact>
</mgrwt>
</event>
<event>
 5    1  0.3858870E+001  0.8905850E+02  0.7546771E-02  0.1305148E+00
          1   -1    0    0  501    0  0.00000000000E+00  0.00000000000E+00  0.88329231479E+01  0.88329231479E+01  0.00000000000E+00 0. -1.
         -1   -1    0    0    0  501 -0.00000000000E+00 -0.00000000000E+00 -0.22448446495E+03  0.22448446495E+03  0.00000000000E+00 0.  1.
         23    2    1    2    0    0  0.00000000000E+00  0.00000000000E+00 -0.21565154180E+03  0.23331738810E+03  0.89058498232E+02 0.  0.
          2    1    3    3  502    0 -0.24459970440E+02 -0.32045779996E+02 -0.15736963066E+03  0.16245129370E+03  0.00000000000E+00 0.  1.
         -2    1    3    3    0  502  0.24459970440E+02  0.32045779996E+02 -0.58281911144E+02  0.70866094404E+02  0.00000000000E+00 0. -1.
<mgrwt>
<rscale>  0 0.89058498E+02</rscale>
<asrwt>0</asrwt>
<pdfrwt beam="1">  1        1 0.13589115E-02 0.89058498E+02</pdfrwt>
<pdfrwt beam="2">  1       -1 0.34536065E-01 0.89058498E+02</pdfrwt>
<totfact> 0.71306847E+04</totfact>
</mgrwt>
</event>
<event>
 5    1  0.3858870E+001  0.8979413E+02  0.7546771E-02  0.1303351E+00
         -3   -1    0    0    0  501 -0.00000000000E+00  0.00000000000E+00  0.26513885471E+01  0.26513885471E+01  0.00000000000E+00 0.  1.
          3   -1    0    0  501    0  0.00000000000E+00 -0.00000000000E+00 -0.76026059149E+03  0.76026059149E+03  0.00000000000E+00 0. -1.
         23    2    1    2    0    0  0.00000000000E+00  0.00000000000E+00 -0.75760920295E+03  0.76291198004E+03  0.89794125088E+02 0.  0.
          2    1    3    3  502    0  0.32790614865E+02  0.18818226470E+02 -0.58454618030E+03  0.58576751956E+03  0.00000000000E+00 0. -1.
         -2    1    3    3    0  502 -0.32790614865E+02 -0.18818226470E+02 -0.17306302265E+03  0.17714446048E+03  0.00000000000E+00 0.  1.
<mgrwt>
<rscale>  0 0.89794125E+02</rscale>
<asrwt>0</asrwt>
<pdfrwt beam="2">  1        3 0.11696316E+00 0.89794125E+02</pdfrwt>
<pdfrwt beam="1">  1       -3 0.40790596E-03 0.89794125E+02</pdfrwt>
<totfact> 0.13478009E+04</totfact>
</mgrwt>
</event>
<event>
 5    1  0.3858870E+001  0.9182992E+02  0.7546771E-02  0.1298480E+00
         -1   -1    0    0    0  501 -0.00000000000E+00  0.00000000000E+00  0.17369596552E+01  0.17369596552E+01  0.00000000000E+00 0.  1.
          1   -1    0    0  501    0  0.00000000000E+00 -0.00000000000E+00 -0.12137205315E+04  0.12137205315E+04  0.00000000000E+00 0. -1.
         23    2    1    2    0    0  0.00000000000E+00  0.00000000000E+00 -0.12119835719E+04  0.12154574912E+04  0.91829920962E+02 0.  0.
          2    1    3    3  502    0  0.25035933353E+02  0.24576852947E+01 -0.11143881320E+04  0.11146720356E+04  0.00000000000E+00 0. -1.
         -2    1    3    3    0  502 -0.25035933353E+02 -0.24576852947E+01 -0.97595439869E+02  0.10078545559E+03  0.00000000000E+00 0.  1.
<mgrwt>
<rscale>  0 0.91829921E+02</rscale>
<asrwt>0</asrwt>
<pdfrwt beam="2">  1        1 0.18672618E+00 0.91829921E+02</pdfrwt>
<pdfrwt beam="1">  1       -1 0.26722464E-03 0.91829921E+02</pdfrwt>
<totfact> 0.12424452E+05</totfact>
</mgrwt>
</event>
<event>
 5    1  0.3858870E+001  0.9217587E+02  0.7546771E-02  0.1297666E+00
         -1   -1    0    0    0  501 -0.00000000000E+00  0.00000000000E+00  0.12378788142E+01  0.12378788142E+01  0.00000000000E+00 0.  1.
          1   -1    0    0  501    0  0.00000000000E+00 -0.00000000000E+00 -0.17159172794E+04  0.17159172794E+04  0.00000000000E+00 0. -1.
         23    2    1    2    0    0  0.00000000000E+00  0.00000000000E+00 -0.17146794006E+04  0.17171551582E+04  0.92175867712E+02 0.  0.
          2    1    3    3  502    0 -0.85693148549E+01  0.24510039115E+02 -0.15666964324E+04  0.15669115759E+04  0.00000000000E+00 0. -1.
         -2    1    3    3    0  502  0.85693148549E+01 -0.24510039115E+02 -0.14798296816E+03  0.15024358236E+03  0.00000000000E+00 0.  1.
<mgrwt>
<rscale>  0 0.92175868E+02</rscale>
<asrwt>0</asrwt>
<pdfrwt beam="2">  1        1 0.26398754E+00 0.92175868E+02</pdfrwt>
<pdfrwt beam="1">  1       -1 0.19044270E-03 0.92175868E+02</pdfrwt>
<totfact> 0.94439748E+04</totfact>
</mgrwt>
</event>
<event>
 5    1  0.3858870E+001  0.6604447E+02  0.7546771E-02  0.1374085E+00
         -2   -1    0    0    0  501 -0.00000000000E+00  0.00000000000E+00  0.45547160347E+01  0.45547160347E+01  0.00000000000E+00 0.  1.
          2   -1    0    0  501    0  0.00000000000E+00 -0.00000000000E+00 -0.23941515328E+03  0.23941515328E+03  0.00000000000E+00 0. -1.
         23    2    1    2    0    0  0.00000000000E+00  0.00000000000E+00 -0.23486043724E+03  0.24396986931E+03  0.66044471005E+02 0.  0.
          2    1    3    3  502    0  0.23983614425E+02  0.14537652707E+01 -0.33750922320E+02  0.41430085105E+02  0.00000000000E+00 0. -1.
         -2    1    3    3    0  502 -0.23983614425E+02 -0.14537652707E+01 -0.20110951493E+03  0.20253978421E+03  0.00000000000E+00 0.  1.
<mgrwt>
<rscale>  0 0.66044471E+02</rscale>
<asrwt>0</asrwt>
<pdfrwt beam="2">  1        2 0.36833112E-01 0.66044471E+02</pdfrwt>
<pdfrwt beam="1">  1       -2 0.70072532E-03 0.66044471E+02</pdfrwt>
<totfact> 0.38583230E+05</totfact>
</mgrwt>
</event>
<event>
 5    1  0.3858870E+001  0.9118691E+02  0.7546771E-02  0.1300003E+00
          2   -1    0    0  501    0  0.00000000000E+00  0.00000000000E+00  0.99336365726E+03  0.99336365726E+03  0.00000000000E+00 0. -1.
         -2   -1    0    0    0  501 -0.00000000000E+00 -0.00000000000E+00 -0.20926506577E+01  0.20926506577E+01  0.00000000000E+00 0.  1.
         23    2    1    2    0    0  0.00000000000E+00  0.00000000000E+00  0.99127100660E+03  0.99545630792E+03  0.91186909384E+02 0.  0.
          2    1    3    3  502    0  0.36875159864E+02 -0.82801789711E+01  0.77404759707E+03  0.77496969058E+03  0.00000000000E+00 0. -1.
         -2    1    3    3    0  502 -0.36875159864E+02  0.82801789711E+01  0.21722340953E+03  0.22048661734E+03  0.00000000000E+00 0.  1.
<mgrwt>
<rscale>  0 0.91186909E+02</rscale>
<asrwt>0</asrwt>
<pdfrwt beam="1">  1        2 0.15282480E+00 0.91186909E+02</pdfrwt>
<pdfrwt beam="2">  1       -2 0.32194705E-03 0.91186909E+02</pdfrwt>
<totfact> 0.24986488E+05</totfact>
</mgrwt>
</event>
<event>
 5    1  0.3858870E+001  0.8984821E+02  0.7546771E-02  0.1303220E+00
         -2   -1    0    0    0  501 -0.00000000000E+00  0.00000000000E+00  0.64523006322E+03  0.64523006322E+03  0.00000000000E+00 0.  1.
          2   -1    0    0  501    0  0.00000000000E+00 -0.00000000000E+00 -0.31278384559E+01  0.31278384559E+01  0.00000000000E+00 0. -1.
         23    2    1    2    0    0  0.00000000000E+00  0.00000000000E+00  0.64210222477E+03  0.64835790168E+03  0.89848214331E+02 0.  0.
          2    1    3    3  502    0 -0.43531535134E+02  0.10791985529E+02  0.33974901317E+03  0.34269644505E+03  0.00000000000E+00 0. -1.
         -2    1    3    3    0  502  0.43531535134E+02 -0.10791985529E+02  0.30235321160E+03  0.30566145663E+03  0.00000000000E+00 0.  1.
<mgrwt>
<rscale>  0 0.89848214E+02</rscale>
<asrwt>0</asrwt>
<pdfrwt beam="2">  1        2 0.48120643E-03 0.89848214E+02</pdfrwt>
<pdfrwt beam="1">  1       -2 0.99266058E-01 0.89848214E+02</pdfrwt>
<totfact> 0.30456448E+04</totfact>
</mgrwt>
</event>
<event>
 5    1  0.3858870E+001  0.8535870E+02  0.7546771E-02  0.1314497E+00
         -1   -1    0    0    0  501 -0.00000000000E+00  0.00000000000E+00  0.42490477153E+02  0.42490477153E+02  0.00000000000E+00 0.  1.
          1   -1    0    0  501    0  0.00000000000E+00 -0.00000000000E+00 -0.42869063893E+02  0.42869063893E+02  0.00000000000E+00 0. -1.
         23    2    1    2    0    0  0.00000000000E+00  0.00000000000E+00 -0.37858673923E+00  0.85359541046E+02  0.85358701487E+02 0.  0.
          2    1    3    3  502    0 -0.25913927693E+02  0.18699261145E+02 -0.28479728285E+02  0.42805244294E+02  0.00000000000E+00 0. -1.
         -2    1    3    3    0  502  0.25913927693E+02 -0.18699261145E+02  0.28101141546E+02  0.42554296752E+02  0.00000000000E+00 0.  1.
<mgrwt>
<rscale>  0 0.85358701E+02</rscale>
<asrwt>0</asrwt>
<pdfrwt beam="2">  1        1 0.65952406E-02 0.85358701E+02</pdfrwt>
<pdfrwt beam="1">  1       -1 0.65369965E-02 0.85358701E+02</pdfrwt>
<totfact> 0.11017950E+05</totfact>
</mgrwt>
</event>
<event>
 5    1  0.3858870E+001  0.8476330E+02  0.7546771E-02  0.1316053E+00
         -1   -1    0    0    0  501 -0.00000000000E+00  0.00000000000E+00  0.30660228369E+03  0.30660228369E+03  0.00000000000E+00 0.  1.
          1   -1    0    0  501    0  0.00000000000E+00 -0.00000000000E+00 -0.58584177390E+01  0.58584177390E+01  0.00000000000E+00 0. -1.
         23    2    1    2    0    0  0.00000000000E+00  0.00000000000E+00  0.30074386595E+03  0.31246070143E+03  0.84763300020E+02 0.  0.
          2    1    3    3  502    0  0.30450432986E+02 -0.14835147068E+02  0.56470037419E+02  0.65849643763E+02  0.00000000000E+00 0. -1.
         -2    1    3    3    0  502 -0.30450432986E+02  0.14835147068E+02  0.24427382853E+03  0.24661105766E+03  0.00000000000E+00 0.  1.
<mgrwt>
<rscale>  0 0.84763300E+02</rscale>
<asrwt>0</asrwt>
<pdfrwt beam="2">  1        1 0.90129528E-03 0.84763300E+02</pdfrwt>
<pdfrwt beam="1">  1       -1 0.47169570E-01 0.84763300E+02</pdfrwt>
<totfact> 0.72647419E+04</totfact>
</mgrwt>
</event>
<event>
 5    1  0.3858870E+001  0.8993958E+02  0.7546771E-02  0.1302998E+00
         -2   -1    0    0    0  501 -0.00000000000E+00  0.00000000000E+00  0.15881868276E+02  0.15881868276E+02  0.00000000000E+00 0.  1.
          2   -1    0    0  501    0  0.00000000000E+00 -0.00000000000E+00 -0.12733275277E+03  0.12733275277E+03  0.00000000000E+00 0. -1.
         23    2    1    2    0    0  0.00000000000E+00  0.00000000000E+00 -0.11145088450E+03  0.14321462105E+03  0.89939579869E+02 0.  0.
          2    1    3    3  502    0  0.44058829727E+02  0.90054906155E+01 -0.55643183350E+02  0.71543295922E+02  0.00000000000E+00 0. -1.
         -2    1    3    3    0  502 -0.44058829727E+02 -0.90054906155E+01 -0.55807701147E+02  0.71671325126E+02  0.00000000000E+00 0.  1.
<mgrwt>
<rscale>  0 0.89939580E+02</rscale>
<asrwt>0</asrwt>
<pdfrwt beam="2">  1        2 0.19589654E-01 0.89939580E+02</pdfrwt>
<pdfrwt beam="1">  1       -2 0.24433644E-02 0.89939580E+02</pdfrwt>
<totfact> 0.13739932E+05</totfact>
</mgrwt>
</event>
<event>
 5    1  0.3858870E+001  0.8868391E+02  0.7546771E-02  0.1306070E+00
          1   -1    0    0  501    0  0.00000000000E+00  0.00000000000E+00  0.24567848931E+03  0.24567848931E+03  0.00000000000E+00 0. -1.
         -1   -1    0    0    0  501 -0.00000000000E+00 -0.00000000000E+00 -0.80031789251E+01  0.80031789251E+01  0.00000000000E+00 0.  1.
         23    2    1    2    0    0  0.00000000000E+00  0.00000000000E+00  0.23767531038E+03  0.25368166824E+03  0.88683908529E+02 0.  0.
          2    1    3    3  502    0 -0.30780984274E+02 -0.15926441457E+02  0.19796016630E+03  0.20097101277E+03  0.00000000000E+00 0. -1.
         -2    1    3    3    0  502  0.30780984274E+02  0.15926441457E+02  0.39715144085E+02  0.52710655470E+02  0.00000000000E+00 0.  1.
<mgrwt>
<rscale>  0 0.88683909E+02</rscale>
<asrwt>0</asrwt>
<pdfrwt beam="1">  1        1 0.37796685E-01 0.88683909E+02</pdfrwt>
<pdfrwt beam="2">  1       -1 0.12312585E-02 0.88683909E+02</pdfrwt>
<totfact> 0.13270742E+05</totfact>
</mgrwt>
</event>
<event>
 5    1  0.3858870E+001  0.9688129E+02  0.7546771E-02  0.1286994E+00
         -1   -1    0    0    0  501 -0.00000000000E+00  0.00000000000E+00  0.11003099619E+02  0.11003099619E+02  0.00000000000E+00 0.  1.
          1   -1    0    0  501    0  0.00000000000E+00 -0.00000000000E+00 -0.21325774645E+03  0.21325774645E+03  0.00000000000E+00 0. -1.
         23    2    1    2    0    0  0.00000000000E+00  0.00000000000E+00 -0.20225464683E+03  0.22426084607E+03  0.96881292905E+02 0.  0.
          2    1    3    3  502    0  0.43735607143E+02  0.16518082955E+02 -0.13048478060E+03  0.13860710070E+03  0.00000000000E+00 0. -1.
         -2    1    3    3    0  502 -0.43735607143E+02 -0.16518082955E+02 -0.71769866228E+02  0.85653745365E+02  0.00000000000E+00 0.  1.
<mgrwt>
<rscale>  0 0.96881293E+02</rscale>
<asrwt>0</asrwt>
<pdfrwt beam="2">  1        1 0.32808885E-01 0.96881293E+02</pdfrwt>
<pdfrwt beam="1">  1       -1 0.16927845E-02 0.96881293E+02</pdfrwt>
<totfact> 0.10183936E+05</totfact>
</mgrwt>
</event>
<event>
 5    1  0.3858870E+001  0.9384684E+02  0.7546771E-02  0.1293795E+00
         -1   -1    0    0    0  501 -0.00000000000E+00  0.00000000000E+00  0.58138422991E+02  0.58138422991E+02  0.00000000000E+00 0.  1.
          1   -1    0    0  501    0  0.00000000000E+00 -0.00000000000E+00 -0.37871807531E+02  0.37871807531E+02  0.00000000000E+00 0. -1.
         23    2    1    2    0    0  0.00000000000E+00  0.00000000000E+00  0.20266615460E+02  0.96010230521E+02  0.93846836188E+02 0.  0.
          2    1    3    3  502    0 -0.24104948945E+01 -0.45298991550E+02  0.22409853115E+02  0.50596547686E+02  0.00000000000E+00 0. -1.
         -2    1    3    3    0  502  0.24104948945E+01  0.45298991550E+02 -0.21432376552E+01  0.45413682836E+02  0.00000000000E+00 0.  1.
<mgrwt>
<rscale>  0 0.93846836E+02</rscale>
<asrwt>0</asrwt>
<pdfrwt beam="2">  1        1 0.58264319E-02 0.93846836E+02</pdfrwt>
<pdfrwt beam="1">  1       -1 0.89443728E-02 0.93846836E+02</pdfrwt>
<totfact> 0.82828374E+04</totfact>
</mgrwt>
</event>
<event>
 5    1  0.3858870E+001  0.7643395E+02  0.7546771E-02  0.1339487E+00
         -2   -1    0    0    0  501 -0.00000000000E+00  0.00000000000E+00  0.24621464670E+01  0.24621464670E+01  0.00000000000E+00 0.  1.
          2   -1    0    0  501    0  0.00000000000E+00 -0.00000000000E+00 -0.59319664908E+03  0.59319664908E+03  0.00000000000E+00 0. -1.
         23    2    1    2    0    0  0.00000000000E+00  0.00000000000E+00 -0.59073450261E+03  0.59565879554E+03  0.76433946222E+02 0.  0.
          2    1    3    3  502    0  0.12345842308E+02  0.15904986926E+02 -0.54851151496E+03  0.54888092559E+03  0.00000000000E+00 0. -1.
         -2    1    3    3    0  502 -0.12345842308E+02 -0.15904986926E+02 -0.42222987644E+02  0.46777869949E+02  0.00000000000E+00 0.  1.
<mgrwt>
<rscale>  0 0.76433946E+02</rscale>
<asrwt>0</asrwt>
<pdfrwt beam="2">  1        2 0.91261040E-01 0.76433946E+02</pdfrwt>
<pdfrwt beam="1">  1       -2 0.37879169E-03 0.76433946E+02</pdfrwt>
<totfact> 0.36035297E+05</totfact>
</mgrwt>
</event>
<event>
 5    1  0.3858870E+001  0.9157165E+02  0.7546771E-02  0.1299090E+00
         -2   -1    0    0    0  501 -0.00000000000E+00  0.00000000000E+00  0.39693728780E+03  0.39693728780E+03  0.00000000000E+00 0. -1.
          2   -1    0    0  501    0  0.00000000000E+00 -0.00000000000E+00 -0.52812925240E+01  0.52812925240E+01  0.00000000000E+00 0.  1.
         23    2    1    2    0    0  0.00000000000E+00  0.00000000000E+00  0.39165599527E+03  0.40221858032E+03  0.91571653486E+02 0.  0.
          2    1    3    3  502    0 -0.41177690340E+02 -0.11705965862E+02  0.12449927212E+03  0.13165371463E+03  0.00000000000E+00 0. -1.
         -2    1    3    3    0  502  0.41177690340E+02  0.11705965862E+02  0.26715672315E+03  0.27056486569E+03  0.00000000000E+00 0.  1.
<mgrwt>
<rscale>  0 0.91571653E+02</rscale>
<asrwt>0</asrwt>
<pdfrwt beam="2">  1        2 0.81250685E-03 0.91571653E+02</pdfrwt>
<pdfrwt beam="1">  1       -2 0.61067252E-01 0.91571653E+02</pdfrwt>
<totfact> 0.42437463E+04</totfact>
</mgrwt>
</event>
<event>
 5    1  0.3858870E+001  0.8818408E+02  0.7546771E-02  0.1307310E+00
         -1   -1    0    0    0  501 -0.00000000000E+00  0.00000000000E+00  0.44618926537E+02  0.44618926537E+02  0.00000000000E+00 0.  1.
          1   -1    0    0  501    0  0.00000000000E+00 -0.00000000000E+00 -0.43571371458E+02  0.43571371458E+02  0.00000000000E+00 0. -1.
         23    2    1    2    0    0  0.00000000000E+00  0.00000000000E+00  0.10475550789E+01  0.88190297996E+02  0.88184076164E+02 0.  0.
          2    1    3    3  502    0  0.32160600499E+02 -0.27361195179E+02 -0.12172337595E+02  0.43944340120E+02  0.00000000000E+00 0. -1.
         -2    1    3    3    0  502 -0.32160600499E+02  0.27361195179E+02  0.13219892674E+02  0.44245957876E+02  0.00000000000E+00 0.  1.
<mgrwt>
<rscale>  0 0.88184076E+02</rscale>
<asrwt>0</asrwt>
<pdfrwt beam="2">  1        1 0.67032880E-02 0.88184076E+02</pdfrwt>
<pdfrwt beam="1">  1       -1 0.68644502E-02 0.88184076E+02</pdfrwt>
<totfact> 0.10085024E+05</totfact>
</mgrwt>
</event>
<event>
 5    1  0.3858870E+001  0.9080268E+02  0.7546771E-02  0.1300919E+00
          1   -1    0    0  501    0  0.00000000000E+00  0.00000000000E+00  0.80429953623E+01  0.80429953623E+01  0.00000000000E+00 0. -1.
         -1   -1    0    0    0  501 -0.00000000000E+00 -0.00000000000E+00 -0.25628284086E+03  0.25628284086E+03  0.00000000000E+00 0.  1.
         23    2    1    2    0    0  0.00000000000E+00  0.00000000000E+00 -0.24823984550E+03  0.26432583622E+03  0.90802680588E+02 0.  0.
          2    1    3    3  502    0 -0.88898426507E+01  0.36214989303E+02 -0.19950993659E+03  0.20296494660E+03  0.00000000000E+00 0. -1.
         -2    1    3    3    0  502  0.88898426507E+01 -0.36214989303E+02 -0.48729908914E+02  0.61360889623E+02  0.00000000000E+00 0.  1.
<mgrwt>
<rscale>  0 0.90802681E+02</rscale>
<asrwt>0</asrwt>
<pdfrwt beam="1">  1        1 0.12373838E-02 0.90802681E+02</pdfrwt>
<pdfrwt beam="2">  1       -1 0.39428133E-01 0.90802681E+02</pdfrwt>
<totfact> 0.64910445E+04</totfact>
</mgrwt>
</event>
<event>
 5    1  0.3858870E+001  0.9230838E+02  0.7546771E-02  0.1297356E+00
          1   -1    0    0  501    0  0.00000000000E+00  0.00000000000E+00  0.46997886906E+03  0.46997886906E+03  0.00000000000E+00 0. -1.
         -1   -1    0    0    0  501 -0.00000000000E+00 -0.00000000000E+00 -0.45325636512E+01  0.45325636512E+01  0.00000000000E+00 0.  1.
         23    2    1    2    0    0  0.00000000000E+00  0.00000000000E+00  0.46544630541E+03  0.47451143271E+03  0.92308377491E+02 0.  0.
          2    1    3    3  502    0 -0.69787954706E+00 -0.45955248781E+02  0.21101269123E+03  0.21596001432E+03  0.00000000000E+00 0.  1.
         -2    1    3    3    0  502  0.69787954706E+00  0.45955248781E+02  0.25443361418E+03  0.25855141839E+03  0.00000000000E+00 0. -1.
<mgrwt>
<rscale>  0 0.92308377E+02</rscale>
<asrwt>0</asrwt>
<pdfrwt beam="1">  1        1 0.72304403E-01 0.92308377E+02</pdfrwt>
<pdfrwt beam="2">  1       -1 0.69731786E-03 0.92308377E+02</pdfrwt>
<totfact> 0.13373380E+05</totfact>
</mgrwt>
</event>
<event>
 5    1  0.3858870E+001  0.8992737E+02  0.7546771E-02  0.1303028E+00
          1   -1    0    0  501    0  0.00000000000E+00  0.00000000000E+00  0.12224300617E+04  0.12224300617E+04  0.00000000000E+00 0. -1.
         -1   -1    0    0    0  501 -0.00000000000E+00 -0.00000000000E+00 -0.16538638887E+01  0.16538638887E+01  0.00000000000E+00 0.  1.
         23    2    1    2    0    0  0.00000000000E+00  0.00000000000E+00  0.12207761978E+04  0.12240839256E+04  0.89927369259E+02 0.  0.
          2    1    3    3  502    0 -0.35775955820E+01 -0.31768629310E+02  0.10407675546E+04  0.10412584443E+04  0.00000000000E+00 0. -1.
         -2    1    3    3    0  502  0.35775955820E+01  0.31768629310E+02  0.18000864316E+03  0.18282548129E+03  0.00000000000E+00 0.  1.
<mgrwt>
<rscale>  0 0.89927369E+02</rscale>
<asrwt>0</asrwt>
<pdfrwt beam="1">  1        1 0.18806544E+00 0.89927369E+02</pdfrwt>
<pdfrwt beam="2">  1       -1 0.25444157E-03 0.89927369E+02</pdfrwt>
<totfact> 0.13085733E+05</totfact>
</mgrwt>
</event>
<event>
 5    1  0.3858870E+001  0.9237552E+02  0.7546771E-02  0.1297199E+00
         -1   -1    0    0    0  501 -0.00000000000E+00  0.00000000000E+00  0.87558049411E+03  0.87558049411E+03  0.00000000000E+00 0.  1.
          1   -1    0    0  501    0  0.00000000000E+00 -0.00000000000E+00 -0.24364514477E+01  0.24364514477E+01  0.00000000000E+00 0. -1.
         23    2    1    2    0    0  0.00000000000E+00  0.00000000000E+00  0.87314404266E+03  0.87801694555E+03  0.92375524084E+02 0.  0.
          2    1    3    3  502    0  0.34782140131E+02  0.50206843128E+01  0.15169471953E+03  0.15571221043E+03  0.00000000000E+00 0. -1.
         -2    1    3    3    0  502 -0.34782140131E+02 -0.50206843128E+01  0.72144932313E+03  0.72230473513E+03  0.00000000000E+00 0.  1.
<mgrwt>
<rscale>  0 0.92375524E+02</rscale>
<asrwt>0</asrwt>
<pdfrwt beam="2">  1        1 0.37483938E-03 0.92375524E+02</pdfrwt>
<pdfrwt beam="1">  1       -1 0.13470444E+00 0.92375524E+02</pdfrwt>
<totfact> 0.28799941E+04</totfact>
</mgrwt>
</event>
<event>
 5    1  0.3858870E+001  0.1049428E+03  0.7546771E-02  0.1270232E+00
         -2   -1    0    0    0  501 -0.00000000000E+00  0.00000000000E+00  0.33502610718E+01  0.33502610718E+01  0.00000000000E+00 0.  1.
          2   -1    0    0  501    0  0.00000000000E+00 -0.00000000000E+00 -0.82180145960E+03  0.82180145960E+03  0.00000000000E+00 0. -1.
         23    2    1    2    0    0  0.00000000000E+00  0.00000000000E+00 -0.81845119852E+03  0.82515172067E+03  0.10494283089E+03 0.  0.
          2    1    3    3  502    0  0.12182201777E+01 -0.39733005151E+02 -0.67852784647E+03  0.67969127860E+03  0.00000000000E+00 0. -1.
         -2    1    3    3    0  502 -0.12182201777E+01  0.39733005151E+02 -0.13992335205E+03  0.14546044207E+03  0.00000000000E+00 0.  1.
<mgrwt>
<rscale>  0 0.10494283E+03</rscale>
<asrwt>0</asrwt>
<pdfrwt beam="2">  1        2 0.12643097E+00 0.10494283E+03</pdfrwt>
<pdfrwt beam="1">  1       -2 0.51542489E-03 0.10494283E+03</pdfrwt>
<totfact> 0.16859697E+05</totfact>
</mgrwt>
</event>
<event>
 5    1  0.3858870E+001  0.9191368E+02  0.7546771E-02  0.1298283E+00
          3   -1    0    0  501    0  0.00000000000E+00  0.00000000000E+00  0.14825817107E+03  0.14825817107E+03  0.00000000000E+00 0. -1.
         -3   -1    0    0    0  501 -0.00000000000E+00 -0.00000000000E+00 -0.14245631298E+02  0.14245631298E+02  0.00000000000E+00 0.  1.
         23    2    1    2    0    0  0.00000000000E+00  0.00000000000E+00  0.13401253977E+03  0.16250380237E+03  0.91913682157E+02 0.  0.
          2    1    3    3  502    0 -0.73725930939E+00  0.45124775419E+02  0.82342354354E+02  0.93899159893E+02  0.00000000000E+00 0. -1.
         -2    1    3    3    0  502  0.73725930939E+00 -0.45124775419E+02  0.51670185417E+02  0.68604642474E+02  0.00000000000E+00 0.  1.
<mgrwt>
<rscale>  0 0.91913682E+02</rscale>
<asrwt>0</asrwt>
<pdfrwt beam="1">  1        3 0.22808948E-01 0.91913682E+02</pdfrwt>
<pdfrwt beam="2">  1       -3 0.21916357E-02 0.91913682E+02</pdfrwt>
<totfact> 0.29899604E+04</totfact>
</mgrwt>
</event>
<event>
 5    1  0.3858870E+001  0.9623699E+02  0.7546771E-02  0.1288414E+00
         -2   -1    0    0    0  501 -0.00000000000E+00  0.00000000000E+00  0.32930990741E+01  0.32930990741E+01  0.00000000000E+00 0.  1.
          2   -1    0    0  501    0  0.00000000000E+00 -0.00000000000E+00 -0.70310358775E+03  0.70310358775E+03  0.00000000000E+00 0. -1.
         23    2    1    2    0    0  0.00000000000E+00  0.00000000000E+00 -0.69981048867E+03  0.70639668682E+03  0.96236994421E+02 0.  0.
          2    1    3    3  502    0 -0.31161444026E+02 -0.29159661920E+02 -0.51306013482E+03  0.51483203418E+03  0.00000000000E+00 0. -1.
         -2    1    3    3    0  502  0.31161444026E+02  0.29159661920E+02 -0.18675035385E+03  0.19156465264E+03  0.00000000000E+00 0.  1.
<mgrwt>
<rscale>  0 0.96236994E+02</rscale>
<asrwt>0</asrwt>
<pdfrwt beam="2">  1        2 0.10816984E+00 0.96236994E+02</pdfrwt>
<pdfrwt beam="1">  1       -2 0.50663036E-03 0.96236994E+02</pdfrwt>
<totfact> 0.20577947E+05</totfact>
</mgrwt>
</event>
<event>
 5    1  0.3858870E+001  0.9418637E+02  0.7546771E-02  0.1293019E+00
         -1   -1    0    0    0  501 -0.00000000000E+00  0.00000000000E+00  0.15059484001E+02  0.15059484001E+02  0.00000000000E+00 0.  1.
          1   -1    0    0  501    0  0.00000000000E+00 -0.00000000000E+00 -0.14726720360E+03  0.14726720360E+03  0.00000000000E+00 0. -1.
         23    2    1    2    0    0  0.00000000000E+00  0.00000000000E+00 -0.13220771960E+03  0.16232668760E+03  0.94186370489E+02 0.  0.
          2    1    3    3  502    0 -0.20736618078E+02 -0.21735068361E+02 -0.35977992072E+01  0.30254994383E+02  0.00000000000E+00 0.  1.
         -2    1    3    3    0  502  0.20736618078E+02  0.21735068361E+02 -0.12860992039E+03  0.13207169322E+03  0.00000000000E+00 0. -1.
<mgrwt>
<rscale>  0 0.94186370E+02</rscale>
<asrwt>0</asrwt>
<pdfrwt beam="2">  1        1 0.22656492E-01 0.94186370E+02</pdfrwt>
<pdfrwt beam="1">  1       -1 0.23168438E-02 0.94186370E+02</pdfrwt>
<totfact> 0.10235291E+05</totfact>
</mgrwt>
</event>
<event>
 5    1  0.3858870E+001  0.8330418E+02  0.7546771E-02  0.1319928E+00
         -1   -1    0    0    0  501 -0.00000000000E+00  0.00000000000E+00  0.12945761903E+01  0.12945761903E+01  0.00000000000E+00 0.  1.
          1   -1    0    0  501    0  0.00000000000E+00 -0.00000000000E+00 -0.13401270146E+04  0.13401270146E+04  0.00000000000E+00 0. -1.
         23    2    1    2    0    0  0.00000000000E+00  0.00000000000E+00 -0.13388324384E+04  0.13414215908E+04  0.83304178167E+02 0.  0.
          2    1    3    3  502    0 -0.28731629642E+01  0.27528190093E+02 -0.16820061244E+03  0.17046261274E+03  0.00000000000E+00 0.  1.
         -2    1    3    3    0  502  0.28731629642E+01 -0.27528190093E+02 -0.11706318260E+04  0.11709589781E+04  0.00000000000E+00 0. -1.
<mgrwt>
<rscale>  0 0.83304178E+02</rscale>
<asrwt>0</asrwt>
<pdfrwt beam="2">  1        1 0.20617312E+00 0.83304178E+02</pdfrwt>
<pdfrwt beam="1">  1       -1 0.19916583E-03 0.83304178E+02</pdfrwt>
<totfact> 0.15204809E+05</totfact>
</mgrwt>
</event>
<event>
 5    1  0.3858870E+001  0.9105505E+02  0.7546771E-02  0.1300317E+00
         -3   -1    0    0    0  501 -0.00000000000E+00  0.00000000000E+00  0.19337202688E+02  0.19337202688E+02  0.00000000000E+00 0.  1.
          3   -1    0    0  501    0  0.00000000000E+00 -0.00000000000E+00 -0.10719003185E+03  0.10719003185E+03  0.00000000000E+00 0. -1.
         23    2    1    2    0    0  0.00000000000E+00  0.00000000000E+00 -0.87852829162E+02  0.12652723454E+03  0.91055046473E+02 0.  0.
          2    1    3    3  502    0 -0.24026737401E+02 -0.30646045578E+02 -0.76700537024E+02  0.86019977909E+02  0.00000000000E+00 0. -1.
         -2    1    3    3    0  502  0.24026737401E+02  0.30646045578E+02 -0.11152292139E+02  0.40507256630E+02  0.00000000000E+00 0.  1.
<mgrwt>
<rscale>  0 0.91055046E+02</rscale>
<asrwt>0</asrwt>
<pdfrwt beam="2">  1        3 0.16490774E-01 0.91055046E+02</pdfrwt>
<pdfrwt beam="1">  1       -3 0.29749542E-02 0.91055046E+02</pdfrwt>
<totfact> 0.32925160E+04</totfact>
</mgrwt>
</event>
<event>
 5    1  0.3858870E+001  0.8992961E+02  0.7546771E-02  0.1303022E+00
         -1   -1    0    0    0  501 -0.00000000000E+00  0.00000000000E+00  0.33964933813E+01  0.33964933813E+01  0.00000000000E+00 0.  1.
          1   -1    0    0  501    0  0.00000000000E+00 -0.00000000000E+00 -0.59527089908E+03  0.59527089908E+03  0.00000000000E+00 0. -1.
         23    2    1    2    0    0  0.00000000000E+00  0.00000000000E+00 -0.59187440570E+03  0.59866739247E+03  0.89929609558E+02 0.  0.
          2    1    3    3  502    0  0.44877732252E+01  0.44461073899E+02 -0.26271419349E+03  0.26648766324E+03  0.00000000000E+00 0. -1.
         -2    1    3    3    0  502 -0.44877732252E+01 -0.44461073899E+02 -0.32916021222E+03  0.33217972922E+03  0.00000000000E+00 0.  1.
<mgrwt>
<rscale>  0 0.89929610E+02</rscale>
<asrwt>0</asrwt>
<pdfrwt beam="2">  1        1 0.91580096E-01 0.89929610E+02</pdfrwt>
<pdfrwt beam="1">  1       -1 0.52253768E-03 0.89929610E+02</pdfrwt>
<totfact> 0.14676848E+05</totfact>
</mgrwt>
</event>
<event>
 5    1  0.3858870E+001  0.8860841E+02  0.7546771E-02  0.1306257E+00
         -2   -1    0    0    0  501 -0.00000000000E+00  0.00000000000E+00  0.91609102966E+03  0.91609102966E+03  0.00000000000E+00 0.  1.
          2   -1    0    0  501    0  0.00000000000E+00 -0.00000000000E+00 -0.21426499076E+01  0.21426499076E+01  0.00000000000E+00 0. -1.
         23    2    1    2    0    0  0.00000000000E+00  0.00000000000E+00  0.91394837975E+03  0.91823367957E+03  0.88608405021E+02 0.  0.
          2    1    3    3  502    0  0.27769372658E+02  0.13367875950E+02  0.12714566844E+03  0.13082759330E+03  0.00000000000E+00 0. -1.
         -2    1    3    3    0  502 -0.27769372658E+02 -0.13367875950E+02  0.78680271131E+03  0.78740608627E+03  0.00000000000E+00 0.  1.
<mgrwt>
<rscale>  0 0.88608405E+02</rscale>
<asrwt>0</asrwt>
<pdfrwt beam="2">  1        2 0.32963918E-03 0.88608405E+02</pdfrwt>
<pdfrwt beam="1">  1       -2 0.14093677E+00 0.88608405E+02</pdfrwt>
<totfact> 0.22236867E+04</totfact>
</mgrwt>
</event>
<event>
 5    1  0.3858870E+001  0.9035595E+02  0.7546771E-02  0.1301992E+00
          1   -1    0    0  501    0  0.00000000000E+00  0.00000000000E+00  0.76163347399E+02  0.76163347399E+02  0.00000000000E+00 0. -1.
         -1   -1    0    0    0  501 -0.00000000000E+00 -0.00000000000E+00 -0.26798317638E+02  0.26798317638E+02  0.00000000000E+00 0.  1.
         23    2    1    2    0    0  0.00000000000E+00  0.00000000000E+00  0.49365029762E+02  0.10296166504E+03  0.90355953340E+02 0.  0.
          2    1    3    3  502    0  0.15510716514E+02 -0.30663959040E+02  0.58103226492E+02  0.67504412001E+02  0.00000000000E+00 0. -1.
         -2    1    3    3    0  502 -0.15510716514E+02  0.30663959040E+02 -0.87381967309E+01  0.35457253036E+02  0.00000000000E+00 0.  1.
<mgrwt>
<rscale>  0 0.90355953E+02</rscale>
<asrwt>0</asrwt>
<pdfrwt beam="1">  1        1 0.11717438E-01 0.90355953E+02</pdfrwt>
<pdfrwt beam="2">  1       -1 0.41228181E-02 0.90355953E+02</pdfrwt>
<totfact> 0.10248302E+05</totfact>
</mgrwt>
</event>
<event>
 5    1  0.3858870E+001  0.9521098E+02  0.7546771E-02  0.1290702E+00
          1   -1    0    0  501    0  0.00000000000E+00  0.00000000000E+00  0.35807535036E+01  0.35807535036E+01  0.00000000000E+00 0. -1.
         -1   -1    0    0    0  501 -0.00000000000E+00 -0.00000000000E+00 -0.63290658130E+03  0.63290658130E+03  0.00000000000E+00 0.  1.
         23    2    1    2    0    0  0.00000000000E+00  0.00000000000E+00 -0.62932582780E+03  0.63648733481E+03  0.95210975385E+02 0.  0.
          2    1    3    3  502    0 -0.22911926798E+02 -0.17687089870E+02 -0.61999826784E+02  0.68423446704E+02  0.00000000000E+00 0. -1.
         -2    1    3    3    0  502  0.22911926798E+02  0.17687089870E+02 -0.56732600102E+03  0.56806388810E+03  0.00000000000E+00 0.  1.
<mgrwt>
<rscale>  0 0.95210975E+02</rscale>
<asrwt>0</asrwt>
<pdfrwt beam="1">  1        1 0.55088553E-03 0.95210975E+02</pdfrwt>
<pdfrwt beam="2">  1       -1 0.97370177E-01 0.95210975E+02</pdfrwt>
<totfact> 0.35677524E+04</totfact>
</mgrwt>
</event>
<event>
 5    1  0.3858870E+001  0.8884391E+02  0.7546771E-02  0.1305676E+00
         -1   -1    0    0    0  501 -0.00000000000E+00  0.00000000000E+00  0.20971286844E+01  0.20971286844E+01  0.00000000000E+00 0.  1.
          1   -1    0    0  501    0  0.00000000000E+00 -0.00000000000E+00 -0.94095805226E+03  0.94095805226E+03  0.00000000000E+00 0. -1.
         23    2    1    2    0    0  0.00000000000E+00  0.00000000000E+00 -0.93886092357E+03  0.94305518094E+03  0.88843910816E+02 0.  0.
          2    1    3    3  502    0  0.23725906138E+02 -0.32067463006E+02 -0.67691250617E+03  0.67808685418E+03  0.00000000000E+00 0. -1.
         -2    1    3    3    0  502 -0.23725906138E+02  0.32067463006E+02 -0.26194841741E+03  0.26496832676E+03  0.00000000000E+00 0.  1.
<mgrwt>
<rscale>  0 0.88843911E+02</rscale>
<asrwt>0</asrwt>
<pdfrwt beam="2">  1        1 0.14476279E+00 0.88843911E+02</pdfrwt>
<pdfrwt beam="1">  1       -1 0.32263516E-03 0.88843911E+02</pdfrwt>
<totfact> 0.14777003E+05</totfact>
</mgrwt>
</event>
<event>
 5    1  0.3858870E+001  0.7840254E+02  0.7546771E-02  0.1333647E+00
         -2   -1    0    0    0  501 -0.00000000000E+00  0.00000000000E+00  0.12407979800E+01  0.12407979800E+01  0.00000000000E+00 0.  1.
          2   -1    0    0  501    0  0.00000000000E+00 -0.00000000000E+00 -0.12385089953E+04  0.12385089953E+04  0.00000000000E+00 0. -1.
         23    2    1    2    0    0  0.00000000000E+00  0.00000000000E+00 -0.12372681973E+04  0.12397497933E+04  0.78402537195E+02 0.  0.
          2    1    3    3  502    0 -0.23808929357E+02 -0.21735470863E+02 -0.97131007116E+03  0.97184492084E+03  0.00000000000E+00 0. -1.
         -2    1    3    3    0  502  0.23808929357E+02  0.21735470863E+02 -0.26595812617E+03  0.26790487246E+03  0.00000000000E+00 0.  1.
<mgrwt>
<rscale>  0 0.78402537E+02</rscale>
<asrwt>0</asrwt>
<pdfrwt beam="2">  1        2 0.19053924E+00 0.78402537E+02</pdfrwt>
<pdfrwt beam="1">  1       -2 0.19089261E-03 0.78402537E+02</pdfrwt>
<totfact> 0.36747832E+05</totfact>
</mgrwt>
</event>
<event>
 5    1  0.3858870E+001  0.9200321E+02  0.7546771E-02  0.1298072E+00
         -4   -1    0    0    0  501 -0.00000000000E+00  0.00000000000E+00  0.12222285470E+04  0.12222285470E+04  0.00000000000E+00 0.  1.
          4   -1    0    0  501    0  0.00000000000E+00 -0.00000000000E+00 -0.17313845613E+01  0.17313845613E+01  0.00000000000E+00 0. -1.
         23    2    1    2    0    0  0.00000000000E+00  0.00000000000E+00  0.12204971625E+04  0.12239599316E+04  0.92003209438E+02 0.  0.
          2    1    3    3  502    0 -0.10063352059E+02  0.19486100936E+02  0.11482029923E+04  0.11484124219E+04  0.00000000000E+00 0.  1.
         -2    1    3    3    0  502  0.10063352059E+02 -0.19486100936E+02  0.72294170168E+02  0.75547509718E+02  0.00000000000E+00 0. -1.
<mgrwt>
<rscale>  0 0.92003209E+02</rscale>
<asrwt>0</asrwt>
<pdfrwt beam="2">  1        4 0.26636783E-03 0.92003209E+02</pdfrwt>
<pdfrwt beam="1">  1       -4 0.18803447E+00 0.92003209E+02</pdfrwt>
<totfact> 0.54741742E+03</totfact>
</mgrwt>
</event>
<event>
 5    1  0.3858870E+001  0.9376722E+02  0.7546771E-02  0.1293977E+00
          2   -1    0    0  501    0  0.00000000000E+00  0.00000000000E+00  0.25082807339E+04  0.25082807339E+04  0.00000000000E+00 0. -1.
         -2   -1    0    0    0  501 -0.00000000000E+00 -0.00000000000E+00 -0.87632651458E+00  0.87632651458E+00  0.00000000000E+00 0.  1.
         23    2    1    2    0    0  0.00000000000E+00  0.00000000000E+00  0.25074044074E+04  0.25091570604E+04  0.93767220565E+02 0.  0.
          2    1    3    3  502    0 -0.30111470662E+02  0.61296665227E+00  0.22151801776E+04  0.22153849091E+04  0.00000000000E+00 0. -1.
         -2    1    3    3    0  502  0.30111470662E+02 -0.61296665227E+00  0.29222422983E+03  0.29377215132E+03  0.00000000000E+00 0.  1.
<mgrwt>
<rscale>  0 0.93767221E+02</rscale>
<asrwt>0</asrwt>
<pdfrwt beam="1">  1        2 0.38588360E+00 0.93767221E+02</pdfrwt>
<pdfrwt beam="2">  1       -2 0.13482147E-03 0.93767221E+02</pdfrwt>
<totfact> 0.13715034E+05</totfact>
</mgrwt>
</event>
<event>
 5    1  0.3858870E+001  0.8745585E+02  0.7546771E-02  0.1309132E+00
          2   -1    0    0  501    0  0.00000000000E+00  0.00000000000E+00  0.36747644805E+03  0.36747644805E+03  0.00000000000E+00 0. -1.
         -2   -1    0    0    0  501 -0.00000000000E+00 -0.00000000000E+00 -0.52034125722E+01  0.52034125722E+01  0.00000000000E+00 0.  1.
         23    2    1    2    0    0  0.00000000000E+00  0.00000000000E+00  0.36227303547E+03  0.37267986062E+03  0.87455853315E+02 0.  0.
          2    1    3    3  502    0 -0.12226385023E+02  0.20741980744E+02  0.33668550093E+03  0.33754531665E+03  0.00000000000E+00 0. -1.
         -2    1    3    3    0  502  0.12226385023E+02 -0.20741980744E+02  0.25587534549E+02  0.35134543973E+02  0.00000000000E+00 0.  1.
<mgrwt>
<rscale>  0 0.87455853E+02</rscale>
<asrwt>0</asrwt>
<pdfrwt beam="1">  1        2 0.56534818E-01 0.87455853E+02</pdfrwt>
<pdfrwt beam="2">  1       -2 0.80052530E-03 0.87455853E+02</pdfrwt>
<totfact> 0.21621707E+05</totfact>
</mgrwt>
</event>
<event>
 5    1  0.3858870E+001  0.9242763E+02  0.7546771E-02  0.1297077E+00
         -1   -1    0    0    0  501 -0.00000000000E+00  0.00000000000E+00  0.95988925958E+02  0.95988925958E+02  0.00000000000E+00 0.  1.
          1   -1    0    0  501    0  0.00000000000E+00 -0.00000000000E+00 -0.22249615298E+02  0.22249615298E+02  0.00000000000E+00 0. -1.
         23    2    1    2    0    0  0.00000000000E+00  0.00000000000E+00  0.73739310660E+02  0.11823854126E+03  0.92427629537E+02 0.  0.
          2    1    3    3  502    0  0.63068774965E+01  0.32442311554E+02 -0.44531919354E+01  0.33348331309E+02  0.00000000000E+00 0. -1.
         -2    1    3    3    0  502 -0.63068774965E+01 -0.32442311554E+02  0.78192502595E+02  0.84890209947E+02  0.00000000000E+00 0.  1.
<mgrwt>
<rscale>  0 0.92427630E+02</rscale>
<asrwt>0</asrwt>
<pdfrwt beam="2">  1        1 0.34230178E-02 0.92427630E+02</pdfrwt>
<pdfrwt beam="1">  1       -1 0.14767527E-01 0.92427630E+02</pdfrwt>
<totfact> 0.79159159E+04</totfact>
</mgrwt>
</event>
<event>
 5    1  0.3858870E+001  0.9224530E+02  0.7546771E-02  0.1297504E+00
          1   -1    0    0  501    0  0.00000000000E+00  0.00000000000E+00  0.22270072448E+04  0.22270072448E+04  0.00000000000E+00 0. -1.
         -1   -1    0    0    0  501 -0.00000000000E+00 -0.00000000000E+00 -0.95522762030E+00  0.95522762030E+00  0.00000000000E+00 0.  1.
         23    2    1    2    0    0  0.00000000000E+00  0.00000000000E+00  0.22260520172E+04  0.22279624725E+04  0.92245299737E+02 0.  0.
          2    1    3    3  502    0  0.18560620375E+02  0.41014157539E+02  0.13553248163E+04  0.13560722751E+04  0.00000000000E+00 0. -1.
         -2    1    3    3    0  502 -0.18560620375E+02 -0.41014157539E+02  0.87072720093E+03  0.87189019733E+03  0.00000000000E+00 0.  1.
<mgrwt>
<rscale>  0 0.92245300E+02</rscale>
<asrwt>0</asrwt>
<pdfrwt beam="1">  1        1 0.34261234E+00 0.92245300E+02</pdfrwt>
<pdfrwt beam="2">  1       -1 0.14695988E-03 0.92245300E+02</pdfrwt>
<totfact> 0.64549010E+04</totfact>
</mgrwt>
</event>
<event>
 5    1  0.3858870E+001  0.9104201E+02  0.7546771E-02  0.1300348E+00
          1   -1    0    0  501    0  0.00000000000E+00  0.00000000000E+00  0.81051272919E+01  0.81051272919E+01  0.00000000000E+00 0. -1.
         -1   -1    0    0    0  501 -0.00000000000E+00 -0.00000000000E+00 -0.25566064297E+03  0.25566064297E+03  0.00000000000E+00 0.  1.
         23    2    1    2    0    0  0.00000000000E+00  0.00000000000E+00 -0.24755551568E+03  0.26376577026E+03  0.91042013484E+02 0.  0.
          2    1    3    3  502    0  0.23975169953E+02 -0.35695315546E+02 -0.80494348047E+02  0.91259544124E+02  0.00000000000E+00 0. -1.
         -2    1    3    3    0  502 -0.23975169953E+02  0.35695315546E+02 -0.16706116763E+03  0.17250622614E+03  0.00000000000E+00 0.  1.
<mgrwt>
<rscale>  0 0.91042013E+02</rscale>
<asrwt>0</asrwt>
<pdfrwt beam="1">  1        1 0.12469427E-02 0.91042013E+02</pdfrwt>
<pdfrwt beam="2">  1       -1 0.39332404E-01 0.91042013E+02</pdfrwt>
<totfact> 0.64520232E+04</totfact>
</mgrwt>
</event>
<event>
 5    1  0.3858870E+001  0.9594963E+02  0.7546771E-02  0.1289051E+00
          1   -1    0    0  501    0  0.00000000000E+00  0.00000000000E+00  0.23458249931E+02  0.23458249931E+02  0.00000000000E+00 0. -1.
         -1   -1    0    0    0  501 -0.00000000000E+00 -0.00000000000E+00 -0.98114016178E+02  0.98114016178E+02  0.00000000000E+00 0.  1.
         23    2    1    2    0    0  0.00000000000E+00  0.00000000000E+00 -0.74655766247E+02  0.12157226611E+03  0.95949634981E+02 0.  0.
          2    1    3    3  502    0  0.19885853010E+02 -0.32049042951E+01  0.17841082115E+02  0.26907671258E+02  0.00000000000E+00 0. -1.
         -2    1    3    3    0  502 -0.19885853010E+02  0.32049042951E+01 -0.92496848362E+02  0.94664594851E+02  0.00000000000E+00 0.  1.
<mgrwt>
<rscale>  0 0.95949635E+02</rscale>
<asrwt>0</asrwt>
<pdfrwt beam="1">  1        1 0.36089615E-02 0.95949635E+02</pdfrwt>
<pdfrwt beam="2">  1       -1 0.15094464E-01 0.95949635E+02</pdfrwt>
<totfact> 0.71593066E+04</totfact>
</mgrwt>
</event>
<event>
 5    1  0.3858870E+001  0.9023102E+02  0.7546771E-02  0.1302293E+00
         -3   -1    0    0    0  501 -0.00000000000E+00  0.00000000000E+00  0.63649020701E+03  0.63649020701E+03  0.00000000000E+00 0.  1.
          3   -1    0    0  501    0  0.00000000000E+00 -0.00000000000E+00 -0.31978643613E+01  0.31978643613E+01  0.00000000000E+00 0. -1.
         23    2    1    2    0    0  0.00000000000E+00  0.00000000000E+00  0.63329234264E+03  0.63968807137E+03  0.90231022366E+02 0.  0.
          2    1    3    3  502    0 -0.16085260159E+02 -0.23427083936E+02  0.56506484247E+03  0.56577896749E+03  0.00000000000E+00 0.  1.
         -2    1    3    3    0  502  0.16085260159E+02  0.23427083936E+02  0.68227500173E+02  0.73909103878E+02  0.00000000000E+00 0. -1.
<mgrwt>
<rscale>  0 0.90231022E+02</rscale>
<asrwt>0</asrwt>
<pdfrwt beam="2">  1        3 0.49197964E-03 0.90231022E+02</pdfrwt>
<pdfrwt beam="1">  1       -3 0.97921470E-01 0.90231022E+02</pdfrwt>
<totfact> 0.15363900E+04</totfact>
</mgrwt>
</event>
<event>
 5    1  0.3858870E+001  0.9151931E+02  0.7546771E-02  0.1299214E+00
         -1   -1    0    0    0  501 -0.00000000000E+00  0.00000000000E+00  0.62284310699E+02  0.62284310699E+02  0.00000000000E+00 0.  1.
          1   -1    0    0  501    0  0.00000000000E+00 -0.00000000000E+00 -0.33619156727E+02  0.33619156727E+02  0.00000000000E+00 0. -1.
         23    2    1    2    0    0  0.00000000000E+00  0.00000000000E+00  0.28665153973E+02  0.95903467426E+02  0.91519309504E+02 0.  0.
          2    1    3    3  502    0 -0.21392964862E+02 -0.39808675399E+02  0.68083315606E+01  0.45702767545E+02  0.00000000000E+00 0. -1.
         -2    1    3    3    0  502  0.21392964862E+02  0.39808675399E+02  0.21856822412E+02  0.50200699881E+02  0.00000000000E+00 0.  1.
<mgrwt>
<rscale>  0 0.91519310E+02</rscale>
<asrwt>0</asrwt>
<pdfrwt beam="2">  1        1 0.51721780E-02 0.91519310E+02</pdfrwt>
<pdfrwt beam="1">  1       -1 0.95822016E-02 0.91519310E+02</pdfrwt>
<totfact> 0.87327802E+04</totfact>
</mgrwt>
</event>
<event>
 5    1  0.3858870E+001  0.9142796E+02  0.7546771E-02  0.1299430E+00
          2   -1    0    0  501    0  0.00000000000E+00  0.00000000000E+00  0.14021459387E+04  0.14021459387E+04  0.00000000000E+00 0. -1.
         -2   -1    0    0    0  501 -0.00000000000E+00 -0.00000000000E+00 -0.14904067687E+01  0.14904067687E+01  0.00000000000E+00 0.  1.
         23    2    1    2    0    0  0.00000000000E+00  0.00000000000E+00  0.14006555319E+04  0.14036363455E+04  0.91427956287E+02 0.  0.
          2    1    3    3  502    0  0.21648226938E+02  0.19403176244E+02  0.12419509730E+04  0.12422911689E+04  0.00000000000E+00 0. -1.
         -2    1    3    3    0  502 -0.21648226938E+02 -0.19403176244E+02  0.15870455889E+03  0.16134517653E+03  0.00000000000E+00 0.  1.
<mgrwt>
<rscale>  0 0.91427956E+02</rscale>
<asrwt>0</asrwt>
<pdfrwt beam="1">  1        2 0.21571370E+00 0.91427956E+02</pdfrwt>
<pdfrwt beam="2">  1       -2 0.22929447E-03 0.91427956E+02</pdfrwt>
<totfact> 0.23955250E+05</totfact>
</mgrwt>
</event>
<event>
 5    1  0.3858870E+001  0.9215408E+02  0.7546771E-02  0.1297718E+00
          3   -1    0    0  501    0  0.00000000000E+00  0.00000000000E+00  0.12708668781E+03  0.12708668781E+03  0.00000000000E+00 0. -1.
         -3   -1    0    0    0  501 -0.00000000000E+00 -0.00000000000E+00 -0.16705868125E+02  0.16705868125E+02  0.00000000000E+00 0.  1.
         23    2    1    2    0    0  0.00000000000E+00  0.00000000000E+00  0.11038081969E+03  0.14379255594E+03  0.92154076352E+02 0.  0.
          2    1    3    3  502    0  0.41253017697E+02  0.20502744665E+02  0.53694231578E+02  0.70747752705E+02  0.00000000000E+00 0. -1.
         -2    1    3    3    0  502 -0.41253017697E+02 -0.20502744665E+02  0.56686588110E+02  0.73044803235E+02  0.00000000000E+00 0.  1.
<mgrwt>
<rscale>  0 0.92154076E+02</rscale>
<asrwt>0</asrwt>
<pdfrwt beam="1">  1        3 0.19551797E-01 0.92154076E+02</pdfrwt>
<pdfrwt beam="2">  1       -3 0.25701336E-02 0.92154076E+02</pdfrwt>
<totfact> 0.30786859E+04</totfact>
</mgrwt>
</event>
<event>
 5    1  0.3858870E+001  0.9416260E+02  0.7546771E-02  0.1293073E+00
          1   -1    0    0  501    0  0.00000000000E+00  0.00000000000E+00  0.46362282276E+02  0.46362282276E+02  0.00000000000E+00 0. -1.
         -1   -1    0    0    0  501 -0.00000000000E+00 -0.00000000000E+00 -0.47811471599E+02  0.47811471599E+02  0.00000000000E+00 0.  1.
         23    2    1    2    0    0  0.00000000000E+00  0.00000000000E+00 -0.14491893224E+01  0.94173753875E+02  0.94162602817E+02 0.  0.
          2    1    3    3  502    0 -0.18944456548E+02 -0.36053604413E+02  0.22897984803E+02  0.46723361749E+02  0.00000000000E+00 0. -1.
         -2    1    3    3    0  502  0.18944456548E+02  0.36053604413E+02 -0.24347174125E+02  0.47450392126E+02  0.00000000000E+00 0.  1.
<mgrwt>
<rscale>  0 0.94162603E+02</rscale>
<asrwt>0</asrwt>
<pdfrwt beam="1">  1        1 0.71326588E-02 0.94162603E+02</pdfrwt>
<pdfrwt beam="2">  1       -1 0.73556110E-02 0.94162603E+02</pdfrwt>
<totfact> 0.84668453E+04</totfact>
</mgrwt>
</event>
<event>
 5    1  0.3858870E+001  0.9006098E+02  0.7546771E-02  0.1302704E+00
          2   -1    0    0  501    0  0.00000000000E+00  0.00000000000E+00  0.10991831775E+02  0.10991831775E+02  0.00000000000E+00 0. -1.
         -2   -1    0    0    0  501 -0.00000000000E+00 -0.00000000000E+00 -0.18447743944E+03  0.18447743944E+03  0.00000000000E+00 0.  1.
         23    2    1    2    0    0  0.00000000000E+00  0.00000000000E+00 -0.17348560767E+03  0.19546927122E+03  0.90060978912E+02 0.  0.
          2    1    3    3  502    0 -0.21661278152E+02 -0.19402027976E+02 -0.12120598539E+02  0.31504897551E+02  0.00000000000E+00 0. -1.
         -2    1    3    3    0  502  0.21661278152E+02  0.19402027976E+02 -0.16136500913E+03  0.16396437367E+03  0.00000000000E+00 0.  1.
<mgrwt>
<rscale>  0 0.90060979E+02</rscale>
<asrwt>0</asrwt>
<pdfrwt beam="1">  1        2 0.16910511E-02 0.90060979E+02</pdfrwt>
<pdfrwt beam="2">  1       -2 0.28381144E-01 0.90060979E+02</pdfrwt>
<totfact> 0.66535930E+04</totfact>
</mgrwt>
</event>
<event>
 5    1  0.3858870E+001  0.9124554E+02  0.7546771E-02  0.1299863E+00
         -2   -1    0    0    0  501 -0.00000000000E+00  0.00000000000E+00  0.39962337093E+01  0.39962337093E+01  0.00000000000E+00 0.  1.
          2   -1    0    0  501    0  0.00000000000E+00 -0.00000000000E+00 -0.52084972530E+03  0.52084972530E+03  0.00000000000E+00 0. -1.
         23    2    1    2    0    0  0.00000000000E+00  0.00000000000E+00 -0.51685349159E+03  0.52484595901E+03  0.91245541913E+02 0.  0.
          2    1    3    3  502    0  0.13408242780E+02 -0.42420129556E+02 -0.20028045874E+03  0.20516215665E+03  0.00000000000E+00 0. -1.
         -2    1    3    3    0  502 -0.13408242780E+02  0.42420129556E+02 -0.31657303285E+03  0.31968380237E+03  0.00000000000E+00 0.  1.
<mgrwt>
<rscale>  0 0.91245542E+02</rscale>
<asrwt>0</asrwt>
<pdfrwt beam="2">  1        2 0.80130733E-01 0.91245542E+02</pdfrwt>
<pdfrwt beam="1">  1       -2 0.61480514E-03 0.91245542E+02</pdfrwt>
<totfact> 0.21790642E+05</totfact>
</mgrwt>
</event>
<event>
 5    1  0.3858870E+001  0.9191737E+02  0.7546771E-02  0.1298274E+00
         -1   -1    0    0    0  501 -0.00000000000E+00  0.00000000000E+00  0.22788068859E+02  0.22788068859E+02  0.00000000000E+00 0.  1.
          1   -1    0    0  501    0  0.00000000000E+00 -0.00000000000E+00 -0.92688883284E+02  0.92688883284E+02  0.00000000000E+00 0. -1.
         23    2    1    2    0    0  0.00000000000E+00  0.00000000000E+00 -0.69900814425E+02  0.11547695214E+03  0.91917368430E+02 0.  0.
          2    1    3    3  502    0  0.24713985395E+02  0.31760616665E+02 -0.70647146253E+01  0.40858634801E+02  0.00000000000E+00 0.  1.
         -2    1    3    3    0  502 -0.24713985395E+02 -0.31760616665E+02 -0.62836099799E+02  0.74618317342E+02  0.00000000000E+00 0. -1.
<mgrwt>
<rscale>  0 0.91917368E+02</rscale>
<asrwt>0</asrwt>
<pdfrwt beam="2">  1        1 0.14259828E-01 0.91917368E+02</pdfrwt>
<pdfrwt beam="1">  1       -1 0.35058567E-02 0.91917368E+02</pdfrwt>
<totfact> 0.10089529E+05</totfact>
</mgrwt>
</event>
<event>
 5    1  0.3858870E+001  0.9089771E+02  0.7546771E-02  0.1300692E+00
         -3   -1    0    0    0  501 -0.00000000000E+00  0.00000000000E+00  0.61256691635E+02  0.61256691635E+02  0.00000000000E+00 0.  1.
          3   -1    0    0  501    0  0.00000000000E+00 -0.00000000000E+00 -0.33720370463E+02  0.33720370463E+02  0.00000000000E+00 0. -1.
         23    2    1    2    0    0  0.00000000000E+00  0.00000000000E+00  0.27536321172E+02  0.94977062098E+02  0.90897708118E+02 0.  0.
          2    1    3    3  502    0 -0.21408141838E+02  0.10908040988E+02 -0.26541736291E+02  0.35801643265E+02  0.00000000000E+00 0. -1.
         -2    1    3    3    0  502  0.21408141838E+02 -0.10908040988E+02  0.54078057463E+02  0.59175418833E+02  0.00000000000E+00 0.  1.
<mgrwt>
<rscale>  0 0.90897708E+02</rscale>
<asrwt>0</asrwt>
<pdfrwt beam="2">  1        3 0.51877493E-02 0.90897708E+02</pdfrwt>
<pdfrwt beam="1">  1       -3 0.94241064E-02 0.90897708E+02</pdfrwt>
<totfact> 0.35342851E+04</totfact>
</mgrwt>
</event>
<event>
 5    1  0.3858870E+001  0.9410761E+02  0.7546771E-02  0.1293199E+00
          2   -1    0    0  501    0  0.00000000000E+00  0.00000000000E+00  0.37410660570E+03  0.37410660570E+03  0.00000000000E+00 0. -1.
         -2   -1    0    0    0  501 -0.00000000000E+00 -0.00000000000E+00 -0.59182616900E+01  0.59182616900E+01  0.00000000000E+00 0.  1.
         23    2    1    2    0    0  0.00000000000E+00  0.00000000000E+00  0.36818834401E+03  0.38002486739E+03  0.94107614835E+02 0.  0.
          2    1    3    3  502    0  0.28689248682E+02 -0.22555024434E+02  0.30404001983E+03  0.30622236328E+03  0.00000000000E+00 0. -1.
         -2    1    3    3    0  502 -0.28689248682E+02  0.22555024434E+02  0.64148324178E+02  0.73802504103E+02  0.00000000000E+00 0.  1.
<mgrwt>
<rscale>  0 0.94107615E+02</rscale>
<asrwt>0</asrwt>
<pdfrwt beam="1">  1        2 0.57554844E-01 0.94107615E+02</pdfrwt>
<pdfrwt beam="2">  1       -2 0.91050210E-03 0.94107615E+02</pdfrwt>
<totfact> 0.17911627E+05</totfact>
</mgrwt>
</event>
<event>
 5    1  0.3858870E+001  0.9251231E+02  0.7546771E-02  0.1296879E+00
         -1   -1    0    0    0  501 -0.00000000000E+00  0.00000000000E+00  0.30081795594E+01  0.30081795594E+01  0.00000000000E+00 0.  1.
          1   -1    0    0  501    0  0.00000000000E+00 -0.00000000000E+00 -0.71127126798E+03  0.71127126798E+03  0.00000000000E+00 0. -1.
         23    2    1    2    0    0  0.00000000000E+00  0.00000000000E+00 -0.70826308842E+03  0.71427944754E+03  0.92512305982E+02 0.  0.
          2    1    3    3  502    0  0.37142681755E+02  0.61319020057E+01 -0.56165794054E+03  0.56291813011E+03  0.00000000000E+00 0. -1.
         -2    1    3    3    0  502 -0.37142681755E+02 -0.61319020057E+01 -0.14660514788E+03  0.15136131743E+03  0.00000000000E+00 0.  1.
<mgrwt>
<rscale>  0 0.92512306E+02</rscale>
<asrwt>0</asrwt>
<pdfrwt beam="2">  1        1 0.10942649E+00 0.92512306E+02</pdfrwt>
<pdfrwt beam="1">  1       -1 0.46279627E-03 0.92512306E+02</pdfrwt>
<totfact> 0.13677809E+05</totfact>
</mgrwt>
</event>
<event>
 5    1  0.3858870E+001  0.9300262E+02  0.7546771E-02  0.1295739E+00
          1   -1    0    0  501    0  0.00000000000E+00  0.00000000000E+00  0.27958956678E+03  0.27958956678E+03  0.00000000000E+00 0. -1.
         -1   -1    0    0    0  501 -0.00000000000E+00 -0.00000000000E+00 -0.77340939561E+01  0.77340939561E+01  0.00000000000E+00 0.  1.
         23    2    1    2    0    0  0.00000000000E+00  0.00000000000E+00  0.27185547283E+03  0.28732366074E+03  0.93002623160E+02 0.  0.
          2    1    3    3  502    0 -0.44438071921E+02 -0.10196511403E+02  0.16418547826E+03  0.17039830502E+03  0.00000000000E+00 0. -1.
         -2    1    3    3    0  502  0.44438071921E+02  0.10196511403E+02  0.10766999456E+03  0.11692535572E+03  0.00000000000E+00 0.  1.
<mgrwt>
<rscale>  0 0.93002623E+02</rscale>
<asrwt>0</asrwt>
<pdfrwt beam="1">  1        1 0.43013772E-01 0.93002623E+02</pdfrwt>
<pdfrwt beam="2">  1       -1 0.11898608E-02 0.93002623E+02</pdfrwt>
<totfact> 0.11987634E+05</totfact>
</mgrwt>
</event>
<event>
 5    1  0.3858870E+001  0.9352247E+02  0.7546771E-02  0.1294539E+00
          1   -1    0    0  501    0  0.00000000000E+00  0.00000000000E+00  0.22784913861E+02  0.22784913861E+02  0.00000000000E+00 0. -1.
         -1   -1    0    0    0  501 -0.00000000000E+00 -0.00000000000E+00 -0.95967577354E+02  0.95967577354E+02  0.00000000000E+00 0.  1.
         23    2    1    2    0    0  0.00000000000E+00  0.00000000000E+00 -0.73182663493E+02  0.11875249121E+03  0.93522467535E+02 0.  0.
          2    1    3    3  502    0 -0.36142451008E+02  0.53311790950E+01  0.47032594749E+00  0.36536549398E+02  0.00000000000E+00 0. -1.
         -2    1    3    3    0  502  0.36142451008E+02 -0.53311790950E+01 -0.73652989440E+02  0.82215941817E+02  0.00000000000E+00 0.  1.
<mgrwt>
<rscale>  0 0.93522468E+02</rscale>
<asrwt>0</asrwt>
<pdfrwt beam="1">  1        1 0.35053713E-02 0.93522468E+02</pdfrwt>
<pdfrwt beam="2">  1       -1 0.14764243E-01 0.93522468E+02</pdfrwt>
<totfact> 0.76796786E+04</totfact>
</mgrwt>
</event>
<event>
 5    1  0.3858870E+001  0.9385122E+02  0.7546771E-02  0.1293785E+00
         -3   -1    0    0    0  501 -0.00000000000E+00  0.00000000000E+00  0.21527106074E+03  0.21527106074E+03  0.00000000000E+00 0.  1.
          3   -1    0    0  501    0  0.00000000000E+00 -0.00000000000E+00 -0.10229024412E+02  0.10229024412E+02  0.00000000000E+00 0. -1.
         23    2    1    2    0    0  0.00000000000E+00  0.00000000000E+00  0.20504203633E+03  0.22550008515E+03  0.93851221316E+02 0.  0.
          2    1    3    3  502    0  0.35939214519E+02  0.12066143245E+02  0.36073462029E+02  0.52330809432E+02  0.00000000000E+00 0. -1.
         -2    1    3    3    0  502 -0.35939214519E+02 -0.12066143245E+02  0.16896857430E+03  0.17316927572E+03  0.00000000000E+00 0.  1.
<mgrwt>
<rscale>  0 0.93851221E+02</rscale>
<asrwt>0</asrwt>
<pdfrwt beam="2">  1        3 0.15736962E-02 0.93851221E+02</pdfrwt>
<pdfrwt beam="1">  1       -3 0.33118621E-01 0.93851221E+02</pdfrwt>
<totfact> 0.25182943E+04</totfact>
</mgrwt>
</event>
<event>
 5    1  0.3858870E+001  0.9207855E+02  0.7546771E-02  0.1297895E+00
         -2   -1    0    0    0  501 -0.00000000000E+00  0.00000000000E+00  0.59247413723E+03  0.59247413723E+03  0.00000000000E+00 0.  1.
          2   -1    0    0  501    0  0.00000000000E+00 -0.00000000000E+00 -0.35775654165E+01  0.35775654165E+01  0.00000000000E+00 0. -1.
         23    2    1    2    0    0  0.00000000000E+00  0.00000000000E+00  0.58889657181E+03  0.59605170264E+03  0.92078553063E+02 0.  0.
          2    1    3    3  502    0  0.40223368908E+02 -0.17978939872E+02  0.20797385025E+03  0.21258947310E+03  0.00000000000E+00 0. -1.
         -2    1    3    3    0  502 -0.40223368908E+02  0.17978939872E+02  0.38092272156E+03  0.38346222955E+03  0.00000000000E+00 0.  1.
<mgrwt>
<rscale>  0 0.92078553E+02</rscale>
<asrwt>0</asrwt>
<pdfrwt beam="2">  1        2 0.55039515E-03 0.92078553E+02</pdfrwt>
<pdfrwt beam="1">  1       -2 0.91149790E-01 0.92078553E+02</pdfrwt>
<totfact> 0.30807305E+04</totfact>
</mgrwt>
</event>
<event>
 5    1  0.3858870E+001  0.9152593E+02  0.7546771E-02  0.1299198E+00
          3   -1    0    0  501    0  0.00000000000E+00  0.00000000000E+00  0.59963598207E+02  0.59963598207E+02  0.00000000000E+00 0. -1.
         -3   -1    0    0    0  501 -0.00000000000E+00 -0.00000000000E+00 -0.34925335269E+02  0.34925335269E+02  0.00000000000E+00 0.  1.
         23    2    1    2    0    0  0.00000000000E+00  0.00000000000E+00  0.25038262938E+02  0.94888933476E+02  0.91525925754E+02 0.  0.
          2    1    3    3  502    0 -0.14546961853E+02 -0.39829713681E+02  0.30362831492E+02  0.52152868831E+02  0.00000000000E+00 0. -1.
         -2    1    3    3    0  502  0.14546961853E+02  0.39829713681E+02 -0.53245685534E+01  0.42736064645E+02  0.00000000000E+00 0.  1.
<mgrwt>
<rscale>  0 0.91525926E+02</rscale>
<asrwt>0</asrwt>
<pdfrwt beam="1">  1        3 0.92251690E-02 0.91525926E+02</pdfrwt>
<pdfrwt beam="2">  1       -3 0.53731285E-02 0.91525926E+02</pdfrwt>
<totfact> 0.34691332E+04</totfact>
</mgrwt>
</event>
<event>
 5    1  0.3858870E+001  0.9205587E+02  0.7546771E-02  0.1297948E+00
         -1   -1    0    0    0  501 -0.00000000000E+00  0.00000000000E+00  0.26901931169E+01  0.26901931169E+01  0.00000000000E+00 0.  1.
          1   -1    0    0  501    0  0.00000000000E+00 -0.00000000000E+00 -0.78751619636E+03  0.78751619636E+03  0.00000000000E+00 0. -1.
         23    2    1    2    0    0  0.00000000000E+00  0.00000000000E+00 -0.78482600324E+03  0.79020638948E+03  0.92055866753E+02 0.  0.
          2    1    3    3  502    0  0.28333934148E+02 -0.11233770054E+02 -0.68847486448E+03  0.68914922073E+03  0.00000000000E+00 0. -1.
         -2    1    3    3    0  502 -0.28333934148E+02  0.11233770054E+02 -0.96351138766E+02  0.10105716875E+03  0.00000000000E+00 0.  1.
<mgrwt>
<rscale>  0 0.92055867E+02</rscale>
<asrwt>0</asrwt>
<pdfrwt beam="2">  1        1 0.12115646E+00 0.92055867E+02</pdfrwt>
<pdfrwt beam="1">  1       -1 0.41387545E-03 0.92055867E+02</pdfrwt>
<totfact> 0.13793568E+05</totfact>
</mgrwt>
</event>
<event>
 5    1  0.3858870E+001  0.9181461E+02  0.7546771E-02  0.1298516E+00
         -3   -1    0    0    0  501 -0.00000000000E+00  0.00000000000E+00  0.16917927532E+03  0.16917927532E+03  0.00000000000E+00 0.  1.
          3   -1    0    0  501    0  0.00000000000E+00 -0.00000000000E+00 -0.12457085920E+02  0.12457085920E+02  0.00000000000E+00 0. -1.
         23    2    1    2    0    0  0.00000000000E+00  0.00000000000E+00  0.15672218940E+03  0.18163636124E+03  0.91814612528E+02 0.  0.
          2    1    3    3  502    0  0.25716690257E+02  0.37458956838E+02  0.65394710248E+02  0.79630331744E+02  0.00000000000E+00 0. -1.
         -2    1    3    3    0  502 -0.25716690257E+02 -0.37458956838E+02  0.91327479148E+02  0.10200602949E+03  0.00000000000E+00 0.  1.
<mgrwt>
<rscale>  0 0.91814613E+02</rscale>
<asrwt>0</asrwt>
<pdfrwt beam="2">  1        3 0.19164749E-02 0.91814613E+02</pdfrwt>
<pdfrwt beam="1">  1       -3 0.26027579E-01 0.91814613E+02</pdfrwt>
<totfact> 0.28925055E+04</totfact>
</mgrwt>
</event>
<event>
 5    1  0.3858870E+001  0.7558498E+02  0.7546771E-02  0.1342069E+00
          1   -1    0    0  501    0  0.00000000000E+00  0.00000000000E+00  0.23650304113E+04  0.23650304113E+04  0.00000000000E+00 0. -1.
         -1   -1    0    0    0  501 -0.00000000000E+00 -0.00000000000E+00 -0.60391289210E+00  0.60391289210E+00  0.00000000000E+00 0.  1.
         23    2    1    2    0    0  0.00000000000E+00  0.00000000000E+00  0.23644264984E+04  0.23656343242E+04  0.75584981461E+02 0.  0.
          2    1    3    3  502    0  0.11336014882E+02 -0.28953548291E+02  0.18545374424E+04  0.18547980856E+04  0.00000000000E+00 0. -1.
         -2    1    3    3    0  502 -0.11336014882E+02  0.28953548291E+02  0.50988905607E+03  0.51083623862E+03  0.00000000000E+00 0.  1.
<mgrwt>
<rscale>  0 0.75584981E+02</rscale>
<asrwt>0</asrwt>
<pdfrwt beam="1">  1        1 0.36384342E+00 0.75584981E+02</pdfrwt>
<pdfrwt beam="2">  1       -1 0.92911569E-04 0.75584981E+02</pdfrwt>
<totfact> 0.97042080E+04</totfact>
</mgrwt>
</event>
<event>
 5    1  0.3858870E+001  0.9152461E+02  0.7546771E-02  0.1299201E+00
          4   -1    0    0  501    0  0.00000000000E+00  0.00000000000E+00  0.73526639689E+01  0.73526639689E+01  0.00000000000E+00 0. -1.
         -4   -1    0    0    0  501 -0.00000000000E+00 -0.00000000000E+00 -0.28482040390E+03  0.28482040390E+03  0.00000000000E+00 0.  1.
         23    2    1    2    0    0  0.00000000000E+00  0.00000000000E+00 -0.27746773993E+03  0.29217306787E+03  0.91524613550E+02 0.  0.
          2    1    3    3  502    0 -0.26673926527E+02 -0.87685700780E+01 -0.23377645856E+02  0.36536290224E+02  0.00000000000E+00 0. -1.
         -2    1    3    3    0  502  0.26673926527E+02  0.87685700780E+01 -0.25409009408E+03  0.25563677765E+03  0.00000000000E+00 0.  1.
<mgrwt>
<rscale>  0 0.91524614E+02</rscale>
<asrwt>0</asrwt>
<pdfrwt beam="1">  1        4 0.11311793E-02 0.91524614E+02</pdfrwt>
<pdfrwt beam="2">  1       -4 0.43818517E-01 0.91524614E+02</pdfrwt>
<totfact> 0.17879336E+04</totfact>
</mgrwt>
</event>
<event>
 5    1  0.3858870E+001  0.8979443E+02  0.7546771E-02  0.1303350E+00
          2   -1    0    0  501    0  0.00000000000E+00  0.00000000000E+00  0.90803067551E+03  0.90803067551E+03  0.00000000000E+00 0. -1.
         -2   -1    0    0    0  501 -0.00000000000E+00 -0.00000000000E+00 -0.22199248857E+01  0.22199248857E+01  0.00000000000E+00 0.  1.
         23    2    1    2    0    0  0.00000000000E+00  0.00000000000E+00  0.90581075062E+03  0.91025060039E+03  0.89794429528E+02 0.  0.
          2    1    3    3  502    0  0.32579199261E+02  0.12076308955E+02  0.74114689622E+03  0.74196089064E+03  0.00000000000E+00 0. -1.
         -2    1    3    3    0  502 -0.32579199261E+02 -0.12076308955E+02  0.16466385440E+03  0.16828970975E+03  0.00000000000E+00 0.  1.
<mgrwt>
<rscale>  0 0.89794430E+02</rscale>
<asrwt>0</asrwt>
<pdfrwt beam="1">  1        2 0.13969673E+00 0.89794430E+02</pdfrwt>
<pdfrwt beam="2">  1       -2 0.34152763E-03 0.89794430E+02</pdfrwt>
<totfact> 0.25836494E+05</totfact>
</mgrwt>
</event>
<event>
 5    1  0.3858870E+001  0.9081369E+02  0.7546771E-02  0.1300893E+00
         -1   -1    0    0    0  501 -0.00000000000E+00  0.00000000000E+00  0.59207770757E+03  0.59207770757E+03  0.00000000000E+00 0.  1.
          1   -1    0    0  501    0  0.00000000000E+00 -0.00000000000E+00 -0.34822824124E+01  0.34822824124E+01  0.00000000000E+00 0. -1.
         23    2    1    2    0    0  0.00000000000E+00  0.00000000000E+00  0.58859542515E+03  0.59555998998E+03  0.90813694734E+02 0.  0.
          2    1    3    3  502    0 -0.12187463806E+02 -0.20604226377E+02  0.41263227799E+02  0.47704532143E+02  0.00000000000E+00 0. -1.
         -2    1    3    3    0  502  0.12187463806E+02  0.20604226377E+02  0.54733219735E+03  0.54785545783E+03  0.00000000000E+00 0.  1.
<mgrwt>
<rscale>  0 0.90813695E+02</rscale>
<asrwt>0</asrwt>
<pdfrwt beam="2">  1        1 0.53573623E-03 0.90813695E+02</pdfrwt>
<pdfrwt beam="1">  1       -1 0.91088798E-01 0.90813695E+02</pdfrwt>
<totfact> 0.42462108E+04</totfact>
</mgrwt>
</event>
<event>
 5    1  0.3858870E+001  0.8689301E+02  0.7546771E-02  0.1310555E+00
          1   -1    0    0  501    0  0.00000000000E+00  0.00000000000E+00  0.40565851747E+03  0.40565851747E+03  0.00000000000E+00 0. -1.
         -1   -1    0    0    0  501 -0.00000000000E+00 -0.00000000000E+00 -0.46531718743E+01  0.46531718743E+01  0.00000000000E+00 0.  1.
         23    2    1    2    0    0  0.00000000000E+00  0.00000000000E+00  0.40100534560E+03  0.41031168935E+03  0.86893010169E+02 0.  0.
          2    1    3    3  502    0  0.31815258187E+01 -0.33232495107E+02  0.33179540774E+03  0.33347070851E+03  0.00000000000E+00 0. -1.
         -2    1    3    3    0  502 -0.31815258187E+01  0.33232495107E+02  0.69209937865E+02  0.76840980842E+02  0.00000000000E+00 0.  1.
<mgrwt>
<rscale>  0 0.86893010E+02</rscale>
<asrwt>0</asrwt>
<pdfrwt beam="1">  1        1 0.62408975E-01 0.86893010E+02</pdfrwt>
<pdfrwt beam="2">  1       -1 0.71587291E-03 0.86893010E+02</pdfrwt>
<totfact> 0.15357112E+05</totfact>
</mgrwt>
</event>
<event>
 5    1  0.3858870E+001  0.8898055E+02  0.7546771E-02  0.1305339E+00
          1   -1    0    0  501    0  0.00000000000E+00  0.00000000000E+00  0.14961910042E+03  0.14961910042E+03  0.00000000000E+00 0. -1.
         -1   -1    0    0    0  501 -0.00000000000E+00 -0.00000000000E+00 -0.13229491282E+02  0.13229491282E+02  0.00000000000E+00 0.  1.
         23    2    1    2    0    0  0.00000000000E+00  0.00000000000E+00  0.13638960914E+03  0.16284859170E+03  0.88980550338E+02 0.  0.
          2    1    3    3  502    0 -0.36297672305E+02  0.90237402686E+01  0.11228743120E+03  0.11835293029E+03  0.00000000000E+00 0. -1.
         -2    1    3    3    0  502  0.36297672305E+02 -0.90237402686E+01  0.24102177945E+02  0.44495661416E+02  0.00000000000E+00 0.  1.
<mgrwt>
<rscale>  0 0.88980550E+02</rscale>
<asrwt>0</asrwt>
<pdfrwt beam="1">  1        1 0.23018322E-01 0.88980550E+02</pdfrwt>
<pdfrwt beam="2">  1       -1 0.20353065E-02 0.88980550E+02</pdfrwt>
<totfact> 0.11968438E+05</totfact>
</mgrwt>
</event>
<event>
 5    1  0.3858870E+001  0.9221422E+02  0.7546771E-02  0.1297577E+00
          2   -1    0    0  501    0  0.00000000000E+00  0.00000000000E+00  0.18297916121E+04  0.18297916121E+04  0.00000000000E+00 0. -1.
         -2   -1    0    0    0  501 -0.00000000000E+00 -0.00000000000E+00 -0.11618073907E+01  0.11618073907E+01  0.00000000000E+00 0.  1.
         23    2    1    2    0    0  0.00000000000E+00  0.00000000000E+00  0.18286298047E+04  0.18309534195E+04  0.92214216220E+02 0.  0.
          2    1    3    3  502    0 -0.22739943830E+02  0.28194382869E+02  0.14807474119E+04  0.14811903747E+04  0.00000000000E+00 0. -1.
         -2    1    3    3    0  502  0.22739943830E+02 -0.28194382869E+02  0.34788239279E+03  0.34976304476E+03  0.00000000000E+00 0.  1.
<mgrwt>
<rscale>  0 0.92214216E+02</rscale>
<asrwt>0</asrwt>
<pdfrwt beam="1">  1        2 0.28150410E+00 0.92214216E+02</pdfrwt>
<pdfrwt beam="2">  1       -2 0.17874106E-03 0.92214216E+02</pdfrwt>
<totfact> 0.20561008E+05</totfact>
</mgrwt>
</event>
<event>
 5    1  0.3858870E+001  0.9065954E+02  0.7546771E-02  0.1301262E+00
          3   -1    0    0  501    0  0.00000000000E+00  0.00000000000E+00  0.17560105508E+03  0.17560105508E+03  0.00000000000E+00 0. -1.
         -3   -1    0    0    0  501 -0.00000000000E+00 -0.00000000000E+00 -0.11701455484E+02  0.11701455484E+02  0.00000000000E+00 0.  1.
         23    2    1    2    0    0  0.00000000000E+00  0.00000000000E+00  0.16389959960E+03  0.18730251057E+03  0.90659537370E+02 0.  0.
          2    1    3    3  502    0  0.26397674964E+02  0.33269273330E+02  0.11468829881E+03  0.12229917283E+03  0.00000000000E+00 0. -1.
         -2    1    3    3    0  502 -0.26397674964E+02 -0.33269273330E+02  0.49211300789E+02  0.65003337736E+02  0.00000000000E+00 0.  1.
<mgrwt>
<rscale>  0 0.90659537E+02</rscale>
<asrwt>0</asrwt>
<pdfrwt beam="1">  1        3 0.27015545E-01 0.90659537E+02</pdfrwt>
<pdfrwt beam="2">  1       -3 0.18002240E-02 0.90659537E+02</pdfrwt>
<totfact> 0.29619644E+04</totfact>
</mgrwt>
</event>
<event>
 5    1  0.3858870E+001  0.9268700E+02  0.7546771E-02  0.1296472E+00
          1   -1    0    0  501    0  0.00000000000E+00  0.00000000000E+00  0.15794747268E+04  0.15794747268E+04  0.00000000000E+00 0. -1.
         -1   -1    0    0    0  501 -0.00000000000E+00 -0.00000000000E+00 -0.13597683980E+01  0.13597683980E+01  0.00000000000E+00 0.  1.
         23    2    1    2    0    0  0.00000000000E+00  0.00000000000E+00  0.15781149584E+04  0.15808344952E+04  0.92686996261E+02 0.  0.
          2    1    3    3  502    0 -0.21168983275E+02 -0.30341707329E+02  0.12650819618E+04  0.12656228171E+04  0.00000000000E+00 0. -1.
         -2    1    3    3    0  502  0.21168983275E+02  0.30341707329E+02  0.31303299656E+03  0.31521167807E+03  0.00000000000E+00 0.  1.
<mgrwt>
<rscale>  0 0.92686996E+02</rscale>
<asrwt>0</asrwt>
<pdfrwt beam="1">  1        1 0.24299464E+00 0.92686996E+02</pdfrwt>
<pdfrwt beam="2">  1       -1 0.20919640E-03 0.92686996E+02</pdfrwt>
<totfact> 0.10116623E+05</totfact>
</mgrwt>
</event>
<event>
 5    1  0.3858870E+001  0.9439452E+02  0.7546771E-02  0.1292546E+00
         -1   -1    0    0    0  501 -0.00000000000E+00  0.00000000000E+00  0.38519672005E+01  0.38519672005E+01  0.00000000000E+00 0.  1.
          1   -1    0    0  501    0  0.00000000000E+00 -0.00000000000E+00 -0.57829711660E+03  0.57829711660E+03  0.00000000000E+00 0. -1.
         23    2    1    2    0    0  0.00000000000E+00  0.00000000000E+00 -0.57444514940E+03  0.58214908380E+03  0.94394523682E+02 0.  0.
          2    1    3    3  502    0 -0.12725719157E+02 -0.33469903350E+02 -0.47684772820E+03  0.47819026992E+03  0.00000000000E+00 0. -1.
         -2    1    3    3    0  502  0.12725719157E+02  0.33469903350E+02 -0.97597421207E+02  0.10395881389E+03  0.00000000000E+00 0.  1.
<mgrwt>
<rscale>  0 0.94394524E+02</rscale>
<asrwt>0</asrwt>
<pdfrwt beam="2">  1        1 0.88968749E-01 0.94394524E+02</pdfrwt>
<pdfrwt beam="1">  1       -1 0.59261059E-03 0.94394524E+02</pdfrwt>
<totfact> 0.12882675E+05</totfact>
</mgrwt>
</event>
<event>
 5    1  0.3858870E+001  0.9316020E+02  0.7546771E-02  0.1295374E+00
          1   -1    0    0  501    0  0.00000000000E+00  0.00000000000E+00  0.31575377037E+03  0.31575377037E+03  0.00000000000E+00 0. -1.
         -1   -1    0    0    0  501 -0.00000000000E+00 -0.00000000000E+00 -0.68715118399E+01  0.68715118399E+01  0.00000000000E+00 0.  1.
         23    2    1    2    0    0  0.00000000000E+00  0.00000000000E+00  0.30888225853E+03  0.32262528221E+03  0.93160201193E+02 0.  0.
          2    1    3    3  502    0  0.28365368363E+01 -0.37198454117E+02  0.25103278065E+03  0.25378973165E+03  0.00000000000E+00 0. -1.
         -2    1    3    3    0  502 -0.28365368363E+01  0.37198454117E+02  0.57849477882E+02  0.68835550562E+02  0.00000000000E+00 0.  1.
<mgrwt>
<rscale>  0 0.93160201E+02</rscale>
<asrwt>0</asrwt>
<pdfrwt beam="1">  1        1 0.48577492E-01 0.93160201E+02</pdfrwt>
<pdfrwt beam="2">  1       -1 0.10571559E-02 0.93160201E+02</pdfrwt>
<totfact> 0.12215146E+05</totfact>
</mgrwt>
</event>
<event>
 4    1  0.3858870E+001  0.1455264E+03  0.7546771E-02  0.1206080E+00
          1   -1    0    0  501    0  0.00000000000E+00  0.00000000000E+00  0.18246026404E+03  0.18246026404E+03  0.00000000000E+00 0. -1.
         -1   -1    0    0    0  501 -0.00000000000E+00 -0.00000000000E+00 -0.29017203949E+02  0.29017203949E+02  0.00000000000E+00 0.  1.
          2    1    1    2  502    0  0.57634530266E+02 -0.11906508557E+02  0.13890347364E+03  0.15085648483E+03  0.00000000000E+00 0. -1.
         -2    1    1    2    0  502 -0.57634530266E+02  0.11906508557E+02  0.14539586448E+02  0.60620983159E+02  0.00000000000E+00 0.  1.
<mgrwt>
<rscale>  0 0.14552645E+03</rscale>
<asrwt>0</asrwt>
<pdfrwt beam="1">  1        1 0.28070809E-01 0.14552645E+03</pdfrwt>
<pdfrwt beam="2">  1       -1 0.44641853E-02 0.14552645E+03</pdfrwt>
<totfact> 0.31949840E+04</totfact>
</mgrwt>
</event>
<event>
 5    1  0.3858870E+001  0.8965341E+02  0.7546771E-02  0.1303693E+00
          2   -1    0    0  501    0  0.00000000000E+00  0.00000000000E+00  0.39642206881E+03  0.39642206881E+03  0.00000000000E+00 0. -1.
         -2   -1    0    0    0  501 -0.00000000000E+00 -0.00000000000E+00 -0.50689243504E+01  0.50689243504E+01  0.00000000000E+00 0.  1.
         23    2    1    2    0    0  0.00000000000E+00  0.00000000000E+00  0.39135314446E+03  0.40149099316E+03  0.89653409921E+02 0.  0.
          2    1    3    3  502    0 -0.20170759857E+02  0.37427521312E+02  0.25928588273E+03  0.26274864013E+03  0.00000000000E+00 0. -1.
         -2    1    3    3    0  502  0.20170759857E+02 -0.37427521312E+02  0.13206726172E+03  0.13874235303E+03  0.00000000000E+00 0.  1.
<mgrwt>
<rscale>  0 0.89653410E+02</rscale>
<asrwt>0</asrwt>
<pdfrwt beam="1">  1        2 0.60987986E-01 0.89653410E+02</pdfrwt>
<pdfrwt beam="2">  1       -2 0.77983483E-03 0.89653410E+02</pdfrwt>
<totfact> 0.20807606E+05</totfact>
</mgrwt>
</event>
<event>
 5    1  0.3858870E+001  0.9382777E+02  0.7546771E-02  0.1293838E+00
         -2   -1    0    0    0  501 -0.00000000000E+00  0.00000000000E+00  0.21874516989E+01  0.21874516989E+01  0.00000000000E+00 0.  1.
          2   -1    0    0  501    0  0.00000000000E+00 -0.00000000000E+00 -0.10061537115E+04  0.10061537115E+04  0.00000000000E+00 0. -1.
         23    2    1    2    0    0  0.00000000000E+00  0.00000000000E+00 -0.10039662598E+04  0.10083411632E+04  0.93827770849E+02 0.  0.
          2    1    3    3  502    0 -0.32877248710E+02 -0.86972011050E+01 -0.84927991818E+03  0.84996054862E+03  0.00000000000E+00 0. -1.
         -2    1    3    3    0  502  0.32877248710E+02  0.86972011050E+01 -0.15468634163E+03  0.15838061459E+03  0.00000000000E+00 0.  1.
<mgrwt>
<rscale>  0 0.93827771E+02</rscale>
<asrwt>0</asrwt>
<pdfrwt beam="2">  1        2 0.15479332E+00 0.93827771E+02</pdfrwt>
<pdfrwt beam="1">  1       -2 0.33653007E-03 0.93827771E+02</pdfrwt>
<totfact> 0.23187526E+05</totfact>
</mgrwt>
</event>
<event>
 5    1  0.3858870E+001  0.9013445E+02  0.7546771E-02  0.1302526E+00
          2   -1    0    0  501    0  0.00000000000E+00  0.00000000000E+00  0.78263655572E+03  0.78263655572E+03  0.00000000000E+00 0. -1.
         -2   -1    0    0    0  501 -0.00000000000E+00 -0.00000000000E+00 -0.25951442541E+01  0.25951442541E+01  0.00000000000E+00 0.  1.
         23    2    1    2    0    0  0.00000000000E+00  0.00000000000E+00  0.78004141147E+03  0.78523169998E+03  0.90134449809E+02 0.  0.
          2    1    3    3  502    0 -0.41934586721E+02  0.97361367801E+01  0.27387175707E+03  0.27723463211E+03  0.00000000000E+00 0.  1.
         -2    1    3    3    0  502  0.41934586721E+02 -0.97361367801E+01  0.50616965440E+03  0.50799706786E+03  0.00000000000E+00 0. -1.
<mgrwt>
<rscale>  0 0.90134450E+02</rscale>
<asrwt>0</asrwt>
<pdfrwt beam="1">  1        2 0.12040544E+00 0.90134450E+02</pdfrwt>
<pdfrwt beam="2">  1       -2 0.39925358E-03 0.90134450E+02</pdfrwt>
<totfact> 0.25023873E+05</totfact>
</mgrwt>
</event>
<event>
 5    1  0.3858870E+001  0.9114980E+02  0.7546771E-02  0.1300091E+00
         -4   -1    0    0    0  501 -0.00000000000E+00  0.00000000000E+00  0.77641036649E+03  0.77641036649E+03  0.00000000000E+00 0.  1.
          4   -1    0    0  501    0  0.00000000000E+00 -0.00000000000E+00 -0.26752237431E+01  0.26752237431E+01  0.00000000000E+00 0. -1.
         23    2    1    2    0    0  0.00000000000E+00  0.00000000000E+00  0.77373514274E+03  0.77908559023E+03  0.91149798613E+02 0.  0.
          2    1    3    3  502    0 -0.42268353360E+02  0.12484168332E+02  0.28770282641E+03  0.29105907386E+03  0.00000000000E+00 0. -1.
         -2    1    3    3    0  502  0.42268353360E+02 -0.12484168332E+02  0.48603231634E+03  0.48802651637E+03  0.00000000000E+00 0.  1.
<mgrwt>
<rscale>  0 0.91149799E+02</rscale>
<asrwt>0</asrwt>
<pdfrwt beam="2">  1        4 0.41157350E-03 0.91149799E+02</pdfrwt>
<pdfrwt beam="1">  1       -4 0.11944757E+00 0.91149799E+02</pdfrwt>
<totfact> 0.91382852E+03</totfact>
</mgrwt>
</event>
<event>
 5    1  0.3858870E+001  0.8699836E+02  0.7546771E-02  0.1310288E+00
         -2   -1    0    0    0  501 -0.00000000000E+00  0.00000000000E+00  0.10389029830E+02  0.10389029830E+02  0.00000000000E+00 0.  1.
          2   -1    0    0  501    0  0.00000000000E+00 -0.00000000000E+00 -0.18213237991E+03  0.18213237991E+03  0.00000000000E+00 0. -1.
         23    2    1    2    0    0  0.00000000000E+00  0.00000000000E+00 -0.17174335008E+03  0.19252140974E+03  0.86998361544E+02 0.  0.
          2    1    3    3  502    0  0.10653581790E+02  0.20489328745E+02 -0.16744656345E+03  0.16903154442E+03  0.00000000000E+00 0. -1.
         -2    1    3    3    0  502 -0.10653581790E+02 -0.20489328745E+02 -0.42967866292E+01  0.23489865320E+02  0.00000000000E+00 0.  1.
<mgrwt>
<rscale>  0 0.86998362E+02</rscale>
<asrwt>0</asrwt>
<pdfrwt beam="2">  1        2 0.28020366E-01 0.86998362E+02</pdfrwt>
<pdfrwt beam="1">  1       -2 0.15983123E-02 0.86998362E+02</pdfrwt>
<totfact> 0.16968375E+05</totfact>
</mgrwt>
</event>
<event>
 5    1  0.3858870E+001  0.8862497E+02  0.7546771E-02  0.1306216E+00
          2   -1    0    0  501    0  0.00000000000E+00  0.00000000000E+00  0.13268121130E+04  0.13268121130E+04  0.00000000000E+00 0.  1.
         -2   -1    0    0    0  501 -0.00000000000E+00 -0.00000000000E+00 -0.14799355590E+01  0.14799355590E+01  0.00000000000E+00 0. -1.
         23    2    1    2    0    0  0.00000000000E+00  0.00000000000E+00  0.13253321774E+04  0.13282920485E+04  0.88624972240E+02 0.  0.
          2    1    3    3  502    0 -0.35867618057E+02 -0.23179817355E+02  0.48545083801E+03  0.48732566738E+03  0.00000000000E+00 0. -1.
         -2    1    3    3    0  502  0.35867618057E+02  0.23179817355E+02  0.83988133940E+03  0.84096638116E+03  0.00000000000E+00 0.  1.
<mgrwt>
<rscale>  0 0.88624972E+02</rscale>
<asrwt>0</asrwt>
<pdfrwt beam="1">  1        2 0.20412399E+00 0.88624972E+02</pdfrwt>
<pdfrwt beam="2">  1       -2 0.22768345E-03 0.88624972E+02</pdfrwt>
<totfact> 0.26363192E+05</totfact>
</mgrwt>
</event>
<event>
 5    1  0.3858870E+001  0.1036927E+03  0.7546771E-02  0.1272717E+00
         -2   -1    0    0    0  501 -0.00000000000E+00  0.00000000000E+00  0.12383781219E+02  0.12383781219E+02  0.00000000000E+00 0. -1.
          2   -1    0    0  501    0  0.00000000000E+00 -0.00000000000E+00 -0.21706174477E+03  0.21706174477E+03  0.00000000000E+00 0.  1.
         23    2    1    2    0    0  0.00000000000E+00  0.00000000000E+00 -0.20467796355E+03  0.22944552599E+03  0.10369272218E+03 0.  0.
          2    1    3    3  502    0 -0.31004318514E+02 -0.24026074212E+02 -0.27316650323E+02  0.47798738408E+02  0.00000000000E+00 0. -1.
         -2    1    3    3    0  502  0.31004318514E+02  0.24026074212E+02 -0.17736131323E+03  0.18164678758E+03  0.00000000000E+00 0.  1.
<mgrwt>
<rscale>  0 0.10369272E+03</rscale>
<asrwt>0</asrwt>
<pdfrwt beam="2">  1        2 0.33394115E-01 0.10369272E+03</pdfrwt>
<pdfrwt beam="1">  1       -2 0.19051971E-02 0.10369272E+03</pdfrwt>
<totfact> 0.11247087E+05</totfact>
</mgrwt>
</event>
<event>
 5    1  0.3858870E+001  0.9208456E+02  0.7546771E-02  0.1297881E+00
          1   -1    0    0  501    0  0.00000000000E+00  0.00000000000E+00  0.39603344868E+02  0.39603344868E+02  0.00000000000E+00 0. -1.
         -1   -1    0    0    0  501 -0.00000000000E+00 -0.00000000000E+00 -0.53528092706E+02  0.53528092706E+02  0.00000000000E+00 0.  1.
         23    2    1    2    0    0  0.00000000000E+00  0.00000000000E+00 -0.13924747838E+02  0.93131437575E+02  0.92084559305E+02 0.  0.
          2    1    3    3  502    0 -0.25612836907E+02  0.25810906155E+02  0.21601785977E+02  0.42294886788E+02  0.00000000000E+00 0. -1.
         -2    1    3    3    0  502  0.25612836907E+02 -0.25810906155E+02 -0.35526533815E+02  0.50836550787E+02  0.00000000000E+00 0.  1.
<mgrwt>
<rscale>  0 0.92084559E+02</rscale>
<asrwt>0</asrwt>
<pdfrwt beam="1">  1        1 0.60928223E-02 0.92084559E+02</pdfrwt>
<pdfrwt beam="2">  1       -1 0.82350912E-02 0.92084559E+02</pdfrwt>
<totfact> 0.88022539E+04</totfact>
</mgrwt>
</event>
<event>
 5    1  0.3858870E+001  0.8104307E+02  0.7546771E-02  0.1326117E+00
         -2   -1    0    0    0  501 -0.00000000000E+00  0.00000000000E+00  0.24432588021E+01  0.24432588021E+01  0.00000000000E+00 0.  1.
          2   -1    0    0  501    0  0.00000000000E+00 -0.00000000000E+00 -0.67205106074E+03  0.67205106074E+03  0.00000000000E+00 0. -1.
         23    2    1    2    0    0  0.00000000000E+00  0.00000000000E+00 -0.66960780194E+03  0.67449431954E+03  0.81043066814E+02 0.  0.
          2    1    3    3  502    0  0.27606627332E+02 -0.18152857296E+02 -0.53004847919E+03  0.53107724711E+03  0.00000000000E+00 0. -1.
         -2    1    3    3    0  502 -0.27606627332E+02  0.18152857296E+02 -0.13955932275E+03  0.14341707244E+03  0.00000000000E+00 0.  1.
<mgrwt>
<rscale>  0 0.81043067E+02</rscale>
<asrwt>0</asrwt>
<pdfrwt beam="2">  1        2 0.10339255E+00 0.81043067E+02</pdfrwt>
<pdfrwt beam="1">  1       -2 0.37588567E-03 0.81043067E+02</pdfrwt>
<totfact> 0.31984604E+05</totfact>
</mgrwt>
</event>
<event>
 5    1  0.3858870E+001  0.8438675E+02  0.7546771E-02  0.1317044E+00
         -1   -1    0    0    0  501 -0.00000000000E+00  0.00000000000E+00  0.10250377784E+03  0.10250377784E+03  0.00000000000E+00 0.  1.
          1   -1    0    0  501    0  0.00000000000E+00 -0.00000000000E+00 -0.17367955876E+02  0.17367955876E+02  0.00000000000E+00 0. -1.
         23    2    1    2    0    0  0.00000000000E+00  0.00000000000E+00  0.85135821966E+02  0.11987173372E+03  0.84386754665E+02 0.  0.
          2    1    3    3  502    0  0.40309020233E+02  0.11523143725E+02  0.49333021797E+02  0.64740613166E+02  0.00000000000E+00 0. -1.
         -2    1    3    3    0  502 -0.40309020233E+02 -0.11523143725E+02  0.35802800168E+02  0.55131120552E+02  0.00000000000E+00 0.  1.
<mgrwt>
<rscale>  0 0.84386755E+02</rscale>
<asrwt>0</asrwt>
<pdfrwt beam="2">  1        1 0.26719933E-02 0.84386755E+02</pdfrwt>
<pdfrwt beam="1">  1       -1 0.15769812E-01 0.84386755E+02</pdfrwt>
<totfact> 0.98825266E+04</totfact>
</mgrwt>
</event>
<event>
 5    1  0.3858870E+001  0.9060577E+02  0.7546771E-02  0.1301391E+00
         -1   -1    0    0    0  501 -0.00000000000E+00  0.00000000000E+00  0.47880184326E+01  0.47880184326E+01  0.00000000000E+00 0.  1.
          1   -1    0    0  501    0  0.00000000000E+00 -0.00000000000E+00 -0.42864313250E+03  0.42864313250E+03  0.00000000000E+00 0. -1.
         23    2    1    2    0    0  0.00000000000E+00  0.00000000000E+00 -0.42385511406E+03  0.43343115093E+03  0.90605766249E+02 0.  0.
          2    1    3    3  502    0  0.26659504492E+02 -0.96800398151E+01 -0.38091617697E+03  0.38197063529E+03  0.00000000000E+00 0. -1.
         -2    1    3    3    0  502 -0.26659504492E+02  0.96800398151E+01 -0.42938937098E+02  0.51460515638E+02  0.00000000000E+00 0.  1.
<mgrwt>
<rscale>  0 0.90605766E+02</rscale>
<asrwt>0</asrwt>
<pdfrwt beam="2">  1        1 0.65945090E-01 0.90605766E+02</pdfrwt>
<pdfrwt beam="1">  1       -1 0.73661830E-03 0.90605766E+02</pdfrwt>
<totfact> 0.13866669E+05</totfact>
</mgrwt>
</event>
<event>
 5    1  0.3858870E+001  0.8868988E+02  0.7546771E-02  0.1306056E+00
         -1   -1    0    0    0  501 -0.00000000000E+00  0.00000000000E+00  0.27256529268E+02  0.27256529268E+02  0.00000000000E+00 0. -1.
          1   -1    0    0  501    0  0.00000000000E+00 -0.00000000000E+00 -0.72146889553E+02  0.72146889553E+02  0.00000000000E+00 0.  1.
         23    2    1    2    0    0  0.00000000000E+00  0.00000000000E+00 -0.44890360285E+02  0.99403418822E+02  0.88689882326E+02 0.  0.
          2    1    3    3  502    0 -0.42926422171E+02 -0.15954581781E+01 -0.10103644828E+02  0.44128299831E+02  0.00000000000E+00 0. -1.
         -2    1    3    3    0  502  0.42926422171E+02  0.15954581781E+01 -0.34786715456E+02  0.55275118991E+02  0.00000000000E+00 0.  1.
<mgrwt>
<rscale>  0 0.88689882E+02</rscale>
<asrwt>0</asrwt>
<pdfrwt beam="2">  1        1 0.11099522E-01 0.88689882E+02</pdfrwt>
<pdfrwt beam="1">  1       -1 0.41933122E-02 0.88689882E+02</pdfrwt>
<totfact> 0.10695378E+05</totfact>
</mgrwt>
</event>
<event>
 5    1  0.3858870E+001  0.9034090E+02  0.7546771E-02  0.1302028E+00
         -3   -1    0    0    0  501 -0.00000000000E+00  0.00000000000E+00  0.53234742022E+02  0.53234742022E+02  0.00000000000E+00 0.  1.
          3   -1    0    0  501    0  0.00000000000E+00 -0.00000000000E+00 -0.38327777719E+02  0.38327777719E+02  0.00000000000E+00 0. -1.
         23    2    1    2    0    0  0.00000000000E+00  0.00000000000E+00  0.14906964303E+02  0.91562519742E+02  0.90340895705E+02 0.  0.
          2    1    3    3  502    0 -0.20473099104E+02  0.15503138001E+02 -0.30209127968E+02  0.39649545866E+02  0.00000000000E+00 0. -1.
         -2    1    3    3    0  502  0.20473099104E+02 -0.15503138001E+02  0.45116092271E+02  0.51912973875E+02  0.00000000000E+00 0.  1.
<mgrwt>
<rscale>  0 0.90340896E+02</rscale>
<asrwt>0</asrwt>
<pdfrwt beam="2">  1        3 0.58965812E-02 0.90340896E+02</pdfrwt>
<pdfrwt beam="1">  1       -3 0.81899604E-02 0.90340896E+02</pdfrwt>
<totfact> 0.36205425E+04</totfact>
</mgrwt>
</event>
<event>
 5    1  0.3858870E+001  0.9029574E+02  0.7546771E-02  0.1302137E+00
         -3   -1    0    0    0  501 -0.00000000000E+00  0.00000000000E+00  0.20597605383E+03  0.20597605383E+03  0.00000000000E+00 0.  1.
          3   -1    0    0  501    0  0.00000000000E+00 -0.00000000000E+00 -0.98959574584E+01  0.98959574584E+01  0.00000000000E+00 0. -1.
         23    2    1    2    0    0  0.00000000000E+00  0.00000000000E+00  0.19608009638E+03  0.21587201129E+03  0.90295742229E+02 0.  0.
          2    1    3    3  502    0 -0.13992743496E+02  0.40715310103E+02  0.65540566963E+02  0.78416192621E+02  0.00000000000E+00 0. -1.
         -2    1    3    3    0  502  0.13992743496E+02 -0.40715310103E+02  0.13053952941E+03  0.13745581867E+03  0.00000000000E+00 0.  1.
<mgrwt>
<rscale>  0 0.90295742E+02</rscale>
<asrwt>0</asrwt>
<pdfrwt beam="2">  1        3 0.15224552E-02 0.90295742E+02</pdfrwt>
<pdfrwt beam="1">  1       -3 0.31688620E-01 0.90295742E+02</pdfrwt>
<totfact> 0.28429379E+04</totfact>
</mgrwt>
</event>
<event>
 5    1  0.3858870E+001  0.9157208E+02  0.7546771E-02  0.1299089E+00
          1   -1    0    0  501    0  0.00000000000E+00  0.00000000000E+00  0.18278742439E+04  0.18278742439E+04  0.00000000000E+00 0. -1.
         -1   -1    0    0    0  501 -0.00000000000E+00 -0.00000000000E+00 -0.11468848837E+01  0.11468848837E+01  0.00000000000E+00 0.  1.
         23    2    1    2    0    0  0.00000000000E+00  0.00000000000E+00  0.18267273590E+04  0.18290211287E+04  0.91572077394E+02 0.  0.
          2    1    3    3  502    0 -0.34184880320E+02 -0.17399565969E+02  0.14127070382E+04  0.14132276982E+04  0.00000000000E+00 0. -1.
         -2    1    3    3    0  502  0.34184880320E+02  0.17399565969E+02  0.41402032073E+03  0.41579343058E+03  0.00000000000E+00 0.  1.
<mgrwt>
<rscale>  0 0.91572077E+02</rscale>
<asrwt>0</asrwt>
<pdfrwt beam="1">  1        1 0.28120909E+00 0.91572077E+02</pdfrwt>
<pdfrwt beam="2">  1       -1 0.17644529E-03 0.91572077E+02</pdfrwt>
<totfact> 0.89221088E+04</totfact>
</mgrwt>
</event>
<event>
 5    1  0.3858870E+001  0.8847725E+02  0.7546771E-02  0.1306582E+00
          2   -1    0    0  501    0  0.00000000000E+00  0.00000000000E+00  0.85759338756E+03  0.85759338756E+03  0.00000000000E+00 0. -1.
         -2   -1    0    0    0  501 -0.00000000000E+00 -0.00000000000E+00 -0.22820324766E+01  0.22820324766E+01  0.00000000000E+00 0.  1.
         23    2    1    2    0    0  0.00000000000E+00  0.00000000000E+00  0.85531135508E+03  0.85987542003E+03  0.88477250458E+02 0.  0.
          2    1    3    3  502    0 -0.42083311269E+02  0.49577146423E+01  0.55115155171E+03  0.55277809018E+03  0.00000000000E+00 0. -1.
         -2    1    3    3    0  502  0.42083311269E+02 -0.49577146423E+01  0.30415980337E+03  0.30709732986E+03  0.00000000000E+00 0.  1.
<mgrwt>
<rscale>  0 0.88477250E+02</rscale>
<asrwt>0</asrwt>
<pdfrwt beam="1">  1        2 0.13193719E+00 0.88477250E+02</pdfrwt>
<pdfrwt beam="2">  1       -2 0.35108260E-03 0.88477250E+02</pdfrwt>
<totfact> 0.26670542E+05</totfact>
</mgrwt>
</event>
<event>
 5    1  0.3858870E+001  0.9147102E+02  0.7546771E-02  0.1299328E+00
         -1   -1    0    0    0  501 -0.00000000000E+00  0.00000000000E+00  0.38150149573E+03  0.38150149573E+03  0.00000000000E+00 0.  1.
          1   -1    0    0  501    0  0.00000000000E+00 -0.00000000000E+00 -0.54829063553E+01  0.54829063553E+01  0.00000000000E+00 0. -1.
         23    2    1    2    0    0  0.00000000000E+00  0.00000000000E+00  0.37601858938E+03  0.38698440209E+03  0.91471022198E+02 0.  0.
          2    1    3    3  502    0 -0.18739026678E+02  0.26768469212E+02  0.52625304660E+02  0.61944529665E+02  0.00000000000E+00 0. -1.
         -2    1    3    3    0  502  0.18739026678E+02 -0.26768469212E+02  0.32339328472E+03  0.32503987242E+03  0.00000000000E+00 0.  1.
<mgrwt>
<rscale>  0 0.91471022E+02</rscale>
<asrwt>0</asrwt>
<pdfrwt beam="2">  1        1 0.84352435E-03 0.91471022E+02</pdfrwt>
<pdfrwt beam="1">  1       -1 0.58692517E-01 0.91471022E+02</pdfrwt>
<totfact> 0.54094442E+04</totfact>
</mgrwt>
</event>
<event>
 5    1  0.3858870E+001  0.9375922E+02  0.7546771E-02  0.1293995E+00
          2   -1    0    0  501    0  0.00000000000E+00  0.00000000000E+00  0.16996082223E+02  0.16996082223E+02  0.00000000000E+00 0.  1.
         -2   -1    0    0    0  501 -0.00000000000E+00 -0.00000000000E+00 -0.12930613617E+03  0.12930613617E+03  0.00000000000E+00 0. -1.
         23    2    1    2    0    0  0.00000000000E+00  0.00000000000E+00 -0.11231005395E+03  0.14630221840E+03  0.93759217623E+02 0.  0.
          2    1    3    3  502    0  0.38658954110E+02  0.18252313615E+01 -0.97435046286E+02  0.10484004219E+03  0.00000000000E+00 0. -1.
         -2    1    3    3    0  502 -0.38658954110E+02 -0.18252313615E+01 -0.14875007663E+02  0.41462176202E+02  0.00000000000E+00 0.  1.
<mgrwt>
<rscale>  0 0.93759218E+02</rscale>
<asrwt>0</asrwt>
<pdfrwt beam="1">  1        2 0.26147819E-02 0.93759218E+02</pdfrwt>
<pdfrwt beam="2">  1       -2 0.19893252E-01 0.93759218E+02</pdfrwt>
<totfact> 0.68580324E+04</totfact>
</mgrwt>
</event>
<event>
 5    1  0.3858870E+001  0.9056218E+02  0.7546771E-02  0.1301496E+00
          2   -1    0    0  501    0  0.00000000000E+00  0.00000000000E+00  0.14251171057E+03  0.14251171057E+03  0.00000000000E+00 0. -1.
         -2   -1    0    0    0  501 -0.00000000000E+00 -0.00000000000E+00 -0.14387430018E+02  0.14387430018E+02  0.00000000000E+00 0.  1.
         23    2    1    2    0    0  0.00000000000E+00  0.00000000000E+00  0.12812428055E+03  0.15689914059E+03  0.90562183335E+02 0.  0.
          2    1    3    3  502    0  0.35812494801E+02 -0.55829174901E+01  0.11108523496E+03  0.11684876199E+03  0.00000000000E+00 0. -1.
         -2    1    3    3    0  502 -0.35812494801E+02  0.55829174901E+01  0.17039045595E+02  0.40050378605E+02  0.00000000000E+00 0.  1.
<mgrwt>
<rscale>  0 0.90562183E+02</rscale>
<asrwt>0</asrwt>
<pdfrwt beam="1">  1        2 0.21924878E-01 0.90562183E+02</pdfrwt>
<pdfrwt beam="2">  1       -2 0.22134509E-02 0.90562183E+02</pdfrwt>
<totfact> 0.13995777E+05</totfact>
</mgrwt>
</event>
<event>
 5    1  0.3858870E+001  0.9117931E+02  0.7546771E-02  0.1300021E+00
         -2   -1    0    0    0  501 -0.00000000000E+00  0.00000000000E+00  0.37054911470E+01  0.37054911470E+01  0.00000000000E+00 0.  1.
          2   -1    0    0  501    0  0.00000000000E+00 -0.00000000000E+00 -0.56090183705E+03  0.56090183705E+03  0.00000000000E+00 0. -1.
         23    2    1    2    0    0  0.00000000000E+00  0.00000000000E+00 -0.55719634590E+03  0.56460732819E+03  0.91179313257E+02 0.  0.
          2    1    3    3  502    0 -0.20436386166E+02 -0.43191921492E+01 -0.52952785878E+03  0.52993967065E+03  0.00000000000E+00 0. -1.
         -2    1    3    3    0  502  0.20436386166E+02  0.43191921492E+01 -0.27668487119E+02  0.34667657547E+02  0.00000000000E+00 0.  1.
<mgrwt>
<rscale>  0 0.91179313E+02</rscale>
<asrwt>0</asrwt>
<pdfrwt beam="2">  1        2 0.86292631E-01 0.91179313E+02</pdfrwt>
<pdfrwt beam="1">  1       -2 0.57007529E-03 0.91179313E+02</pdfrwt>
<totfact> 0.22338672E+05</totfact>
</mgrwt>
</event>
<event>
 5    1  0.3858870E+001  0.9198169E+02  0.7546771E-02  0.1298122E+00
         -1   -1    0    0    0  501 -0.00000000000E+00  0.00000000000E+00  0.29690924601E+01  0.29690924601E+01  0.00000000000E+00 0.  1.
          1   -1    0    0  501    0  0.00000000000E+00 -0.00000000000E+00 -0.71239211229E+03  0.71239211229E+03  0.00000000000E+00 0. -1.
         23    2    1    2    0    0  0.00000000000E+00  0.00000000000E+00 -0.70942301983E+03  0.71536120475E+03  0.91981694902E+02 0.  0.
          2    1    3    3  502    0 -0.31220142919E+02  0.33649321799E+02 -0.37696014022E+03  0.37974454768E+03  0.00000000000E+00 0.  1.
         -2    1    3    3    0  502  0.31220142919E+02 -0.33649321799E+02 -0.33246287961E+03  0.33561665707E+03  0.00000000000E+00 0. -1.
<mgrwt>
<rscale>  0 0.91981695E+02</rscale>
<asrwt>0</asrwt>
<pdfrwt beam="2">  1        1 0.10959890E+00 0.91981695E+02</pdfrwt>
<pdfrwt beam="1">  1       -1 0.45678300E-03 0.91981695E+02</pdfrwt>
<totfact> 0.13887363E+05</totfact>
</mgrwt>
</event>
<event>
 5    1  0.3858870E+001  0.8968473E+02  0.7546771E-02  0.1303617E+00
         -2   -1    0    0    0  501 -0.00000000000E+00  0.00000000000E+00  0.48110781143E+01  0.48110781143E+01  0.00000000000E+00 0. -1.
          2   -1    0    0  501    0  0.00000000000E+00 -0.00000000000E+00 -0.41795993080E+03  0.41795993080E+03  0.00000000000E+00 0.  1.
         23    2    1    2    0    0  0.00000000000E+00  0.00000000000E+00 -0.41314885268E+03  0.42277100891E+03  0.89684733946E+02 0.  0.
          2    1    3    3  502    0 -0.82694696232E+01 -0.25267301872E+02 -0.36347469702E+02  0.45032868280E+02  0.00000000000E+00 0. -1.
         -2    1    3    3    0  502  0.82694696232E+01  0.25267301872E+02 -0.37680138298E+03  0.37773814063E+03  0.00000000000E+00 0.  1.
<mgrwt>
<rscale>  0 0.89684734E+02</rscale>
<asrwt>0</asrwt>
<pdfrwt beam="2">  1        2 0.64301534E-01 0.89684734E+02</pdfrwt>
<pdfrwt beam="1">  1       -2 0.74016579E-03 0.89684734E+02</pdfrwt>
<totfact> 0.21182455E+05</totfact>
</mgrwt>
</event>
<event>
 5    1  0.3858870E+001  0.1094772E+03  0.7546771E-02  0.1261541E+00
          1   -1    0    0  501    0  0.00000000000E+00  0.00000000000E+00  0.12126139878E+04  0.12126139878E+04  0.00000000000E+00 0. -1.
         -1   -1    0    0    0  501 -0.00000000000E+00 -0.00000000000E+00 -0.24709549038E+01  0.24709549038E+01  0.00000000000E+00 0.  1.
         23    2    1    2    0    0  0.00000000000E+00  0.00000000000E+00  0.12101430329E+04  0.12150849427E+04  0.10947720273E+03 0.  0.
          2    1    3    3  502    0  0.62429826051E+01 -0.21644811058E+02  0.51362502928E+02  0.56085465003E+02  0.00000000000E+00 0.  1.
         -2    1    3    3    0  502 -0.62429826051E+01  0.21644811058E+02  0.11587805300E+04  0.11589994777E+04  0.00000000000E+00 0. -1.
<mgrwt>
<rscale>  0 0.10947720E+03</rscale>
<asrwt>0</asrwt>
<pdfrwt beam="1">  1        1 0.18655552E+00 0.10947720E+03</pdfrwt>
<pdfrwt beam="2">  1       -1 0.38014788E-03 0.10947720E+03</pdfrwt>
<totfact> 0.77761306E+04</totfact>
</mgrwt>
</event>
<event>
 5    1  0.3858870E+001  0.1040883E+03  0.7546771E-02  0.1271926E+00
          2   -1    0    0  501    0  0.00000000000E+00  0.00000000000E+00  0.17819256945E+04  0.17819256945E+04  0.00000000000E+00 0. -1.
         -2   -1    0    0    0  501 -0.00000000000E+00 -0.00000000000E+00 -0.15200365092E+01  0.15200365092E+01  0.00000000000E+00 0.  1.
         23    2    1    2    0    0  0.00000000000E+00  0.00000000000E+00  0.17804056580E+04  0.17834457310E+04  0.10408827239E+03 0.  0.
          2    1    3    3  502    0  0.31607109456E+02 -0.23673371133E+02  0.14710304499E+04  0.14715604039E+04  0.00000000000E+00 0. -1.
         -2    1    3    3    0  502 -0.31607109456E+02  0.23673371133E+02  0.30937520812E+03  0.31188532711E+03  0.00000000000E+00 0.  1.
<mgrwt>
<rscale>  0 0.10408827E+03</rscale>
<asrwt>0</asrwt>
<pdfrwt beam="1">  1        2 0.27414074E+00 0.10408827E+03</pdfrwt>
<pdfrwt beam="2">  1       -2 0.23385320E-03 0.10408827E+03</pdfrwt>
<totfact> 0.15182803E+05</totfact>
</mgrwt>
</event>
<event>
 5    1  0.3858870E+001  0.9076267E+02  0.7546771E-02  0.1301015E+00
         -1   -1    0    0    0  501 -0.00000000000E+00  0.00000000000E+00  0.69340851281E+01  0.69340851281E+01  0.00000000000E+00 0.  1.
          1   -1    0    0  501    0  0.00000000000E+00 -0.00000000000E+00 -0.29700612443E+03  0.29700612443E+03  0.00000000000E+00 0. -1.
         23    2    1    2    0    0  0.00000000000E+00  0.00000000000E+00 -0.29007203931E+03  0.30394020956E+03  0.90762674055E+02 0.  0.
          2    1    3    3  502    0 -0.14542355888E+02  0.36198738991E+02 -0.22268315229E+03  0.22607435753E+03  0.00000000000E+00 0. -1.
         -2    1    3    3    0  502  0.14542355888E+02 -0.36198738991E+02 -0.67388887020E+02  0.77865852035E+02  0.00000000000E+00 0.  1.
<mgrwt>
<rscale>  0 0.90762674E+02</rscale>
<asrwt>0</asrwt>
<pdfrwt beam="2">  1        1 0.45693248E-01 0.90762674E+02</pdfrwt>
<pdfrwt beam="1">  1       -1 0.10667824E-02 0.90762674E+02</pdfrwt>
<totfact> 0.12943707E+05</totfact>
</mgrwt>
</event>
<event>
 5    1  0.3858870E+001  0.9226665E+02  0.7546771E-02  0.1297454E+00
          2   -1    0    0  501    0  0.00000000000E+00  0.00000000000E+00  0.19607705052E+01  0.19607705052E+01  0.00000000000E+00 0.  1.
         -2   -1    0    0    0  501 -0.00000000000E+00 -0.00000000000E+00 -0.10854322659E+04  0.10854322659E+04  0.00000000000E+00 0. -1.
         23    2    1    2    0    0  0.00000000000E+00  0.00000000000E+00 -0.10834714954E+04  0.10873930364E+04  0.92266647764E+02 0.  0.
          2    1    3    3  502    0  0.34914229780E+00 -0.33214624529E+02 -0.91904132746E+03  0.91964139466E+03  0.00000000000E+00 0. -1.
         -2    1    3    3    0  502 -0.34914229780E+00  0.33214624529E+02 -0.16443016794E+03  0.16775164175E+03  0.00000000000E+00 0.  1.
<mgrwt>
<rscale>  0 0.92266648E+02</rscale>
<asrwt>0</asrwt>
<pdfrwt beam="1">  1        2 0.30165700E-03 0.92266648E+02</pdfrwt>
<pdfrwt beam="2">  1       -2 0.16698958E+00 0.92266648E+02</pdfrwt>
<totfact> 0.16405786E+04</totfact>
</mgrwt>
</event>
<event>
 5    1  0.3858870E+001  0.9060036E+02  0.7546771E-02  0.1301404E+00
          1   -1    0    0  501    0  0.00000000000E+00  0.00000000000E+00  0.16650108283E+03  0.16650108283E+03  0.00000000000E+00 0. -1.
         -1   -1    0    0    0  501 -0.00000000000E+00 -0.00000000000E+00 -0.12324881345E+02  0.12324881345E+02  0.00000000000E+00 0.  1.
         23    2    1    2    0    0  0.00000000000E+00  0.00000000000E+00  0.15417620148E+03  0.17882596417E+03  0.90600355180E+02 0.  0.
          2    1    3    3  502    0 -0.25111006480E+02 -0.31016556376E+02  0.11939890809E+03  0.12589157505E+03  0.00000000000E+00 0. -1.
         -2    1    3    3    0  502  0.25111006480E+02  0.31016556376E+02  0.34777293391E+02  0.52934389120E+02  0.00000000000E+00 0.  1.
<mgrwt>
<rscale>  0 0.90600355E+02</rscale>
<asrwt>0</asrwt>
<pdfrwt beam="1">  1        1 0.25615549E-01 0.90600355E+02</pdfrwt>
<pdfrwt beam="2">  1       -1 0.18961357E-02 0.90600355E+02</pdfrwt>
<totfact> 0.11629465E+05</totfact>
</mgrwt>
</event>
<event>
 5    1  0.3858870E+001  0.9232730E+02  0.7546771E-02  0.1297312E+00
          2   -1    0    0  501    0  0.00000000000E+00  0.00000000000E+00  0.16879242712E+03  0.16879242712E+03  0.00000000000E+00 0. -1.
         -2   -1    0    0    0  501 -0.00000000000E+00 -0.00000000000E+00 -0.12625463375E+02  0.12625463375E+02  0.00000000000E+00 0.  1.
         23    2    1    2    0    0  0.00000000000E+00  0.00000000000E+00  0.15616696374E+03  0.18141789049E+03  0.92327300547E+02 0.  0.
          2    1    3    3  502    0  0.41521389782E+02  0.56297591051E+01  0.11615283345E+03  0.12347955586E+03  0.00000000000E+00 0. -1.
         -2    1    3    3    0  502 -0.41521389782E+02 -0.56297591051E+01  0.40014130296E+02  0.57938334635E+02  0.00000000000E+00 0.  1.
<mgrwt>
<rscale>  0 0.92327301E+02</rscale>
<asrwt>0</asrwt>
<pdfrwt beam="1">  1        2 0.25968064E-01 0.92327301E+02</pdfrwt>
<pdfrwt beam="2">  1       -2 0.19423791E-02 0.92327301E+02</pdfrwt>
<totfact> 0.14075248E+05</totfact>
</mgrwt>
</event>
<event>
 5    1  0.3858870E+001  0.9216561E+02  0.7546771E-02  0.1297691E+00
         -2   -1    0    0    0  501 -0.00000000000E+00  0.00000000000E+00  0.92927156495E+02  0.92927156495E+02  0.00000000000E+00 0.  1.
          2   -1    0    0  501    0  0.00000000000E+00 -0.00000000000E+00 -0.22852575944E+02  0.22852575944E+02  0.00000000000E+00 0. -1.
         23    2    1    2    0    0  0.00000000000E+00  0.00000000000E+00  0.70074580551E+02  0.11577973244E+03  0.92165609662E+02 0.  0.
          2    1    3    3  502    0  0.11253012278E+02  0.36116795901E+02  0.19778114677E+01  0.37880931479E+02  0.00000000000E+00 0. -1.
         -2    1    3    3    0  502 -0.11253012278E+02 -0.36116795901E+02  0.68096769083E+02  0.77898800961E+02  0.00000000000E+00 0.  1.
<mgrwt>
<rscale>  0 0.92165610E+02</rscale>
<asrwt>0</asrwt>
<pdfrwt beam="2">  1        2 0.35157810E-02 0.92165610E+02</pdfrwt>
<pdfrwt beam="1">  1       -2 0.14296485E-01 0.92165610E+02</pdfrwt>
<totfact> 0.79394360E+04</totfact>
</mgrwt>
</event>
<event>
 5    1  0.3858870E+001  0.9190526E+02  0.7546771E-02  0.1298302E+00
         -2   -1    0    0    0  501 -0.00000000000E+00  0.00000000000E+00  0.68157720146E+01  0.68157720146E+01  0.00000000000E+00 0.  1.
          2   -1    0    0  501    0  0.00000000000E+00 -0.00000000000E+00 -0.30981733343E+03  0.30981733343E+03  0.00000000000E+00 0. -1.
         23    2    1    2    0    0  0.00000000000E+00  0.00000000000E+00 -0.30300156141E+03  0.31663310544E+03  0.91905262326E+02 0.  0.
          2    1    3    3  502    0 -0.21956478468E+02 -0.28443200421E+02 -0.52812343097E+02  0.63876804713E+02  0.00000000000E+00 0.  1.
         -2    1    3    3    0  502  0.21956478468E+02  0.28443200421E+02 -0.25018921832E+03  0.25275630073E+03  0.00000000000E+00 0. -1.
<mgrwt>
<rscale>  0 0.91905262E+02</rscale>
<asrwt>0</asrwt>
<pdfrwt beam="2">  1        2 0.47664207E-01 0.91905262E+02</pdfrwt>
<pdfrwt beam="1">  1       -2 0.10485803E-02 0.91905262E+02</pdfrwt>
<totfact> 0.17800359E+05</totfact>
</mgrwt>
</event>
<event>
 5    1  0.3858870E+001  0.9387997E+02  0.7546771E-02  0.1293719E+00
          2   -1    0    0  501    0  0.00000000000E+00  0.00000000000E+00  0.26235218916E+04  0.26235218916E+04  0.00000000000E+00 0. -1.
         -2   -1    0    0    0  501 -0.00000000000E+00 -0.00000000000E+00 -0.83984896844E+00  0.83984896844E+00  0.00000000000E+00 0.  1.
         23    2    1    2    0    0  0.00000000000E+00  0.00000000000E+00  0.26226820426E+04  0.26243617405E+04  0.93879969201E+02 0.  0.
          2    1    3    3  502    0  0.14577751336E+02  0.37548162014E+02  0.19851455266E+04  0.19855541134E+04  0.00000000000E+00 0. -1.
         -2    1    3    3    0  502 -0.14577751336E+02 -0.37548162014E+02  0.63753651598E+03  0.63880762715E+03  0.00000000000E+00 0.  1.
<mgrwt>
<rscale>  0 0.93879969E+02</rscale>
<asrwt>0</asrwt>
<pdfrwt beam="1">  1        2 0.40361219E+00 0.93879969E+02</pdfrwt>
<pdfrwt beam="2">  1       -2 0.12920963E-03 0.93879969E+02</pdfrwt>
<totfact> 0.12636334E+05</totfact>
</mgrwt>
</event>
<event>
 5    1  0.3858870E+001  0.9155374E+02  0.7546771E-02  0.1299132E+00
         -2   -1    0    0    0  501 -0.00000000000E+00  0.00000000000E+00  0.39097353062E+01  0.39097353062E+01  0.00000000000E+00 0.  1.
          2   -1    0    0  501    0  0.00000000000E+00 -0.00000000000E+00 -0.53597541389E+03  0.53597541389E+03  0.00000000000E+00 0. -1.
         23    2    1    2    0    0  0.00000000000E+00  0.00000000000E+00 -0.53206567859E+03  0.53988514920E+03  0.91553743757E+02 0.  0.
          2    1    3    3  502    0 -0.39915308213E+02  0.12487832581E+02 -0.37577644805E+03  0.37809670284E+03  0.00000000000E+00 0. -1.
         -2    1    3    3    0  502  0.39915308213E+02 -0.12487832581E+02 -0.15628923054E+03  0.16178844636E+03  0.00000000000E+00 0.  1.
<mgrwt>
<rscale>  0 0.91553744E+02</rscale>
<asrwt>0</asrwt>
<pdfrwt beam="2">  1        2 0.82457708E-01 0.91553744E+02</pdfrwt>
<pdfrwt beam="1">  1       -2 0.60149809E-03 0.91553744E+02</pdfrwt>
<totfact> 0.21792009E+05</totfact>
</mgrwt>
</event>
<event>
 5    1  0.3858870E+001  0.9261885E+02  0.7546771E-02  0.1296631E+00
         -1   -1    0    0    0  501 -0.00000000000E+00  0.00000000000E+00  0.17623993910E+04  0.17623993910E+04  0.00000000000E+00 0.  1.
          1   -1    0    0  501    0  0.00000000000E+00 -0.00000000000E+00 -0.12168426973E+01  0.12168426973E+01  0.00000000000E+00 0. -1.
         23    2    1    2    0    0  0.00000000000E+00  0.00000000000E+00  0.17611825483E+04  0.17636162337E+04  0.92618849672E+02 0.  0.
          2    1    3    3  502    0 -0.21568997110E+02  0.23616955960E+02  0.24288609204E+03  0.24498292992E+03  0.00000000000E+00 0. -1.
         -2    1    3    3    0  502  0.21568997110E+02 -0.23616955960E+02  0.15182964563E+04  0.15186333038E+04  0.00000000000E+00 0.  1.
<mgrwt>
<rscale>  0 0.92618850E+02</rscale>
<asrwt>0</asrwt>
<pdfrwt beam="2">  1        1 0.18720798E-03 0.92618850E+02</pdfrwt>
<pdfrwt beam="1">  1       -1 0.27113632E+00 0.92618850E+02</pdfrwt>
<totfact> 0.93478133E+03</totfact>
</mgrwt>
</event>
<event>
 5    1  0.3858870E+001  0.9084927E+02  0.7546771E-02  0.1300808E+00
         -1   -1    0    0    0  501 -0.00000000000E+00  0.00000000000E+00  0.42970209402E+01  0.42970209402E+01  0.00000000000E+00 0.  1.
          1   -1    0    0  501    0  0.00000000000E+00 -0.00000000000E+00 -0.48019260166E+03  0.48019260166E+03  0.00000000000E+00 0. -1.
         23    2    1    2    0    0  0.00000000000E+00  0.00000000000E+00 -0.47589558072E+03  0.48448962260E+03  0.90849274398E+02 0.  0.
          2    1    3    3  502    0  0.24342560642E+02 -0.31438386805E+02 -0.35508531208E+03  0.35730450778E+03  0.00000000000E+00 0. -1.
         -2    1    3    3    0  502 -0.24342560642E+02  0.31438386805E+02 -0.12081026864E+03  0.12718511483E+03  0.00000000000E+00 0.  1.
<mgrwt>
<rscale>  0 0.90849274E+02</rscale>
<asrwt>0</asrwt>
<pdfrwt beam="2">  1        1 0.73875762E-01 0.90849274E+02</pdfrwt>
<pdfrwt beam="1">  1       -1 0.66108035E-03 0.90849274E+02</pdfrwt>
<totfact> 0.13990139E+05</totfact>
</mgrwt>
</event>
<event>
 5    1  0.3858870E+001  0.9380946E+02  0.7546771E-02  0.1293880E+00
          2   -1    0    0  501    0  0.00000000000E+00  0.00000000000E+00  0.14998057094E+02  0.14998057094E+02  0.00000000000E+00 0. -1.
         -2   -1    0    0    0  501 -0.00000000000E+00 -0.00000000000E+00 -0.14668924289E+03  0.14668924289E+03  0.00000000000E+00 0.  1.
         23    2    1    2    0    0  0.00000000000E+00  0.00000000000E+00 -0.13169118580E+03  0.16168729999E+03  0.93809458798E+02 0.  0.
          2    1    3    3  502    0  0.59509313480E+01  0.43569401123E+02 -0.37716646738E+02  0.57933166143E+02  0.00000000000E+00 0.  1.
         -2    1    3    3    0  502 -0.59509313480E+01 -0.43569401123E+02 -0.93974539059E+02  0.10375413384E+03  0.00000000000E+00 0. -1.
<mgrwt>
<rscale>  0 0.93809459E+02</rscale>
<asrwt>0</asrwt>
<pdfrwt beam="1">  1        2 0.23073935E-02 0.93809459E+02</pdfrwt>
<pdfrwt beam="2">  1       -2 0.22567575E-01 0.93809459E+02</pdfrwt>
<totfact> 0.65525644E+04</totfact>
</mgrwt>
</event>
<event>
 5    1  0.3858870E+001  0.8993525E+02  0.7546771E-02  0.1303009E+00
         -1   -1    0    0    0  501 -0.00000000000E+00  0.00000000000E+00  0.10439929934E+04  0.10439929934E+04  0.00000000000E+00 0.  1.
          1   -1    0    0  501    0  0.00000000000E+00 -0.00000000000E+00 -0.19368782786E+01  0.19368782786E+01  0.00000000000E+00 0. -1.
         23    2    1    2    0    0  0.00000000000E+00  0.00000000000E+00  0.10420561152E+04  0.10459298717E+04  0.89935251197E+02 0.  0.
          2    1    3    3  502    0 -0.10553369673E+02 -0.33987457370E+02  0.20135284954E+03  0.20447369241E+03  0.00000000000E+00 0. -1.
         -2    1    3    3    0  502  0.10553369673E+02  0.33987457370E+02  0.84070326562E+03  0.84145617931E+03  0.00000000000E+00 0.  1.
<mgrwt>
<rscale>  0 0.89935251E+02</rscale>
<asrwt>0</asrwt>
<pdfrwt beam="2">  1        1 0.29798211E-03 0.89935251E+02</pdfrwt>
<pdfrwt beam="1">  1       -1 0.16061386E+00 0.89935251E+02</pdfrwt>
<totfact> 0.25206040E+04</totfact>
</mgrwt>
</event>
<event>
 5    1  0.3858870E+001  0.9057406E+02  0.7546771E-02  0.1301467E+00
         -1   -1    0    0    0  501 -0.00000000000E+00  0.00000000000E+00  0.79057878461E+00  0.79057878461E+00  0.00000000000E+00 0.  1.
          1   -1    0    0  501    0  0.00000000000E+00 -0.00000000000E+00 -0.25941941693E+04  0.25941941693E+04  0.00000000000E+00 0. -1.
         23    2    1    2    0    0  0.00000000000E+00  0.00000000000E+00 -0.25934035905E+04  0.25949847481E+04  0.90574055301E+02 0.  0.
          2    1    3    3  502    0 -0.38455349742E+02  0.80652338513E+01 -0.65155632156E+03  0.65273999578E+03  0.00000000000E+00 0. -1.
         -2    1    3    3    0  502  0.38455349742E+02 -0.80652338513E+01 -0.19418472690E+04  0.19422447523E+04  0.00000000000E+00 0.  1.
<mgrwt>
<rscale>  0 0.90574055E+02</rscale>
<asrwt>0</asrwt>
<pdfrwt beam="2">  1        1 0.39910429E+00 0.90574055E+02</pdfrwt>
<pdfrwt beam="1">  1       -1 0.12162827E-03 0.90574055E+02</pdfrwt>
<totfact> 0.48695123E+04</totfact>
</mgrwt>
</event>
<event>
 5    1  0.3858870E+001  0.9140434E+02  0.7546771E-02  0.1299486E+00
         -2   -1    0    0    0  501 -0.00000000000E+00  0.00000000000E+00  0.12250271331E+02  0.12250271331E+02  0.00000000000E+00 0.  1.
          2   -1    0    0  501    0  0.00000000000E+00 -0.00000000000E+00 -0.17050137981E+03  0.17050137981E+03  0.00000000000E+00 0. -1.
         23    2    1    2    0    0  0.00000000000E+00  0.00000000000E+00 -0.15825110847E+03  0.18275165114E+03  0.91404336110E+02 0.  0.
          2    1    3    3  502    0 -0.16591649451E+02 -0.41771815553E+02 -0.95675843647E+02  0.10570730563E+03  0.00000000000E+00 0. -1.
         -2    1    3    3    0  502  0.16591649451E+02  0.41771815553E+02 -0.62575264828E+02  0.77044345506E+02  0.00000000000E+00 0.  1.
<mgrwt>
<rscale>  0 0.91404336E+02</rscale>
<asrwt>0</asrwt>
<pdfrwt beam="2">  1        2 0.26230979E-01 0.91404336E+02</pdfrwt>
<pdfrwt beam="1">  1       -2 0.18846573E-02 0.91404336E+02</pdfrwt>
<totfact> 0.14514668E+05</totfact>
</mgrwt>
</event>
<event>
 5    1  0.3858870E+001  0.9332900E+02  0.7546771E-02  0.1294985E+00
          2   -1    0    0  501    0  0.00000000000E+00  0.00000000000E+00  0.92963594444E+03  0.92963594444E+03  0.00000000000E+00 0. -1.
         -2   -1    0    0    0  501 -0.00000000000E+00 -0.00000000000E+00 -0.23423960949E+01  0.23423960949E+01  0.00000000000E+00 0.  1.
         23    2    1    2    0    0  0.00000000000E+00  0.00000000000E+00  0.92729354834E+03  0.93197834053E+03  0.93329000978E+02 0.  0.
          2    1    3    3  502    0  0.29573845324E+02 -0.40254856293E+01  0.82185682421E+03  0.82239859944E+03  0.00000000000E+00 0. -1.
         -2    1    3    3    0  502 -0.29573845324E+02  0.40254856293E+01  0.10543672413E+03  0.10957974109E+03  0.00000000000E+00 0.  1.
<mgrwt>
<rscale>  0 0.93329001E+02</rscale>
<asrwt>0</asrwt>
<pdfrwt beam="1">  1        2 0.14302062E+00 0.93329001E+02</pdfrwt>
<pdfrwt beam="2">  1       -2 0.36036937E-03 0.93329001E+02</pdfrwt>
<totfact> 0.23392487E+05</totfact>
</mgrwt>
</event>
<event>
 5    1  0.3858870E+001  0.9206305E+02  0.7546771E-02  0.1297931E+00
          2   -1    0    0  501    0  0.00000000000E+00  0.00000000000E+00  0.12044999849E+03  0.12044999849E+03  0.00000000000E+00 0. -1.
         -2   -1    0    0    0  501 -0.00000000000E+00 -0.00000000000E+00 -0.17591543007E+02  0.17591543007E+02  0.00000000000E+00 0.  1.
         23    2    1    2    0    0  0.00000000000E+00  0.00000000000E+00  0.10285845548E+03  0.13804154150E+03  0.92063050756E+02 0.  0.
          2    1    3    3  502    0 -0.15191902430E+02  0.23910476472E+02  0.10583159586E+03  0.10955743456E+03  0.00000000000E+00 0. -1.
         -2    1    3    3    0  502  0.15191902430E+02 -0.23910476472E+02 -0.29731403747E+01  0.28484106942E+02  0.00000000000E+00 0.  1.
<mgrwt>
<rscale>  0 0.92063051E+02</rscale>
<asrwt>0</asrwt>
<pdfrwt beam="1">  1        2 0.18530768E-01 0.92063051E+02</pdfrwt>
<pdfrwt beam="2">  1       -2 0.27063913E-02 0.92063051E+02</pdfrwt>
<totfact> 0.12662188E+05</totfact>
</mgrwt>
</event>
<event>
 5    1  0.3858870E+001  0.9147010E+02  0.7546771E-02  0.1299330E+00
          2   -1    0    0  501    0  0.00000000000E+00  0.00000000000E+00  0.24852744470E+03  0.24852744470E+03  0.00000000000E+00 0.  1.
         -2   -1    0    0    0  501 -0.00000000000E+00 -0.00000000000E+00 -0.84163527238E+01  0.84163527238E+01  0.00000000000E+00 0. -1.
         23    2    1    2    0    0  0.00000000000E+00  0.00000000000E+00  0.24011109198E+03  0.25694379743E+03  0.91470096451E+02 0.  0.
          2    1    3    3  502    0 -0.20409119654E+02  0.44477444498E+01  0.57656444543E+01  0.21669269755E+02  0.00000000000E+00 0. -1.
         -2    1    3    3    0  502  0.20409119654E+02 -0.44477444498E+01  0.23434544753E+03  0.23527452767E+03  0.00000000000E+00 0.  1.
<mgrwt>
<rscale>  0 0.91470096E+02</rscale>
<asrwt>0</asrwt>
<pdfrwt beam="1">  1        2 0.38234986E-01 0.91470096E+02</pdfrwt>
<pdfrwt beam="2">  1       -2 0.12948237E-02 0.91470096E+02</pdfrwt>
<totfact> 0.16605818E+05</totfact>
</mgrwt>
</event>
<event>
 5    1  0.3858870E+001  0.9160998E+02  0.7546771E-02  0.1298999E+00
         -2   -1    0    0    0  501 -0.00000000000E+00  0.00000000000E+00  0.31829691666E+01  0.31829691666E+01  0.00000000000E+00 0.  1.
          2   -1    0    0  501    0  0.00000000000E+00 -0.00000000000E+00 -0.65916347281E+03  0.65916347281E+03  0.00000000000E+00 0. -1.
         23    2    1    2    0    0  0.00000000000E+00  0.00000000000E+00 -0.65598050364E+03  0.66234644198E+03  0.91609977834E+02 0.  0.
          2    1    3    3  502    0 -0.27227608244E+02 -0.54307179778E+01 -0.64587259410E+02  0.70301845115E+02  0.00000000000E+00 0.  1.
         -2    1    3    3    0  502  0.27227608244E+02  0.54307179778E+01 -0.59139324423E+03  0.59204459686E+03  0.00000000000E+00 0. -1.
<mgrwt>
<rscale>  0 0.91609978E+02</rscale>
<asrwt>0</asrwt>
<pdfrwt beam="2">  1        2 0.10140989E+00 0.91609978E+02</pdfrwt>
<pdfrwt beam="1">  1       -2 0.48968696E-03 0.91609978E+02</pdfrwt>
<totfact> 0.23078699E+05</totfact>
</mgrwt>
</event>
<event>
 5    1  0.3858870E+001  0.9096110E+02  0.7546771E-02  0.1300541E+00
         -1   -1    0    0    0  501 -0.00000000000E+00  0.00000000000E+00  0.13181368942E+03  0.13181368942E+03  0.00000000000E+00 0.  1.
          1   -1    0    0  501    0  0.00000000000E+00 -0.00000000000E+00 -0.15692453614E+02  0.15692453614E+02  0.00000000000E+00 0. -1.
         23    2    1    2    0    0  0.00000000000E+00  0.00000000000E+00  0.11612123581E+03  0.14750614304E+03  0.90961095134E+02 0.  0.
          2    1    3    3  502    0  0.29738820253E+02 -0.30567745454E+02  0.32435848172E+02  0.53580488416E+02  0.00000000000E+00 0. -1.
         -2    1    3    3    0  502 -0.29738820253E+02  0.30567745454E+02  0.83685387634E+02  0.93925654619E+02  0.00000000000E+00 0.  1.
<mgrwt>
<rscale>  0 0.90961095E+02</rscale>
<asrwt>0</asrwt>
<pdfrwt beam="2">  1        1 0.24142237E-02 0.90961095E+02</pdfrwt>
<pdfrwt beam="1">  1       -1 0.20279028E-01 0.90961095E+02</pdfrwt>
<totfact> 0.77468735E+04</totfact>
</mgrwt>
</event>
<event>
 5    1  0.3858870E+001  0.8634683E+02  0.7546771E-02  0.1311948E+00
         -1   -1    0    0    0  501 -0.00000000000E+00  0.00000000000E+00  0.57960743258E+01  0.57960743258E+01  0.00000000000E+00 0.  1.
          1   -1    0    0  501    0  0.00000000000E+00 -0.00000000000E+00 -0.32158728670E+03  0.32158728670E+03  0.00000000000E+00 0. -1.
         23    2    1    2    0    0  0.00000000000E+00  0.00000000000E+00 -0.31579121237E+03  0.32738336102E+03  0.86346831231E+02 0.  0.
          2    1    3    3  502    0 -0.41895492744E+02 -0.10417831127E+02 -0.15950553235E+03  0.16524460163E+03  0.00000000000E+00 0. -1.
         -2    1    3    3    0  502  0.41895492744E+02  0.10417831127E+02 -0.15628568002E+03  0.16213875939E+03  0.00000000000E+00 0.  1.
<mgrwt>
<rscale>  0 0.86346831E+02</rscale>
<asrwt>0</asrwt>
<pdfrwt beam="2">  1        1 0.49474973E-01 0.86346831E+02</pdfrwt>
<pdfrwt beam="1">  1       -1 0.89170364E-03 0.86346831E+02</pdfrwt>
<totfact> 0.14997916E+05</totfact>
</mgrwt>
</event>
<event>
 5    1  0.3858870E+001  0.9226431E+02  0.7546771E-02  0.1297459E+00
          1   -1    0    0  501    0  0.00000000000E+00  0.00000000000E+00  0.15143871181E+03  0.15143871181E+03  0.00000000000E+00 0. -1.
         -1   -1    0    0    0  501 -0.00000000000E+00 -0.00000000000E+00 -0.14053050112E+02  0.14053050112E+02  0.00000000000E+00 0.  1.
         23    2    1    2    0    0  0.00000000000E+00  0.00000000000E+00  0.13738566170E+03  0.16549176192E+03  0.92264311757E+02 0.  0.
          2    1    3    3  502    0 -0.27404711384E+02  0.37003532201E+02  0.73733077969E+02  0.86930123595E+02  0.00000000000E+00 0. -1.
         -2    1    3    3    0  502  0.27404711384E+02 -0.37003532201E+02  0.63652583729E+02  0.78561638328E+02  0.00000000000E+00 0.  1.
<mgrwt>
<rscale>  0 0.92264312E+02</rscale>
<asrwt>0</asrwt>
<pdfrwt beam="1">  1        1 0.23298262E-01 0.92264312E+02</pdfrwt>
<pdfrwt beam="2">  1       -1 0.21620078E-02 0.92264312E+02</pdfrwt>
<totfact> 0.10878908E+05</totfact>
</mgrwt>
</event>
<event>
 5    1  0.3858870E+001  0.9135785E+02  0.7546771E-02  0.1299596E+00
          3   -1    0    0  501    0  0.00000000000E+00  0.00000000000E+00  0.51786905430E+02  0.51786905430E+02  0.00000000000E+00 0. -1.
         -3   -1    0    0    0  501 -0.00000000000E+00 -0.00000000000E+00 -0.40291351268E+02  0.40291351268E+02  0.00000000000E+00 0.  1.
         23    2    1    2    0    0  0.00000000000E+00  0.00000000000E+00  0.11495554162E+02  0.92078256697E+02  0.91357854566E+02 0.  0.
          2    1    3    3  502    0 -0.45283735922E+02  0.32930382427E+01  0.69792293906E+00  0.45408676884E+02  0.00000000000E+00 0. -1.
         -2    1    3    3    0  502  0.45283735922E+02 -0.32930382427E+01  0.10797631223E+02  0.46669579813E+02  0.00000000000E+00 0.  1.
<mgrwt>
<rscale>  0 0.91357855E+02</rscale>
<asrwt>0</asrwt>
<pdfrwt beam="1">  1        3 0.79672162E-02 0.91357855E+02</pdfrwt>
<pdfrwt beam="2">  1       -3 0.61986694E-02 0.91357855E+02</pdfrwt>
<totfact> 0.35079295E+04</totfact>
</mgrwt>
</event>
<event>
 5    1  0.3858870E+001  0.9150526E+02  0.7546771E-02  0.1299247E+00
         -2   -1    0    0    0  501 -0.00000000000E+00  0.00000000000E+00  0.58975922022E+03  0.58975922022E+03  0.00000000000E+00 0.  1.
          2   -1    0    0  501    0  0.00000000000E+00 -0.00000000000E+00 -0.35494202139E+01  0.35494202139E+01  0.00000000000E+00 0. -1.
         23    2    1    2    0    0  0.00000000000E+00  0.00000000000E+00  0.58620980001E+03  0.59330864044E+03  0.91505263184E+02 0.  0.
          2    1    3    3  502    0 -0.26721245914E+02  0.34769278989E+02  0.20847219189E+03  0.21303422856E+03  0.00000000000E+00 0. -1.
         -2    1    3    3    0  502  0.26721245914E+02 -0.34769278989E+02  0.37773760812E+03  0.38027441188E+03  0.00000000000E+00 0.  1.
<mgrwt>
<rscale>  0 0.91505263E+02</rscale>
<asrwt>0</asrwt>
<pdfrwt beam="2">  1        2 0.54606512E-03 0.91505263E+02</pdfrwt>
<pdfrwt beam="1">  1       -2 0.90732110E-01 0.91505263E+02</pdfrwt>
<totfact> 0.31434223E+04</totfact>
</mgrwt>
</event>
<event>
 5    1  0.3858870E+001  0.9062262E+02  0.7546771E-02  0.1301351E+00
         -1   -1    0    0    0  501 -0.00000000000E+00  0.00000000000E+00  0.18565784243E+04  0.18565784243E+04  0.00000000000E+00 0.  1.
          1   -1    0    0  501    0  0.00000000000E+00 -0.00000000000E+00 -0.11058594895E+01  0.11058594895E+01  0.00000000000E+00 0. -1.
         23    2    1    2    0    0  0.00000000000E+00  0.00000000000E+00  0.18554725648E+04  0.18576842837E+04  0.90622621203E+02 0.  0.
          2    1    3    3  502    0 -0.43182488015E+02 -0.45187083214E+00  0.64652939440E+03  0.64797005277E+03  0.00000000000E+00 0. -1.
         -2    1    3    3    0  502  0.43182488015E+02  0.45187083214E+00  0.12089431704E+04  0.12097142310E+04  0.00000000000E+00 0.  1.
<mgrwt>
<rscale>  0 0.90622621E+02</rscale>
<asrwt>0</asrwt>
<pdfrwt beam="2">  1        1 0.17013372E-03 0.90622621E+02</pdfrwt>
<pdfrwt beam="1">  1       -1 0.28562496E+00 0.90622621E+02</pdfrwt>
<totfact> 0.86909766E+03</totfact>
</mgrwt>
</event>
<event>
 5    1  0.3858870E+001  0.9230742E+02  0.7546771E-02  0.1297358E+00
          2   -1    0    0  501    0  0.00000000000E+00  0.00000000000E+00  0.21563742484E+01  0.21563742484E+01  0.00000000000E+00 0. -1.
         -2   -1    0    0    0  501 -0.00000000000E+00 -0.00000000000E+00 -0.98784559999E+03  0.98784559999E+03  0.00000000000E+00 0.  1.
         23    2    1    2    0    0  0.00000000000E+00  0.00000000000E+00 -0.98568922574E+03  0.99000197424E+03  0.92307417105E+02 0.  0.
          2    1    3    3  502    0 -0.66974596505E+01 -0.42943292887E+02 -0.32628400121E+03  0.32916596394E+03  0.00000000000E+00 0. -1.
         -2    1    3    3    0  502  0.66974596505E+01  0.42943292887E+02 -0.65940522453E+03  0.66083601030E+03  0.00000000000E+00 0.  1.
<mgrwt>
<rscale>  0 0.92307417E+02</rscale>
<asrwt>0</asrwt>
<pdfrwt beam="1">  1        2 0.33174835E-03 0.92307417E+02</pdfrwt>
<pdfrwt beam="2">  1       -2 0.15197695E+00 0.92307417E+02</pdfrwt>
<totfact> 0.18355214E+04</totfact>
</mgrwt>
</event>
<event>
 5    1  0.3858870E+001  0.9135101E+02  0.7546771E-02  0.1299613E+00
          2   -1    0    0  501    0  0.00000000000E+00  0.00000000000E+00  0.58371714308E+02  0.58371714308E+02  0.00000000000E+00 0. -1.
         -2   -1    0    0    0  501 -0.00000000000E+00 -0.00000000000E+00 -0.35740799819E+02  0.35740799819E+02  0.00000000000E+00 0.  1.
         23    2    1    2    0    0  0.00000000000E+00  0.00000000000E+00  0.22630914489E+02  0.94112514127E+02  0.91351009982E+02 0.  0.
          2    1    3    3  502    0  0.25618870962E+02 -0.32146807537E+02  0.31829912248E+02  0.51989297917E+02  0.00000000000E+00 0. -1.
         -2    1    3    3    0  502 -0.25618870962E+02  0.32146807537E+02 -0.91989977587E+01  0.42123216211E+02  0.00000000000E+00 0.  1.
<mgrwt>
<rscale>  0 0.91351010E+02</rscale>
<asrwt>0</asrwt>
<pdfrwt beam="1">  1        2 0.89802637E-02 0.91351010E+02</pdfrwt>
<pdfrwt beam="2">  1       -2 0.54985846E-02 0.91351010E+02</pdfrwt>
<totfact> 0.10472432E+05</totfact>
</mgrwt>
</event>
<event>
 5    1  0.3858870E+001  0.7453616E+02  0.7546771E-02  0.1345313E+00
         -3   -1    0    0    0  501 -0.00000000000E+00  0.00000000000E+00  0.10784820972E+02  0.10784820972E+02  0.00000000000E+00 0.  1.
          3   -1    0    0  501    0  0.00000000000E+00 -0.00000000000E+00 -0.12878375696E+03  0.12878375696E+03  0.00000000000E+00 0. -1.
         23    2    1    2    0    0  0.00000000000E+00  0.00000000000E+00 -0.11799893599E+03  0.13956857793E+03  0.74536159358E+02 0.  0.
          2    1    3    3  502    0 -0.65998366564E+01  0.20881940311E+02 -0.11546369660E+03  0.11752224686E+03  0.00000000000E+00 0. -1.
         -2    1    3    3    0  502  0.65998366564E+01 -0.20881940311E+02 -0.25352393925E+01  0.22046331074E+02  0.00000000000E+00 0.  1.
<mgrwt>
<rscale>  0 0.74536159E+02</rscale>
<asrwt>0</asrwt>
<pdfrwt beam="2">  1        3 0.19812886E-01 0.74536159E+02</pdfrwt>
<pdfrwt beam="1">  1       -3 0.16592032E-02 0.74536159E+02</pdfrwt>
<totfact> 0.54794743E+04</totfact>
</mgrwt>
</event>
<event>
 5    1  0.3858870E+001  0.8989024E+02  0.7546771E-02  0.1303118E+00
         -2   -1    0    0    0  501 -0.00000000000E+00  0.00000000000E+00  0.18839050487E+01  0.18839050487E+01  0.00000000000E+00 0.  1.
          2   -1    0    0  501    0  0.00000000000E+00 -0.00000000000E+00 -0.10722746336E+04  0.10722746336E+04  0.00000000000E+00 0. -1.
         23    2    1    2    0    0  0.00000000000E+00  0.00000000000E+00 -0.10703907285E+04  0.10741585386E+04  0.89890235194E+02 0.  0.
          2    1    3    3  502    0 -0.11642928557E+02 -0.17244692432E+02 -0.10112552908E+04  0.10114693275E+04  0.00000000000E+00 0. -1.
         -2    1    3    3    0  502  0.11642928557E+02  0.17244692432E+02 -0.59135437730E+02  0.62689211177E+02  0.00000000000E+00 0.  1.
<mgrwt>
<rscale>  0 0.89890235E+02</rscale>
<asrwt>0</asrwt>
<pdfrwt beam="2">  1        2 0.16496552E+00 0.89890235E+02</pdfrwt>
<pdfrwt beam="1">  1       -2 0.28983120E-03 0.89890235E+02</pdfrwt>
<totfact> 0.25985497E+05</totfact>
</mgrwt>
</event>
<event>
 5    1  0.3858870E+001  0.9899480E+02  0.7546771E-02  0.1282424E+00
         -4   -1    0    0    0  501 -0.00000000000E+00  0.00000000000E+00  0.29391543196E+02  0.29391543196E+02  0.00000000000E+00 0. -1.
          4   -1    0    0  501    0  0.00000000000E+00 -0.00000000000E+00 -0.83357062636E+02  0.83357062636E+02  0.00000000000E+00 0.  1.
         23    2    1    2    0    0  0.00000000000E+00  0.00000000000E+00 -0.53965519440E+02  0.11274860583E+03  0.98994802029E+02 0.  0.
          2    1    3    3  502    0  0.43107662235E+01 -0.33946761293E+02 -0.67715039014E+02  0.75870230106E+02  0.00000000000E+00 0.  1.
         -2    1    3    3    0  502 -0.43107662235E+01  0.33946761293E+02  0.13749519574E+02  0.36878375726E+02  0.00000000000E+00 0. -1.
<mgrwt>
<rscale>  0 0.98994802E+02</rscale>
<asrwt>0</asrwt>
<pdfrwt beam="2">  1        4 0.12824163E-01 0.98994802E+02</pdfrwt>
<pdfrwt beam="1">  1       -4 0.45217760E-02 0.98994802E+02</pdfrwt>
<totfact> 0.20533580E+04</totfact>
</mgrwt>
</event>
<event>
 5    1  0.3858870E+001  0.9074015E+02  0.7546771E-02  0.1301069E+00
         -2   -1    0    0    0  501 -0.00000000000E+00  0.00000000000E+00  0.87265890383E+01  0.87265890383E+01  0.00000000000E+00 0.  1.
          2   -1    0    0  501    0  0.00000000000E+00 -0.00000000000E+00 -0.23588181971E+03  0.23588181971E+03  0.00000000000E+00 0. -1.
         23    2    1    2    0    0  0.00000000000E+00  0.00000000000E+00 -0.22715523067E+03  0.24460840875E+03  0.90740149927E+02 0.  0.
          2    1    3    3  502    0 -0.41581367032E+02  0.95870374510E+01 -0.15512312711E+03  0.16088538136E+03  0.00000000000E+00 0. -1.
         -2    1    3    3    0  502  0.41581367032E+02 -0.95870374510E+01 -0.72032103560E+02  0.83723027385E+02  0.00000000000E+00 0.  1.
<mgrwt>
<rscale>  0 0.90740150E+02</rscale>
<asrwt>0</asrwt>
<pdfrwt beam="2">  1        2 0.36289508E-01 0.90740150E+02</pdfrwt>
<pdfrwt beam="1">  1       -2 0.13425523E-02 0.90740150E+02</pdfrwt>
<totfact> 0.16642246E+05</totfact>
</mgrwt>
</event>
<event>
 5    1  0.3858870E+001  0.9002113E+02  0.7546771E-02  0.1302801E+00
          1   -1    0    0  501    0  0.00000000000E+00  0.00000000000E+00  0.14960710935E+04  0.14960710935E+04  0.00000000000E+00 0. -1.
         -1   -1    0    0    0  501 -0.00000000000E+00 -0.00000000000E+00 -0.13541810620E+01  0.13541810620E+01  0.00000000000E+00 0.  1.
         23    2    1    2    0    0  0.00000000000E+00  0.00000000000E+00  0.14947169124E+04  0.14974252745E+04  0.90021134012E+02 0.  0.
          2    1    3    3  502    0  0.15369003403E+02  0.32842389277E+02  0.11909393603E+04  0.11914912457E+04  0.00000000000E+00 0. -1.
         -2    1    3    3    0  502 -0.15369003403E+02 -0.32842389277E+02  0.30377755212E+03  0.30593402879E+03  0.00000000000E+00 0.  1.
<mgrwt>
<rscale>  0 0.90021134E+02</rscale>
<asrwt>0</asrwt>
<pdfrwt beam="1">  1        1 0.23016346E+00 0.90021134E+02</pdfrwt>
<pdfrwt beam="2">  1       -1 0.20833675E-03 0.90021134E+02</pdfrwt>
<totfact> 0.11455120E+05</totfact>
</mgrwt>
</event>
<event>
 5    1  0.3858870E+001  0.9080280E+02  0.7546771E-02  0.1300919E+00
         -1   -1    0    0    0  501 -0.00000000000E+00  0.00000000000E+00  0.22292710658E+02  0.22292710658E+02  0.00000000000E+00 0.  1.
          1   -1    0    0  501    0  0.00000000000E+00 -0.00000000000E+00 -0.92464620468E+02  0.92464620468E+02  0.00000000000E+00 0. -1.
         23    2    1    2    0    0  0.00000000000E+00  0.00000000000E+00 -0.70171909811E+02  0.11475733113E+03  0.90802797978E+02 0.  0.
          2    1    3    3  502    0  0.40020710627E+02 -0.14611472504E+02 -0.54913436816E+02  0.69502790957E+02  0.00000000000E+00 0. -1.
         -2    1    3    3    0  502 -0.40020710627E+02  0.14611472504E+02 -0.15258472994E+02  0.45254540169E+02  0.00000000000E+00 0.  1.
<mgrwt>
<rscale>  0 0.90802798E+02</rscale>
<asrwt>0</asrwt>
<pdfrwt beam="2">  1        1 0.14225326E-01 0.90802798E+02</pdfrwt>
<pdfrwt beam="1">  1       -1 0.34296478E-02 0.90802798E+02</pdfrwt>
<totfact> 0.10427668E+05</totfact>
</mgrwt>
</event>
<event>
 5    1  0.3858870E+001  0.7958631E+02  0.7546771E-02  0.1330230E+00
         -2   -1    0    0    0  501 -0.00000000000E+00  0.00000000000E+00  0.17417701688E+02  0.17417701688E+02  0.00000000000E+00 0.  1.
          2   -1    0    0  501    0  0.00000000000E+00 -0.00000000000E+00 -0.90912980899E+02  0.90912980899E+02  0.00000000000E+00 0. -1.
         23    2    1    2    0    0  0.00000000000E+00  0.00000000000E+00 -0.73495279211E+02  0.10833068259E+03  0.79586309900E+02 0.  0.
          2    1    3    3  502    0 -0.19707098897E+02  0.23177496318E+02 -0.18333943591E+01  0.30478310606E+02  0.00000000000E+00 0.  1.
         -2    1    3    3    0  502  0.19707098897E+02 -0.23177496318E+02 -0.71661884852E+02  0.77852371981E+02  0.00000000000E+00 0. -1.
<mgrwt>
<rscale>  0 0.79586310E+02</rscale>
<asrwt>0</asrwt>
<pdfrwt beam="2">  1        2 0.13986612E-01 0.79586310E+02</pdfrwt>
<pdfrwt beam="1">  1       -2 0.26796465E-02 0.79586310E+02</pdfrwt>
<totfact> 0.17289265E+05</totfact>
</mgrwt>
</event>
<event>
 5    1  0.3858870E+001  0.9352857E+02  0.7546771E-02  0.1294525E+00
         -2   -1    0    0    0  501 -0.00000000000E+00  0.00000000000E+00  0.13883752709E+02  0.13883752709E+02  0.00000000000E+00 0.  1.
          2   -1    0    0  501    0  0.00000000000E+00 -0.00000000000E+00 -0.15751494319E+03  0.15751494319E+03  0.00000000000E+00 0. -1.
         23    2    1    2    0    0  0.00000000000E+00  0.00000000000E+00 -0.14363119049E+03  0.17139869590E+03  0.93528573585E+02 0.  0.
          2    1    3    3  502    0  0.24948484190E+02 -0.38404771073E+01 -0.14395792385E+03  0.14615423349E+03  0.00000000000E+00 0. -1.
         -2    1    3    3    0  502 -0.24948484190E+02  0.38404771073E+01  0.32673336582E+00  0.25244462412E+02  0.00000000000E+00 0.  1.
<mgrwt>
<rscale>  0 0.93528574E+02</rscale>
<asrwt>0</asrwt>
<pdfrwt beam="2">  1        2 0.24233070E-01 0.93528574E+02</pdfrwt>
<pdfrwt beam="1">  1       -2 0.21359618E-02 0.93528574E+02</pdfrwt>
<totfact> 0.13266403E+05</totfact>
</mgrwt>
</event>
<event>
 5    1  0.3858870E+001  0.9162836E+02  0.7546771E-02  0.1298956E+00
          1   -1    0    0  501    0  0.00000000000E+00  0.00000000000E+00  0.99879420392E+03  0.99879420392E+03  0.00000000000E+00 0. -1.
         -1   -1    0    0    0  501 -0.00000000000E+00 -0.00000000000E+00 -0.21014729333E+01  0.21014729333E+01  0.00000000000E+00 0.  1.
         23    2    1    2    0    0  0.00000000000E+00  0.00000000000E+00  0.99669273099E+03  0.10008956769E+04  0.91628357739E+02 0.  0.
          2    1    3    3  502    0 -0.34342040017E+02 -0.30004997447E+02  0.54628938627E+03  0.54818953760E+03  0.00000000000E+00 0. -1.
         -2    1    3    3    0  502  0.34342040017E+02  0.30004997447E+02  0.45040334472E+03  0.45270613925E+03  0.00000000000E+00 0.  1.
<mgrwt>
<rscale>  0 0.91628358E+02</rscale>
<asrwt>0</asrwt>
<pdfrwt beam="1">  1        1 0.15366027E+00 0.91628358E+02</pdfrwt>
<pdfrwt beam="2">  1       -1 0.32330433E-03 0.91628358E+02</pdfrwt>
<totfact> 0.13429333E+05</totfact>
</mgrwt>
</event>
<event>
 5    1  0.3858870E+001  0.8571139E+02  0.7546771E-02  0.1313583E+00
          4   -1    0    0  501    0  0.00000000000E+00  0.00000000000E+00  0.66289546115E+03  0.66289546115E+03  0.00000000000E+00 0. -1.
         -4   -1    0    0    0  501 -0.00000000000E+00 -0.00000000000E+00 -0.27705887279E+01  0.27705887279E+01  0.00000000000E+00 0.  1.
         23    2    1    2    0    0  0.00000000000E+00  0.00000000000E+00  0.66012487243E+03  0.66566604988E+03  0.85711392298E+02 0.  0.
          2    1    3    3  502    0 -0.38314375755E+02  0.17620676755E+02  0.38927610297E+03  0.39155378172E+03  0.00000000000E+00 0. -1.
         -2    1    3    3    0  502  0.38314375755E+02 -0.17620676755E+02  0.27084876946E+03  0.27411226816E+03  0.00000000000E+00 0.  1.
<mgrwt>
<rscale>  0 0.85711392E+02</rscale>
<asrwt>0</asrwt>
<pdfrwt beam="1">  1        4 0.10198379E+00 0.85711392E+02</pdfrwt>
<pdfrwt beam="2">  1       -4 0.42624495E-03 0.85711392E+02</pdfrwt>
<totfact> 0.12322038E+04</totfact>
</mgrwt>
</event>
<event>
 5    1  0.3858870E+001  0.9221945E+02  0.7546771E-02  0.1297564E+00
          1   -1    0    0  501    0  0.00000000000E+00  0.00000000000E+00  0.25208143179E+03  0.25208143179E+03  0.00000000000E+00 0. -1.
         -1   -1    0    0    0  501 -0.00000000000E+00 -0.00000000000E+00 -0.84342068217E+01  0.84342068217E+01  0.00000000000E+00 0.  1.
         23    2    1    2    0    0  0.00000000000E+00  0.00000000000E+00  0.24364722497E+03  0.26051563861E+03  0.92219454165E+02 0.  0.
          2    1    3    3  502    0 -0.26824452891E+02  0.53439845826E+01  0.22668979642E+03  0.22833390735E+03  0.00000000000E+00 0. -1.
         -2    1    3    3    0  502  0.26824452891E+02 -0.53439845826E+01  0.16957428549E+02  0.32181731263E+02  0.00000000000E+00 0.  1.
<mgrwt>
<rscale>  0 0.92219454E+02</rscale>
<asrwt>0</asrwt>
<pdfrwt beam="1">  1        1 0.38781753E-01 0.92219454E+02</pdfrwt>
<pdfrwt beam="2">  1       -1 0.12975705E-02 0.92219454E+02</pdfrwt>
<totfact> 0.12015948E+05</totfact>
</mgrwt>
</event>
<event>
 5    1  0.3858870E+001  0.8997314E+02  0.7546771E-02  0.1302917E+00
          2   -1    0    0  501    0  0.00000000000E+00  0.00000000000E+00  0.21319613602E+03  0.21319613602E+03  0.00000000000E+00 0. -1.
         -2   -1    0    0    0  501 -0.00000000000E+00 -0.00000000000E+00 -0.94926278207E+01  0.94926278207E+01  0.00000000000E+00 0.  1.
         23    2    1    2    0    0  0.00000000000E+00  0.00000000000E+00  0.20370350820E+03  0.22268876384E+03  0.89973142037E+02 0.  0.
          2    1    3    3  502    0 -0.10145166978E+02  0.23523811755E+02  0.19337863832E+03  0.19506817242E+03  0.00000000000E+00 0. -1.
         -2    1    3    3    0  502  0.10145166978E+02 -0.23523811755E+02  0.10324869880E+02  0.27620591422E+02  0.00000000000E+00 0.  1.
<mgrwt>
<rscale>  0 0.89973142E+02</rscale>
<asrwt>0</asrwt>
<pdfrwt beam="1">  1        2 0.32799402E-01 0.89973142E+02</pdfrwt>
<pdfrwt beam="2">  1       -2 0.14604044E-02 0.89973142E+02</pdfrwt>
<totfact> 0.16406172E+05</totfact>
</mgrwt>
</event>
<event>
 5    1  0.3858870E+001  0.9030593E+02  0.7546771E-02  0.1302113E+00
         -1   -1    0    0    0  501 -0.00000000000E+00  0.00000000000E+00  0.53754565835E+02  0.53754565835E+02  0.00000000000E+00 0.  1.
          1   -1    0    0  501    0  0.00000000000E+00 -0.00000000000E+00 -0.37927761219E+02  0.37927761219E+02  0.00000000000E+00 0. -1.
         23    2    1    2    0    0  0.00000000000E+00  0.00000000000E+00  0.15826804616E+02  0.91682327054E+02  0.90305931974E+02 0.  0.
          2    1    3    3  502    0  0.28161560337E+02  0.46980750657E+01  0.43427195356E+02  0.51971787409E+02  0.00000000000E+00 0.  1.
         -2    1    3    3    0  502 -0.28161560337E+02 -0.46980750657E+01 -0.27600390740E+02  0.39710539646E+02  0.00000000000E+00 0. -1.
<mgrwt>
<rscale>  0 0.90305932E+02</rscale>
<asrwt>0</asrwt>
<pdfrwt beam="2">  1        1 0.58350402E-02 0.90305932E+02</pdfrwt>
<pdfrwt beam="1">  1       -1 0.82699332E-02 0.90305932E+02</pdfrwt>
<totfact> 0.92405581E+04</totfact>
</mgrwt>
</event>
<event>
 5    1  0.3858870E+001  0.9247273E+02  0.7546771E-02  0.1296972E+00
         -2   -1    0    0    0  501 -0.00000000000E+00  0.00000000000E+00  0.11537567664E+01  0.11537567664E+01  0.00000000000E+00 0.  1.
          2   -1    0    0  501    0  0.00000000000E+00 -0.00000000000E+00 -0.18529047631E+04  0.18529047631E+04  0.00000000000E+00 0. -1.
         23    2    1    2    0    0  0.00000000000E+00  0.00000000000E+00 -0.18517510064E+04  0.18540585199E+04  0.92472729124E+02 0.  0.
          2    1    3    3  502    0  0.11208643448E+02 -0.27073527747E+02 -0.16429719964E+04  0.16432332733E+04  0.00000000000E+00 0. -1.
         -2    1    3    3    0  502 -0.11208643448E+02  0.27073527747E+02 -0.20877901000E+03  0.21082524661E+03  0.00000000000E+00 0.  1.
<mgrwt>
<rscale>  0 0.92472729E+02</rscale>
<asrwt>0</asrwt>
<pdfrwt beam="2">  1        2 0.28506369E+00 0.92472729E+02</pdfrwt>
<pdfrwt beam="1">  1       -2 0.17750016E-03 0.92472729E+02</pdfrwt>
<totfact> 0.20220075E+05</totfact>
</mgrwt>
</event>
<event>
 5    1  0.3858870E+001  0.9149985E+02  0.7546771E-02  0.1299260E+00
          2   -1    0    0  501    0  0.00000000000E+00  0.00000000000E+00  0.65652860284E+03  0.65652860284E+03  0.00000000000E+00 0. -1.
         -2   -1    0    0    0  501 -0.00000000000E+00 -0.00000000000E+00 -0.31880644043E+01  0.31880644043E+01  0.00000000000E+00 0.  1.
         23    2    1    2    0    0  0.00000000000E+00  0.00000000000E+00  0.65334053844E+03  0.65971666724E+03  0.91499846319E+02 0.  0.
          2    1    3    3  502    0  0.74541456999E+01 -0.36489092314E+02  0.51825060122E+03  0.51958705124E+03  0.00000000000E+00 0. -1.
         -2    1    3    3    0  502 -0.74541456999E+01  0.36489092314E+02  0.13508993721E+03  0.14012961601E+03  0.00000000000E+00 0.  1.
<mgrwt>
<rscale>  0 0.91499846E+02</rscale>
<asrwt>0</asrwt>
<pdfrwt beam="1">  1        2 0.10100429E+00 0.91499846E+02</pdfrwt>
<pdfrwt beam="2">  1       -2 0.49047197E-03 0.91499846E+02</pdfrwt>
<totfact> 0.23128477E+05</totfact>
</mgrwt>
</event>
<event>
 5    1  0.3858870E+001  0.8830164E+02  0.7546771E-02  0.1307017E+00
         -1   -1    0    0    0  501 -0.00000000000E+00  0.00000000000E+00  0.26677780711E+02  0.26677780711E+02  0.00000000000E+00 0.  1.
          1   -1    0    0  501    0  0.00000000000E+00 -0.00000000000E+00 -0.73068102522E+02  0.73068102522E+02  0.00000000000E+00 0. -1.
         23    2    1    2    0    0  0.00000000000E+00  0.00000000000E+00 -0.46390321810E+02  0.99745883233E+02  0.88301637948E+02 0.  0.
          2    1    3    3  502    0  0.73039722356E+01 -0.19445344371E+02 -0.67203717745E+02  0.70340664675E+02  0.00000000000E+00 0. -1.
         -2    1    3    3    0  502 -0.73039722356E+01  0.19445344371E+02  0.20813395935E+02  0.29405218558E+02  0.00000000000E+00 0.  1.
<mgrwt>
<rscale>  0 0.88301638E+02</rscale>
<asrwt>0</asrwt>
<pdfrwt beam="2">  1        1 0.11241246E-01 0.88301638E+02</pdfrwt>
<pdfrwt beam="1">  1       -1 0.41042740E-02 0.88301638E+02</pdfrwt>
<totfact> 0.10845643E+05</totfact>
</mgrwt>
</event>
<event>
 5    1  0.3858870E+001  0.9005380E+02  0.7546771E-02  0.1302721E+00
         -1   -1    0    0    0  501 -0.00000000000E+00  0.00000000000E+00  0.50116463477E+02  0.50116463477E+02  0.00000000000E+00 0.  1.
          1   -1    0    0  501    0  0.00000000000E+00 -0.00000000000E+00 -0.40454201504E+02  0.40454201504E+02  0.00000000000E+00 0. -1.
         23    2    1    2    0    0  0.00000000000E+00  0.00000000000E+00  0.96622619721E+01  0.90570664981E+02  0.90053795304E+02 0.  0.
          2    1    3    3  502    0  0.51112425484E+01 -0.42749485321E+02 -0.84270274185E+01  0.43870925300E+02  0.00000000000E+00 0. -1.
         -2    1    3    3    0  502 -0.51112425484E+01  0.42749485321E+02  0.18089289391E+02  0.46699739681E+02  0.00000000000E+00 0.  1.
<mgrwt>
<rscale>  0 0.90053795E+02</rscale>
<asrwt>0</asrwt>
<pdfrwt beam="2">  1        1 0.62237233E-02 0.90053795E+02</pdfrwt>
<pdfrwt beam="1">  1       -1 0.77102252E-02 0.90053795E+02</pdfrwt>
<totfact> 0.94047325E+04</totfact>
</mgrwt>
</event>
<event>
 5    1  0.3858870E+001  0.9760460E+02  0.7546771E-02  0.1285415E+00
          2   -1    0    0  501    0  0.00000000000E+00  0.00000000000E+00  0.15112844304E+04  0.15112844304E+04  0.00000000000E+00 0. -1.
         -2   -1    0    0    0  501 -0.00000000000E+00 -0.00000000000E+00 -0.15759206703E+01  0.15759206703E+01  0.00000000000E+00 0.  1.
         23    2    1    2    0    0  0.00000000000E+00  0.00000000000E+00  0.15097085098E+04  0.15128603511E+04  0.97604597690E+02 0.  0.
          2    1    3    3  502    0 -0.94139124841E+01 -0.46411361295E+02  0.93761375602E+03  0.93880892182E+03  0.00000000000E+00 0. -1.
         -2    1    3    3    0  502  0.94139124841E+01  0.46411361295E+02  0.57209475374E+03  0.57405142928E+03  0.00000000000E+00 0.  1.
<mgrwt>
<rscale>  0 0.97604598E+02</rscale>
<asrwt>0</asrwt>
<pdfrwt beam="1">  1        2 0.23250414E+00 0.97604598E+02</pdfrwt>
<pdfrwt beam="2">  1       -2 0.24245054E-03 0.97604598E+02</pdfrwt>
<totfact> 0.19651402E+05</totfact>
</mgrwt>
</event>
<event>
 5    1  0.3858870E+001  0.8724709E+02  0.7546771E-02  0.1309659E+00
         -2   -1    0    0    0  501 -0.00000000000E+00  0.00000000000E+00  0.78009545002E+03  0.78009545002E+03  0.00000000000E+00 0. -1.
          2   -1    0    0  501    0  0.00000000000E+00 -0.00000000000E+00 -0.24394626465E+01  0.24394626465E+01  0.00000000000E+00 0.  1.
         23    2    1    2    0    0  0.00000000000E+00  0.00000000000E+00  0.77765598737E+03  0.78253491267E+03  0.87247090748E+02 0.  0.
          2    1    3    3  502    0  0.24198209077E+01  0.41748629406E+02  0.27744748254E+03  0.28058137707E+03  0.00000000000E+00 0. -1.
         -2    1    3    3    0  502 -0.24198209077E+01 -0.41748629406E+02  0.50020850484E+03  0.50195353560E+03  0.00000000000E+00 0.  1.
<mgrwt>
<rscale>  0 0.87247091E+02</rscale>
<asrwt>0</asrwt>
<pdfrwt beam="2">  1        2 0.37530257E-03 0.87247091E+02</pdfrwt>
<pdfrwt beam="1">  1       -2 0.12001449E+00 0.87247091E+02</pdfrwt>
<totfact> 0.27423383E+04</totfact>
</mgrwt>
</event>
<event>
 5    1  0.3858870E+001  0.9262256E+02  0.7546771E-02  0.1296622E+00
          2   -1    0    0  501    0  0.00000000000E+00  0.00000000000E+00  0.30471461159E+03  0.30471461159E+03  0.00000000000E+00 0. -1.
         -2   -1    0    0    0  501 -0.00000000000E+00 -0.00000000000E+00 -0.70385028333E+01  0.70385028333E+01  0.00000000000E+00 0.  1.
         23    2    1    2    0    0  0.00000000000E+00  0.00000000000E+00  0.29767610876E+03  0.31175311442E+03  0.92622560039E+02 0.  0.
          2    1    3    3  502    0 -0.17659725170E+01  0.35380274117E+02  0.24924250401E+03  0.25174731034E+03  0.00000000000E+00 0. -1.
         -2    1    3    3    0  502  0.17659725170E+01 -0.35380274117E+02  0.48433604745E+02  0.60005804087E+02  0.00000000000E+00 0.  1.
<mgrwt>
<rscale>  0 0.92622560E+02</rscale>
<asrwt>0</asrwt>
<pdfrwt beam="1">  1        2 0.46879161E-01 0.92622560E+02</pdfrwt>
<pdfrwt beam="2">  1       -2 0.10828468E-02 0.92622560E+02</pdfrwt>
<totfact> 0.17326894E+05</totfact>
</mgrwt>
</event>
<event>
 5    1  0.3858870E+001  0.8876677E+02  0.7546771E-02  0.1305866E+00
          2   -1    0    0  501    0  0.00000000000E+00  0.00000000000E+00  0.29163845474E+02  0.29163845474E+02  0.00000000000E+00 0. -1.
         -2   -1    0    0    0  501 -0.00000000000E+00 -0.00000000000E+00 -0.67545445983E+02  0.67545445983E+02  0.00000000000E+00 0.  1.
         23    2    1    2    0    0  0.00000000000E+00  0.00000000000E+00 -0.38381600509E+02  0.96709291456E+02  0.88766771916E+02 0.  0.
          2    1    3    3  502    0  0.89811916212E+01  0.26776721913E+02  0.18110523813E+02  0.33550643990E+02  0.00000000000E+00 0. -1.
         -2    1    3    3    0  502 -0.89811916212E+01 -0.26776721913E+02 -0.56492124322E+02  0.63158647466E+02  0.00000000000E+00 0.  1.
<mgrwt>
<rscale>  0 0.88766772E+02</rscale>
<asrwt>0</asrwt>
<pdfrwt beam="1">  1        2 0.44867455E-02 0.88766772E+02</pdfrwt>
<pdfrwt beam="2">  1       -2 0.10391607E-01 0.88766772E+02</pdfrwt>
<totfact> 0.95052435E+04</totfact>
</mgrwt>
</event>
<event>
 5    1  0.3858870E+001  0.9280418E+02  0.7546771E-02  0.1296200E+00
         -1   -1    0    0    0  501 -0.00000000000E+00  0.00000000000E+00  0.21233412443E+01  0.21233412443E+01  0.00000000000E+00 0.  1.
          1   -1    0    0  501    0  0.00000000000E+00 -0.00000000000E+00 -0.10140404562E+04  0.10140404562E+04  0.00000000000E+00 0. -1.
         23    2    1    2    0    0  0.00000000000E+00  0.00000000000E+00 -0.10119171149E+04  0.10161637974E+04  0.92804179302E+02 0.  0.
          2    1    3    3  502    0  0.39952249392E+02  0.22786199007E+02 -0.43867376234E+03  0.44107829561E+03  0.00000000000E+00 0. -1.
         -2    1    3    3    0  502 -0.39952249392E+02 -0.22786199007E+02 -0.57324335260E+03  0.57508550182E+03  0.00000000000E+00 0.  1.
<mgrwt>
<rscale>  0 0.92804179E+02</rscale>
<asrwt>0</asrwt>
<pdfrwt beam="2">  1        1 0.15600651E+00 0.92804179E+02</pdfrwt>
<pdfrwt beam="1">  1       -1 0.32666728E-03 0.92804179E+02</pdfrwt>
<totfact> 0.12930367E+05</totfact>
</mgrwt>
</event>
<event>
 5    1  0.3858870E+001  0.9181887E+02  0.7546771E-02  0.1298506E+00
          3   -1    0    0  501    0  0.00000000000E+00  0.00000000000E+00  0.58645548843E+03  0.58645548843E+03  0.00000000000E+00 0. -1.
         -3   -1    0    0    0  501 -0.00000000000E+00 -0.00000000000E+00 -0.35939234651E+01  0.35939234651E+01  0.00000000000E+00 0.  1.
         23    2    1    2    0    0  0.00000000000E+00  0.00000000000E+00  0.58286156497E+03  0.59004941190E+03  0.91818868238E+02 0.  0.
          2    1    3    3  502    0 -0.16740083608E+02 -0.32775665206E+02  0.46779563444E+03  0.46924112163E+03  0.00000000000E+00 0. -1.
         -2    1    3    3    0  502  0.16740083608E+02  0.32775665206E+02  0.11506593053E+03  0.12080829027E+03  0.00000000000E+00 0.  1.
<mgrwt>
<rscale>  0 0.91818868E+02</rscale>
<asrwt>0</asrwt>
<pdfrwt beam="1">  1        3 0.90223845E-01 0.91818868E+02</pdfrwt>
<pdfrwt beam="2">  1       -3 0.55291177E-03 0.91818868E+02</pdfrwt>
<totfact> 0.15630121E+04</totfact>
</mgrwt>
</event>
<event>
 5    1  0.3858870E+001  0.9294837E+02  0.7546771E-02  0.1295865E+00
          2   -1    0    0  501    0  0.00000000000E+00  0.00000000000E+00  0.20500425475E+02  0.20500425475E+02  0.00000000000E+00 0.  1.
         -2   -1    0    0    0  501 -0.00000000000E+00 -0.00000000000E+00 -0.10535635295E+03  0.10535635295E+03  0.00000000000E+00 0. -1.
         23    2    1    2    0    0  0.00000000000E+00  0.00000000000E+00 -0.84855927479E+02  0.12585677843E+03  0.92948374102E+02 0.  0.
          2    1    3    3  502    0 -0.32210032537E+02  0.17420580740E+02 -0.81175747162E+02  0.89053156915E+02  0.00000000000E+00 0. -1.
         -2    1    3    3    0  502  0.32210032537E+02 -0.17420580740E+02 -0.36801803171E+01  0.36803621514E+02  0.00000000000E+00 0.  1.
<mgrwt>
<rscale>  0 0.92948374E+02</rscale>
<asrwt>0</asrwt>
<pdfrwt beam="1">  1        2 0.31539117E-02 0.92948374E+02</pdfrwt>
<pdfrwt beam="2">  1       -2 0.16208669E-01 0.92948374E+02</pdfrwt>
<totfact> 0.74874932E+04</totfact>
</mgrwt>
</event>
<event>
 5    1  0.3858870E+001  0.8971235E+02  0.7546771E-02  0.1303550E+00
         -2   -1    0    0    0  501 -0.00000000000E+00  0.00000000000E+00  0.12880946354E+03  0.12880946354E+03  0.00000000000E+00 0.  1.
          2   -1    0    0  501    0  0.00000000000E+00 -0.00000000000E+00 -0.15620563158E+02  0.15620563158E+02  0.00000000000E+00 0. -1.
         23    2    1    2    0    0  0.00000000000E+00  0.00000000000E+00  0.11318890039E+03  0.14443002670E+03  0.89712348328E+02 0.  0.
          2    1    3    3  502    0  0.36422384582E+02 -0.26179679970E+02  0.57129900922E+02  0.72634642708E+02  0.00000000000E+00 0. -1.
         -2    1    3    3    0  502 -0.36422384582E+02  0.26179679970E+02  0.56058999463E+02  0.71795383994E+02  0.00000000000E+00 0.  1.
<mgrwt>
<rscale>  0 0.89712348E+02</rscale>
<asrwt>0</asrwt>
<pdfrwt beam="2">  1        2 0.24031636E-02 0.89712348E+02</pdfrwt>
<pdfrwt beam="1">  1       -2 0.19816840E-01 0.89712348E+02</pdfrwt>
<totfact> 0.76737957E+04</totfact>
</mgrwt>
</event>
<event>
 5    1  0.3858870E+001  0.8996334E+02  0.7546771E-02  0.1302940E+00
         -3   -1    0    0    0  501 -0.00000000000E+00  0.00000000000E+00  0.16726504273E+03  0.16726504273E+03  0.00000000000E+00 0.  1.
          3   -1    0    0  501    0  0.00000000000E+00 -0.00000000000E+00 -0.12096673528E+02  0.12096673528E+02  0.00000000000E+00 0. -1.
         23    2    1    2    0    0  0.00000000000E+00  0.00000000000E+00  0.15516836920E+03  0.17936171625E+03  0.89963339521E+02 0.  0.
          2    1    3    3  502    0 -0.31516571799E+02 -0.40157419222E+01  0.14099612380E+02  0.34759452678E+02  0.00000000000E+00 0. -1.
         -2    1    3    3    0  502  0.31516571799E+02  0.40157419222E+01  0.14106875682E+03  0.14460226358E+03  0.00000000000E+00 0.  1.
<mgrwt>
<rscale>  0 0.89963340E+02</rscale>
<asrwt>0</asrwt>
<pdfrwt beam="2">  1        3 0.18610268E-02 0.89963340E+02</pdfrwt>
<pdfrwt beam="1">  1       -3 0.25733082E-01 0.89963340E+02</pdfrwt>
<totfact> 0.30690038E+04</totfact>
</mgrwt>
</event>
<event>
 5    1  0.3858870E+001  0.9285291E+02  0.7546771E-02  0.1296086E+00
          1   -1    0    0  501    0  0.00000000000E+00  0.00000000000E+00  0.24410504936E+01  0.24410504936E+01  0.00000000000E+00 0. -1.
         -1   -1    0    0    0  501 -0.00000000000E+00 -0.00000000000E+00 -0.88298698586E+03  0.88298698586E+03  0.00000000000E+00 0.  1.
         23    2    1    2    0    0  0.00000000000E+00  0.00000000000E+00 -0.88054593537E+03  0.88542803636E+03  0.92852912020E+02 0.  0.
          2    1    3    3  502    0  0.28105260086E+02 -0.36263882885E+02 -0.50799803749E+03  0.51006566337E+03  0.00000000000E+00 0. -1.
         -2    1    3    3    0  502 -0.28105260086E+02  0.36263882885E+02 -0.37254789788E+03  0.37536237299E+03  0.00000000000E+00 0.  1.
<mgrwt>
<rscale>  0 0.92852912E+02</rscale>
<asrwt>0</asrwt>
<pdfrwt beam="1">  1        1 0.37554631E-03 0.92852912E+02</pdfrwt>
<pdfrwt beam="2">  1       -1 0.13584412E+00 0.92852912E+02</pdfrwt>
<totfact> 0.28159761E+04</totfact>
</mgrwt>
</event>
<event>
 5    1  0.3858870E+001  0.9301148E+02  0.7546771E-02  0.1295719E+00
          2   -1    0    0  501    0  0.00000000000E+00  0.00000000000E+00  0.19115440678E+04  0.19115440678E+04  0.00000000000E+00 0. -1.
         -2   -1    0    0    0  501 -0.00000000000E+00 -0.00000000000E+00 -0.11314328410E+01  0.11314328410E+01  0.00000000000E+00 0.  1.
         23    2    1    2    0    0  0.00000000000E+00  0.00000000000E+00  0.19104126350E+04  0.19126755007E+04  0.93011477473E+02 0.  0.
          2    1    3    3  502    0  0.43249490375E+02 -0.10868843440E+02  0.12265664180E+04  0.12273768076E+04  0.00000000000E+00 0. -1.
         -2    1    3    3    0  502 -0.43249490375E+02  0.10868843440E+02  0.68384621703E+03  0.68529869307E+03  0.00000000000E+00 0.  1.
<mgrwt>
<rscale>  0 0.93011477E+02</rscale>
<asrwt>0</asrwt>
<pdfrwt beam="1">  1        2 0.29408112E+00 0.93011477E+02</pdfrwt>
<pdfrwt beam="2">  1       -2 0.17406812E-03 0.93011477E+02</pdfrwt>
<totfact> 0.19428018E+05</totfact>
</mgrwt>
</event>
<event>
 5    1  0.3858870E+001  0.9236856E+02  0.7546771E-02  0.1297215E+00
          2   -1    0    0  501    0  0.00000000000E+00  0.00000000000E+00  0.85528963010E+03  0.85528963010E+03  0.00000000000E+00 0. -1.
         -2   -1    0    0    0  501 -0.00000000000E+00 -0.00000000000E+00 -0.24938774571E+01  0.24938774571E+01  0.00000000000E+00 0.  1.
         23    2    1    2    0    0  0.00000000000E+00  0.00000000000E+00  0.85279575264E+03  0.85778350755E+03  0.92368555857E+02 0.  0.
          2    1    3    3  502    0 -0.13539783057E+02 -0.35317052294E+02  0.67251157040E+03  0.67357437023E+03  0.00000000000E+00 0. -1.
         -2    1    3    3    0  502  0.13539783057E+02  0.35317052294E+02  0.18028418224E+03  0.18420913733E+03  0.00000000000E+00 0.  1.
<mgrwt>
<rscale>  0 0.92368556E+02</rscale>
<asrwt>0</asrwt>
<pdfrwt beam="1">  1        2 0.13158279E+00 0.92368556E+02</pdfrwt>
<pdfrwt beam="2">  1       -2 0.38367414E-03 0.92368556E+02</pdfrwt>
<totfact> 0.23804982E+05</totfact>
</mgrwt>
</event>
<event>
 5    1  0.3858870E+001  0.9115394E+02  0.7546771E-02  0.1300081E+00
          2   -1    0    0  501    0  0.00000000000E+00  0.00000000000E+00  0.11540148624E+04  0.11540148624E+04  0.00000000000E+00 0. -1.
         -2   -1    0    0    0  501 -0.00000000000E+00 -0.00000000000E+00 -0.18000289017E+01  0.18000289017E+01  0.00000000000E+00 0.  1.
         23    2    1    2    0    0  0.00000000000E+00  0.00000000000E+00  0.11522148335E+04  0.11558148914E+04  0.91153938047E+02 0.  0.
          2    1    3    3  502    0  0.17417461348E+02  0.32769809709E+02  0.91159133642E+03  0.91234642161E+03  0.00000000000E+00 0. -1.
         -2    1    3    3    0  502 -0.17417461348E+02 -0.32769809709E+02  0.24062349713E+03  0.24346846974E+03  0.00000000000E+00 0.  1.
<mgrwt>
<rscale>  0 0.91153938E+02</rscale>
<asrwt>0</asrwt>
<pdfrwt beam="1">  1        2 0.17754016E+00 0.91153938E+02</pdfrwt>
<pdfrwt beam="2">  1       -2 0.27692845E-03 0.91153938E+02</pdfrwt>
<totfact> 0.24973758E+05</totfact>
</mgrwt>
</event>
<event>
 5    1  0.3858870E+001  0.8662792E+02  0.7546771E-02  0.1311229E+00
         -1   -1    0    0    0  501 -0.00000000000E+00  0.00000000000E+00  0.12593872589E+01  0.12593872589E+01  0.00000000000E+00 0.  1.
          1   -1    0    0  501    0  0.00000000000E+00 -0.00000000000E+00 -0.14896918881E+04  0.14896918881E+04  0.00000000000E+00 0. -1.
         23    2    1    2    0    0  0.00000000000E+00  0.00000000000E+00 -0.14884325009E+04  0.14909512754E+04  0.86627916598E+02 0.  0.
          2    1    3    3  502    0  0.42746342998E+02  0.55288827594E+01 -0.67062930168E+03  0.67201300483E+03  0.00000000000E+00 0. -1.
         -2    1    3    3    0  502 -0.42746342998E+02 -0.55288827594E+01 -0.81780319918E+03  0.81893827055E+03  0.00000000000E+00 0.  1.
<mgrwt>
<rscale>  0 0.86627917E+02</rscale>
<asrwt>0</asrwt>
<pdfrwt beam="2">  1        1 0.22918480E+00 0.86627917E+02</pdfrwt>
<pdfrwt beam="1">  1       -1 0.19375067E-03 0.86627917E+02</pdfrwt>
<totfact> 0.12722312E+05</totfact>
</mgrwt>
</event>
<event>
 5    1  0.3858870E+001  0.8026576E+02  0.7546771E-02  0.1328299E+00
         -4   -1    0    0    0  501 -0.00000000000E+00  0.00000000000E+00  0.91608464936E+02  0.91608464936E+02  0.00000000000E+00 0. -1.
          4   -1    0    0  501    0  0.00000000000E+00 -0.00000000000E+00 -0.17581869299E+02  0.17581869299E+02  0.00000000000E+00 0.  1.
         23    2    1    2    0    0  0.00000000000E+00  0.00000000000E+00  0.74026595637E+02  0.10919033423E+03  0.80265760002E+02 0.  0.
          2    1    3    3  502    0  0.26436104183E+02  0.20936877885E+02  0.74140511210E+01  0.34528084424E+02  0.00000000000E+00 0. -1.
         -2    1    3    3    0  502 -0.26436104183E+02 -0.20936877885E+02  0.66612544516E+02  0.74662249811E+02  0.00000000000E+00 0.  1.
<mgrwt>
<rscale>  0 0.80265760E+02</rscale>
<asrwt>0</asrwt>
<pdfrwt beam="2">  1        4 0.27049030E-02 0.80265760E+02</pdfrwt>
<pdfrwt beam="1">  1       -4 0.14093610E-01 0.80265760E+02</pdfrwt>
<totfact> 0.36440158E+04</totfact>
</mgrwt>
</event>
<event>
 5    1  0.3858870E+001  0.8855574E+02  0.7546771E-02  0.1306387E+00
         -2   -1    0    0    0  501 -0.00000000000E+00  0.00000000000E+00  0.89399228668E+00  0.89399228668E+00  0.00000000000E+00 0.  1.
          2   -1    0    0  501    0  0.00000000000E+00 -0.00000000000E+00 -0.21930050744E+04  0.21930050744E+04  0.00000000000E+00 0. -1.
         23    2    1    2    0    0  0.00000000000E+00  0.00000000000E+00 -0.21921110821E+04  0.21938990666E+04  0.88555736598E+02 0.  0.
          2    1    3    3  502    0  0.27199621052E+02 -0.31357595077E+02 -0.14777807040E+04  0.14783635978E+04  0.00000000000E+00 0. -1.
         -2    1    3    3    0  502 -0.27199621052E+02  0.31357595077E+02 -0.71433037810E+03  0.71553546888E+03  0.00000000000E+00 0.  1.
<mgrwt>
<rscale>  0 0.88555737E+02</rscale>
<asrwt>0</asrwt>
<pdfrwt beam="2">  1        2 0.33737783E+00 0.88555737E+02</pdfrwt>
<pdfrwt beam="1">  1       -2 0.13754036E-03 0.88555737E+02</pdfrwt>
<totfact> 0.19289190E+05</totfact>
</mgrwt>
</event>
<event>
 5    1  0.3858870E+001  0.8887573E+02  0.7546771E-02  0.1305597E+00
          2   -1    0    0  501    0  0.00000000000E+00  0.00000000000E+00  0.21084223463E+03  0.21084223463E+03  0.00000000000E+00 0. -1.
         -2   -1    0    0    0  501 -0.00000000000E+00 -0.00000000000E+00 -0.93658836994E+01  0.93658836994E+01  0.00000000000E+00 0.  1.
         23    2    1    2    0    0  0.00000000000E+00  0.00000000000E+00  0.20147635093E+03  0.22020811833E+03  0.88875730061E+02 0.  0.
          2    1    3    3  502    0  0.30509074743E+02 -0.16044852016E+02  0.31252578121E+02  0.46529179631E+02  0.00000000000E+00 0.  1.
         -2    1    3    3    0  502 -0.30509074743E+02  0.16044852016E+02  0.17022377281E+03  0.17367893870E+03  0.00000000000E+00 0. -1.
<mgrwt>
<rscale>  0 0.88875730E+02</rscale>
<asrwt>0</asrwt>
<pdfrwt beam="1">  1        2 0.32437263E-01 0.88875730E+02</pdfrwt>
<pdfrwt beam="2">  1       -2 0.14409053E-02 0.88875730E+02</pdfrwt>
<totfact> 0.16886562E+05</totfact>
</mgrwt>
</event>
<event>
 5    1  0.3858870E+001  0.8964331E+02  0.7546771E-02  0.1303718E+00
          2   -1    0    0  501    0  0.00000000000E+00  0.00000000000E+00  0.66790577610E+03  0.66790577610E+03  0.00000000000E+00 0.  1.
         -2   -1    0    0    0  501 -0.00000000000E+00 -0.00000000000E+00 -0.30078807392E+01  0.30078807392E+01  0.00000000000E+00 0. -1.
         23    2    1    2    0    0  0.00000000000E+00  0.00000000000E+00  0.66489789536E+03  0.67091365684E+03  0.89643313627E+02 0.  0.
          2    1    3    3  502    0  0.37431341573E+02  0.24597138284E+02  0.34509795392E+03  0.34799241708E+03  0.00000000000E+00 0. -1.
         -2    1    3    3    0  502 -0.37431341573E+02 -0.24597138284E+02  0.31979994144E+03  0.32292123976E+03  0.00000000000E+00 0.  1.
<mgrwt>
<rscale>  0 0.89643314E+02</rscale>
<asrwt>0</asrwt>
<pdfrwt beam="1">  1        2 0.10275462E+00 0.89643314E+02</pdfrwt>
<pdfrwt beam="2">  1       -2 0.46275142E-03 0.89643314E+02</pdfrwt>
<totfact> 0.24519163E+05</totfact>
</mgrwt>
</event>
<event>
 5    1  0.3858870E+001  0.9194005E+02  0.7546771E-02  0.1298220E+00
         -2   -1    0    0    0  501 -0.00000000000E+00  0.00000000000E+00  0.44429048104E+01  0.44429048104E+01  0.00000000000E+00 0.  1.
          2   -1    0    0  501    0  0.00000000000E+00 -0.00000000000E+00 -0.47564448661E+03  0.47564448661E+03  0.00000000000E+00 0. -1.
         23    2    1    2    0    0  0.00000000000E+00  0.00000000000E+00 -0.47120158180E+03  0.48008739142E+03  0.91940049545E+02 0.  0.
          2    1    3    3  502    0 -0.33300501899E+02  0.16354636228E+02 -0.37734450922E+03  0.37916391731E+03  0.00000000000E+00 0. -1.
         -2    1    3    3    0  502  0.33300501899E+02 -0.16354636228E+02 -0.93857072575E+02  0.10092347410E+03  0.00000000000E+00 0.  1.
<mgrwt>
<rscale>  0 0.91940050E+02</rscale>
<asrwt>0</asrwt>
<pdfrwt beam="2">  1        2 0.73176057E-01 0.91940050E+02</pdfrwt>
<pdfrwt beam="1">  1       -2 0.68352398E-03 0.91940050E+02</pdfrwt>
<totfact> 0.20734693E+05</totfact>
</mgrwt>
</event>
<event>
 5    1  0.3858870E+001  0.9321610E+02  0.7546771E-02  0.1295245E+00
         -2   -1    0    0    0  501 -0.00000000000E+00  0.00000000000E+00  0.28696311722E+01  0.28696311722E+01  0.00000000000E+00 0.  1.
          2   -1    0    0  501    0  0.00000000000E+00 -0.00000000000E+00 -0.75699977905E+03  0.75699977905E+03  0.00000000000E+00 0. -1.
         23    2    1    2    0    0  0.00000000000E+00  0.00000000000E+00 -0.75413014788E+03  0.75986941022E+03  0.93216096536E+02 0.  0.
          2    1    3    3  502    0 -0.17461651546E+02  0.32668794558E+02 -0.14647853140E+03  0.15108977323E+03  0.00000000000E+00 0. -1.
         -2    1    3    3    0  502  0.17461651546E+02 -0.32668794558E+02 -0.60765161648E+03  0.60877963700E+03  0.00000000000E+00 0.  1.
<mgrwt>
<rscale>  0 0.93216097E+02</rscale>
<asrwt>0</asrwt>
<pdfrwt beam="2">  1        2 0.11646164E+00 0.93216097E+02</pdfrwt>
<pdfrwt beam="1">  1       -2 0.44148119E-03 0.93216097E+02</pdfrwt>
<totfact> 0.22753295E+05</totfact>
</mgrwt>
</event>
<event>
 5    1  0.3858870E+001  0.9072725E+02  0.7546771E-02  0.1301100E+00
          3   -1    0    0  501    0  0.00000000000E+00  0.00000000000E+00  0.17705857450E+03  0.17705857450E+03  0.00000000000E+00 0. -1.
         -3   -1    0    0    0  501 -0.00000000000E+00 -0.00000000000E+00 -0.11622473289E+02  0.11622473289E+02  0.00000000000E+00 0.  1.
         23    2    1    2    0    0  0.00000000000E+00  0.00000000000E+00  0.16543610122E+03  0.18868104779E+03  0.90727251755E+02 0.  0.
          2    1    3    3  502    0  0.21596620029E+01  0.27591105050E+02  0.15746771223E+03  0.15988124847E+03  0.00000000000E+00 0. -1.
         -2    1    3    3    0  502 -0.21596620029E+01 -0.27591105050E+02  0.79683889819E+01  0.28799799319E+02  0.00000000000E+00 0.  1.
<mgrwt>
<rscale>  0 0.90727252E+02</rscale>
<asrwt>0</asrwt>
<pdfrwt beam="1">  1        3 0.27239779E-01 0.90727252E+02</pdfrwt>
<pdfrwt beam="2">  1       -3 0.17880729E-02 0.90727252E+02</pdfrwt>
<totfact> 0.29485096E+04</totfact>
</mgrwt>
</event>
<event>
 5    1  0.3858870E+001  0.9271252E+02  0.7546771E-02  0.1296413E+00
          4   -1    0    0  501    0  0.00000000000E+00  0.00000000000E+00  0.16776023129E+03  0.16776023129E+03  0.00000000000E+00 0. -1.
         -4   -1    0    0    0  501 -0.00000000000E+00 -0.00000000000E+00 -0.12809370714E+02  0.12809370714E+02  0.00000000000E+00 0.  1.
         23    2    1    2    0    0  0.00000000000E+00  0.00000000000E+00  0.15495086058E+03  0.18056960201E+03  0.92712523289E+02 0.  0.
          2    1    3    3  502    0  0.22716932099E+02  0.96312214371E+01  0.15390798619E+03  0.15587330639E+03  0.00000000000E+00 0. -1.
         -2    1    3    3    0  502 -0.22716932099E+02 -0.96312214371E+01  0.10428743873E+01  0.24696295620E+02  0.00000000000E+00 0.  1.
<mgrwt>
<rscale>  0 0.92712523E+02</rscale>
<asrwt>0</asrwt>
<pdfrwt beam="1">  1        4 0.25809265E-01 0.92712523E+02</pdfrwt>
<pdfrwt beam="2">  1       -4 0.19706725E-02 0.92712523E+02</pdfrwt>
<totfact> 0.21249472E+04</totfact>
</mgrwt>
</event>
<event>
 5    1  0.3858870E+001  0.9150978E+02  0.7546771E-02  0.1299236E+00
         -3   -1    0    0    0  501 -0.00000000000E+00  0.00000000000E+00  0.15736088636E+01  0.15736088636E+01  0.00000000000E+00 0.  1.
          3   -1    0    0  501    0  0.00000000000E+00 -0.00000000000E+00 -0.13303878313E+04  0.13303878313E+04  0.00000000000E+00 0. -1.
         23    2    1    2    0    0  0.00000000000E+00  0.00000000000E+00 -0.13288142224E+04  0.13319614401E+04  0.91509782718E+02 0.  0.
          2    1    3    3  502    0  0.94873523669E+01  0.22728306674E+02 -0.12256728833E+04  0.12259203084E+04  0.00000000000E+00 0. -1.
         -2    1    3    3    0  502 -0.94873523669E+01 -0.22728306674E+02 -0.10314133913E+03  0.10604113173E+03  0.00000000000E+00 0.  1.
<mgrwt>
<rscale>  0 0.91509783E+02</rscale>
<asrwt>0</asrwt>
<pdfrwt beam="2">  1        3 0.20467590E+00 0.91509783E+02</pdfrwt>
<pdfrwt beam="1">  1       -3 0.24209267E-03 0.91509783E+02</pdfrwt>
<totfact> 0.71307471E+03</totfact>
</mgrwt>
</event>
<event>
 5    1  0.3858870E+001  0.9119139E+02  0.7546771E-02  0.1299992E+00
          1   -1    0    0  501    0  0.00000000000E+00  0.00000000000E+00  0.11350288729E+04  0.11350288729E+04  0.00000000000E+00 0. -1.
         -1   -1    0    0    0  501 -0.00000000000E+00 -0.00000000000E+00 -0.18316426833E+01  0.18316426833E+01  0.00000000000E+00 0.  1.
         23    2    1    2    0    0  0.00000000000E+00  0.00000000000E+00  0.11331972302E+04  0.11368605156E+04  0.91191388418E+02 0.  0.
          2    1    3    3  502    0  0.17118638534E+02  0.33955182347E+02  0.25295008956E+03  0.25579239629E+03  0.00000000000E+00 0.  1.
         -2    1    3    3    0  502 -0.17118638534E+02 -0.33955182347E+02  0.88024714068E+03  0.88106811932E+03  0.00000000000E+00 0. -1.
<mgrwt>
<rscale>  0 0.91191388E+02</rscale>
<asrwt>0</asrwt>
<pdfrwt beam="1">  1        1 0.17461926E+00 0.91191388E+02</pdfrwt>
<pdfrwt beam="2">  1       -1 0.28179209E-03 0.91191388E+02</pdfrwt>
<totfact> 0.13036979E+05</totfact>
</mgrwt>
</event>
<event>
 5    1  0.3858870E+001  0.9083627E+02  0.7546771E-02  0.1300839E+00
         -2   -1    0    0    0  501 -0.00000000000E+00  0.00000000000E+00  0.20445921695E+01  0.20445921695E+01  0.00000000000E+00 0.  1.
          2   -1    0    0  501    0  0.00000000000E+00 -0.00000000000E+00 -0.10089087001E+04  0.10089087001E+04  0.00000000000E+00 0. -1.
         23    2    1    2    0    0  0.00000000000E+00  0.00000000000E+00 -0.10068641079E+04  0.10109532922E+04  0.90836266500E+02 0.  0.
          2    1    3    3  502    0 -0.31218574716E+02  0.28230958163E+02 -0.69335731341E+03  0.69463368077E+03  0.00000000000E+00 0. -1.
         -2    1    3    3    0  502  0.31218574716E+02 -0.28230958163E+02 -0.31350679448E+03  0.31631961146E+03  0.00000000000E+00 0.  1.
<mgrwt>
<rscale>  0 0.90836266E+02</rscale>
<asrwt>0</asrwt>
<pdfrwt beam="2">  1        2 0.15521667E+00 0.90836266E+02</pdfrwt>
<pdfrwt beam="1">  1       -2 0.31455276E-03 0.90836266E+02</pdfrwt>
<totfact> 0.25257934E+05</totfact>
</mgrwt>
</event>
<event>
 5    1  0.3858870E+001  0.9016737E+02  0.7546771E-02  0.1302447E+00
         -2   -1    0    0    0  501 -0.00000000000E+00  0.00000000000E+00  0.24828341558E+01  0.24828341558E+01  0.00000000000E+00 0.  1.
          2   -1    0    0  501    0  0.00000000000E+00 -0.00000000000E+00 -0.81863644022E+03  0.81863644022E+03  0.00000000000E+00 0. -1.
         23    2    1    2    0    0  0.00000000000E+00  0.00000000000E+00 -0.81615360606E+03  0.82111927438E+03  0.90167366935E+02 0.  0.
          2    1    3    3  502    0  0.42354611240E+02  0.13172613763E+02 -0.33459616304E+03  0.33752336685E+03  0.00000000000E+00 0. -1.
         -2    1    3    3    0  502 -0.42354611240E+02 -0.13172613763E+02 -0.48155744302E+03  0.48359590752E+03  0.00000000000E+00 0.  1.
<mgrwt>
<rscale>  0 0.90167367E+02</rscale>
<asrwt>0</asrwt>
<pdfrwt beam="2">  1        2 0.12594416E+00 0.90167367E+02</pdfrwt>
<pdfrwt beam="1">  1       -2 0.38197420E-03 0.90167367E+02</pdfrwt>
<totfact> 0.25197543E+05</totfact>
</mgrwt>
</event>
<event>
 4    1  0.3858870E+001  0.5197646E+02  0.7546771E-02  0.1434964E+00
          2   -1    0    0  501    0  0.00000000000E+00  0.00000000000E+00  0.22466096462E+03  0.22466096462E+03  0.00000000000E+00 0. -1.
         -2   -1    0    0    0  501 -0.00000000000E+00 -0.00000000000E+00 -0.30062550694E+01  0.30062550694E+01  0.00000000000E+00 0.  1.
          2    1    1    2  502    0  0.14723841194E+02  0.21405493949E+02  0.11360280102E+03  0.11653575876E+03  0.00000000000E+00 0. -1.
         -2    1    1    2    0  502 -0.14723841194E+02 -0.21405493949E+02  0.10805190854E+03  0.11113146093E+03  0.00000000000E+00 0.  1.
<mgrwt>
<rscale>  0 0.51976463E+02</rscale>
<asrwt>0</asrwt>
<pdfrwt beam="1">  1        2 0.34563212E-01 0.51976463E+02</pdfrwt>
<pdfrwt beam="2">  1       -2 0.46250096E-03 0.51976463E+02</pdfrwt>
<totfact> 0.69466271E+05</totfact>
</mgrwt>
</event>
<event>
 5    1  0.3858870E+001  0.1002317E+03  0.7546771E-02  0.1279810E+00
          2   -1    0    0  501    0  0.00000000000E+00  0.00000000000E+00  0.16469363870E+04  0.16469363870E+04  0.00000000000E+00 0. -1.
         -2   -1    0    0    0  501 -0.00000000000E+00 -0.00000000000E+00 -0.15250118119E+01  0.15250118119E+01  0.00000000000E+00 0.  1.
         23    2    1    2    0    0  0.00000000000E+00  0.00000000000E+00  0.16454113752E+04  0.16484613988E+04  0.10023168049E+03 0.  0.
          2    1    3    3  502    0 -0.19910404222E+02 -0.36347074145E+02  0.12861540723E+04  0.12868216006E+04  0.00000000000E+00 0. -1.
         -2    1    3    3    0  502  0.19910404222E+02  0.36347074145E+02  0.35925730287E+03  0.36163979822E+03  0.00000000000E+00 0.  1.
<mgrwt>
<rscale>  0 0.10023168E+03</rscale>
<asrwt>0</asrwt>
<pdfrwt beam="1">  1        2 0.25337341E+00 0.10023168E+03</pdfrwt>
<pdfrwt beam="2">  1       -2 0.23461852E-03 0.10023168E+03</pdfrwt>
<totfact> 0.17605923E+05</totfact>
</mgrwt>
</event>
<event>
 5    1  0.3858870E+001  0.9187023E+02  0.7546771E-02  0.1298385E+00
          2   -1    0    0  501    0  0.00000000000E+00  0.00000000000E+00  0.16423344714E+03  0.16423344714E+03  0.00000000000E+00 0. -1.
         -2   -1    0    0    0  501 -0.00000000000E+00 -0.00000000000E+00 -0.12847777080E+02  0.12847777080E+02  0.00000000000E+00 0.  1.
         23    2    1    2    0    0  0.00000000000E+00  0.00000000000E+00  0.15138567006E+03  0.17708122422E+03  0.91870228429E+02 0.  0.
          2    1    3    3  502    0  0.21231025055E+02 -0.17914020352E+02  0.14620843321E+03  0.14882397149E+03  0.00000000000E+00 0. -1.
         -2    1    3    3    0  502 -0.21231025055E+02  0.17914020352E+02  0.51772368492E+01  0.28257252723E+02  0.00000000000E+00 0.  1.
<mgrwt>
<rscale>  0 0.91870228E+02</rscale>
<asrwt>0</asrwt>
<pdfrwt beam="1">  1        2 0.25266683E-01 0.91870228E+02</pdfrwt>
<pdfrwt beam="2">  1       -2 0.19765812E-02 0.91870228E+02</pdfrwt>
<totfact> 0.14130280E+05</totfact>
</mgrwt>
</event>
<event>
 5    1  0.3858870E+001  0.9065287E+02  0.7546771E-02  0.1301278E+00
          3   -1    0    0  501    0  0.00000000000E+00  0.00000000000E+00  0.11659863056E+02  0.11659863056E+02  0.00000000000E+00 0. -1.
         -3   -1    0    0    0  501 -0.00000000000E+00 -0.00000000000E+00 -0.17620154348E+03  0.17620154348E+03  0.00000000000E+00 0.  1.
         23    2    1    2    0    0  0.00000000000E+00  0.00000000000E+00 -0.16454168042E+03  0.18786140653E+03  0.90652873471E+02 0.  0.
          2    1    3    3  502    0 -0.26347248681E+02  0.29539241461E+02 -0.36504005202E+02  0.53845024793E+02  0.00000000000E+00 0. -1.
         -2    1    3    3    0  502  0.26347248681E+02 -0.29539241461E+02 -0.12803767522E+03  0.13401638174E+03  0.00000000000E+00 0.  1.
<mgrwt>
<rscale>  0 0.90652873E+02</rscale>
<asrwt>0</asrwt>
<pdfrwt beam="1">  1        3 0.17938250E-02 0.90652873E+02</pdfrwt>
<pdfrwt beam="2">  1       -3 0.27107932E-01 0.90652873E+02</pdfrwt>
<totfact> 0.29594417E+04</totfact>
</mgrwt>
</event>
<event>
 5    1  0.3858870E+001  0.9700854E+02  0.7546771E-02  0.1286715E+00
          1   -1    0    0  501    0  0.00000000000E+00  0.00000000000E+00  0.10708121841E+04  0.10708121841E+04  0.00000000000E+00 0.  1.
         -1   -1    0    0    0  501 -0.00000000000E+00 -0.00000000000E+00 -0.21970840193E+01  0.21970840193E+01  0.00000000000E+00 0. -1.
         23    2    1    2    0    0  0.00000000000E+00  0.00000000000E+00  0.10686151001E+04  0.10730092681E+04  0.97008542661E+02 0.  0.
          2    1    3    3  502    0  0.20120201013E+02  0.29972996226E+01  0.10213496454E+04  0.10215522035E+04  0.00000000000E+00 0.  1.
         -2    1    3    3    0  502 -0.20120201013E+02 -0.29972996226E+01  0.47265454632E+02  0.51457064582E+02  0.00000000000E+00 0. -1.
<mgrwt>
<rscale>  0 0.97008543E+02</rscale>
<asrwt>0</asrwt>
<pdfrwt beam="1">  1        1 0.16473992E+00 0.97008543E+02</pdfrwt>
<pdfrwt beam="2">  1       -1 0.33801378E-03 0.97008543E+02</pdfrwt>
<totfact> 0.11305280E+05</totfact>
</mgrwt>
</event>
<event>
 5    1  0.3858870E+001  0.9058519E+02  0.7546771E-02  0.1301441E+00
         -2   -1    0    0    0  501 -0.00000000000E+00  0.00000000000E+00  0.60888247978E+01  0.60888247978E+01  0.00000000000E+00 0.  1.
          2   -1    0    0  501    0  0.00000000000E+00 -0.00000000000E+00 -0.33691543649E+03  0.33691543649E+03  0.00000000000E+00 0. -1.
         23    2    1    2    0    0  0.00000000000E+00  0.00000000000E+00 -0.33082661169E+03  0.34300426128E+03  0.90585187850E+02 0.  0.
          2    1    3    3  502    0 -0.92126715377E+01  0.43697177373E+02 -0.13679989381E+03  0.14390457801E+03  0.00000000000E+00 0. -1.
         -2    1    3    3    0  502  0.92126715377E+01 -0.43697177373E+02 -0.19402671788E+03  0.19909968327E+03  0.00000000000E+00 0.  1.
<mgrwt>
<rscale>  0 0.90585188E+02</rscale>
<asrwt>0</asrwt>
<pdfrwt beam="2">  1        2 0.51833142E-01 0.90585188E+02</pdfrwt>
<pdfrwt beam="1">  1       -2 0.93674231E-03 0.90585188E+02</pdfrwt>
<totfact> 0.19083201E+05</totfact>
</mgrwt>
</event>
<event>
 5    1  0.3858870E+001  0.8938001E+02  0.7546771E-02  0.1304360E+00
         -1   -1    0    0    0  501 -0.00000000000E+00  0.00000000000E+00  0.35948787845E+02  0.35948787845E+02  0.00000000000E+00 0.  1.
          1   -1    0    0  501    0  0.00000000000E+00 -0.00000000000E+00 -0.55556708751E+02  0.55556708751E+02  0.00000000000E+00 0. -1.
         23    2    1    2    0    0  0.00000000000E+00  0.00000000000E+00 -0.19607920906E+02  0.91505496596E+02  0.89380005286E+02 0.  0.
          2    1    3    3  502    0 -0.28627368672E+02 -0.82455356465E+01 -0.43908008263E+02  0.53060609540E+02  0.00000000000E+00 0. -1.
         -2    1    3    3    0  502  0.28627368672E+02  0.82455356465E+01  0.24300087356E+02  0.38444887055E+02  0.00000000000E+00 0.  1.
<mgrwt>
<rscale>  0 0.89380005E+02</rscale>
<asrwt>0</asrwt>
<pdfrwt beam="2">  1        1 0.85471860E-02 0.89380005E+02</pdfrwt>
<pdfrwt beam="1">  1       -1 0.55305827E-02 0.89380005E+02</pdfrwt>
<totfact> 0.10067042E+05</totfact>
</mgrwt>
</event>
<event>
 5    1  0.3858870E+001  0.9078010E+02  0.7546771E-02  0.1300974E+00
         -4   -1    0    0    0  501 -0.00000000000E+00  0.00000000000E+00  0.64776779191E+03  0.64776779191E+03  0.00000000000E+00 0.  1.
          4   -1    0    0  501    0  0.00000000000E+00 -0.00000000000E+00 -0.31805477873E+01  0.31805477873E+01  0.00000000000E+00 0. -1.
         23    2    1    2    0    0  0.00000000000E+00  0.00000000000E+00  0.64458724413E+03  0.65094833970E+03  0.90780095114E+02 0.  0.
          2    1    3    3  502    0  0.34280982345E+02 -0.29616798261E+02  0.30211893565E+03  0.30549663135E+03  0.00000000000E+00 0. -1.
         -2    1    3    3    0  502 -0.34280982345E+02  0.29616798261E+02  0.34246830848E+03  0.34545170835E+03  0.00000000000E+00 0.  1.
<mgrwt>
<rscale>  0 0.90780095E+02</rscale>
<asrwt>0</asrwt>
<pdfrwt beam="2">  1        4 0.48931556E-03 0.90780095E+02</pdfrwt>
<pdfrwt beam="1">  1       -4 0.99656479E-01 0.90780095E+02</pdfrwt>
<totfact> 0.10805515E+04</totfact>
</mgrwt>
</event>
<event>
 5    1  0.3858870E+001  0.9428302E+02  0.7546771E-02  0.1292799E+00
         -2   -1    0    0    0  501 -0.00000000000E+00  0.00000000000E+00  0.77339462539E+02  0.77339462539E+02  0.00000000000E+00 0.  1.
          2   -1    0    0  501    0  0.00000000000E+00 -0.00000000000E+00 -0.28734645236E+02  0.28734645236E+02  0.00000000000E+00 0. -1.
         23    2    1    2    0    0  0.00000000000E+00  0.00000000000E+00  0.48604817302E+02  0.10607410777E+03  0.94283021139E+02 0.  0.
          2    1    3    3  502    0  0.13972726362E+02 -0.16456187834E+02 -0.22846606864E+02  0.31432636625E+02  0.00000000000E+00 0. -1.
         -2    1    3    3    0  502 -0.13972726362E+02  0.16456187834E+02  0.71451424166E+02  0.74641471150E+02  0.00000000000E+00 0.  1.
<mgrwt>
<rscale>  0 0.94283021E+02</rscale>
<asrwt>0</asrwt>
<pdfrwt beam="2">  1        2 0.44207147E-02 0.94283021E+02</pdfrwt>
<pdfrwt beam="1">  1       -2 0.11898379E-01 0.94283021E+02</pdfrwt>
<totfact> 0.79101171E+04</totfact>
</mgrwt>
</event>
<event>
 5    1  0.3858870E+001  0.9129130E+02  0.7546771E-02  0.1299754E+00
         -1   -1    0    0    0  501 -0.00000000000E+00  0.00000000000E+00  0.79017730178E+01  0.79017730178E+01  0.00000000000E+00 0.  1.
          1   -1    0    0  501    0  0.00000000000E+00 -0.00000000000E+00 -0.26367818514E+03  0.26367818514E+03  0.00000000000E+00 0. -1.
         23    2    1    2    0    0  0.00000000000E+00  0.00000000000E+00 -0.25577641212E+03  0.27157995816E+03  0.91291295724E+02 0.  0.
          2    1    3    3  502    0 -0.35529166429E+02 -0.28528388470E+02 -0.11983154361E+03  0.12820214296E+03  0.00000000000E+00 0. -1.
         -2    1    3    3    0  502  0.35529166429E+02  0.28528388470E+02 -0.13594486852E+03  0.14337781520E+03  0.00000000000E+00 0.  1.
<mgrwt>
<rscale>  0 0.91291296E+02</rscale>
<asrwt>0</asrwt>
<pdfrwt beam="2">  1        1 0.40565873E-01 0.91291296E+02</pdfrwt>
<pdfrwt beam="1">  1       -1 0.12156574E-02 0.91291296E+02</pdfrwt>
<totfact> 0.12454473E+05</totfact>
</mgrwt>
</event>
<event>
 5    1  0.3858870E+001  0.9241276E+02  0.7546771E-02  0.1297112E+00
          2   -1    0    0  501    0  0.00000000000E+00  0.00000000000E+00  0.86062570370E+02  0.86062570370E+02  0.00000000000E+00 0. -1.
         -2   -1    0    0    0  501 -0.00000000000E+00 -0.00000000000E+00 -0.24807875532E+02  0.24807875532E+02  0.00000000000E+00 0.  1.
         23    2    1    2    0    0  0.00000000000E+00  0.00000000000E+00  0.61254694838E+02  0.11087044590E+03  0.92412759590E+02 0.  0.
          2    1    3    3  502    0  0.43229742104E+02 -0.13845908702E+02  0.20271386819E+02  0.49713669284E+02  0.00000000000E+00 0.  1.
         -2    1    3    3    0  502 -0.43229742104E+02  0.13845908702E+02  0.40983308019E+02  0.61156776618E+02  0.00000000000E+00 0. -1.
<mgrwt>
<rscale>  0 0.92412760E+02</rscale>
<asrwt>0</asrwt>
<pdfrwt beam="1">  1        2 0.13240395E-01 0.92412760E+02</pdfrwt>
<pdfrwt beam="2">  1       -2 0.38165963E-02 0.92412760E+02</pdfrwt>
<totfact> 0.11300292E+05</totfact>
</mgrwt>
</event>
<event>
 5    1  0.3858870E+001  0.8405372E+02  0.7546771E-02  0.1317926E+00
         -4   -1    0    0    0  501 -0.00000000000E+00  0.00000000000E+00  0.33539322232E+01  0.33539322232E+01  0.00000000000E+00 0.  1.
          4   -1    0    0  501    0  0.00000000000E+00 -0.00000000000E+00 -0.52662270643E+03  0.52662270643E+03  0.00000000000E+00 0. -1.
         23    2    1    2    0    0  0.00000000000E+00  0.00000000000E+00 -0.52326877421E+03  0.52997663866E+03  0.84053717695E+02 0.  0.
          2    1    3    3  502    0  0.31866906600E+02 -0.17902476827E+02 -0.39242136493E+03  0.39411993868E+03  0.00000000000E+00 0. -1.
         -2    1    3    3    0  502 -0.31866906600E+02  0.17902476827E+02 -0.13084740928E+03  0.13585669997E+03  0.00000000000E+00 0.  1.
<mgrwt>
<rscale>  0 0.84053718E+02</rscale>
<asrwt>0</asrwt>
<pdfrwt beam="2">  1        4 0.81018966E-01 0.84053718E+02</pdfrwt>
<pdfrwt beam="1">  1       -4 0.51598901E-03 0.84053718E+02</pdfrwt>
<totfact> 0.15507543E+04</totfact>
</mgrwt>
</event>
<event>
 5    1  0.3858870E+001  0.9062140E+02  0.7546771E-02  0.1301354E+00
          3   -1    0    0  501    0  0.00000000000E+00  0.00000000000E+00  0.89586665613E+01  0.89586665613E+01  0.00000000000E+00 0. -1.
         -3   -1    0    0    0  501 -0.00000000000E+00 -0.00000000000E+00 -0.22917022314E+03  0.22917022314E+03  0.00000000000E+00 0.  1.
         23    2    1    2    0    0  0.00000000000E+00  0.00000000000E+00 -0.22021155658E+03  0.23812888970E+03  0.90621401774E+02 0.  0.
          2    1    3    3  502    0 -0.20007223858E+02 -0.40334060664E+02 -0.12348766637E+03  0.13143945070E+03  0.00000000000E+00 0. -1.
         -2    1    3    3    0  502  0.20007223858E+02  0.40334060664E+02 -0.96723890208E+02  0.10668943900E+03  0.00000000000E+00 0.  1.
<mgrwt>
<rscale>  0 0.90621402E+02</rscale>
<asrwt>0</asrwt>
<pdfrwt beam="1">  1        3 0.13782564E-02 0.90621402E+02</pdfrwt>
<pdfrwt beam="2">  1       -3 0.35256958E-01 0.90621402E+02</pdfrwt>
<totfact> 0.27077972E+04</totfact>
</mgrwt>
</event>
<event>
 5    1  0.3858870E+001  0.1014512E+03  0.7546771E-02  0.1277273E+00
          2   -1    0    0  501    0  0.00000000000E+00  0.00000000000E+00  0.69538422186E+03  0.69538422186E+03  0.00000000000E+00 0. -1.
         -2   -1    0    0    0  501 -0.00000000000E+00 -0.00000000000E+00 -0.37002389417E+01  0.37002389417E+01  0.00000000000E+00 0.  1.
         23    2    1    2    0    0  0.00000000000E+00  0.00000000000E+00  0.69168398291E+03  0.69908446080E+03  0.10145122527E+03 0.  0.
          2    1    3    3  502    0  0.91910457560E+01 -0.45771481312E+02  0.48254908313E+03  0.48480214671E+03  0.00000000000E+00 0. -1.
         -2    1    3    3    0  502 -0.91910457560E+01  0.45771481312E+02  0.20913489978E+03  0.21428231409E+03  0.00000000000E+00 0.  1.
<mgrwt>
<rscale>  0 0.10145123E+03</rscale>
<asrwt>0</asrwt>
<pdfrwt beam="1">  1        2 0.10698208E+00 0.10145123E+03</pdfrwt>
<pdfrwt beam="2">  1       -2 0.56926808E-03 0.10145123E+03</pdfrwt>
<totfact> 0.17837536E+05</totfact>
</mgrwt>
</event>
<event>
 5    1  0.3858870E+001  0.9120996E+02  0.7546771E-02  0.1299948E+00
         -1   -1    0    0    0  501 -0.00000000000E+00  0.00000000000E+00  0.58068070924E+01  0.58068070924E+01  0.00000000000E+00 0.  1.
          1   -1    0    0  501    0  0.00000000000E+00 -0.00000000000E+00 -0.35816829438E+03  0.35816829438E+03  0.00000000000E+00 0. -1.
         23    2    1    2    0    0  0.00000000000E+00  0.00000000000E+00 -0.35236148729E+03  0.36397510147E+03  0.91209959809E+02 0.  0.
          2    1    3    3  502    0  0.86202329765E+01 -0.22740292763E+02 -0.33013334561E+03  0.33102787680E+03  0.00000000000E+00 0. -1.
         -2    1    3    3    0  502 -0.86202329765E+01  0.22740292763E+02 -0.22228141677E+02  0.32947224677E+02  0.00000000000E+00 0.  1.
<mgrwt>
<rscale>  0 0.91209960E+02</rscale>
<asrwt>0</asrwt>
<pdfrwt beam="2">  1        1 0.55102837E-01 0.91209960E+02</pdfrwt>
<pdfrwt beam="1">  1       -1 0.89335458E-03 0.91209960E+02</pdfrwt>
<totfact> 0.13224526E+05</totfact>
</mgrwt>
</event>
<event>
 5    1  0.3858870E+001  0.9039432E+02  0.7546771E-02  0.1301900E+00
          2   -1    0    0  501    0  0.00000000000E+00  0.00000000000E+00  0.32348026159E+03  0.32348026159E+03  0.00000000000E+00 0. -1.
         -2   -1    0    0    0  501 -0.00000000000E+00 -0.00000000000E+00 -0.63150170987E+01  0.63150170987E+01  0.00000000000E+00 0.  1.
         23    2    1    2    0    0  0.00000000000E+00  0.00000000000E+00  0.31716524449E+03  0.32979527868E+03  0.90394322455E+02 0.  0.
          2    1    3    3  502    0  0.21001563154E+02 -0.18857088773E+02  0.28737334945E+03  0.28875612102E+03  0.00000000000E+00 0. -1.
         -2    1    3    3    0  502 -0.21001563154E+02  0.18857088773E+02  0.29791895035E+02  0.41039157663E+02  0.00000000000E+00 0.  1.
<mgrwt>
<rscale>  0 0.90394322E+02</rscale>
<asrwt>0</asrwt>
<pdfrwt beam="1">  1        2 0.49766181E-01 0.90394322E+02</pdfrwt>
<pdfrwt beam="2">  1       -2 0.97154134E-03 0.90394322E+02</pdfrwt>
<totfact> 0.18904707E+05</totfact>
</mgrwt>
</event>
<event>
 5    1  0.3858870E+001  0.9097169E+02  0.7546771E-02  0.1300516E+00
          1   -1    0    0  501    0  0.00000000000E+00  0.00000000000E+00  0.25981734727E+01  0.25981734727E+01  0.00000000000E+00 0. -1.
         -1   -1    0    0    0  501 -0.00000000000E+00 -0.00000000000E+00 -0.79631411296E+03  0.79631411296E+03  0.00000000000E+00 0.  1.
         23    2    1    2    0    0  0.00000000000E+00  0.00000000000E+00 -0.79371593949E+03  0.79891228643E+03  0.90971692394E+02 0.  0.
          2    1    3    3  502    0  0.95965916080E+01  0.44432743094E+02 -0.41101570767E+03  0.41352179529E+03  0.00000000000E+00 0. -1.
         -2    1    3    3    0  502 -0.95965916080E+01 -0.44432743094E+02 -0.38270023182E+03  0.38539049114E+03  0.00000000000E+00 0.  1.
<mgrwt>
<rscale>  0 0.90971692E+02</rscale>
<asrwt>0</asrwt>
<pdfrwt beam="1">  1        1 0.39971827E-03 0.90971692E+02</pdfrwt>
<pdfrwt beam="2">  1       -1 0.12251009E+00 0.90971692E+02</pdfrwt>
<totfact> 0.32992829E+04</totfact>
</mgrwt>
</event>
<event>
 5    1  0.3858870E+001  0.8893867E+02  0.7546771E-02  0.1305442E+00
          1   -1    0    0  501    0  0.00000000000E+00  0.00000000000E+00  0.30178016161E+02  0.30178016161E+02  0.00000000000E+00 0. -1.
         -1   -1    0    0    0  501 -0.00000000000E+00 -0.00000000000E+00 -0.65528554807E+02  0.65528554807E+02  0.00000000000E+00 0.  1.
         23    2    1    2    0    0  0.00000000000E+00  0.00000000000E+00 -0.35350538646E+02  0.95706570968E+02  0.88938670689E+02 0.  0.
          2    1    3    3  502    0 -0.24420968263E+02  0.36280494528E+02 -0.26341941232E+02  0.51054439984E+02  0.00000000000E+00 0. -1.
         -2    1    3    3    0  502  0.24420968263E+02 -0.36280494528E+02 -0.90085974137E+01  0.44652130985E+02  0.00000000000E+00 0.  1.
<mgrwt>
<rscale>  0 0.88938671E+02</rscale>
<asrwt>0</asrwt>
<pdfrwt beam="1">  1        1 0.46427717E-02 0.88938671E+02</pdfrwt>
<pdfrwt beam="2">  1       -1 0.10081316E-01 0.88938671E+02</pdfrwt>
<totfact> 0.93161080E+04</totfact>
</mgrwt>
</event>
<event>
 5    1  0.3858870E+001  0.9407905E+02  0.7546771E-02  0.1293264E+00
         -1   -1    0    0    0  501 -0.00000000000E+00  0.00000000000E+00  0.13930359863E+01  0.13930359863E+01  0.00000000000E+00 0.  1.
          1   -1    0    0  501    0  0.00000000000E+00 -0.00000000000E+00 -0.15884132157E+04  0.15884132157E+04  0.00000000000E+00 0. -1.
         23    2    1    2    0    0  0.00000000000E+00  0.00000000000E+00 -0.15870201797E+04  0.15898062517E+04  0.94079046990E+02 0.  0.
          2    1    3    3  502    0 -0.10316122043E+02  0.18541160522E+02 -0.15029543654E+04  0.15031041287E+04  0.00000000000E+00 0. -1.
         -2    1    3    3    0  502  0.10316122043E+02 -0.18541160522E+02 -0.84065814310E+02  0.86702123060E+02  0.00000000000E+00 0.  1.
<mgrwt>
<rscale>  0 0.94079047E+02</rscale>
<asrwt>0</asrwt>
<pdfrwt beam="2">  1        1 0.24437100E+00 0.94079047E+02</pdfrwt>
<pdfrwt beam="1">  1       -1 0.21431346E-03 0.94079047E+02</pdfrwt>
<totfact> 0.96735150E+04</totfact>
</mgrwt>
</event>
<event>
 5    1  0.3858870E+001  0.9130000E+02  0.7546771E-02  0.1299734E+00
          2   -1    0    0  501    0  0.00000000000E+00  0.00000000000E+00  0.38463883273E+01  0.38463883273E+01  0.00000000000E+00 0. -1.
         -2   -1    0    0    0  501 -0.00000000000E+00 -0.00000000000E+00 -0.54178676251E+03  0.54178676251E+03  0.00000000000E+00 0.  1.
         23    2    1    2    0    0  0.00000000000E+00  0.00000000000E+00 -0.53794037418E+03  0.54563315084E+03  0.91299995164E+02 0.  0.
          2    1    3    3  502    0  0.20450949304E+02 -0.97571134690E+01 -0.32135038564E+02  0.39320520014E+02  0.00000000000E+00 0. -1.
         -2    1    3    3    0  502 -0.20450949304E+02  0.97571134690E+01 -0.50580533562E+03  0.50631263082E+03  0.00000000000E+00 0.  1.
<mgrwt>
<rscale>  0 0.91299995E+02</rscale>
<asrwt>0</asrwt>
<pdfrwt beam="1">  1        2 0.59175248E-03 0.91299995E+02</pdfrwt>
<pdfrwt beam="2">  1       -2 0.83351749E-01 0.91299995E+02</pdfrwt>
<totfact> 0.33936755E+04</totfact>
</mgrwt>
</event>
<event>
 5    1  0.3858870E+001  0.9183393E+02  0.7546771E-02  0.1298470E+00
         -2   -1    0    0    0  501 -0.00000000000E+00  0.00000000000E+00  0.18995825698E+01  0.18995825698E+01  0.00000000000E+00 0.  1.
          2   -1    0    0  501    0  0.00000000000E+00 -0.00000000000E+00 -0.11099110688E+04  0.11099110688E+04  0.00000000000E+00 0. -1.
         23    2    1    2    0    0  0.00000000000E+00  0.00000000000E+00 -0.11080114862E+04  0.11118106513E+04  0.91833930990E+02 0.  0.
          2    1    3    3  502    0  0.17069958715E+02 -0.25843090680E+02 -0.96440837587E+03  0.96490557272E+03  0.00000000000E+00 0. -1.
         -2    1    3    3    0  502 -0.17069958715E+02  0.25843090680E+02 -0.14360311032E+03  0.14690507860E+03  0.00000000000E+00 0.  1.
<mgrwt>
<rscale>  0 0.91833931E+02</rscale>
<asrwt>0</asrwt>
<pdfrwt beam="2">  1        2 0.17075566E+00 0.91833931E+02</pdfrwt>
<pdfrwt beam="1">  1       -2 0.29224329E-03 0.91833931E+02</pdfrwt>
<totfact> 0.24542699E+05</totfact>
</mgrwt>
</event>
<event>
 5    1  0.3858870E+001  0.9550599E+02  0.7546771E-02  0.1290041E+00
         -2   -1    0    0    0  501 -0.00000000000E+00  0.00000000000E+00  0.77130755800E+02  0.77130755800E+02  0.00000000000E+00 0.  1.
          2   -1    0    0  501    0  0.00000000000E+00 -0.00000000000E+00 -0.29564714292E+02  0.29564714292E+02  0.00000000000E+00 0. -1.
         23    2    1    2    0    0  0.00000000000E+00  0.00000000000E+00  0.47566041508E+02  0.10669547009E+03  0.95505994751E+02 0.  0.
          2    1    3    3  502    0 -0.28003872463E+02 -0.59134080135E+01 -0.18920605454E+02  0.34309977820E+02  0.00000000000E+00 0. -1.
         -2    1    3    3    0  502  0.28003872463E+02  0.59134080135E+01  0.66486646962E+02  0.72385492272E+02  0.00000000000E+00 0.  1.
<mgrwt>
<rscale>  0 0.95505995E+02</rscale>
<asrwt>0</asrwt>
<pdfrwt beam="2">  1        2 0.45484176E-02 0.95505995E+02</pdfrwt>
<pdfrwt beam="1">  1       -2 0.11866270E-01 0.95505995E+02</pdfrwt>
<totfact> 0.76702002E+04</totfact>
</mgrwt>
</event>
<event>
 5    1  0.3858870E+001  0.9117637E+02  0.7546771E-02  0.1300028E+00
         -1   -1    0    0    0  501 -0.00000000000E+00  0.00000000000E+00  0.31893925767E+02  0.31893925767E+02  0.00000000000E+00 0.  1.
          1   -1    0    0  501    0  0.00000000000E+00 -0.00000000000E+00 -0.65162326574E+02  0.65162326574E+02  0.00000000000E+00 0. -1.
         23    2    1    2    0    0  0.00000000000E+00  0.00000000000E+00 -0.33268400808E+02  0.97056252341E+02  0.91176365502E+02 0.  0.
          2    1    3    3  502    0  0.34813929817E+02  0.17736312454E+02 -0.41637143170E+02  0.57098495428E+02  0.00000000000E+00 0. -1.
         -2    1    3    3    0  502 -0.34813929817E+02 -0.17736312454E+02  0.83687423627E+01  0.39957756913E+02  0.00000000000E+00 0.  1.
<mgrwt>
<rscale>  0 0.91176366E+02</rscale>
<asrwt>0</asrwt>
<pdfrwt beam="2">  1        1 0.10024973E-01 0.91176366E+02</pdfrwt>
<pdfrwt beam="1">  1       -1 0.49067579E-02 0.91176366E+02</pdfrwt>
<totfact> 0.97589476E+04</totfact>
</mgrwt>
</event>
<event>
 5    1  0.3858870E+001  0.9253795E+02  0.7546771E-02  0.1296820E+00
         -1   -1    0    0    0  501 -0.00000000000E+00  0.00000000000E+00  0.41886246925E+02  0.41886246925E+02  0.00000000000E+00 0.  1.
          1   -1    0    0  501    0  0.00000000000E+00 -0.00000000000E+00 -0.51110285340E+02  0.51110285340E+02  0.00000000000E+00 0. -1.
         23    2    1    2    0    0  0.00000000000E+00  0.00000000000E+00 -0.92240384153E+01  0.92996532265E+02  0.92537949667E+02 0.  0.
          2    1    3    3  502    0 -0.10370114745E+02  0.30886035916E+02 -0.37628008526E+02  0.49773020001E+02  0.00000000000E+00 0. -1.
         -2    1    3    3    0  502  0.10370114745E+02 -0.30886035916E+02  0.28403970111E+02  0.43223512264E+02  0.00000000000E+00 0.  1.
<mgrwt>
<rscale>  0 0.92537950E+02</rscale>
<asrwt>0</asrwt>
<pdfrwt beam="2">  1        1 0.78631208E-02 0.92537950E+02</pdfrwt>
<pdfrwt beam="1">  1       -1 0.64440380E-02 0.92537950E+02</pdfrwt>
<totfact> 0.90252210E+04</totfact>
</mgrwt>
</event>
<event>
 5    1  0.3858870E+001  0.8677080E+02  0.7546771E-02  0.1310866E+00
          2   -1    0    0  501    0  0.00000000000E+00  0.00000000000E+00  0.67664501380E+03  0.67664501380E+03  0.00000000000E+00 0. -1.
         -2   -1    0    0    0  501 -0.00000000000E+00 -0.00000000000E+00 -0.27818029940E+01  0.27818029940E+01  0.00000000000E+00 0.  1.
         23    2    1    2    0    0  0.00000000000E+00  0.00000000000E+00  0.67386321081E+03  0.67942681680E+03  0.86770804428E+02 0.  0.
          2    1    3    3  502    0  0.21519080705E+02  0.37212198012E+02  0.29095692258E+03  0.29411519735E+03  0.00000000000E+00 0. -1.
         -2    1    3    3    0  502 -0.21519080705E+02 -0.37212198012E+02  0.38290628823E+03  0.38531161945E+03  0.00000000000E+00 0.  1.
<mgrwt>
<rscale>  0 0.86770804E+02</rscale>
<asrwt>0</asrwt>
<pdfrwt beam="1">  1        2 0.10409910E+00 0.86770804E+02</pdfrwt>
<pdfrwt beam="2">  1       -2 0.42797023E-03 0.86770804E+02</pdfrwt>
<totfact> 0.26796974E+05</totfact>
</mgrwt>
</event>
<event>
 5    1  0.3858870E+001  0.9008856E+02  0.7546771E-02  0.1302637E+00
          2   -1    0    0  501    0  0.00000000000E+00  0.00000000000E+00  0.27014786966E+03  0.27014786966E+03  0.00000000000E+00 0.  1.
         -2   -1    0    0    0  501 -0.00000000000E+00 -0.00000000000E+00 -0.75106547556E+01  0.75106547556E+01  0.00000000000E+00 0. -1.
         23    2    1    2    0    0  0.00000000000E+00  0.00000000000E+00  0.26263721490E+03  0.27765852441E+03  0.90088564911E+02 0.  0.
          2    1    3    3  502    0  0.12853292285E+02  0.28392697932E+02  0.31085950612E+02  0.44019186088E+02  0.00000000000E+00 0. -1.
         -2    1    3    3    0  502 -0.12853292285E+02 -0.28392697932E+02  0.23155126429E+03  0.23363933832E+03  0.00000000000E+00 0.  1.
<mgrwt>
<rscale>  0 0.90088565E+02</rscale>
<asrwt>0</asrwt>
<pdfrwt beam="1">  1        2 0.41561203E-01 0.90088565E+02</pdfrwt>
<pdfrwt beam="2">  1       -2 0.11554856E-02 0.90088565E+02</pdfrwt>
<totfact> 0.17840181E+05</totfact>
</mgrwt>
</event>
<event>
 5    1  0.3858870E+001  0.9071056E+02  0.7546771E-02  0.1301140E+00
          1   -1    0    0  501    0  0.00000000000E+00  0.00000000000E+00  0.14023565608E+03  0.14023565608E+03  0.00000000000E+00 0. -1.
         -1   -1    0    0    0  501 -0.00000000000E+00 -0.00000000000E+00 -0.14668889937E+02  0.14668889937E+02  0.00000000000E+00 0.  1.
         23    2    1    2    0    0  0.00000000000E+00  0.00000000000E+00  0.12556676615E+03  0.15490454602E+03  0.90710559567E+02 0.  0.
          2    1    3    3  502    0  0.18099722279E+02 -0.22861451098E+02  0.34589008631E+01  0.29363410702E+02  0.00000000000E+00 0.  1.
         -2    1    3    3    0  502 -0.18099722279E+02  0.22861451098E+02  0.12210786528E+03  0.12554113532E+03  0.00000000000E+00 0. -1.
<mgrwt>
<rscale>  0 0.90710560E+02</rscale>
<asrwt>0</asrwt>
<pdfrwt beam="1">  1        1 0.21574715E-01 0.90710560E+02</pdfrwt>
<pdfrwt beam="2">  1       -1 0.22567524E-02 0.90710560E+02</pdfrwt>
<totfact> 0.11230783E+05</totfact>
</mgrwt>
</event>
<event>
 5    1  0.3858870E+001  0.8731397E+02  0.7546771E-02  0.1309490E+00
          1   -1    0    0  501    0  0.00000000000E+00  0.00000000000E+00  0.65287924688E+01  0.65287924688E+01  0.00000000000E+00 0. -1.
         -1   -1    0    0    0  501 -0.00000000000E+00 -0.00000000000E+00 -0.29192725149E+03  0.29192725149E+03  0.00000000000E+00 0.  1.
         23    2    1    2    0    0  0.00000000000E+00  0.00000000000E+00 -0.28539845902E+03  0.29845604395E+03  0.87313972328E+02 0.  0.
          2    1    3    3  502    0 -0.40554932989E+02 -0.16149193132E+02 -0.14494956513E+03  0.15137990441E+03  0.00000000000E+00 0. -1.
         -2    1    3    3    0  502  0.40554932989E+02  0.16149193132E+02 -0.14044889389E+03  0.14707613955E+03  0.00000000000E+00 0.  1.
<mgrwt>
<rscale>  0 0.87313972E+02</rscale>
<asrwt>0</asrwt>
<pdfrwt beam="1">  1        1 0.10044297E-02 0.87313972E+02</pdfrwt>
<pdfrwt beam="2">  1       -1 0.44911880E-01 0.87313972E+02</pdfrwt>
<totfact> 0.68555864E+04</totfact>
</mgrwt>
</event>
<event>
 5    1  0.3858870E+001  0.8517609E+02  0.7546771E-02  0.1314973E+00
         -2   -1    0    0    0  501 -0.00000000000E+00  0.00000000000E+00  0.14206758112E+02  0.14206758112E+02  0.00000000000E+00 0.  1.
          2   -1    0    0  501    0  0.00000000000E+00 -0.00000000000E+00 -0.12766751355E+03  0.12766751355E+03  0.00000000000E+00 0. -1.
         23    2    1    2    0    0  0.00000000000E+00  0.00000000000E+00 -0.11346075544E+03  0.14187427166E+03  0.85176087812E+02 0.  0.
          2    1    3    3  502    0 -0.41164889850E+02 -0.52941980108E+01 -0.72634127548E+02  0.83655801793E+02  0.00000000000E+00 0. -1.
         -2    1    3    3    0  502  0.41164889850E+02  0.52941980108E+01 -0.40826627887E+02  0.58218469867E+02  0.00000000000E+00 0.  1.
<mgrwt>
<rscale>  0 0.85176088E+02</rscale>
<asrwt>0</asrwt>
<pdfrwt beam="2">  1        2 0.19641156E-01 0.85176088E+02</pdfrwt>
<pdfrwt beam="1">  1       -2 0.21856550E-02 0.85176088E+02</pdfrwt>
<totfact> 0.15937978E+05</totfact>
</mgrwt>
</event>
<event>
 5    1  0.3858870E+001  0.7461765E+02  0.7546771E-02  0.1345059E+00
          2   -1    0    0  501    0  0.00000000000E+00  0.00000000000E+00  0.13870352714E+02  0.13870352714E+02  0.00000000000E+00 0. -1.
         -2   -1    0    0    0  501 -0.00000000000E+00 -0.00000000000E+00 -0.10035422586E+03  0.10035422586E+03  0.00000000000E+00 0.  1.
         23    2    1    2    0    0  0.00000000000E+00  0.00000000000E+00 -0.86483873150E+02  0.11422457858E+03  0.74617652309E+02 0.  0.
          2    1    3    3  502    0  0.31237537827E+02  0.15273662270E+02 -0.63943400919E+02  0.72786173479E+02  0.00000000000E+00 0. -1.
         -2    1    3    3    0  502 -0.31237537827E+02 -0.15273662270E+02 -0.22540472231E+02  0.41438405098E+02  0.00000000000E+00 0.  1.
<mgrwt>
<rscale>  0 0.74617652E+02</rscale>
<asrwt>0</asrwt>
<pdfrwt beam="1">  1        2 0.21339004E-02 0.74617652E+02</pdfrwt>
<pdfrwt beam="2">  1       -2 0.15439112E-01 0.74617652E+02</pdfrwt>
<totfact> 0.13130270E+05</totfact>
</mgrwt>
</event>
<event>
 5    1  0.3858870E+001  0.9163938E+02  0.7546771E-02  0.1298930E+00
          2   -1    0    0  501    0  0.00000000000E+00  0.00000000000E+00  0.12941104005E+04  0.12941104005E+04  0.00000000000E+00 0. -1.
         -2   -1    0    0    0  501 -0.00000000000E+00 -0.00000000000E+00 -0.16223065659E+01  0.16223065659E+01  0.00000000000E+00 0.  1.
         23    2    1    2    0    0  0.00000000000E+00  0.00000000000E+00  0.12924880939E+04  0.12957327071E+04  0.91639375811E+02 0.  0.
          2    1    3    3  502    0 -0.52647135099E+00  0.29428000495E+02  0.11427710939E+04  0.11431500590E+04  0.00000000000E+00 0. -1.
         -2    1    3    3    0  502  0.52647135099E+00 -0.29428000495E+02  0.14971700001E+03  0.15258264802E+03  0.00000000000E+00 0.  1.
<mgrwt>
<rscale>  0 0.91639376E+02</rscale>
<asrwt>0</asrwt>
<pdfrwt beam="1">  1        2 0.19909308E+00 0.91639376E+02</pdfrwt>
<pdfrwt beam="2">  1       -2 0.24958666E-03 0.91639376E+02</pdfrwt>
<totfact> 0.24265319E+05</totfact>
</mgrwt>
</event>
<event>
 5    1  0.3858870E+001  0.9016276E+02  0.7546771E-02  0.1302458E+00
          3   -1    0    0  501    0  0.00000000000E+00  0.00000000000E+00  0.14775468765E+02  0.14775468765E+02  0.00000000000E+00 0. -1.
         -3   -1    0    0    0  501 -0.00000000000E+00 -0.00000000000E+00 -0.13754763299E+03  0.13754763299E+03  0.00000000000E+00 0.  1.
         23    2    1    2    0    0  0.00000000000E+00  0.00000000000E+00 -0.12277216423E+03  0.15232310176E+03  0.90162758499E+02 0.  0.
          2    1    3    3  502    0 -0.31260859152E+02 -0.12347041939E+01 -0.65496436279E+01  0.31963473544E+02  0.00000000000E+00 0. -1.
         -2    1    3    3    0  502  0.31260859152E+02  0.12347041939E+01 -0.11622252060E+03  0.12035962822E+03  0.00000000000E+00 0.  1.
<mgrwt>
<rscale>  0 0.90162758E+02</rscale>
<asrwt>0</asrwt>
<pdfrwt beam="1">  1        3 0.22731490E-02 0.90162758E+02</pdfrwt>
<pdfrwt beam="2">  1       -3 0.21161175E-01 0.90162758E+02</pdfrwt>
<totfact> 0.32122950E+04</totfact>
</mgrwt>
</event>
<event>
 5    1  0.3858870E+001  0.9099243E+02  0.7546771E-02  0.1300466E+00
         -2   -1    0    0    0  501 -0.00000000000E+00  0.00000000000E+00  0.13686355036E+01  0.13686355036E+01  0.00000000000E+00 0.  1.
          2   -1    0    0  501    0  0.00000000000E+00 -0.00000000000E+00 -0.15123861456E+04  0.15123861456E+04  0.00000000000E+00 0. -1.
         23    2    1    2    0    0  0.00000000000E+00  0.00000000000E+00 -0.15110175101E+04  0.15137547811E+04  0.90992425490E+02 0.  0.
          2    1    3    3  502    0 -0.39481733960E+02  0.20943728296E+02 -0.89711889913E+03  0.89823146586E+03  0.00000000000E+00 0. -1.
         -2    1    3    3    0  502  0.39481733960E+02 -0.20943728296E+02 -0.61389861099E+03  0.61552331527E+03  0.00000000000E+00 0.  1.
<mgrwt>
<rscale>  0 0.90992425E+02</rscale>
<asrwt>0</asrwt>
<pdfrwt beam="2">  1        2 0.23267458E+00 0.90992425E+02</pdfrwt>
<pdfrwt beam="1">  1       -2 0.21055950E-03 0.90992425E+02</pdfrwt>
<totfact> 0.23647807E+05</totfact>
</mgrwt>
</event>
<event>
 5    1  0.3858870E+001  0.9142886E+02  0.7546771E-02  0.1299428E+00
          1   -1    0    0  501    0  0.00000000000E+00  0.00000000000E+00  0.24135895639E+03  0.24135895639E+03  0.00000000000E+00 0. -1.
         -1   -1    0    0    0  501 -0.00000000000E+00 -0.00000000000E+00 -0.86585115524E+01  0.86585115524E+01  0.00000000000E+00 0.  1.
         23    2    1    2    0    0  0.00000000000E+00  0.00000000000E+00  0.23270044483E+03  0.25001746794E+03  0.91428864417E+02 0.  0.
          2    1    3    3  502    0  0.23417651816E+02  0.39105134394E+02  0.12590606611E+03  0.13390270884E+03  0.00000000000E+00 0. -1.
         -2    1    3    3    0  502 -0.23417651816E+02 -0.39105134394E+02  0.10679437873E+03  0.11611475910E+03  0.00000000000E+00 0.  1.
<mgrwt>
<rscale>  0 0.91428864E+02</rscale>
<asrwt>0</asrwt>
<pdfrwt beam="1">  1        1 0.37132142E-01 0.91428864E+02</pdfrwt>
<pdfrwt beam="2">  1       -1 0.13320789E-02 0.91428864E+02</pdfrwt>
<totfact> 0.12192135E+05</totfact>
</mgrwt>
</event>
<event>
 5    1  0.3858870E+001  0.9076097E+02  0.7546771E-02  0.1301019E+00
         -1   -1    0    0    0  501 -0.00000000000E+00  0.00000000000E+00  0.53928454620E+02  0.53928454620E+02  0.00000000000E+00 0.  1.
          1   -1    0    0  501    0  0.00000000000E+00 -0.00000000000E+00 -0.38187420600E+02  0.38187420600E+02  0.00000000000E+00 0. -1.
         23    2    1    2    0    0  0.00000000000E+00  0.00000000000E+00  0.15741034020E+02  0.92115875220E+02  0.90760973527E+02 0.  0.
          2    1    3    3  502    0  0.10738695256E+02  0.40391897963E+02 -0.10072874157E+02  0.42991717698E+02  0.00000000000E+00 0. -1.
         -2    1    3    3    0  502 -0.10738695256E+02 -0.40391897963E+02  0.25813908177E+02  0.49124157522E+02  0.00000000000E+00 0.  1.
<mgrwt>
<rscale>  0 0.90760974E+02</rscale>
<asrwt>0</asrwt>
<pdfrwt beam="2">  1        1 0.58749878E-02 0.90760974E+02</pdfrwt>
<pdfrwt beam="1">  1       -1 0.82966853E-02 0.90760974E+02</pdfrwt>
<totfact> 0.91197005E+04</totfact>
</mgrwt>
</event>
<event>
 5    1  0.3858870E+001  0.8997396E+02  0.7546771E-02  0.1302915E+00
         -1   -1    0    0    0  501 -0.00000000000E+00  0.00000000000E+00  0.91603454574E+02  0.91603454574E+02  0.00000000000E+00 0. -1.
          1   -1    0    0  501    0  0.00000000000E+00 -0.00000000000E+00 -0.22093361248E+02  0.22093361248E+02  0.00000000000E+00 0.  1.
         23    2    1    2    0    0  0.00000000000E+00  0.00000000000E+00  0.69510093326E+02  0.11369681582E+03  0.89973956532E+02 0.  0.
          2    1    3    3  502    0  0.20643810199E+02 -0.27741820225E+02  0.71118111361E+02  0.79079461635E+02  0.00000000000E+00 0. -1.
         -2    1    3    3    0  502 -0.20643810199E+02  0.27741820225E+02 -0.16080180348E+01  0.34617354187E+02  0.00000000000E+00 0.  1.
<mgrwt>
<rscale>  0 0.89973957E+02</rscale>
<asrwt>0</asrwt>
<pdfrwt beam="2">  1        1 0.33989787E-02 0.89973957E+02</pdfrwt>
<pdfrwt beam="1">  1       -1 0.14092839E-01 0.89973957E+02</pdfrwt>
<totfact> 0.85549015E+04</totfact>
</mgrwt>
</event>
<event>
 5    1  0.3858870E+001  0.9431791E+02  0.7546771E-02  0.1292720E+00
          2   -1    0    0  501    0  0.00000000000E+00  0.00000000000E+00  0.10322350131E+03  0.10322350131E+03  0.00000000000E+00 0. -1.
         -2   -1    0    0    0  501 -0.00000000000E+00 -0.00000000000E+00 -0.21545159889E+02  0.21545159889E+02  0.00000000000E+00 0.  1.
         23    2    1    2    0    0  0.00000000000E+00  0.00000000000E+00  0.81678341419E+02  0.12476866120E+03  0.94317905830E+02 0.  0.
          2    1    3    3  502    0  0.39194405755E+02 -0.26033436689E+02  0.36650599150E+02  0.59642331329E+02  0.00000000000E+00 0. -1.
         -2    1    3    3    0  502 -0.39194405755E+02  0.26033436689E+02  0.45027742269E+02  0.65126329869E+02  0.00000000000E+00 0.  1.
<mgrwt>
<rscale>  0 0.94317906E+02</rscale>
<asrwt>0</asrwt>
<pdfrwt beam="1">  1        2 0.15880538E-01 0.94317906E+02</pdfrwt>
<pdfrwt beam="2">  1       -2 0.33146400E-02 0.94317906E+02</pdfrwt>
<totfact> 0.11282232E+05</totfact>
</mgrwt>
</event>
<event>
 5    1  0.3858870E+001  0.9691251E+02  0.7546771E-02  0.1286926E+00
         -1   -1    0    0    0  501 -0.00000000000E+00  0.00000000000E+00  0.24918217874E+02  0.24918217874E+02  0.00000000000E+00 0. -1.
          1   -1    0    0  501    0  0.00000000000E+00 -0.00000000000E+00 -0.94228587452E+02  0.94228587452E+02  0.00000000000E+00 0.  1.
         23    2    1    2    0    0  0.00000000000E+00  0.00000000000E+00 -0.69310369578E+02  0.11914680533E+03  0.96912506356E+02 0.  0.
          2    1    3    3  502    0 -0.29760771263E+02 -0.28210748523E+02 -0.29164817524E+01  0.41110287085E+02  0.00000000000E+00 0. -1.
         -2    1    3    3    0  502  0.29760771263E+02  0.28210748523E+02 -0.66393887826E+02  0.78036518240E+02  0.00000000000E+00 0.  1.
<mgrwt>
<rscale>  0 0.96912506E+02</rscale>
<asrwt>0</asrwt>
<pdfrwt beam="2">  1        1 0.14496706E-01 0.96912506E+02</pdfrwt>
<pdfrwt beam="1">  1       -1 0.38335720E-02 0.96912506E+02</pdfrwt>
<totfact> 0.87488684E+04</totfact>
</mgrwt>
</event>
<event>
 5    1  0.3858870E+001  0.9702851E+02  0.7546771E-02  0.1286672E+00
          2   -1    0    0  501    0  0.00000000000E+00  0.00000000000E+00  0.19633556757E+02  0.19633556757E+02  0.00000000000E+00 0. -1.
         -2   -1    0    0    0  501 -0.00000000000E+00 -0.00000000000E+00 -0.11987806603E+03  0.11987806603E+03  0.00000000000E+00 0.  1.
         23    2    1    2    0    0  0.00000000000E+00  0.00000000000E+00 -0.10024450927E+03  0.13951162278E+03  0.97028507424E+02 0.  0.
          2    1    3    3  502    0 -0.23629722954E+02 -0.20456623620E+02  0.32291388796E+01  0.31420766934E+02  0.00000000000E+00 0. -1.
         -2    1    3    3    0  502  0.23629722954E+02  0.20456623620E+02 -0.10347364815E+03  0.10809085585E+03  0.00000000000E+00 0.  1.
<mgrwt>
<rscale>  0 0.97028507E+02</rscale>
<asrwt>0</asrwt>
<pdfrwt beam="1">  1        2 0.30205473E-02 0.97028507E+02</pdfrwt>
<pdfrwt beam="2">  1       -2 0.18442779E-01 0.97028507E+02</pdfrwt>
<totfact> 0.64533087E+04</totfact>
</mgrwt>
</event>
<event>
 5    1  0.3858870E+001  0.9863926E+02  0.7546771E-02  0.1283184E+00
          2   -1    0    0  501    0  0.00000000000E+00  0.00000000000E+00  0.60664401226E+01  0.60664401226E+01  0.00000000000E+00 0. -1.
         -2   -1    0    0    0  501 -0.00000000000E+00 -0.00000000000E+00 -0.40096426071E+03  0.40096426071E+03  0.00000000000E+00 0.  1.
         23    2    1    2    0    0  0.00000000000E+00  0.00000000000E+00 -0.39489782059E+03  0.40703070084E+03  0.98639255450E+02 0.  0.
          2    1    3    3  502    0  0.34725960686E+02  0.25609851256E+02 -0.29602451880E+03  0.29915259075E+03  0.00000000000E+00 0. -1.
         -2    1    3    3    0  502 -0.34725960686E+02 -0.25609851256E+02 -0.98873301795E+02  0.10787811008E+03  0.00000000000E+00 0.  1.
<mgrwt>
<rscale>  0 0.98639255E+02</rscale>
<asrwt>0</asrwt>
<pdfrwt beam="1">  1        2 0.93329830E-03 0.98639255E+02</pdfrwt>
<pdfrwt beam="2">  1       -2 0.61686821E-01 0.98639255E+02</pdfrwt>
<totfact> 0.34761176E+04</totfact>
</mgrwt>
</event>
<event>
 5    1  0.3858870E+001  0.9020263E+02  0.7546771E-02  0.1302362E+00
         -2   -1    0    0    0  501 -0.00000000000E+00  0.00000000000E+00  0.69358126865E+01  0.69358126865E+01  0.00000000000E+00 0.  1.
          2   -1    0    0  501    0  0.00000000000E+00 -0.00000000000E+00 -0.29327904691E+03  0.29327904691E+03  0.00000000000E+00 0. -1.
         23    2    1    2    0    0  0.00000000000E+00  0.00000000000E+00 -0.28634323422E+03  0.30021485960E+03  0.90202628215E+02 0.  0.
          2    1    3    3  502    0 -0.23808920528E+01 -0.29672202069E+02 -0.25594011067E+03  0.25766538081E+03  0.00000000000E+00 0. -1.
         -2    1    3    3    0  502  0.23808920528E+01  0.29672202069E+02 -0.30403123558E+02  0.42549478783E+02  0.00000000000E+00 0.  1.
<mgrwt>
<rscale>  0 0.90202628E+02</rscale>
<asrwt>0</asrwt>
<pdfrwt beam="2">  1        2 0.45119850E-01 0.90202628E+02</pdfrwt>
<pdfrwt beam="1">  1       -2 0.10670482E-02 0.90202628E+02</pdfrwt>
<totfact> 0.18332660E+05</totfact>
</mgrwt>
</event>
<event>
 5    1  0.3858870E+001  0.7920496E+02  0.7546771E-02  0.1331323E+00
         -1   -1    0    0    0  501 -0.00000000000E+00  0.00000000000E+00  0.79988226078E+01  0.79988226078E+01  0.00000000000E+00 0.  1.
          1   -1    0    0  501    0  0.00000000000E+00 -0.00000000000E+00 -0.19607342625E+03  0.19607342625E+03  0.00000000000E+00 0. -1.
         23    2    1    2    0    0  0.00000000000E+00  0.00000000000E+00 -0.18807460365E+03  0.20407224886E+03  0.79204963347E+02 0.  0.
          2    1    3    3  502    0  0.38297293646E+01  0.23718740303E+02 -0.17515072314E+03  0.17679089707E+03  0.00000000000E+00 0. -1.
         -2    1    3    3    0  502 -0.38297293646E+01 -0.23718740303E+02 -0.12923880507E+02  0.27281351798E+02  0.00000000000E+00 0.  1.
<mgrwt>
<rscale>  0 0.79204963E+02</rscale>
<asrwt>0</asrwt>
<pdfrwt beam="2">  1        1 0.30165140E-01 0.79204963E+02</pdfrwt>
<pdfrwt beam="1">  1       -1 0.12305882E-02 0.79204963E+02</pdfrwt>
<totfact> 0.17154320E+05</totfact>
</mgrwt>
</event>
<event>
 5    1  0.3858870E+001  0.9095376E+02  0.7546771E-02  0.1300558E+00
          2   -1    0    0  501    0  0.00000000000E+00  0.00000000000E+00  0.90773054061E+03  0.90773054061E+03  0.00000000000E+00 0. -1.
         -2   -1    0    0    0  501 -0.00000000000E+00 -0.00000000000E+00 -0.22783708444E+01  0.22783708444E+01  0.00000000000E+00 0.  1.
         23    2    1    2    0    0  0.00000000000E+00  0.00000000000E+00  0.90545216977E+03  0.91000891146E+03  0.90953764041E+02 0.  0.
          2    1    3    3  502    0 -0.38118355020E+02  0.19997253166E+02  0.59951531845E+03  0.60105866284E+03  0.00000000000E+00 0. -1.
         -2    1    3    3    0  502  0.38118355020E+02 -0.19997253166E+02  0.30593685132E+03  0.30895024862E+03  0.00000000000E+00 0.  1.
<mgrwt>
<rscale>  0 0.90953764E+02</rscale>
<asrwt>0</asrwt>
<pdfrwt beam="1">  1        2 0.13965056E+00 0.90953764E+02</pdfrwt>
<pdfrwt beam="2">  1       -2 0.35051932E-03 0.90953764E+02</pdfrwt>
<totfact> 0.24978076E+05</totfact>
</mgrwt>
</event>
<event>
 5    1  0.3858870E+001  0.8994540E+02  0.7546771E-02  0.1302984E+00
          3   -1    0    0  501    0  0.00000000000E+00  0.00000000000E+00  0.12653340147E+03  0.12653340147E+03  0.00000000000E+00 0. -1.
         -3   -1    0    0    0  501 -0.00000000000E+00 -0.00000000000E+00 -0.15984267433E+02  0.15984267433E+02  0.00000000000E+00 0.  1.
         23    2    1    2    0    0  0.00000000000E+00  0.00000000000E+00  0.11054913404E+03  0.14251766890E+03  0.89945399621E+02 0.  0.
          2    1    3    3  502    0 -0.28697179842E+02 -0.34067786043E+02  0.45455637563E+02  0.63642416383E+02  0.00000000000E+00 0.  1.
         -2    1    3    3    0  502  0.28697179842E+02  0.34067786043E+02  0.65093496474E+02  0.78875252519E+02  0.00000000000E+00 0. -1.
<mgrwt>
<rscale>  0 0.89945400E+02</rscale>
<asrwt>0</asrwt>
<pdfrwt beam="1">  1        3 0.19466677E-01 0.89945400E+02</pdfrwt>
<pdfrwt beam="2">  1       -3 0.24591181E-02 0.89945400E+02</pdfrwt>
<totfact> 0.32961017E+04</totfact>
</mgrwt>
</event>
<event>
 5    1  0.3858870E+001  0.9411313E+02  0.7546771E-02  0.1293186E+00
          1   -1    0    0  501    0  0.00000000000E+00  0.00000000000E+00  0.52404282225E+01  0.52404282225E+01  0.00000000000E+00 0. -1.
         -1   -1    0    0    0  501 -0.00000000000E+00 -0.00000000000E+00 -0.42254566901E+03  0.42254566901E+03  0.00000000000E+00 0.  1.
         23    2    1    2    0    0  0.00000000000E+00  0.00000000000E+00 -0.41730524079E+03  0.42778609723E+03  0.94113128716E+02 0.  0.
          2    1    3    3  502    0 -0.99976491962E+01 -0.41954523944E+02 -0.29419703281E+03  0.29734160352E+03  0.00000000000E+00 0. -1.
         -2    1    3    3    0  502  0.99976491962E+01  0.41954523944E+02 -0.12310820798E+03  0.13044449371E+03  0.00000000000E+00 0.  1.
<mgrwt>
<rscale>  0 0.94113129E+02</rscale>
<asrwt>0</asrwt>
<pdfrwt beam="1">  1        1 0.80621957E-03 0.94113129E+02</pdfrwt>
<pdfrwt beam="2">  1       -1 0.65007039E-01 0.94113129E+02</pdfrwt>
<totfact> 0.47663105E+04</totfact>
</mgrwt>
</event>
<event>
 5    1  0.3858870E+001  0.9066126E+02  0.7546771E-02  0.1301258E+00
         -2   -1    0    0    0  501 -0.00000000000E+00  0.00000000000E+00  0.17775105291E+01  0.17775105291E+01  0.00000000000E+00 0. -1.
          2   -1    0    0  501    0  0.00000000000E+00 -0.00000000000E+00 -0.11560360438E+04  0.11560360438E+04  0.00000000000E+00 0.  1.
         23    2    1    2    0    0  0.00000000000E+00  0.00000000000E+00 -0.11542585333E+04  0.11578135544E+04  0.90661264936E+02 0.  0.
          2    1    3    3  502    0  0.12704862407E+02 -0.26633351423E+02 -0.10165840733E+04  0.10170122551E+04  0.00000000000E+00 0. -1.
         -2    1    3    3    0  502 -0.12704862407E+02  0.26633351423E+02 -0.13767446006E+03  0.14080129932E+03  0.00000000000E+00 0.  1.
<mgrwt>
<rscale>  0 0.90661265E+02</rscale>
<asrwt>0</asrwt>
<pdfrwt beam="2">  1        2 0.17785192E+00 0.90661265E+02</pdfrwt>
<pdfrwt beam="1">  1       -2 0.27346282E-03 0.90661265E+02</pdfrwt>
<totfact> 0.25329274E+05</totfact>
</mgrwt>
</event>
<event>
 5    1  0.3858870E+001  0.9263650E+02  0.7546771E-02  0.1296590E+00
          1   -1    0    0  501    0  0.00000000000E+00  0.00000000000E+00  0.10417487994E+04  0.10417487994E+04  0.00000000000E+00 0. -1.
         -1   -1    0    0    0  501 -0.00000000000E+00 -0.00000000000E+00 -0.20594028510E+01  0.20594028510E+01  0.00000000000E+00 0.  1.
         23    2    1    2    0    0  0.00000000000E+00  0.00000000000E+00  0.10396893965E+04  0.10438082022E+04  0.92636503550E+02 0.  0.
          2    1    3    3  502    0 -0.43398579318E+02  0.12330151586E+02  0.63797447204E+03  0.63956774176E+03  0.00000000000E+00 0. -1.
         -2    1    3    3    0  502  0.43398579318E+02 -0.12330151586E+02  0.40171492449E+03  0.40424046048E+03  0.00000000000E+00 0.  1.
<mgrwt>
<rscale>  0 0.92636504E+02</rscale>
<asrwt>0</asrwt>
<pdfrwt beam="1">  1        1 0.16026862E+00 0.92636504E+02</pdfrwt>
<pdfrwt beam="2">  1       -1 0.31683204E-03 0.92636504E+02</pdfrwt>
<totfact> 0.12890211E+05</totfact>
</mgrwt>
</event>
<event>
 5    1  0.3858870E+001  0.8960815E+02  0.7546771E-02  0.1303803E+00
          2   -1    0    0  501    0  0.00000000000E+00  0.00000000000E+00  0.51050029749E+03  0.51050029749E+03  0.00000000000E+00 0. -1.
         -2   -1    0    0    0  501 -0.00000000000E+00 -0.00000000000E+00 -0.39322311538E+01  0.39322311538E+01  0.00000000000E+00 0.  1.
         23    2    1    2    0    0  0.00000000000E+00  0.00000000000E+00  0.50656806633E+03  0.51443252864E+03  0.89608150830E+02 0.  0.
          2    1    3    3  502    0 -0.53693624808E+01 -0.43410161835E+02  0.30898359608E+03  0.31206431204E+03  0.00000000000E+00 0. -1.
         -2    1    3    3    0  502  0.53693624808E+01  0.43410161835E+02  0.19758447026E+03  0.20236821660E+03  0.00000000000E+00 0.  1.
<mgrwt>
<rscale>  0 0.89608151E+02</rscale>
<asrwt>0</asrwt>
<pdfrwt beam="1">  1        2 0.78538455E-01 0.89608151E+02</pdfrwt>
<pdfrwt beam="2">  1       -2 0.60495904E-03 0.89608151E+02</pdfrwt>
<totfact> 0.22712933E+05</totfact>
</mgrwt>
</event>
<event>
 5    1  0.3858870E+001  0.9025450E+02  0.7546771E-02  0.1302237E+00
         -2   -1    0    0    0  501 -0.00000000000E+00  0.00000000000E+00  0.73157962810E+00  0.73157962810E+00  0.00000000000E+00 0. -1.
          2   -1    0    0  501    0  0.00000000000E+00 -0.00000000000E+00 -0.27836597512E+04  0.27836597512E+04  0.00000000000E+00 0.  1.
         23    2    1    2    0    0  0.00000000000E+00  0.00000000000E+00 -0.27829281716E+04  0.27843913308E+04  0.90254501617E+02 0.  0.
          2    1    3    3  502    0 -0.10802595824E+02 -0.42873426257E+02 -0.11127119237E+04  0.11135899838E+04  0.00000000000E+00 0. -1.
         -2    1    3    3    0  502  0.10802595824E+02  0.42873426257E+02 -0.16702162479E+04  0.16708013471E+04  0.00000000000E+00 0.  1.
<mgrwt>
<rscale>  0 0.90254502E+02</rscale>
<asrwt>0</asrwt>
<pdfrwt beam="2">  1        2 0.42825698E+00 0.90254502E+02</pdfrwt>
<pdfrwt beam="1">  1       -2 0.11255028E-03 0.90254502E+02</pdfrwt>
<totfact> 0.12473504E+05</totfact>
</mgrwt>
</event>
<event>
 5    1  0.3858870E+001  0.8812166E+02  0.7546771E-02  0.1307465E+00
         -1   -1    0    0    0  501 -0.00000000000E+00  0.00000000000E+00  0.12067150833E+03  0.12067150833E+03  0.00000000000E+00 0.  1.
          1   -1    0    0  501    0  0.00000000000E+00 -0.00000000000E+00 -0.16087946058E+02  0.16087946058E+02  0.00000000000E+00 0. -1.
         23    2    1    2    0    0  0.00000000000E+00  0.00000000000E+00  0.10458356227E+03  0.13675945439E+03  0.88121659466E+02 0.  0.
          2    1    3    3  502    0 -0.95474360956E+01  0.25282481355E+02 -0.17147945685E+01  0.27079474144E+02  0.00000000000E+00 0. -1.
         -2    1    3    3    0  502  0.95474360956E+01 -0.25282481355E+02  0.10629835684E+03  0.10967998025E+03  0.00000000000E+00 0.  1.
<mgrwt>
<rscale>  0 0.88121659E+02</rscale>
<asrwt>0</asrwt>
<pdfrwt beam="2">  1        1 0.24750687E-02 0.88121659E+02</pdfrwt>
<pdfrwt beam="1">  1       -1 0.18564847E-01 0.88121659E+02</pdfrwt>
<totfact> 0.85655144E+04</totfact>
</mgrwt>
</event>
<event>
 5    1  0.3858870E+001  0.8732659E+02  0.7546771E-02  0.1309458E+00
         -3   -1    0    0    0  501 -0.00000000000E+00  0.00000000000E+00  0.62017847759E+01  0.62017847759E+01  0.00000000000E+00 0.  1.
          3   -1    0    0  501    0  0.00000000000E+00 -0.00000000000E+00 -0.30740885314E+03  0.30740885314E+03  0.00000000000E+00 0. -1.
         23    2    1    2    0    0  0.00000000000E+00  0.00000000000E+00 -0.30120706837E+03  0.31361063792E+03  0.87326594928E+02 0.  0.
          2    1    3    3  502    0 -0.25481959625E+01  0.32846046224E+02 -0.25351163316E+03  0.25564331441E+03  0.00000000000E+00 0. -1.
         -2    1    3    3    0  502  0.25481959625E+01 -0.32846046224E+02 -0.47695435208E+02  0.57967323509E+02  0.00000000000E+00 0.  1.
<mgrwt>
<rscale>  0 0.87326595E+02</rscale>
<asrwt>0</asrwt>
<pdfrwt beam="2">  1        3 0.47293669E-01 0.87326595E+02</pdfrwt>
<pdfrwt beam="1">  1       -3 0.95412075E-03 0.87326595E+02</pdfrwt>
<totfact> 0.26388077E+04</totfact>
</mgrwt>
</event>
<event>
 5    1  0.3858870E+001  0.9428476E+02  0.7546771E-02  0.1292795E+00
          3   -1    0    0  501    0  0.00000000000E+00  0.00000000000E+00  0.30844551515E+03  0.30844551515E+03  0.00000000000E+00 0. -1.
         -3   -1    0    0    0  501 -0.00000000000E+00 -0.00000000000E+00 -0.72051758277E+01  0.72051758277E+01  0.00000000000E+00 0.  1.
         23    2    1    2    0    0  0.00000000000E+00  0.00000000000E+00  0.30124033932E+03  0.31565069098E+03  0.94284763773E+02 0.  0.
          2    1    3    3  502    0  0.37334639820E+02  0.28220447446E+02  0.13164194287E+03  0.13971352872E+03  0.00000000000E+00 0. -1.
         -2    1    3    3    0  502 -0.37334639820E+02 -0.28220447446E+02  0.16959839645E+03  0.17593716226E+03  0.00000000000E+00 0.  1.
<mgrwt>
<rscale>  0 0.94284764E+02</rscale>
<asrwt>0</asrwt>
<pdfrwt beam="1">  1        3 0.47453146E-01 0.94284764E+02</pdfrwt>
<pdfrwt beam="2">  1       -3 0.11084888E-02 0.94284764E+02</pdfrwt>
<totfact> 0.21416704E+04</totfact>
</mgrwt>
</event>
<event>
 5    1  0.3858870E+001  0.8195056E+02  0.7546771E-02  0.1323605E+00
         -1   -1    0    0    0  501 -0.00000000000E+00  0.00000000000E+00  0.10090934388E+04  0.10090934388E+04  0.00000000000E+00 0.  1.
          1   -1    0    0  501    0  0.00000000000E+00 -0.00000000000E+00 -0.16638436961E+01  0.16638436961E+01  0.00000000000E+00 0. -1.
         23    2    1    2    0    0  0.00000000000E+00  0.00000000000E+00  0.10074295951E+04  0.10107572825E+04  0.81950564537E+02 0.  0.
          2    1    3    3  502    0 -0.11162545329E+02  0.32334971865E+02  0.22550180062E+03  0.22808159703E+03  0.00000000000E+00 0. -1.
         -2    1    3    3    0  502  0.11162545329E+02 -0.32334971865E+02  0.78192779452E+03  0.78267568550E+03  0.00000000000E+00 0.  1.
<mgrwt>
<rscale>  0 0.81950565E+02</rscale>
<asrwt>0</asrwt>
<pdfrwt beam="2">  1        1 0.25597676E-03 0.81950565E+02</pdfrwt>
<pdfrwt beam="1">  1       -1 0.15524466E+00 0.81950565E+02</pdfrwt>
<totfact> 0.33543052E+04</totfact>
</mgrwt>
</event>
<event>
 5    1  0.3858870E+001  0.8861226E+02  0.7546771E-02  0.1306248E+00
         -2   -1    0    0    0  501 -0.00000000000E+00  0.00000000000E+00  0.93952257682E+02  0.93952257682E+02  0.00000000000E+00 0.  1.
          2   -1    0    0  501    0  0.00000000000E+00 -0.00000000000E+00 -0.20893943184E+02  0.20893943184E+02  0.00000000000E+00 0. -1.
         23    2    1    2    0    0  0.00000000000E+00  0.00000000000E+00  0.73058314498E+02  0.11484620087E+03  0.88612259513E+02 0.  0.
          2    1    3    3  502    0 -0.30769055707E+02  0.67010415788E+01 -0.38651921123E+01  0.31726620642E+02  0.00000000000E+00 0. -1.
         -2    1    3    3    0  502  0.30769055707E+02 -0.67010415788E+01  0.76923506610E+02  0.83119580223E+02  0.00000000000E+00 0.  1.
<mgrwt>
<rscale>  0 0.88612260E+02</rscale>
<asrwt>0</asrwt>
<pdfrwt beam="2">  1        2 0.32144528E-02 0.88612260E+02</pdfrwt>
<pdfrwt beam="1">  1       -2 0.14454193E-01 0.88612260E+02</pdfrwt>
<totfact> 0.87244561E+04</totfact>
</mgrwt>
</event>
<event>
 5    1  0.3858870E+001  0.9192216E+02  0.7546771E-02  0.1298263E+00
         -4   -1    0    0    0  501 -0.00000000000E+00  0.00000000000E+00  0.17104268185E+03  0.17104268185E+03  0.00000000000E+00 0. -1.
          4   -1    0    0  501    0  0.00000000000E+00 -0.00000000000E+00 -0.12350256331E+02  0.12350256331E+02  0.00000000000E+00 0.  1.
         23    2    1    2    0    0  0.00000000000E+00  0.00000000000E+00  0.15869242552E+03  0.18339293818E+03  0.91922161950E+02 0.  0.
          2    1    3    3  502    0 -0.39223077934E+02 -0.30043751115E+01  0.12676663385E+03  0.13273001005E+03  0.00000000000E+00 0. -1.
         -2    1    3    3    0  502  0.39223077934E+02  0.30043751115E+01  0.31925791675E+02  0.50662928129E+02  0.00000000000E+00 0.  1.
<mgrwt>
<rscale>  0 0.91922162E+02</rscale>
<asrwt>0</asrwt>
<pdfrwt beam="2">  1        4 0.19000396E-02 0.91922162E+02</pdfrwt>
<pdfrwt beam="1">  1       -4 0.26314257E-01 0.91922162E+02</pdfrwt>
<totfact> 0.21621993E+04</totfact>
</mgrwt>
</event>
<event>
 5    1  0.3858870E+001  0.9007184E+02  0.7546771E-02  0.1302678E+00
         -1   -1    0    0    0  501 -0.00000000000E+00  0.00000000000E+00  0.24911403913E+03  0.24911403913E+03  0.00000000000E+00 0.  1.
          1   -1    0    0  501    0  0.00000000000E+00 -0.00000000000E+00 -0.81417887194E+01  0.81417887194E+01  0.00000000000E+00 0. -1.
         23    2    1    2    0    0  0.00000000000E+00  0.00000000000E+00  0.24097225041E+03  0.25725582785E+03  0.90071835189E+02 0.  0.
          2    1    3    3  502    0 -0.21156451391E+02 -0.31904853606E+02  0.52734158658E+02  0.65164458169E+02  0.00000000000E+00 0. -1.
         -2    1    3    3    0  502  0.21156451391E+02  0.31904853606E+02  0.18823809175E+03  0.19209136968E+03  0.00000000000E+00 0.  1.
<mgrwt>
<rscale>  0 0.90071835E+02</rscale>
<asrwt>0</asrwt>
<pdfrwt beam="2">  1        1 0.12525831E-02 0.90071835E+02</pdfrwt>
<pdfrwt beam="1">  1       -1 0.38325231E-01 0.90071835E+02</pdfrwt>
<totfact> 0.66938491E+04</totfact>
</mgrwt>
</event>
<event>
 5    1  0.3858870E+001  0.9288655E+02  0.7546771E-02  0.1296008E+00
          2   -1    0    0  501    0  0.00000000000E+00  0.00000000000E+00  0.24475965868E+02  0.24475965868E+02  0.00000000000E+00 0. -1.
         -2   -1    0    0    0  501 -0.00000000000E+00 -0.00000000000E+00 -0.88126364599E+02  0.88126364599E+02  0.00000000000E+00 0.  1.
         23    2    1    2    0    0  0.00000000000E+00  0.00000000000E+00 -0.63650398731E+02  0.11260233047E+03  0.92886552137E+02 0.  0.
          2    1    3    3  502    0  0.12708713657E+02  0.24016405822E+02  0.13834869981E+02  0.30491027841E+02  0.00000000000E+00 0. -1.
         -2    1    3    3    0  502 -0.12708713657E+02 -0.24016405822E+02 -0.77485268712E+02  0.82111302625E+02  0.00000000000E+00 0.  1.
<mgrwt>
<rscale>  0 0.92886552E+02</rscale>
<asrwt>0</asrwt>
<pdfrwt beam="1">  1        2 0.37655333E-02 0.92886552E+02</pdfrwt>
<pdfrwt beam="2">  1       -2 0.13557902E-01 0.92886552E+02</pdfrwt>
<totfact> 0.79083174E+04</totfact>
</mgrwt>
</event>
<event>
 5    1  0.3858870E+001  0.9409207E+02  0.7546771E-02  0.1293234E+00
          2   -1    0    0  501    0  0.00000000000E+00  0.00000000000E+00  0.30392565146E+02  0.30392565146E+02  0.00000000000E+00 0. -1.
         -2   -1    0    0    0  501 -0.00000000000E+00 -0.00000000000E+00 -0.72824697613E+02  0.72824697613E+02  0.00000000000E+00 0.  1.
         23    2    1    2    0    0  0.00000000000E+00  0.00000000000E+00 -0.42432132467E+02  0.10321726276E+03  0.94092069090E+02 0.  0.
          2    1    3    3  502    0  0.61167589782E+01  0.20624907727E+02 -0.67113016200E+02  0.70476652181E+02  0.00000000000E+00 0.  1.
         -2    1    3    3    0  502 -0.61167589782E+01 -0.20624907727E+02  0.24680883733E+02  0.32740610577E+02  0.00000000000E+00 0. -1.
<mgrwt>
<rscale>  0 0.94092069E+02</rscale>
<asrwt>0</asrwt>
<pdfrwt beam="1">  1        2 0.46757793E-02 0.94092069E+02</pdfrwt>
<pdfrwt beam="2">  1       -2 0.11203800E-01 0.94092069E+02</pdfrwt>
<totfact> 0.80829721E+04</totfact>
</mgrwt>
</event>
<event>
 5    1  0.3858870E+001  0.9241971E+02  0.7546771E-02  0.1297096E+00
         -1   -1    0    0    0  501 -0.00000000000E+00  0.00000000000E+00  0.54058335341E+03  0.54058335341E+03  0.00000000000E+00 0.  1.
          1   -1    0    0  501    0  0.00000000000E+00 -0.00000000000E+00 -0.39500855835E+01  0.39500855835E+01  0.00000000000E+00 0. -1.
         23    2    1    2    0    0  0.00000000000E+00  0.00000000000E+00  0.53663326783E+03  0.54453343899E+03  0.92419705928E+02 0.  0.
          2    1    3    3  502    0 -0.21500354045E+02 -0.61010528718E+01  0.30011519791E+02  0.37418970996E+02  0.00000000000E+00 0. -1.
         -2    1    3    3    0  502  0.21500354045E+02  0.61010528718E+01  0.50662174804E+03  0.50711446800E+03  0.00000000000E+00 0.  1.
<mgrwt>
<rscale>  0 0.92419706E+02</rscale>
<asrwt>0</asrwt>
<pdfrwt beam="2">  1        1 0.60770590E-03 0.92419706E+02</pdfrwt>
<pdfrwt beam="1">  1       -1 0.83166611E-01 0.92419706E+02</pdfrwt>
<totfact> 0.43188821E+04</totfact>
</mgrwt>
</event>
<event>
 5    1  0.3858870E+001  0.9093216E+02  0.7546771E-02  0.1300610E+00
          3   -1    0    0  501    0  0.00000000000E+00  0.00000000000E+00  0.13829472958E+01  0.13829472958E+01  0.00000000000E+00 0. -1.
         -3   -1    0    0    0  501 -0.00000000000E+00 -0.00000000000E+00 -0.14947527141E+04  0.14947527141E+04  0.00000000000E+00 0.  1.
         23    2    1    2    0    0  0.00000000000E+00  0.00000000000E+00 -0.14933697668E+04  0.14961356614E+04  0.90932155452E+02 0.  0.
          2    1    3    3  502    0 -0.33638991811E+02 -0.30461997917E+02 -0.70117982266E+03  0.70264689481E+03  0.00000000000E+00 0. -1.
         -2    1    3    3    0  502  0.33638991811E+02  0.30461997917E+02 -0.79218994411E+03  0.79348876655E+03  0.00000000000E+00 0.  1.
<mgrwt>
<rscale>  0 0.90932155E+02</rscale>
<asrwt>0</asrwt>
<pdfrwt beam="1">  1        3 0.21275984E-03 0.90932155E+02</pdfrwt>
<pdfrwt beam="2">  1       -3 0.22996335E+00 0.90932155E+02</pdfrwt>
<totfact> 0.61296889E+03</totfact>
</mgrwt>
</event>
<event>
 5    1  0.3858870E+001  0.9102138E+02  0.7546771E-02  0.1300397E+00
          2   -1    0    0  501    0  0.00000000000E+00  0.00000000000E+00  0.13165776349E+02  0.13165776349E+02  0.00000000000E+00 0. -1.
         -2   -1    0    0    0  501 -0.00000000000E+00 -0.00000000000E+00 -0.15731871848E+03  0.15731871848E+03  0.00000000000E+00 0.  1.
         23    2    1    2    0    0  0.00000000000E+00  0.00000000000E+00 -0.14415294213E+03  0.17048449482E+03  0.91021383487E+02 0.  0.
          2    1    3    3  502    0 -0.34966359654E+01  0.45328908855E+02 -0.75954392840E+02  0.88521219110E+02  0.00000000000E+00 0. -1.
         -2    1    3    3    0  502  0.34966359654E+01 -0.45328908855E+02 -0.68198549286E+02  0.81963275714E+02  0.00000000000E+00 0.  1.
<mgrwt>
<rscale>  0 0.91021383E+02</rscale>
<asrwt>0</asrwt>
<pdfrwt beam="1">  1        2 0.20255039E-02 0.91021383E+02</pdfrwt>
<pdfrwt beam="2">  1       -2 0.24202881E-01 0.91021383E+02</pdfrwt>
<totfact> 0.68937408E+04</totfact>
</mgrwt>
</event>
<event>
 5    1  0.3858870E+001  0.8867195E+02  0.7546771E-02  0.1306100E+00
          1   -1    0    0  501    0  0.00000000000E+00  0.00000000000E+00  0.42620330418E+03  0.42620330418E+03  0.00000000000E+00 0. -1.
         -1   -1    0    0    0  501 -0.00000000000E+00 -0.00000000000E+00 -0.46120676431E+01  0.46120676431E+01  0.00000000000E+00 0.  1.
         23    2    1    2    0    0  0.00000000000E+00  0.00000000000E+00  0.42159123653E+03  0.43081537182E+03  0.88671945249E+02 0.  0.
          2    1    3    3  502    0 -0.16130278538E+02  0.24107459839E+02  0.37370665043E+03  0.37483064987E+03  0.00000000000E+00 0. -1.
         -2    1    3    3    0  502  0.16130278538E+02 -0.24107459839E+02  0.47884586105E+02  0.55984721952E+02  0.00000000000E+00 0.  1.
<mgrwt>
<rscale>  0 0.88671945E+02</rscale>
<asrwt>0</asrwt>
<pdfrwt beam="1">  1        1 0.65569708E-01 0.88671945E+02</pdfrwt>
<pdfrwt beam="2">  1       -1 0.70954921E-03 0.88671945E+02</pdfrwt>
<totfact> 0.14669143E+05</totfact>
</mgrwt>
</event>
<event>
 5    1  0.3858870E+001  0.9284098E+02  0.7546771E-02  0.1296114E+00
          2   -1    0    0  501    0  0.00000000000E+00  0.00000000000E+00  0.94406765578E+01  0.94406765578E+01  0.00000000000E+00 0. -1.
         -2   -1    0    0    0  501 -0.00000000000E+00 -0.00000000000E+00 -0.22825290367E+03  0.22825290367E+03  0.00000000000E+00 0.  1.
         23    2    1    2    0    0  0.00000000000E+00  0.00000000000E+00 -0.21881222711E+03  0.23769358023E+03  0.92840978818E+02 0.  0.
          2    1    3    3  502    0 -0.27711002620E+00 -0.42740324164E+02 -0.63034993201E+02  0.76159191615E+02  0.00000000000E+00 0.  1.
         -2    1    3    3    0  502  0.27711002620E+00  0.42740324164E+02 -0.15577723391E+03  0.16153438862E+03  0.00000000000E+00 0. -1.
<mgrwt>
<rscale>  0 0.92840979E+02</rscale>
<asrwt>0</asrwt>
<pdfrwt beam="1">  1        2 0.14524119E-02 0.92840979E+02</pdfrwt>
<pdfrwt beam="2">  1       -2 0.35115827E-01 0.92840979E+02</pdfrwt>
<totfact> 0.56049208E+04</totfact>
</mgrwt>
</event>
<event>
 5    1  0.3858870E+001  0.9344468E+02  0.7546771E-02  0.1294718E+00
          2   -1    0    0  501    0  0.00000000000E+00  0.00000000000E+00  0.53860206042E+03  0.53860206042E+03  0.00000000000E+00 0. -1.
         -2   -1    0    0    0  501 -0.00000000000E+00 -0.00000000000E+00 -0.40530421384E+01  0.40530421384E+01  0.00000000000E+00 0.  1.
         23    2    1    2    0    0  0.00000000000E+00  0.00000000000E+00  0.53454901828E+03  0.54265510256E+03  0.93444675540E+02 0.  0.
          2    1    3    3  502    0 -0.36587272283E+02 -0.27230522156E+02  0.32616771284E+03  0.32934101890E+03  0.00000000000E+00 0. -1.
         -2    1    3    3    0  502  0.36587272283E+02  0.27230522156E+02  0.20838130544E+03  0.21331408366E+03  0.00000000000E+00 0.  1.
<mgrwt>
<rscale>  0 0.93444676E+02</rscale>
<asrwt>0</asrwt>
<pdfrwt beam="1">  1        2 0.82861799E-01 0.93444676E+02</pdfrwt>
<pdfrwt beam="2">  1       -2 0.62354537E-03 0.93444676E+02</pdfrwt>
<totfact> 0.20674548E+05</totfact>
</mgrwt>
</event>
<event>
 5    1  0.3858870E+001  0.8564036E+02  0.7546771E-02  0.1313766E+00
         -4   -1    0    0    0  501 -0.00000000000E+00  0.00000000000E+00  0.52209574095E+02  0.52209574095E+02  0.00000000000E+00 0.  1.
          4   -1    0    0  501    0  0.00000000000E+00 -0.00000000000E+00 -0.35119381671E+02  0.35119381671E+02  0.00000000000E+00 0. -1.
         23    2    1    2    0    0  0.00000000000E+00  0.00000000000E+00  0.17090192425E+02  0.87328955766E+02  0.85640363370E+02 0.  0.
          2    1    3    3  502    0 -0.25040526639E+02 -0.28011556254E+02  0.29490115852E+02  0.47763398028E+02  0.00000000000E+00 0.  1.
         -2    1    3    3    0  502  0.25040526639E+02  0.28011556254E+02 -0.12399923428E+02  0.39565557739E+02  0.00000000000E+00 0. -1.
<mgrwt>
<rscale>  0 0.85640363E+02</rscale>
<asrwt>0</asrwt>
<pdfrwt beam="2">  1        4 0.54029818E-02 0.85640363E+02</pdfrwt>
<pdfrwt beam="1">  1       -4 0.80322421E-02 0.85640363E+02</pdfrwt>
<totfact> 0.32291694E+04</totfact>
</mgrwt>
</event>
<event>
 5    1  0.3858870E+001  0.8434549E+02  0.7546771E-02  0.1317153E+00
          1   -1    0    0  501    0  0.00000000000E+00  0.00000000000E+00  0.41401054771E+03  0.41401054771E+03  0.00000000000E+00 0. -1.
         -1   -1    0    0    0  501 -0.00000000000E+00 -0.00000000000E+00 -0.42958816774E+01  0.42958816774E+01  0.00000000000E+00 0.  1.
         23    2    1    2    0    0  0.00000000000E+00  0.00000000000E+00  0.40971466603E+03  0.41830642938E+03  0.84345487755E+02 0.  0.
          2    1    3    3  502    0 -0.33977056999E+02  0.24288528302E+02  0.17586800671E+03  0.18075931177E+03  0.00000000000E+00 0. -1.
         -2    1    3    3    0  502  0.33977056999E+02 -0.24288528302E+02  0.23384665932E+03  0.23754711761E+03  0.00000000000E+00 0.  1.
<mgrwt>
<rscale>  0 0.84345488E+02</rscale>
<asrwt>0</asrwt>
<pdfrwt beam="1">  1        1 0.63693899E-01 0.84345488E+02</pdfrwt>
<pdfrwt beam="2">  1       -1 0.66090520E-03 0.84345488E+02</pdfrwt>
<totfact> 0.16664556E+05</totfact>
</mgrwt>
</event>
<event>
 5    1  0.3858870E+001  0.8841973E+02  0.7546771E-02  0.1306724E+00
         -1   -1    0    0    0  501 -0.00000000000E+00  0.00000000000E+00  0.85652162694E+02  0.85652162694E+02  0.00000000000E+00 0.  1.
          1   -1    0    0  501    0  0.00000000000E+00 -0.00000000000E+00 -0.22819179175E+02  0.22819179175E+02  0.00000000000E+00 0. -1.
         23    2    1    2    0    0  0.00000000000E+00  0.00000000000E+00  0.62832983520E+02  0.10847134187E+03  0.88419727374E+02 0.  0.
          2    1    3    3  502    0 -0.21465354326E+02 -0.38646553958E+02  0.30875486924E+02  0.53922289102E+02  0.00000000000E+00 0. -1.
         -2    1    3    3    0  502  0.21465354326E+02  0.38646553958E+02  0.31957496595E+02  0.54549052767E+02  0.00000000000E+00 0.  1.
<mgrwt>
<rscale>  0 0.88419727E+02</rscale>
<asrwt>0</asrwt>
<pdfrwt beam="2">  1        1 0.35106430E-02 0.88419727E+02</pdfrwt>
<pdfrwt beam="1">  1       -1 0.13177256E-01 0.88419727E+02</pdfrwt>
<totfact> 0.90512633E+04</totfact>
</mgrwt>
</event>
<event>
 5    1  0.3858870E+001  0.9166728E+02  0.7546771E-02  0.1298864E+00
          4   -1    0    0  501    0  0.00000000000E+00  0.00000000000E+00  0.24452209597E+02  0.24452209597E+02  0.00000000000E+00 0. -1.
         -4   -1    0    0    0  501 -0.00000000000E+00 -0.00000000000E+00 -0.85911356889E+02  0.85911356889E+02  0.00000000000E+00 0.  1.
         23    2    1    2    0    0  0.00000000000E+00  0.00000000000E+00 -0.61459147292E+02  0.11036356649E+03  0.91667278904E+02 0.  0.
          2    1    3    3  502    0  0.39694326612E+02 -0.20586045664E+02 -0.42847019907E+02  0.61929734023E+02  0.00000000000E+00 0. -1.
         -2    1    3    3    0  502 -0.39694326612E+02  0.20586045664E+02 -0.18612127384E+02  0.48433832462E+02  0.00000000000E+00 0.  1.
<mgrwt>
<rscale>  0 0.91667279E+02</rscale>
<asrwt>0</asrwt>
<pdfrwt beam="1">  1        4 0.37618785E-02 0.91667279E+02</pdfrwt>
<pdfrwt beam="2">  1       -4 0.13217131E-01 0.91667279E+02</pdfrwt>
<totfact> 0.25458155E+04</totfact>
</mgrwt>
</event>
<event>
 5    1  0.3858870E+001  0.8987048E+02  0.7546771E-02  0.1303166E+00
         -2   -1    0    0    0  501 -0.00000000000E+00  0.00000000000E+00  0.48242315589E+02  0.48242315589E+02  0.00000000000E+00 0.  1.
          2   -1    0    0  501    0  0.00000000000E+00 -0.00000000000E+00 -0.41854865727E+02  0.41854865727E+02  0.00000000000E+00 0. -1.
         23    2    1    2    0    0  0.00000000000E+00  0.00000000000E+00  0.63874498620E+01  0.90097181315E+02  0.89870476605E+02 0.  0.
          2    1    3    3  502    0 -0.30037339382E+02 -0.15918400916E+02  0.32653877108E+02  0.47137171479E+02  0.00000000000E+00 0.  1.
         -2    1    3    3    0  502  0.30037339382E+02  0.15918400916E+02 -0.26266427246E+02  0.42960009836E+02  0.00000000000E+00 0. -1.
<mgrwt>
<rscale>  0 0.89870477E+02</rscale>
<asrwt>0</asrwt>
<pdfrwt beam="2">  1        2 0.64392101E-02 0.89870477E+02</pdfrwt>
<pdfrwt beam="1">  1       -2 0.74218947E-02 0.89870477E+02</pdfrwt>
<totfact> 0.10061055E+05</totfact>
</mgrwt>
</event>
<event>
 5    1  0.3858870E+001  0.9371474E+02  0.7546771E-02  0.1294097E+00
         -2   -1    0    0    0  501 -0.00000000000E+00  0.00000000000E+00  0.29104499209E+03  0.29104499209E+03  0.00000000000E+00 0.  1.
          2   -1    0    0  501    0  0.00000000000E+00 -0.00000000000E+00 -0.75438957977E+01  0.75438957977E+01  0.00000000000E+00 0. -1.
         23    2    1    2    0    0  0.00000000000E+00  0.00000000000E+00  0.28350109629E+03  0.29858888788E+03  0.93714739348E+02 0.  0.
          2    1    3    3  502    0 -0.39902526032E+01 -0.45992383323E+02  0.11618350365E+03  0.12501931035E+03  0.00000000000E+00 0. -1.
         -2    1    3    3    0  502  0.39902526032E+01  0.45992383323E+02  0.16731759264E+03  0.17356957754E+03  0.00000000000E+00 0.  1.
<mgrwt>
<rscale>  0 0.93714739E+02</rscale>
<asrwt>0</asrwt>
<pdfrwt beam="2">  1        2 0.11605996E-02 0.93714739E+02</pdfrwt>
<pdfrwt beam="1">  1       -2 0.44776144E-01 0.93714739E+02</pdfrwt>
<totfact> 0.48325917E+04</totfact>
</mgrwt>
</event>
<event>
 5    1  0.3858870E+001  0.8523886E+02  0.7546771E-02  0.1314809E+00
          1   -1    0    0  501    0  0.00000000000E+00  0.00000000000E+00  0.31116813226E+02  0.31116813226E+02  0.00000000000E+00 0. -1.
         -1   -1    0    0    0  501 -0.00000000000E+00 -0.00000000000E+00 -0.58374094804E+02  0.58374094804E+02  0.00000000000E+00 0.  1.
         23    2    1    2    0    0  0.00000000000E+00  0.00000000000E+00 -0.27257281579E+02  0.89490908030E+02  0.85238859806E+02 0.  0.
          2    1    3    3  502    0  0.31448364093E+02 -0.28647620781E+02 -0.10905001355E+02  0.43915883631E+02  0.00000000000E+00 0. -1.
         -2    1    3    3    0  502 -0.31448364093E+02  0.28647620781E+02 -0.16352280224E+02  0.45575024400E+02  0.00000000000E+00 0.  1.
<mgrwt>
<rscale>  0 0.85238860E+02</rscale>
<asrwt>0</asrwt>
<pdfrwt beam="1">  1        1 0.47872020E-02 0.85238860E+02</pdfrwt>
<pdfrwt beam="2">  1       -1 0.89806300E-02 0.85238860E+02</pdfrwt>
<totfact> 0.10560329E+05</totfact>
</mgrwt>
</event>
<event>
 5    1  0.3858870E+001  0.9064531E+02  0.7546771E-02  0.1301296E+00
         -2   -1    0    0    0  501 -0.00000000000E+00  0.00000000000E+00  0.25004779541E+02  0.25004779541E+02  0.00000000000E+00 0.  1.
          2   -1    0    0  501    0  0.00000000000E+00 -0.00000000000E+00 -0.82150009948E+02  0.82150009948E+02  0.00000000000E+00 0. -1.
         23    2    1    2    0    0  0.00000000000E+00  0.00000000000E+00 -0.57145230407E+02  0.10715478949E+03  0.90645306288E+02 0.  0.
          2    1    3    3  502    0 -0.37148715678E+02  0.14995274115E+02 -0.53628743634E+02  0.66939730101E+02  0.00000000000E+00 0. -1.
         -2    1    3    3    0  502  0.37148715678E+02 -0.14995274115E+02 -0.35164867735E+01  0.40215059387E+02  0.00000000000E+00 0.  1.
<mgrwt>
<rscale>  0 0.90645306E+02</rscale>
<asrwt>0</asrwt>
<pdfrwt beam="2">  1        2 0.12638463E-01 0.90645306E+02</pdfrwt>
<pdfrwt beam="1">  1       -2 0.38468891E-02 0.90645306E+02</pdfrwt>
<totfact> 0.11762530E+05</totfact>
</mgrwt>
</event>
<event>
 5    1  0.3858870E+001  0.9251592E+02  0.7546771E-02  0.1296871E+00
          1   -1    0    0  501    0  0.00000000000E+00  0.00000000000E+00  0.31760317137E+02  0.31760317137E+02  0.00000000000E+00 0. -1.
         -1   -1    0    0    0  501 -0.00000000000E+00 -0.00000000000E+00 -0.67373343579E+02  0.67373343579E+02  0.00000000000E+00 0.  1.
         23    2    1    2    0    0  0.00000000000E+00  0.00000000000E+00 -0.35613026441E+02  0.99133660716E+02  0.92515917737E+02 0.  0.
          2    1    3    3  502    0  0.43550932484E+02  0.64094655239E+01 -0.33037101843E+02  0.55038305449E+02  0.00000000000E+00 0.  1.
         -2    1    3    3    0  502 -0.43550932484E+02 -0.64094655239E+01 -0.25759245980E+01  0.44095355267E+02  0.00000000000E+00 0. -1.
<mgrwt>
<rscale>  0 0.92515918E+02</rscale>
<asrwt>0</asrwt>
<pdfrwt beam="1">  1        1 0.48862026E-02 0.92515918E+02</pdfrwt>
<pdfrwt beam="2">  1       -1 0.10365130E-01 0.92515918E+02</pdfrwt>
<totfact> 0.83896945E+04</totfact>
</mgrwt>
</event>
<event>
 5    1  0.3858870E+001  0.9015557E+02  0.7546771E-02  0.1302475E+00
         -1   -1    0    0    0  501 -0.00000000000E+00  0.00000000000E+00  0.18188479728E+02  0.18188479728E+02  0.00000000000E+00 0.  1.
          1   -1    0    0  501    0  0.00000000000E+00 -0.00000000000E+00 -0.11171942956E+03  0.11171942956E+03  0.00000000000E+00 0. -1.
         23    2    1    2    0    0  0.00000000000E+00  0.00000000000E+00 -0.93530949833E+02  0.12990790929E+03  0.90155567322E+02 0.  0.
          2    1    3    3  502    0 -0.28795375964E+02  0.34120957713E+02 -0.55717022884E+02  0.71398880041E+02  0.00000000000E+00 0. -1.
         -2    1    3    3    0  502  0.28795375964E+02 -0.34120957713E+02 -0.37813926950E+02  0.58509029248E+02  0.00000000000E+00 0.  1.
<mgrwt>
<rscale>  0 0.90155567E+02</rscale>
<asrwt>0</asrwt>
<pdfrwt beam="2">  1        1 0.17187604E-01 0.90155567E+02</pdfrwt>
<pdfrwt beam="1">  1       -1 0.27982277E-02 0.90155567E+02</pdfrwt>
<totfact> 0.10972345E+05</totfact>
</mgrwt>
</event>
<event>
 5    1  0.3858870E+001  0.9801738E+02  0.7546771E-02  0.1284521E+00
          3   -1    0    0  501    0  0.00000000000E+00  0.00000000000E+00  0.28671217769E+03  0.28671217769E+03  0.00000000000E+00 0. -1.
         -3   -1    0    0    0  501 -0.00000000000E+00 -0.00000000000E+00 -0.83772229822E+01  0.83772229822E+01  0.00000000000E+00 0.  1.
         23    2    1    2    0    0  0.00000000000E+00  0.00000000000E+00  0.27833495471E+03  0.29508940067E+03  0.98017383034E+02 0.  0.
          2    1    3    3  502    0 -0.13036106674E+02  0.22640366271E+02  0.14334430740E+02  0.29799365207E+02  0.00000000000E+00 0.  1.
         -2    1    3    3    0  502  0.13036106674E+02 -0.22640366271E+02  0.26400052397E+03  0.26529003547E+03  0.00000000000E+00 0. -1.
<mgrwt>
<rscale>  0 0.98017383E+02</rscale>
<asrwt>0</asrwt>
<pdfrwt beam="1">  1        3 0.44109558E-01 0.98017383E+02</pdfrwt>
<pdfrwt beam="2">  1       -3 0.12888038E-02 0.98017383E+02</pdfrwt>
<totfact> 0.19926675E+04</totfact>
</mgrwt>
</event>
<event>
 5    1  0.3858870E+001  0.7656485E+02  0.7546771E-02  0.1339093E+00
          2   -1    0    0  501    0  0.00000000000E+00  0.00000000000E+00  0.11517095791E+04  0.11517095791E+04  0.00000000000E+00 0. -1.
         -2   -1    0    0    0  501 -0.00000000000E+00 -0.00000000000E+00 -0.12724943996E+01  0.12724943996E+01  0.00000000000E+00 0.  1.
         23    2    1    2    0    0  0.00000000000E+00  0.00000000000E+00  0.11504370847E+04  0.11529820735E+04  0.76564848053E+02 0.  0.
          2    1    3    3  502    0 -0.15991330116E+02 -0.16088011477E+02  0.10396084337E+04  0.10398558757E+04  0.00000000000E+00 0. -1.
         -2    1    3    3    0  502  0.15991330116E+02  0.16088011477E+02  0.11082865103E+03  0.11312619785E+03  0.00000000000E+00 0.  1.
<mgrwt>
<rscale>  0 0.76564848E+02</rscale>
<asrwt>0</asrwt>
<pdfrwt beam="1">  1        2 0.17718526E+00 0.76564848E+02</pdfrwt>
<pdfrwt beam="2">  1       -2 0.19576929E-03 0.76564848E+02</pdfrwt>
<totfact> 0.39374551E+05</totfact>
</mgrwt>
</event>
<event>
 5    1  0.3858870E+001  0.9661085E+02  0.7546771E-02  0.1287589E+00
         -2   -1    0    0    0  501 -0.00000000000E+00  0.00000000000E+00  0.46202159942E+01  0.46202159942E+01  0.00000000000E+00 0.  1.
          2   -1    0    0  501    0  0.00000000000E+00 -0.00000000000E+00 -0.50504432221E+03  0.50504432221E+03  0.00000000000E+00 0. -1.
         23    2    1    2    0    0  0.00000000000E+00  0.00000000000E+00 -0.50042410621E+03  0.50966453820E+03  0.96610845255E+02 0.  0.
          2    1    3    3  502    0  0.25485909679E+02  0.36346025655E+02 -0.35070169770E+03  0.35349999426E+03  0.00000000000E+00 0. -1.
         -2    1    3    3    0  502 -0.25485909679E+02 -0.36346025655E+02 -0.14972240851E+03  0.15616454394E+03  0.00000000000E+00 0.  1.
<mgrwt>
<rscale>  0 0.96610845E+02</rscale>
<asrwt>0</asrwt>
<pdfrwt beam="2">  1        2 0.77699122E-01 0.96610845E+02</pdfrwt>
<pdfrwt beam="1">  1       -2 0.71080250E-03 0.96610845E+02</pdfrwt>
<totfact> 0.18539485E+05</totfact>
</mgrwt>
</event>
<event>
 5    1  0.3858870E+001  0.9155535E+02  0.7546771E-02  0.1299128E+00
          4   -1    0    0  501    0  0.00000000000E+00  0.00000000000E+00  0.12686265216E+04  0.12686265216E+04  0.00000000000E+00 0. -1.
         -4   -1    0    0    0  501 -0.00000000000E+00 -0.00000000000E+00 -0.16518616873E+01  0.16518616873E+01  0.00000000000E+00 0.  1.
         23    2    1    2    0    0  0.00000000000E+00  0.00000000000E+00  0.12669746599E+04  0.12702783833E+04  0.91555350396E+02 0.  0.
          2    1    3    3  502    0 -0.33853367244E+02 -0.12047001729E+02  0.10269968202E+04  0.10276252476E+04  0.00000000000E+00 0. -1.
         -2    1    3    3    0  502  0.33853367244E+02  0.12047001729E+02  0.23997783970E+03  0.24265313571E+03  0.00000000000E+00 0.  1.
<mgrwt>
<rscale>  0 0.91555350E+02</rscale>
<asrwt>0</asrwt>
<pdfrwt beam="1">  1        4 0.19517253E+00 0.91555350E+02</pdfrwt>
<pdfrwt beam="2">  1       -4 0.25413358E-03 0.91555350E+02</pdfrwt>
<totfact> 0.52806066E+03</totfact>
</mgrwt>
</event>
<event>
 5    1  0.3858870E+001  0.8893813E+02  0.7546771E-02  0.1305444E+00
         -1   -1    0    0    0  501 -0.00000000000E+00  0.00000000000E+00  0.28317401823E+03  0.28317401823E+03  0.00000000000E+00 0.  1.
          1   -1    0    0  501    0  0.00000000000E+00 -0.00000000000E+00 -0.69833304359E+01  0.69833304359E+01  0.00000000000E+00 0. -1.
         23    2    1    2    0    0  0.00000000000E+00  0.00000000000E+00  0.27619068780E+03  0.29015734867E+03  0.88938129960E+02 0.  0.
          2    1    3    3  502    0 -0.42073348693E+02 -0.10248190839E+02  0.10509675266E+03  0.11366846310E+03  0.00000000000E+00 0. -1.
         -2    1    3    3    0  502  0.42073348693E+02  0.10248190839E+02  0.17109393514E+03  0.17648888556E+03  0.00000000000E+00 0.  1.
<mgrwt>
<rscale>  0 0.88938130E+02</rscale>
<asrwt>0</asrwt>
<pdfrwt beam="2">  1        1 0.10743587E-02 0.88938130E+02</pdfrwt>
<pdfrwt beam="1">  1       -1 0.43565225E-01 0.88938130E+02</pdfrwt>
<totfact> 0.66099298E+04</totfact>
</mgrwt>
</event>
<event>
 5    1  0.3858870E+001  0.8919507E+02  0.7546771E-02  0.1304813E+00
         -3   -1    0    0    0  501 -0.00000000000E+00  0.00000000000E+00  0.14032837009E+03  0.14032837009E+03  0.00000000000E+00 0.  1.
          3   -1    0    0  501    0  0.00000000000E+00 -0.00000000000E+00 -0.14173470647E+02  0.14173470647E+02  0.00000000000E+00 0. -1.
         23    2    1    2    0    0  0.00000000000E+00  0.00000000000E+00  0.12615489944E+03  0.15450184074E+03  0.89195067901E+02 0.  0.
          2    1    3    3  502    0  0.21761221409E+02  0.38489171484E+02  0.73173685501E+02  0.85494767843E+02  0.00000000000E+00 0. -1.
         -2    1    3    3    0  502 -0.21761221409E+02 -0.38489171484E+02  0.52981213943E+02  0.69007072895E+02  0.00000000000E+00 0.  1.
<mgrwt>
<rscale>  0 0.89195068E+02</rscale>
<asrwt>0</asrwt>
<pdfrwt beam="2">  1        3 0.21805340E-02 0.89195068E+02</pdfrwt>
<pdfrwt beam="1">  1       -3 0.21588979E-01 0.89195068E+02</pdfrwt>
<totfact> 0.32931841E+04</totfact>
</mgrwt>
</event>
<event>
 5    1  0.3858870E+001  0.8772853E+02  0.7546771E-02  0.1308448E+00
         -2   -1    0    0    0  501 -0.00000000000E+00  0.00000000000E+00  0.23912536809E+01  0.23912536809E+01  0.00000000000E+00 0.  1.
          2   -1    0    0  501    0  0.00000000000E+00 -0.00000000000E+00 -0.80462971541E+03  0.80462971541E+03  0.00000000000E+00 0. -1.
         23    2    1    2    0    0  0.00000000000E+00  0.00000000000E+00 -0.80223846173E+03  0.80702096909E+03  0.87728530564E+02 0.  0.
          2    1    3    3  502    0 -0.25108517979E+02  0.11083508517E+02 -0.71588233880E+03  0.71640826687E+03  0.00000000000E+00 0. -1.
         -2    1    3    3    0  502  0.25108517979E+02 -0.11083508517E+02 -0.86356122928E+02  0.90612702218E+02  0.00000000000E+00 0.  1.
<mgrwt>
<rscale>  0 0.87728531E+02</rscale>
<asrwt>0</asrwt>
<pdfrwt beam="2">  1        2 0.12378922E+00 0.87728531E+02</pdfrwt>
<pdfrwt beam="1">  1       -2 0.36788509E-03 0.87728531E+02</pdfrwt>
<totfact> 0.27001927E+05</totfact>
</mgrwt>
</event>
<event>
 5    1  0.3858870E+001  0.1252857E+03  0.7546771E-02  0.1234623E+00
          1   -1    0    0  501    0  0.00000000000E+00  0.00000000000E+00  0.79453384800E+02  0.79453384800E+02  0.00000000000E+00 0. -1.
         -1   -1    0    0    0  501 -0.00000000000E+00 -0.00000000000E+00 -0.49389078221E+02  0.49389078221E+02  0.00000000000E+00 0.  1.
         23    2    1    2    0    0  0.00000000000E+00  0.00000000000E+00  0.30064306579E+02  0.12884246302E+03  0.12528574439E+03 0.  0.
          2    1    3    3  502    0  0.25467472714E+02 -0.70804487422E+01 -0.43372769693E+02  0.50792933284E+02  0.00000000000E+00 0.  1.
         -2    1    3    3    0  502 -0.25467472714E+02  0.70804487422E+01  0.73437076272E+02  0.78049529737E+02  0.00000000000E+00 0. -1.
<mgrwt>
<rscale>  0 0.12528574E+03</rscale>
<asrwt>0</asrwt>
<pdfrwt beam="1">  1        1 0.12223598E-01 0.12528574E+03</pdfrwt>
<pdfrwt beam="2">  1       -1 0.75983197E-02 0.12528574E+03</pdfrwt>
<totfact> 0.41178174E+04</totfact>
</mgrwt>
</event>
<event>
 5    1  0.3858870E+001  0.8778361E+02  0.7546771E-02  0.1308310E+00
          2   -1    0    0  501    0  0.00000000000E+00  0.00000000000E+00  0.38976219876E+04  0.38976219876E+04  0.00000000000E+00 0. -1.
         -2   -1    0    0    0  501 -0.00000000000E+00 -0.00000000000E+00 -0.49427334971E+00  0.49427334971E+00  0.00000000000E+00 0.  1.
         23    2    1    2    0    0  0.00000000000E+00  0.00000000000E+00  0.38971277143E+04  0.38981162610E+04  0.87783612952E+02 0.  0.
          2    1    3    3  502    0 -0.40556085800E+02 -0.16114770934E+02  0.21568876659E+04  0.21573291091E+04  0.00000000000E+00 0.  1.
         -2    1    3    3    0  502  0.40556085800E+02  0.16114770934E+02  0.17402400484E+04  0.17407871518E+04  0.00000000000E+00 0. -1.
<mgrwt>
<rscale>  0 0.87783613E+02</rscale>
<asrwt>0</asrwt>
<pdfrwt beam="1">  1        2 0.59960954E+00 0.87783613E+02</pdfrwt>
<pdfrwt beam="2">  1       -2 0.76045175E-04 0.87783613E+02</pdfrwt>
<totfact> 0.43675302E+04</totfact>
</mgrwt>
</event>
<event>
 5    1  0.3858870E+001  0.8732646E+02  0.7546771E-02  0.1309458E+00
          3   -1    0    0  501    0  0.00000000000E+00  0.00000000000E+00  0.39267109669E+02  0.39267109669E+02  0.00000000000E+00 0. -1.
         -3   -1    0    0    0  501 -0.00000000000E+00 -0.00000000000E+00 -0.48551515261E+02  0.48551515261E+02  0.00000000000E+00 0.  1.
         23    2    1    2    0    0  0.00000000000E+00  0.00000000000E+00 -0.92844055924E+01  0.87818624930E+02  0.87326460466E+02 0.  0.
          2    1    3    3  502    0  0.17309707201E+02 -0.37042261670E+02  0.10764801116E+02  0.42280445316E+02  0.00000000000E+00 0.  1.
         -2    1    3    3    0  502 -0.17309707201E+02  0.37042261670E+02 -0.20049206708E+02  0.45538179615E+02  0.00000000000E+00 0. -1.
<mgrwt>
<rscale>  0 0.87326460E+02</rscale>
<asrwt>0</asrwt>
<pdfrwt beam="1">  1        3 0.60410938E-02 0.87326460E+02</pdfrwt>
<pdfrwt beam="2">  1       -3 0.74694639E-02 0.87326460E+02</pdfrwt>
<totfact> 0.40023628E+04</totfact>
</mgrwt>
</event>
<event>
 5    1  0.3858870E+001  0.9156478E+02  0.7546771E-02  0.1299106E+00
          1   -1    0    0  501    0  0.00000000000E+00  0.00000000000E+00  0.40385741296E+01  0.40385741296E+01  0.00000000000E+00 0. -1.
         -1   -1    0    0    0  501 -0.00000000000E+00 -0.00000000000E+00 -0.51900183589E+03  0.51900183589E+03  0.00000000000E+00 0.  1.
         23    2    1    2    0    0  0.00000000000E+00  0.00000000000E+00 -0.51496326176E+03  0.52304041002E+03  0.91564783353E+02 0.  0.
          2    1    3    3  502    0  0.31304232185E+02  0.22189285146E+02 -0.40014006396E+03  0.40197560886E+03  0.00000000000E+00 0.  1.
         -2    1    3    3    0  502 -0.31304232185E+02 -0.22189285146E+02 -0.11482319779E+03  0.12106480116E+03  0.00000000000E+00 0. -1.
<mgrwt>
<rscale>  0 0.91564783E+02</rscale>
<asrwt>0</asrwt>
<pdfrwt beam="1">  1        1 0.62131883E-03 0.91564783E+02</pdfrwt>
<pdfrwt beam="2">  1       -1 0.79846470E-01 0.91564783E+02</pdfrwt>
<totfact> 0.45444832E+04</totfact>
</mgrwt>
</event>
<event>
 5    1  0.3858870E+001  0.9017199E+02  0.7546771E-02  0.1302436E+00
         -1   -1    0    0    0  501 -0.00000000000E+00  0.00000000000E+00  0.22430964904E+02  0.22430964904E+02  0.00000000000E+00 0.  1.
          1   -1    0    0  501    0  0.00000000000E+00 -0.00000000000E+00 -0.90622349021E+02  0.90622349021E+02  0.00000000000E+00 0. -1.
         23    2    1    2    0    0  0.00000000000E+00  0.00000000000E+00 -0.68191384117E+02  0.11305331392E+03  0.90171985237E+02 0.  0.
          2    1    3    3  502    0 -0.15772373908E+02 -0.33580155726E+02 -0.66216029812E+02  0.75900969963E+02  0.00000000000E+00 0. -1.
         -2    1    3    3    0  502  0.15772373908E+02  0.33580155726E+02 -0.19753543056E+01  0.37152343962E+02  0.00000000000E+00 0.  1.
<mgrwt>
<rscale>  0 0.90171985E+02</rscale>
<asrwt>0</asrwt>
<pdfrwt beam="2">  1        1 0.13941900E-01 0.90171985E+02</pdfrwt>
<pdfrwt beam="1">  1       -1 0.34509177E-02 0.90171985E+02</pdfrwt>
<totfact> 0.10593226E+05</totfact>
</mgrwt>
</event>
<event>
 5    1  0.3858870E+001  0.8456009E+02  0.7546771E-02  0.1316587E+00
         -1   -1    0    0    0  501 -0.00000000000E+00  0.00000000000E+00  0.26554543642E+02  0.26554543642E+02  0.00000000000E+00 0.  1.
          1   -1    0    0  501    0  0.00000000000E+00 -0.00000000000E+00 -0.67318135378E+02  0.67318135378E+02  0.00000000000E+00 0. -1.
         23    2    1    2    0    0  0.00000000000E+00  0.00000000000E+00 -0.40763591737E+02  0.93872679020E+02  0.84560093751E+02 0.  0.
          2    1    3    3  502    0  0.20358141079E+02 -0.30952242666E+02 -0.42999777799E+02  0.56758048989E+02  0.00000000000E+00 0. -1.
         -2    1    3    3    0  502 -0.20358141079E+02  0.30952242666E+02  0.22361860618E+01  0.37114630031E+02  0.00000000000E+00 0.  1.
<mgrwt>
<rscale>  0 0.84560094E+02</rscale>
<asrwt>0</asrwt>
<pdfrwt beam="2">  1        1 0.10356636E-01 0.84560094E+02</pdfrwt>
<pdfrwt beam="1">  1       -1 0.40853145E-02 0.84560094E+02</pdfrwt>
<totfact> 0.12060479E+05</totfact>
</mgrwt>
</event>
<event>
 5    1  0.3858870E+001  0.9273967E+02  0.7546771E-02  0.1296350E+00
          3   -1    0    0  501    0  0.00000000000E+00  0.00000000000E+00  0.67006252952E+02  0.67006252952E+02  0.00000000000E+00 0. -1.
         -3   -1    0    0    0  501 -0.00000000000E+00 -0.00000000000E+00 -0.32088971417E+02  0.32088971417E+02  0.00000000000E+00 0.  1.
         23    2    1    2    0    0  0.00000000000E+00  0.00000000000E+00  0.34917281535E+02  0.99095224369E+02  0.92739672972E+02 0.  0.
          2    1    3    3  502    0  0.34634776144E+02 -0.23952977570E+02  0.38201603221E+02  0.56856620913E+02  0.00000000000E+00 0. -1.
         -2    1    3    3    0  502 -0.34634776144E+02  0.23952977570E+02 -0.32843216859E+01  0.42238603456E+02  0.00000000000E+00 0.  1.
<mgrwt>
<rscale>  0 0.92739673E+02</rscale>
<asrwt>0</asrwt>
<pdfrwt beam="1">  1        3 0.10308654E-01 0.92739673E+02</pdfrwt>
<pdfrwt beam="2">  1       -3 0.49367648E-02 0.92739673E+02</pdfrwt>
<totfact> 0.33163718E+04</totfact>
</mgrwt>
</event>
<event>
 5    1  0.3858870E+001  0.9380598E+02  0.7546771E-02  0.1293888E+00
          2   -1    0    0  501    0  0.00000000000E+00  0.00000000000E+00  0.43247311275E+03  0.43247311275E+03  0.00000000000E+00 0.  1.
         -2   -1    0    0    0  501 -0.00000000000E+00 -0.00000000000E+00 -0.50867676463E+01  0.50867676463E+01  0.00000000000E+00 0. -1.
         23    2    1    2    0    0  0.00000000000E+00  0.00000000000E+00  0.42738634511E+03  0.43755988040E+03  0.93805975030E+02 0.  0.
          2    1    3    3  502    0 -0.32914272301E+02 -0.29252036051E+02  0.13835585404E+03  0.14519426050E+03  0.00000000000E+00 0. -1.
         -2    1    3    3    0  502  0.32914272301E+02  0.29252036051E+02  0.28903049106E+03  0.29236561990E+03  0.00000000000E+00 0.  1.
<mgrwt>
<rscale>  0 0.93805975E+02</rscale>
<asrwt>0</asrwt>
<pdfrwt beam="1">  1        2 0.66534296E-01 0.93805975E+02</pdfrwt>
<pdfrwt beam="2">  1       -2 0.78257998E-03 0.93805975E+02</pdfrwt>
<totfact> 0.19027458E+05</totfact>
</mgrwt>
</event>
<event>
 5    1  0.3858870E+001  0.7313759E+02  0.7546771E-02  0.1349737E+00
          3   -1    0    0  501    0  0.00000000000E+00  0.00000000000E+00  0.19117859122E+03  0.19117859122E+03  0.00000000000E+00 0. -1.
         -3   -1    0    0    0  501 -0.00000000000E+00 -0.00000000000E+00 -0.69949087870E+01  0.69949087870E+01  0.00000000000E+00 0.  1.
         23    2    1    2    0    0  0.00000000000E+00  0.00000000000E+00  0.18418368243E+03  0.19817350000E+03  0.73137591090E+02 0.  0.
          2    1    3    3  502    0  0.60791678940E+01 -0.28717304633E+02  0.15118574978E+03  0.15400899585E+03  0.00000000000E+00 0. -1.
         -2    1    3    3    0  502 -0.60791678940E+01  0.28717304633E+02  0.32997932654E+02  0.44164504153E+02  0.00000000000E+00 0.  1.
<mgrwt>
<rscale>  0 0.73137591E+02</rscale>
<asrwt>0</asrwt>
<pdfrwt beam="1">  1        3 0.29412087E-01 0.73137591E+02</pdfrwt>
<pdfrwt beam="2">  1       -3 0.10761400E-02 0.73137591E+02</pdfrwt>
<totfact> 0.51404368E+04</totfact>
</mgrwt>
</event>
<event>
 5    1  0.3858870E+001  0.9210315E+02  0.7546771E-02  0.1297837E+00
          2   -1    0    0  501    0  0.00000000000E+00  0.00000000000E+00  0.88011605666E+03  0.88011605666E+03  0.00000000000E+00 0. -1.
         -2   -1    0    0    0  501 -0.00000000000E+00 -0.00000000000E+00 -0.24096223658E+01  0.24096223658E+01  0.00000000000E+00 0.  1.
         23    2    1    2    0    0  0.00000000000E+00  0.00000000000E+00  0.87770643429E+03  0.88252567902E+03  0.92103145106E+02 0.  0.
          2    1    3    3  502    0 -0.11622927026E+02  0.21384655972E+02  0.64256041427E+02  0.68711242192E+02  0.00000000000E+00 0.  1.
         -2    1    3    3    0  502  0.11622927026E+02 -0.21384655972E+02  0.81345039286E+03  0.81381443683E+03  0.00000000000E+00 0. -1.
<mgrwt>
<rscale>  0 0.92103145E+02</rscale>
<asrwt>0</asrwt>
<pdfrwt beam="1">  1        2 0.13540221E+00 0.92103145E+02</pdfrwt>
<pdfrwt beam="2">  1       -2 0.37071183E-03 0.92103145E+02</pdfrwt>
<totfact> 0.24078235E+05</totfact>
</mgrwt>
</event>
<event>
 5    1  0.3858870E+001  0.9341056E+02  0.7546771E-02  0.1294797E+00
          1   -1    0    0  501    0  0.00000000000E+00  0.00000000000E+00  0.30416544566E+02  0.30416544566E+02  0.00000000000E+00 0. -1.
         -1   -1    0    0    0  501 -0.00000000000E+00 -0.00000000000E+00 -0.71716999650E+02  0.71716999650E+02  0.00000000000E+00 0.  1.
         23    2    1    2    0    0  0.00000000000E+00  0.00000000000E+00 -0.41300455084E+02  0.10213354422E+03  0.93410562914E+02 0.  0.
          2    1    3    3  502    0 -0.13342086629E+02  0.23275527256E+02  0.21151086117E+02  0.34163282755E+02  0.00000000000E+00 0. -1.
         -2    1    3    3    0  502  0.13342086629E+02 -0.23275527256E+02 -0.62451541201E+02  0.67970261461E+02  0.00000000000E+00 0.  1.
<mgrwt>
<rscale>  0 0.93410563E+02</rscale>
<asrwt>0</asrwt>
<pdfrwt beam="1">  1        1 0.46794684E-02 0.93410563E+02</pdfrwt>
<pdfrwt beam="2">  1       -1 0.11033384E-01 0.93410563E+02</pdfrwt>
<totfact> 0.81031667E+04</totfact>
</mgrwt>
</event>
<event>
 5    1  0.3858870E+001  0.9256459E+02  0.7546771E-02  0.1296757E+00
         -1   -1    0    0    0  501 -0.00000000000E+00  0.00000000000E+00  0.34994260830E+01  0.34994260830E+01  0.00000000000E+00 0.  1.
          1   -1    0    0  501    0  0.00000000000E+00 -0.00000000000E+00 -0.61211483513E+03  0.61211483513E+03  0.00000000000E+00 0. -1.
         23    2    1    2    0    0  0.00000000000E+00  0.00000000000E+00 -0.60861540905E+03  0.61561426122E+03  0.92564585449E+02 0.  0.
          2    1    3    3  502    0  0.17798282377E+01  0.25116193636E+02 -0.46038234486E+02  0.52473898330E+02  0.00000000000E+00 0.  1.
         -2    1    3    3    0  502 -0.17798282377E+01 -0.25116193636E+02 -0.56257717456E+03  0.56314036289E+03  0.00000000000E+00 0. -1.
<mgrwt>
<rscale>  0 0.92564585E+02</rscale>
<asrwt>0</asrwt>
<pdfrwt beam="2">  1        1 0.94171565E-01 0.92564585E+02</pdfrwt>
<pdfrwt beam="1">  1       -1 0.53837295E-03 0.92564585E+02</pdfrwt>
<totfact> 0.13618536E+05</totfact>
</mgrwt>
</event>
<event>
 5    1  0.3858870E+001  0.8891425E+02  0.7546771E-02  0.1305502E+00
         -2   -1    0    0    0  501 -0.00000000000E+00  0.00000000000E+00  0.24803607434E+01  0.24803607434E+01  0.00000000000E+00 0.  1.
          2   -1    0    0  501    0  0.00000000000E+00 -0.00000000000E+00 -0.79683412784E+03  0.79683412784E+03  0.00000000000E+00 0. -1.
         23    2    1    2    0    0  0.00000000000E+00  0.00000000000E+00 -0.79435376709E+03  0.79931448858E+03  0.88914252844E+02 0.  0.
          2    1    3    3  502    0  0.19707332049E+02 -0.28436676303E+02 -0.64815162255E+03  0.64907437887E+03  0.00000000000E+00 0. -1.
         -2    1    3    3    0  502 -0.19707332049E+02  0.28436676303E+02 -0.14620214455E+03  0.15024010971E+03  0.00000000000E+00 0.  1.
<mgrwt>
<rscale>  0 0.88914253E+02</rscale>
<asrwt>0</asrwt>
<pdfrwt beam="2">  1        2 0.12258999E+00 0.88914253E+02</pdfrwt>
<pdfrwt beam="1">  1       -2 0.38159359E-03 0.88914253E+02</pdfrwt>
<totfact> 0.26022060E+05</totfact>
</mgrwt>
</event>
<event>
 5    1  0.3858870E+001  0.8932591E+02  0.7546771E-02  0.1304492E+00
          1   -1    0    0  501    0  0.00000000000E+00  0.00000000000E+00  0.23877214421E+04  0.23877214421E+04  0.00000000000E+00 0. -1.
         -1   -1    0    0    0  501 -0.00000000000E+00 -0.00000000000E+00 -0.83543218678E+00  0.83543218678E+00  0.00000000000E+00 0.  1.
         23    2    1    2    0    0  0.00000000000E+00  0.00000000000E+00  0.23868860099E+04  0.23885568743E+04  0.89325905442E+02 0.  0.
          2    1    3    3  502    0 -0.35650173303E+02 -0.23862270891E+02  0.15257451611E+04  0.15263481383E+04  0.00000000000E+00 0. -1.
         -2    1    3    3    0  502  0.35650173303E+02  0.23862270891E+02  0.86114084885E+03  0.86220873597E+03  0.00000000000E+00 0.  1.
<mgrwt>
<rscale>  0 0.89325905E+02</rscale>
<asrwt>0</asrwt>
<pdfrwt beam="1">  1        1 0.36733630E+00 0.89325905E+02</pdfrwt>
<pdfrwt beam="2">  1       -1 0.12852994E-03 0.89325905E+02</pdfrwt>
<totfact> 0.61203102E+04</totfact>
</mgrwt>
</event>
<event>
 5    1  0.3858870E+001  0.9155470E+02  0.7546771E-02  0.1299130E+00
          1   -1    0    0  501    0  0.00000000000E+00  0.00000000000E+00  0.83990614463E+03  0.83990614463E+03  0.00000000000E+00 0. -1.
         -1   -1    0    0    0  501 -0.00000000000E+00 -0.00000000000E+00 -0.24949998976E+01  0.24949998976E+01  0.00000000000E+00 0.  1.
         23    2    1    2    0    0  0.00000000000E+00  0.00000000000E+00  0.83741114473E+03  0.84240114452E+03  0.91554699384E+02 0.  0.
          2    1    3    3  502    0  0.85028202891E+01 -0.22992544015E+02  0.77442071433E+03  0.77480862012E+03  0.00000000000E+00 0. -1.
         -2    1    3    3    0  502 -0.85028202891E+01  0.22992544015E+02  0.62990430403E+02  0.67592524406E+02  0.00000000000E+00 0.  1.
<mgrwt>
<rscale>  0 0.91554699E+02</rscale>
<asrwt>0</asrwt>
<pdfrwt beam="1">  1        1 0.12921610E+00 0.91554699E+02</pdfrwt>
<pdfrwt beam="2">  1       -1 0.38384681E-03 0.91554699E+02</pdfrwt>
<totfact> 0.13905886E+05</totfact>
</mgrwt>
</event>
<event>
 5    1  0.3858870E+001  0.9162653E+02  0.7546771E-02  0.1298960E+00
          1   -1    0    0  501    0  0.00000000000E+00  0.00000000000E+00  0.67163318564E+02  0.67163318564E+02  0.00000000000E+00 0. -1.
         -1   -1    0    0    0  501 -0.00000000000E+00 -0.00000000000E+00 -0.31250022482E+02  0.31250022482E+02  0.00000000000E+00 0.  1.
         23    2    1    2    0    0  0.00000000000E+00  0.00000000000E+00  0.35913296082E+02  0.98413341046E+02  0.91626529239E+02 0.  0.
          2    1    3    3  502    0  0.39900791829E+02 -0.97476114098E+01  0.39751706264E+02  0.57160189536E+02  0.00000000000E+00 0. -1.
         -2    1    3    3    0  502 -0.39900791829E+02  0.97476114098E+01 -0.38384101822E+01  0.41253151510E+02  0.00000000000E+00 0.  1.
<mgrwt>
<rscale>  0 0.91626529E+02</rscale>
<asrwt>0</asrwt>
<pdfrwt beam="1">  1        1 0.10332818E-01 0.91626529E+02</pdfrwt>
<pdfrwt beam="2">  1       -1 0.48076958E-02 0.91626529E+02</pdfrwt>
<totfact> 0.96715911E+04</totfact>
</mgrwt>
</event>
<event>
 5    1  0.3858870E+001  0.8700106E+02  0.7546771E-02  0.1310281E+00
          2   -1    0    0  501    0  0.00000000000E+00  0.00000000000E+00  0.41008469504E+03  0.41008469504E+03  0.00000000000E+00 0.  1.
         -2   -1    0    0    0  501 -0.00000000000E+00 -0.00000000000E+00 -0.46144026505E+01  0.46144026505E+01  0.00000000000E+00 0. -1.
         23    2    1    2    0    0  0.00000000000E+00  0.00000000000E+00  0.40547029239E+03  0.41469909769E+03  0.87001055252E+02 0.  0.
          2    1    3    3  502    0 -0.25468952560E+02  0.35137955640E+02  0.18847318987E+03  0.19340498124E+03  0.00000000000E+00 0. -1.
         -2    1    3    3    0  502  0.25468952560E+02 -0.35137955640E+02  0.21699710253E+03  0.22129411645E+03  0.00000000000E+00 0.  1.
<mgrwt>
<rscale>  0 0.87001055E+02</rscale>
<asrwt>0</asrwt>
<pdfrwt beam="1">  1        2 0.63089924E-01 0.87001055E+02</pdfrwt>
<pdfrwt beam="2">  1       -2 0.70990842E-03 0.87001055E+02</pdfrwt>
<totfact> 0.22800395E+05</totfact>
</mgrwt>
</event>
<event>
 5    1  0.3858870E+001  0.9071743E+02  0.7546771E-02  0.1301124E+00
         -2   -1    0    0    0  501 -0.00000000000E+00  0.00000000000E+00  0.70514963021E+01  0.70514963021E+01  0.00000000000E+00 0.  1.
          2   -1    0    0  501    0  0.00000000000E+00 -0.00000000000E+00 -0.29176973834E+03  0.29176973834E+03  0.00000000000E+00 0. -1.
         23    2    1    2    0    0  0.00000000000E+00  0.00000000000E+00 -0.28471824203E+03  0.29882123464E+03  0.90717434508E+02 0.  0.
          2    1    3    3  502    0  0.60637172560E+01 -0.26083619722E+02 -0.26295153217E+03  0.26431161941E+03  0.00000000000E+00 0. -1.
         -2    1    3    3    0  502 -0.60637172560E+01  0.26083619722E+02 -0.21766709859E+02  0.34509615223E+02  0.00000000000E+00 0.  1.
<mgrwt>
<rscale>  0 0.90717435E+02</rscale>
<asrwt>0</asrwt>
<pdfrwt beam="2">  1        2 0.44887640E-01 0.90717435E+02</pdfrwt>
<pdfrwt beam="1">  1       -2 0.10848459E-02 0.90717435E+02</pdfrwt>
<totfact> 0.18022016E+05</totfact>
</mgrwt>
</event>
<event>
 5    1  0.3858870E+001  0.9536223E+02  0.7546771E-02  0.1290362E+00
          2   -1    0    0  501    0  0.00000000000E+00  0.00000000000E+00  0.17205486406E+04  0.17205486406E+04  0.00000000000E+00 0. -1.
         -2   -1    0    0    0  501 -0.00000000000E+00 -0.00000000000E+00 -0.13213741824E+01  0.13213741824E+01  0.00000000000E+00 0.  1.
         23    2    1    2    0    0  0.00000000000E+00  0.00000000000E+00  0.17192272664E+04  0.17218700148E+04  0.95362226343E+02 0.  0.
          2    1    3    3  502    0  0.84975524630E+01  0.27465606861E+02  0.17278826019E+03  0.17516378284E+03  0.00000000000E+00 0.  1.
         -2    1    3    3    0  502 -0.84975524630E+01 -0.27465606861E+02  0.15464390062E+04  0.15467062319E+04  0.00000000000E+00 0. -1.
<mgrwt>
<rscale>  0 0.95362226E+02</rscale>
<asrwt>0</asrwt>
<pdfrwt beam="1">  1        2 0.26469800E+00 0.95362226E+02</pdfrwt>
<pdfrwt beam="2">  1       -2 0.20328971E-03 0.95362226E+02</pdfrwt>
<totfact> 0.19602267E+05</totfact>
</mgrwt>
</event>
<event>
 5    1  0.3858870E+001  0.9026211E+02  0.7546771E-02  0.1302218E+00
         -1   -1    0    0    0  501 -0.00000000000E+00  0.00000000000E+00  0.10231470686E+01  0.10231470686E+01  0.00000000000E+00 0.  1.
          1   -1    0    0  501    0  0.00000000000E+00 -0.00000000000E+00 -0.19907323424E+04  0.19907323424E+04  0.00000000000E+00 0. -1.
         23    2    1    2    0    0  0.00000000000E+00  0.00000000000E+00 -0.19897091954E+04  0.19917554895E+04  0.90262106346E+02 0.  0.
          2    1    3    3  502    0 -0.22150240252E+02  0.30599016289E+02 -0.44990993225E+03  0.45149294577E+03  0.00000000000E+00 0.  1.
         -2    1    3    3    0  502  0.22150240252E+02 -0.30599016289E+02 -0.15397992631E+04  0.15402625437E+04  0.00000000000E+00 0. -1.
<mgrwt>
<rscale>  0 0.90262106E+02</rscale>
<asrwt>0</asrwt>
<pdfrwt beam="2">  1        1 0.30626656E+00 0.90262106E+02</pdfrwt>
<pdfrwt beam="1">  1       -1 0.15740722E-03 0.90262106E+02</pdfrwt>
<totfact> 0.82473299E+04</totfact>
</mgrwt>
</event>
<event>
 5    1  0.3858870E+001  0.8998739E+02  0.7546771E-02  0.1302882E+00
          1   -1    0    0  501    0  0.00000000000E+00  0.00000000000E+00  0.12995288579E+02  0.12995288579E+02  0.00000000000E+00 0. -1.
         -1   -1    0    0    0  501 -0.00000000000E+00 -0.00000000000E+00 -0.15578203674E+03  0.15578203674E+03  0.00000000000E+00 0.  1.
         23    2    1    2    0    0  0.00000000000E+00  0.00000000000E+00 -0.14278674816E+03  0.16877732532E+03  0.89987388513E+02 0.  0.
          2    1    3    3  502    0 -0.48083689680E+01 -0.42761190292E+02 -0.46738932709E+02  0.63530840055E+02  0.00000000000E+00 0. -1.
         -2    1    3    3    0  502  0.48083689680E+01  0.42761190292E+02 -0.96047815449E+02  0.10524648526E+03  0.00000000000E+00 0.  1.
<mgrwt>
<rscale>  0 0.89987389E+02</rscale>
<asrwt>0</asrwt>
<pdfrwt beam="1">  1        1 0.19992752E-02 0.89987389E+02</pdfrwt>
<pdfrwt beam="2">  1       -1 0.23966467E-01 0.89987389E+02</pdfrwt>
<totfact> 0.76689598E+04</totfact>
</mgrwt>
</event>
<event>
 5    1  0.3858870E+001  0.9176491E+02  0.7546771E-02  0.1298633E+00
          2   -1    0    0  501    0  0.00000000000E+00  0.00000000000E+00  0.10767186900E+02  0.10767186900E+02  0.00000000000E+00 0. -1.
         -2   -1    0    0    0  501 -0.00000000000E+00 -0.00000000000E+00 -0.19551993223E+03  0.19551993223E+03  0.00000000000E+00 0.  1.
         23    2    1    2    0    0  0.00000000000E+00  0.00000000000E+00 -0.18475274533E+03  0.20628711913E+03  0.91764909481E+02 0.  0.
          2    1    3    3  502    0 -0.16073734964E+02  0.24544292208E+02 -0.13075559930E+02  0.32120982288E+02  0.00000000000E+00 0. -1.
         -2    1    3    3    0  502  0.16073734964E+02 -0.24544292208E+02 -0.17167718540E+03  0.17416613684E+03  0.00000000000E+00 0.  1.
<mgrwt>
<rscale>  0 0.91764909E+02</rscale>
<asrwt>0</asrwt>
<pdfrwt beam="1">  1        2 0.16564904E-02 0.91764909E+02</pdfrwt>
<pdfrwt beam="2">  1       -2 0.30079987E-01 0.91764909E+02</pdfrwt>
<totfact> 0.61904141E+04</totfact>
</mgrwt>
</event>
<event>
 5    1  0.3858870E+001  0.9114888E+02  0.7546771E-02  0.1300093E+00
          2   -1    0    0  501    0  0.00000000000E+00  0.00000000000E+00  0.97605108098E+03  0.97605108098E+03  0.00000000000E+00 0. -1.
         -2   -1    0    0    0  501 -0.00000000000E+00 -0.00000000000E+00 -0.21279925864E+01  0.21279925864E+01  0.00000000000E+00 0.  1.
         23    2    1    2    0    0  0.00000000000E+00  0.00000000000E+00  0.97392308839E+03  0.97817907356E+03  0.91148877432E+02 0.  0.
          2    1    3    3  502    0  0.20059694987E+02  0.61021769421E+01  0.92121635684E+03  0.92145493869E+03  0.00000000000E+00 0. -1.
         -2    1    3    3    0  502 -0.20059694987E+02 -0.61021769421E+01  0.52706731552E+02  0.56724134875E+02  0.00000000000E+00 0.  1.
<mgrwt>
<rscale>  0 0.91148877E+02</rscale>
<asrwt>0</asrwt>
<pdfrwt beam="1">  1        2 0.15016135E+00 0.91148877E+02</pdfrwt>
<pdfrwt beam="2">  1       -2 0.32738425E-03 0.91148877E+02</pdfrwt>
<totfact> 0.24990046E+05</totfact>
</mgrwt>
</event>
<event>
 5    1  0.3858870E+001  0.9034068E+02  0.7546771E-02  0.1302029E+00
          3   -1    0    0  501    0  0.00000000000E+00  0.00000000000E+00  0.27947305898E+01  0.27947305898E+01  0.00000000000E+00 0. -1.
         -3   -1    0    0    0  501 -0.00000000000E+00 -0.00000000000E+00 -0.73007380460E+03  0.73007380460E+03  0.00000000000E+00 0.  1.
         23    2    1    2    0    0  0.00000000000E+00  0.00000000000E+00 -0.72727907401E+03  0.73286853519E+03  0.90340679531E+02 0.  0.
          2    1    3    3  502    0  0.21558461346E+02 -0.20889152244E+02 -0.89829409117E+02  0.94712442051E+02  0.00000000000E+00 0. -1.
         -2    1    3    3    0  502 -0.21558461346E+02  0.20889152244E+02 -0.63744966490E+03  0.63815609314E+03  0.00000000000E+00 0.  1.
<mgrwt>
<rscale>  0 0.90340680E+02</rscale>
<asrwt>0</asrwt>
<pdfrwt beam="1">  1        3 0.42995822E-03 0.90340680E+02</pdfrwt>
<pdfrwt beam="2">  1       -3 0.11231913E+00 0.90340680E+02</pdfrwt>
<totfact> 0.13692515E+04</totfact>
</mgrwt>
</event>
<event>
 5    1  0.3858870E+001  0.9197388E+02  0.7546771E-02  0.1298141E+00
          2   -1    0    0  501    0  0.00000000000E+00  0.00000000000E+00  0.15122041352E+03  0.15122041352E+03  0.00000000000E+00 0. -1.
         -2   -1    0    0    0  501 -0.00000000000E+00 -0.00000000000E+00 -0.13984875506E+02  0.13984875506E+02  0.00000000000E+00 0.  1.
         23    2    1    2    0    0  0.00000000000E+00  0.00000000000E+00  0.13723553801E+03  0.16520528903E+03  0.91973880141E+02 0.  0.
          2    1    3    3  502    0 -0.43617585276E+01  0.22766075260E+02  0.13995911610E+03  0.14186568753E+03  0.00000000000E+00 0. -1.
         -2    1    3    3    0  502  0.43617585276E+01 -0.22766075260E+02 -0.27235780855E+01  0.23339601492E+02  0.00000000000E+00 0.  1.
<mgrwt>
<rscale>  0 0.91973880E+02</rscale>
<asrwt>0</asrwt>
<pdfrwt beam="1">  1        2 0.23264678E-01 0.91973880E+02</pdfrwt>
<pdfrwt beam="2">  1       -2 0.21515194E-02 0.91973880E+02</pdfrwt>
<totfact> 0.13691905E+05</totfact>
</mgrwt>
</event>
<event>
 5    1  0.3858870E+001  0.8548930E+02  0.7546771E-02  0.1314158E+00
         -2   -1    0    0    0  501 -0.00000000000E+00  0.00000000000E+00  0.18087832128E+02  0.18087832128E+02  0.00000000000E+00 0.  1.
          2   -1    0    0  501    0  0.00000000000E+00 -0.00000000000E+00 -0.10101294729E+03  0.10101294729E+03  0.00000000000E+00 0. -1.
         23    2    1    2    0    0  0.00000000000E+00  0.00000000000E+00 -0.82925115166E+02  0.11910077942E+03  0.85489303036E+02 0.  0.
          2    1    3    3  502    0 -0.17283168199E+02  0.23053005044E+02 -0.85451233107E+02  0.90177947327E+02  0.00000000000E+00 0. -1.
         -2    1    3    3    0  502  0.17283168199E+02 -0.23053005044E+02  0.25261179414E+01  0.28922832095E+02  0.00000000000E+00 0.  1.
<mgrwt>
<rscale>  0 0.85489303E+02</rscale>
<asrwt>0</asrwt>
<pdfrwt beam="2">  1        2 0.15540453E-01 0.85489303E+02</pdfrwt>
<pdfrwt beam="1">  1       -2 0.27827434E-02 0.85489303E+02</pdfrwt>
<totfact> 0.14677541E+05</totfact>
</mgrwt>
</event>
<event>
 5    1  0.3858870E+001  0.9090042E+02  0.7546771E-02  0.1300686E+00
         -1   -1    0    0    0  501 -0.00000000000E+00  0.00000000000E+00  0.52977272053E+03  0.52977272053E+03  0.00000000000E+00 0.  1.
          1   -1    0    0  501    0  0.00000000000E+00 -0.00000000000E+00 -0.38992604194E+01  0.38992604194E+01  0.00000000000E+00 0. -1.
         23    2    1    2    0    0  0.00000000000E+00  0.00000000000E+00  0.52587346011E+03  0.53367198095E+03  0.90900424650E+02 0.  0.
          2    1    3    3  502    0 -0.36156619984E+01  0.26217146265E+02  0.46004475302E+02  0.53073755452E+02  0.00000000000E+00 0. -1.
         -2    1    3    3    0  502  0.36156619984E+01 -0.26217146265E+02  0.47986898481E+03  0.48059822550E+03  0.00000000000E+00 0.  1.
<mgrwt>
<rscale>  0 0.90900425E+02</rscale>
<asrwt>0</asrwt>
<pdfrwt beam="2">  1        1 0.59988664E-03 0.90900425E+02</pdfrwt>
<pdfrwt beam="1">  1       -1 0.81503438E-01 0.90900425E+02</pdfrwt>
<totfact> 0.45712506E+04</totfact>
</mgrwt>
</event>
<event>
 5    1  0.3858870E+001  0.9075410E+02  0.7546771E-02  0.1301036E+00
          1   -1    0    0  501    0  0.00000000000E+00  0.00000000000E+00  0.62869765701E+03  0.62869765701E+03  0.00000000000E+00 0.  1.
         -1   -1    0    0    0  501 -0.00000000000E+00 -0.00000000000E+00 -0.32751461520E+01  0.32751461520E+01  0.00000000000E+00 0. -1.
         23    2    1    2    0    0  0.00000000000E+00  0.00000000000E+00  0.62542251085E+03  0.63197280316E+03  0.90754101001E+02 0.  0.
          2    1    3    3  502    0 -0.28591385799E+02 -0.26976666992E+02  0.15485628608E+03  0.15976757256E+03  0.00000000000E+00 0. -1.
         -2    1    3    3    0  502  0.28591385799E+02  0.26976666992E+02  0.47056622478E+03  0.47220523060E+03  0.00000000000E+00 0.  1.
<mgrwt>
<rscale>  0 0.90754101E+02</rscale>
<asrwt>0</asrwt>
<pdfrwt beam="1">  1        1 0.96722620E-01 0.90754101E+02</pdfrwt>
<pdfrwt beam="2">  1       -1 0.50386914E-03 0.90754101E+02</pdfrwt>
<totfact> 0.14367738E+05</totfact>
</mgrwt>
</event>
<event>
 5    1  0.3858870E+001  0.9210888E+02  0.7546771E-02  0.1297824E+00
          1   -1    0    0  501    0  0.00000000000E+00  0.00000000000E+00  0.56122029891E+02  0.56122029891E+02  0.00000000000E+00 0. -1.
         -1   -1    0    0    0  501 -0.00000000000E+00 -0.00000000000E+00 -0.37792850094E+02  0.37792850094E+02  0.00000000000E+00 0.  1.
         23    2    1    2    0    0  0.00000000000E+00  0.00000000000E+00  0.18329179797E+02  0.93914879984E+02  0.92108880410E+02 0.  0.
          2    1    3    3  502    0 -0.99636376342E+00 -0.24481974414E+02 -0.30595538046E+02  0.39197535130E+02  0.00000000000E+00 0.  1.
         -2    1    3    3    0  502  0.99636376342E+00  0.24481974414E+02  0.48924717843E+02  0.54717344855E+02  0.00000000000E+00 0. -1.
<mgrwt>
<rscale>  0 0.92108880E+02</rscale>
<asrwt>0</asrwt>
<pdfrwt beam="1">  1        1 0.86341584E-02 0.92108880E+02</pdfrwt>
<pdfrwt beam="2">  1       -1 0.58142846E-02 0.92108880E+02</pdfrwt>
<totfact> 0.92739081E+04</totfact>
</mgrwt>
</event>
<event>
 5    1  0.3858870E+001  0.9308523E+02  0.7546771E-02  0.1295548E+00
          4   -1    0    0  501    0  0.00000000000E+00  0.00000000000E+00  0.31126564205E+02  0.31126564205E+02  0.00000000000E+00 0.  1.
         -4   -1    0    0    0  501 -0.00000000000E+00 -0.00000000000E+00 -0.69593765309E+02  0.69593765309E+02  0.00000000000E+00 0. -1.
         23    2    1    2    0    0  0.00000000000E+00  0.00000000000E+00 -0.38467201104E+02  0.10072032951E+03  0.93085225554E+02 0.  0.
          2    1    3    3  502    0  0.16682770062E+02 -0.42399076755E+02 -0.89561913643E+01  0.46435007165E+02  0.00000000000E+00 0. -1.
         -2    1    3    3    0  502 -0.16682770062E+02  0.42399076755E+02 -0.29511009740E+02  0.54285322349E+02  0.00000000000E+00 0.  1.
<mgrwt>
<rscale>  0 0.93085226E+02</rscale>
<asrwt>0</asrwt>
<pdfrwt beam="1">  1        4 0.47887022E-02 0.93085226E+02</pdfrwt>
<pdfrwt beam="2">  1       -4 0.10706733E-01 0.93085226E+02</pdfrwt>
<totfact> 0.24967032E+04</totfact>
</mgrwt>
</event>
<event>
 5    1  0.3858870E+001  0.9064690E+02  0.7546771E-02  0.1301293E+00
         -2   -1    0    0    0  501 -0.00000000000E+00  0.00000000000E+00  0.40992783708E+02  0.40992783708E+02  0.00000000000E+00 0.  1.
          2   -1    0    0  501    0  0.00000000000E+00 -0.00000000000E+00 -0.50111632175E+02  0.50111632175E+02  0.00000000000E+00 0. -1.
         23    2    1    2    0    0  0.00000000000E+00  0.00000000000E+00 -0.91188484676E+01  0.91104415883E+02  0.90646903952E+02 0.  0.
          2    1    3    3  502    0 -0.39001739364E+02 -0.44837094689E+01 -0.27322710783E+02  0.47830637134E+02  0.00000000000E+00 0. -1.
         -2    1    3    3    0  502  0.39001739364E+02  0.44837094689E+01  0.18203862316E+02  0.43273778749E+02  0.00000000000E+00 0.  1.
<mgrwt>
<rscale>  0 0.90646904E+02</rscale>
<asrwt>0</asrwt>
<pdfrwt beam="2">  1        2 0.77094818E-02 0.90646904E+02</pdfrwt>
<pdfrwt beam="1">  1       -2 0.63065822E-02 0.90646904E+02</pdfrwt>
<totfact> 0.10282969E+05</totfact>
</mgrwt>
</event>
<event>
 5    1  0.3858870E+001  0.8798809E+02  0.7546771E-02  0.1307798E+00
          1   -1    0    0  501    0  0.00000000000E+00  0.00000000000E+00  0.27411538653E+04  0.27411538653E+04  0.00000000000E+00 0. -1.
         -1   -1    0    0    0  501 -0.00000000000E+00 -0.00000000000E+00 -0.70608069792E+00  0.70608069792E+00  0.00000000000E+00 0.  1.
         23    2    1    2    0    0  0.00000000000E+00  0.00000000000E+00  0.27404477846E+04  0.27418599460E+04  0.87988086337E+02 0.  0.
          2    1    3    3  502    0  0.22577999939E+02 -0.30911002090E+02  0.20459517232E+04  0.20463097786E+04  0.00000000000E+00 0. -1.
         -2    1    3    3    0  502 -0.22577999939E+02  0.30911002090E+02  0.69449606141E+03  0.69555016746E+03  0.00000000000E+00 0.  1.
<mgrwt>
<rscale>  0 0.87988086E+02</rscale>
<asrwt>0</asrwt>
<pdfrwt beam="1">  1        1 0.42170746E+00 0.87988086E+02</pdfrwt>
<pdfrwt beam="2">  1       -1 0.10862999E-03 0.87988086E+02</pdfrwt>
<totfact> 0.45498104E+04</totfact>
</mgrwt>
</event>
<event>
 5    1  0.3858870E+001  0.8951482E+02  0.7546771E-02  0.1304031E+00
         -2   -1    0    0    0  501 -0.00000000000E+00  0.00000000000E+00  0.14115072874E+01  0.14115072874E+01  0.00000000000E+00 0.  1.
          2   -1    0    0  501    0  0.00000000000E+00 -0.00000000000E+00 -0.14192104094E+04  0.14192104094E+04  0.00000000000E+00 0. -1.
         23    2    1    2    0    0  0.00000000000E+00  0.00000000000E+00 -0.14177989021E+04  0.14206219167E+04  0.89514821908E+02 0.  0.
          2    1    3    3  502    0  0.11720580747E+02 -0.37049995194E+02 -0.10613302191E+04  0.10620413872E+04  0.00000000000E+00 0. -1.
         -2    1    3    3    0  502 -0.11720580747E+02  0.37049995194E+02 -0.35646868306E+03  0.35858052953E+03  0.00000000000E+00 0.  1.
<mgrwt>
<rscale>  0 0.89514822E+02</rscale>
<asrwt>0</asrwt>
<pdfrwt beam="2">  1        2 0.21834110E+00 0.89514822E+02</pdfrwt>
<pdfrwt beam="1">  1       -2 0.21715394E-03 0.89514822E+02</pdfrwt>
<totfact> 0.25236978E+05</totfact>
</mgrwt>
</event>
<event>
 5    1  0.3858870E+001  0.9101419E+02  0.7546771E-02  0.1300414E+00
         -1   -1    0    0    0  501 -0.00000000000E+00  0.00000000000E+00  0.81669627270E+02  0.81669627270E+02  0.00000000000E+00 0.  1.
          1   -1    0    0  501    0  0.00000000000E+00 -0.00000000000E+00 -0.25356985445E+02  0.25356985445E+02  0.00000000000E+00 0. -1.
         23    2    1    2    0    0  0.00000000000E+00  0.00000000000E+00  0.56312641826E+02  0.10702661272E+03  0.91014186806E+02 0.  0.
          2    1    3    3  502    0 -0.12496773853E+02 -0.43757397033E+02  0.28306905179E+02  0.53592537099E+02  0.00000000000E+00 0. -1.
         -2    1    3    3    0  502  0.12496773853E+02  0.43757397033E+02  0.28005736647E+02  0.53434075617E+02  0.00000000000E+00 0.  1.
<mgrwt>
<rscale>  0 0.91014187E+02</rscale>
<asrwt>0</asrwt>
<pdfrwt beam="2">  1        1 0.39010747E-02 0.91014187E+02</pdfrwt>
<pdfrwt beam="1">  1       -1 0.12564558E-01 0.91014187E+02</pdfrwt>
<totfact> 0.84741374E+04</totfact>
</mgrwt>
</event>
<event>
 5    1  0.3858870E+001  0.8978701E+02  0.7546771E-02  0.1303368E+00
          3   -1    0    0  501    0  0.00000000000E+00  0.00000000000E+00  0.28548270970E+01  0.28548270970E+01  0.00000000000E+00 0. -1.
         -3   -1    0    0    0  501 -0.00000000000E+00 -0.00000000000E+00 -0.70597159151E+03  0.70597159151E+03  0.00000000000E+00 0.  1.
         23    2    1    2    0    0  0.00000000000E+00  0.00000000000E+00 -0.70311676442E+03  0.70882641861E+03  0.89787010846E+02 0.  0.
          2    1    3    3  502    0 -0.41293429257E+02 -0.16795386666E+02 -0.39347716903E+03  0.39599433690E+03  0.00000000000E+00 0.  1.
         -2    1    3    3    0  502  0.41293429257E+02  0.16795386666E+02 -0.30963959539E+03  0.31283208171E+03  0.00000000000E+00 0. -1.
<mgrwt>
<rscale>  0 0.89787011E+02</rscale>
<asrwt>0</asrwt>
<pdfrwt beam="1">  1        3 0.43920385E-03 0.89787011E+02</pdfrwt>
<pdfrwt beam="2">  1       -3 0.10861109E+00 0.89787011E+02</pdfrwt>
<totfact> 0.14315410E+04</totfact>
</mgrwt>
</event>
<event>
 5    1  0.3858870E+001  0.9288096E+02  0.7546771E-02  0.1296021E+00
          2   -1    0    0  501    0  0.00000000000E+00  0.00000000000E+00  0.24356818461E+02  0.24356818461E+02  0.00000000000E+00 0. -1.
         -2   -1    0    0    0  501 -0.00000000000E+00 -0.00000000000E+00 -0.88546788201E+02  0.88546788201E+02  0.00000000000E+00 0.  1.
         23    2    1    2    0    0  0.00000000000E+00  0.00000000000E+00 -0.64189969740E+02  0.11290360666E+03  0.92880957048E+02 0.  0.
          2    1    3    3  502    0 -0.33817238768E+02  0.28617246703E+02 -0.15156784073E+02  0.46821795674E+02  0.00000000000E+00 0. -1.
         -2    1    3    3    0  502  0.33817238768E+02 -0.28617246703E+02 -0.49033185667E+02  0.66081810988E+02  0.00000000000E+00 0.  1.
<mgrwt>
<rscale>  0 0.92880957E+02</rscale>
<asrwt>0</asrwt>
<pdfrwt beam="1">  1        2 0.37472028E-02 0.92880957E+02</pdfrwt>
<pdfrwt beam="2">  1       -2 0.13622583E-01 0.92880957E+02</pdfrwt>
<totfact> 0.78986632E+04</totfact>
</mgrwt>
</event>
<event>
 5    1  0.3858870E+001  0.8832819E+02  0.7546771E-02  0.1306951E+00
         -4   -1    0    0    0  501 -0.00000000000E+00  0.00000000000E+00  0.84154435963E+01  0.84154435963E+01  0.00000000000E+00 0.  1.
          4   -1    0    0  501    0  0.00000000000E+00 -0.00000000000E+00 -0.23177234303E+03  0.23177234303E+03  0.00000000000E+00 0. -1.
         23    2    1    2    0    0  0.00000000000E+00  0.00000000000E+00 -0.22335689943E+03  0.24018778662E+03  0.88328185307E+02 0.  0.
          2    1    3    3  502    0  0.31064532507E+02 -0.30398742658E+02 -0.13298235381E+03  0.13990495045E+03  0.00000000000E+00 0. -1.
         -2    1    3    3    0  502 -0.31064532507E+02  0.30398742658E+02 -0.90374545615E+02  0.10028283617E+03  0.00000000000E+00 0.  1.
<mgrwt>
<rscale>  0 0.88328185E+02</rscale>
<asrwt>0</asrwt>
<pdfrwt beam="2">  1        4 0.35657285E-01 0.88328185E+02</pdfrwt>
<pdfrwt beam="1">  1       -4 0.12946836E-02 0.88328185E+02</pdfrwt>
<totfact> 0.21561230E+04</totfact>
</mgrwt>
</event>
<event>
 5    1  0.3858870E+001  0.8391554E+02  0.7546771E-02  0.1318293E+00
         -2   -1    0    0    0  501 -0.00000000000E+00  0.00000000000E+00  0.14410191954E+02  0.14410191954E+02  0.00000000000E+00 0.  1.
          2   -1    0    0  501    0  0.00000000000E+00 -0.00000000000E+00 -0.12216731662E+03  0.12216731662E+03  0.00000000000E+00 0. -1.
         23    2    1    2    0    0  0.00000000000E+00  0.00000000000E+00 -0.10775712467E+03  0.13657750857E+03  0.83915540467E+02 0.  0.
          2    1    3    3  502    0 -0.28274991775E+02  0.15739979240E+01 -0.10426727564E+03  0.10804451582E+03  0.00000000000E+00 0. -1.
         -2    1    3    3    0  502  0.28274991775E+02 -0.15739979240E+01 -0.34898490273E+01  0.28532992755E+02  0.00000000000E+00 0.  1.
<mgrwt>
<rscale>  0 0.83915540E+02</rscale>
<asrwt>0</asrwt>
<pdfrwt beam="2">  1        2 0.18794972E-01 0.83915540E+02</pdfrwt>
<pdfrwt beam="1">  1       -2 0.22169526E-02 0.83915540E+02</pdfrwt>
<totfact> 0.16362289E+05</totfact>
</mgrwt>
</event>
<event>
 5    1  0.3858870E+001  0.9208339E+02  0.7546771E-02  0.1297883E+00
          4   -1    0    0  501    0  0.00000000000E+00  0.00000000000E+00  0.69353065661E+03  0.69353065661E+03  0.00000000000E+00 0.  1.
         -4   -1    0    0    0  501 -0.00000000000E+00 -0.00000000000E+00 -0.30565883216E+01  0.30565883216E+01  0.00000000000E+00 0. -1.
         23    2    1    2    0    0  0.00000000000E+00  0.00000000000E+00  0.69047406829E+03  0.69658724493E+03  0.92083390591E+02 0.  0.
          2    1    3    3  502    0 -0.44477531077E+02  0.11538190120E+02  0.32323792754E+03  0.32648757771E+03  0.00000000000E+00 0.  1.
         -2    1    3    3    0  502  0.44477531077E+02 -0.11538190120E+02  0.36723614075E+03  0.37009966722E+03  0.00000000000E+00 0. -1.
<mgrwt>
<rscale>  0 0.92083391E+02</rscale>
<asrwt>0</asrwt>
<pdfrwt beam="1">  1        4 0.10669690E+00 0.92083391E+02</pdfrwt>
<pdfrwt beam="2">  1       -4 0.47024491E-03 0.92083391E+02</pdfrwt>
<totfact> 0.98254297E+03</totfact>
</mgrwt>
</event>
<event>
 5    1  0.3858870E+001  0.9134386E+02  0.7546771E-02  0.1299630E+00
          2   -1    0    0  501    0  0.00000000000E+00  0.00000000000E+00  0.14667140006E+04  0.14667140006E+04  0.00000000000E+00 0. -1.
         -2   -1    0    0    0  501 -0.00000000000E+00 -0.00000000000E+00 -0.14221756740E+01  0.14221756740E+01  0.00000000000E+00 0.  1.
         23    2    1    2    0    0  0.00000000000E+00  0.00000000000E+00  0.14652918249E+04  0.14681361763E+04  0.91343855237E+02 0.  0.
          2    1    3    3  502    0 -0.33691056314E+02  0.28545721201E+02  0.92006927254E+03  0.92112833620E+03  0.00000000000E+00 0. -1.
         -2    1    3    3    0  502  0.33691056314E+02 -0.28545721201E+02  0.54522255240E+03  0.54700784009E+03  0.00000000000E+00 0.  1.
<mgrwt>
<rscale>  0 0.91343855E+02</rscale>
<asrwt>0</asrwt>
<pdfrwt beam="1">  1        2 0.22564710E+00 0.91343855E+02</pdfrwt>
<pdfrwt beam="2">  1       -2 0.21879743E-03 0.91343855E+02</pdfrwt>
<totfact> 0.23674694E+05</totfact>
</mgrwt>
</event>
<event>
 5    1  0.3858870E+001  0.8892963E+02  0.7546771E-02  0.1305465E+00
          1   -1    0    0  501    0  0.00000000000E+00  0.00000000000E+00  0.22006865943E+03  0.22006865943E+03  0.00000000000E+00 0. -1.
         -1   -1    0    0    0  501 -0.00000000000E+00 -0.00000000000E+00 -0.89841033046E+01  0.89841033046E+01  0.00000000000E+00 0.  1.
         23    2    1    2    0    0  0.00000000000E+00  0.00000000000E+00  0.21108455612E+03  0.22905276273E+03  0.88929625444E+02 0.  0.
          2    1    3    3  502    0  0.20036704264E+02 -0.31349425282E+02  0.16825656085E+03  0.17232099771E+03  0.00000000000E+00 0. -1.
         -2    1    3    3    0  502 -0.20036704264E+02  0.31349425282E+02  0.42827995275E+02  0.56731765022E+02  0.00000000000E+00 0.  1.
<mgrwt>
<rscale>  0 0.88929625E+02</rscale>
<asrwt>0</asrwt>
<pdfrwt beam="1">  1        1 0.33856713E-01 0.88929625E+02</pdfrwt>
<pdfrwt beam="2">  1       -1 0.13821699E-02 0.88929625E+02</pdfrwt>
<totfact> 0.12894880E+05</totfact>
</mgrwt>
</event>
<event>
 5    1  0.3858870E+001  0.9198540E+02  0.7546771E-02  0.1298114E+00
          1   -1    0    0  501    0  0.00000000000E+00  0.00000000000E+00  0.66804589161E+03  0.66804589161E+03  0.00000000000E+00 0. -1.
         -1   -1    0    0    0  501 -0.00000000000E+00 -0.00000000000E+00 -0.31664419075E+01  0.31664419075E+01  0.00000000000E+00 0.  1.
         23    2    1    2    0    0  0.00000000000E+00  0.00000000000E+00  0.66487944970E+03  0.67121233352E+03  0.91985401174E+02 0.  0.
          2    1    3    3  502    0 -0.82947594205E+01 -0.18768748076E+02  0.63279204760E+03  0.63312466737E+03  0.00000000000E+00 0. -1.
         -2    1    3    3    0  502  0.82947594205E+01  0.18768748076E+02  0.32087402105E+02  0.38087666140E+02  0.00000000000E+00 0.  1.
<mgrwt>
<rscale>  0 0.91985401E+02</rscale>
<asrwt>0</asrwt>
<pdfrwt beam="1">  1        1 0.10277618E+00 0.91985401E+02</pdfrwt>
<pdfrwt beam="2">  1       -1 0.48714544E-03 0.91985401E+02</pdfrwt>
<totfact> 0.13887558E+05</totfact>
</mgrwt>
</event>
<event>
 5    1  0.3858870E+001  0.9364992E+02  0.7546771E-02  0.1294246E+00
         -4   -1    0    0    0  501 -0.00000000000E+00  0.00000000000E+00  0.15892229263E+03  0.15892229263E+03  0.00000000000E+00 0.  1.
          4   -1    0    0  501    0  0.00000000000E+00 -0.00000000000E+00 -0.13796535589E+02  0.13796535589E+02  0.00000000000E+00 0. -1.
         23    2    1    2    0    0  0.00000000000E+00  0.00000000000E+00  0.14512575704E+03  0.17271882822E+03  0.93649923995E+02 0.  0.
          2    1    3    3  502    0  0.18112981186E+02 -0.99466002921E+01 -0.49321344152E+01  0.21244785118E+02  0.00000000000E+00 0. -1.
         -2    1    3    3    0  502 -0.18112981186E+02  0.99466002921E+01  0.15005789146E+03  0.15147404310E+03  0.00000000000E+00 0.  1.
<mgrwt>
<rscale>  0 0.93649924E+02</rscale>
<asrwt>0</asrwt>
<pdfrwt beam="2">  1        4 0.21225441E-02 0.93649924E+02</pdfrwt>
<pdfrwt beam="1">  1       -4 0.24449582E-01 0.93649924E+02</pdfrwt>
<totfact> 0.21011147E+04</totfact>
</mgrwt>
</event>
<event>
 5    1  0.3858870E+001  0.9800533E+02  0.7546771E-02  0.1284547E+00
          2   -1    0    0  501    0  0.00000000000E+00  0.00000000000E+00  0.68378891120E+03  0.68378891120E+03  0.00000000000E+00 0. -1.
         -2   -1    0    0    0  501 -0.00000000000E+00 -0.00000000000E+00 -0.35116996363E+01  0.35116996363E+01  0.00000000000E+00 0.  1.
         23    2    1    2    0    0  0.00000000000E+00  0.00000000000E+00  0.68027721156E+03  0.68730061084E+03  0.98005331911E+02 0.  0.
          2    1    3    3  502    0 -0.35412940670E+02 -0.26195853812E+02  0.49070555745E+03  0.49267864094E+03  0.00000000000E+00 0. -1.
         -2    1    3    3    0  502  0.35412940670E+02  0.26195853812E+02  0.18957165411E+03  0.19462196990E+03  0.00000000000E+00 0.  1.
<mgrwt>
<rscale>  0 0.98005332E+02</rscale>
<asrwt>0</asrwt>
<pdfrwt beam="1">  1        2 0.10519819E+00 0.98005332E+02</pdfrwt>
<pdfrwt beam="2">  1       -2 0.54026203E-03 0.98005332E+02</pdfrwt>
<totfact> 0.19477311E+05</totfact>
</mgrwt>
</event>
<event>
 5    1  0.3858870E+001  0.9162164E+02  0.7546771E-02  0.1298972E+00
         -2   -1    0    0    0  501 -0.00000000000E+00  0.00000000000E+00  0.35081334368E+01  0.35081334368E+01  0.00000000000E+00 0.  1.
          2   -1    0    0  501    0  0.00000000000E+00 -0.00000000000E+00 -0.59821879659E+03  0.59821879659E+03  0.00000000000E+00 0. -1.
         23    2    1    2    0    0  0.00000000000E+00  0.00000000000E+00 -0.59471066315E+03  0.60172693003E+03  0.91621642920E+02 0.  0.
          2    1    3    3  502    0  0.29964465945E+02 -0.15024419167E+02 -0.50242911026E+03  0.50354603883E+03  0.00000000000E+00 0. -1.
         -2    1    3    3    0  502 -0.29964465945E+02  0.15024419167E+02 -0.92281552897E+02  0.98180891195E+02  0.00000000000E+00 0.  1.
<mgrwt>
<rscale>  0 0.91621643E+02</rscale>
<asrwt>0</asrwt>
<pdfrwt beam="2">  1        2 0.92033516E-01 0.91621643E+02</pdfrwt>
<pdfrwt beam="1">  1       -2 0.53971369E-03 0.91621643E+02</pdfrwt>
<totfact> 0.22474808E+05</totfact>
</mgrwt>
</event>
<event>
 5    1  0.3858870E+001  0.8767735E+02  0.7546771E-02  0.1308576E+00
         -2   -1    0    0    0  501 -0.00000000000E+00  0.00000000000E+00  0.22865218678E+01  0.22865218678E+01  0.00000000000E+00 0.  1.
          2   -1    0    0  501    0  0.00000000000E+00 -0.00000000000E+00 -0.84050332292E+03  0.84050332292E+03  0.00000000000E+00 0. -1.
         23    2    1    2    0    0  0.00000000000E+00  0.00000000000E+00 -0.83821680105E+03  0.84278984479E+03  0.87677345485E+02 0.  0.
          2    1    3    3  502    0  0.18364641877E+02  0.39610419113E+02 -0.45705469216E+03  0.45913531447E+03  0.00000000000E+00 0. -1.
         -2    1    3    3    0  502 -0.18364641877E+02 -0.39610419113E+02 -0.38116210889E+03  0.38365453031E+03  0.00000000000E+00 0.  1.
<mgrwt>
<rscale>  0 0.87677345E+02</rscale>
<asrwt>0</asrwt>
<pdfrwt beam="2">  1        2 0.12930848E+00 0.87677345E+02</pdfrwt>
<pdfrwt beam="1">  1       -2 0.35177184E-03 0.87677345E+02</pdfrwt>
<totfact> 0.27234458E+05</totfact>
</mgrwt>
</event>
<event>
 5    1  0.3858870E+001  0.8990190E+02  0.7546771E-02  0.1303089E+00
          2   -1    0    0  501    0  0.00000000000E+00  0.00000000000E+00  0.68070391279E+03  0.68070391279E+03  0.00000000000E+00 0. -1.
         -2   -1    0    0    0  501 -0.00000000000E+00 -0.00000000000E+00 -0.29683797721E+01  0.29683797721E+01  0.00000000000E+00 0.  1.
         23    2    1    2    0    0  0.00000000000E+00  0.00000000000E+00  0.67773553302E+03  0.68367229256E+03  0.89901895988E+02 0.  0.
          2    1    3    3  502    0 -0.11286415705E+02 -0.36255981196E+02  0.52180790847E+03  0.52318770312E+03  0.00000000000E+00 0. -1.
         -2    1    3    3    0  502  0.11286415705E+02  0.36255981196E+02  0.15592762455E+03  0.16048458944E+03  0.00000000000E+00 0.  1.
<mgrwt>
<rscale>  0 0.89901896E+02</rscale>
<asrwt>0</asrwt>
<pdfrwt beam="1">  1        2 0.10472355E+00 0.89901896E+02</pdfrwt>
<pdfrwt beam="2">  1       -2 0.45667435E-03 0.89901896E+02</pdfrwt>
<totfact> 0.24447841E+05</totfact>
</mgrwt>
</event>
<event>
 5    1  0.3858870E+001  0.8408418E+02  0.7546771E-02  0.1317845E+00
          4   -1    0    0  501    0  0.00000000000E+00  0.00000000000E+00  0.63723419141E+02  0.63723419141E+02  0.00000000000E+00 0. -1.
         -4   -1    0    0    0  501 -0.00000000000E+00 -0.00000000000E+00 -0.27737640566E+02  0.27737640566E+02  0.00000000000E+00 0.  1.
         23    2    1    2    0    0  0.00000000000E+00  0.00000000000E+00  0.35985778575E+02  0.91461059707E+02  0.84084179148E+02 0.  0.
          2    1    3    3  502    0  0.12206703191E+02  0.40229902124E+02  0.17668993250E+02  0.45603091454E+02  0.00000000000E+00 0. -1.
         -2    1    3    3    0  502 -0.12206703191E+02 -0.40229902124E+02  0.18316785325E+02  0.45857968253E+02  0.00000000000E+00 0.  1.
<mgrwt>
<rscale>  0 0.84084179E+02</rscale>
<asrwt>0</asrwt>
<pdfrwt beam="1">  1        4 0.98036029E-02 0.84084179E+02</pdfrwt>
<pdfrwt beam="2">  1       -4 0.42673293E-02 0.84084179E+02</pdfrwt>
<totfact> 0.33582109E+04</totfact>
</mgrwt>
</event>
<event>
 5    1  0.3858870E+001  0.9205529E+02  0.7546771E-02  0.1297949E+00
          2   -1    0    0  501    0  0.00000000000E+00  0.00000000000E+00  0.10621001028E+03  0.10621001028E+03  0.00000000000E+00 0. -1.
         -2   -1    0    0    0  501 -0.00000000000E+00 -0.00000000000E+00 -0.19946745950E+02  0.19946745950E+02  0.00000000000E+00 0.  1.
         23    2    1    2    0    0  0.00000000000E+00  0.00000000000E+00  0.86263264328E+02  0.12615675623E+03  0.92055289743E+02 0.  0.
          2    1    3    3  502    0  0.42649898001E+02 -0.10549442265E+02  0.24329062132E+02  0.50221586950E+02  0.00000000000E+00 0. -1.
         -2    1    3    3    0  502 -0.42649898001E+02  0.10549442265E+02  0.61934202196E+02  0.75935169278E+02  0.00000000000E+00 0.  1.
<mgrwt>
<rscale>  0 0.92055290E+02</rscale>
<asrwt>0</asrwt>
<pdfrwt beam="1">  1        2 0.16340001E-01 0.92055290E+02</pdfrwt>
<pdfrwt beam="2">  1       -2 0.30687302E-02 0.92055290E+02</pdfrwt>
<totfact> 0.12171379E+05</totfact>
</mgrwt>
</event>
<event>
 5    1  0.3858870E+001  0.9254229E+02  0.7546771E-02  0.1296809E+00
         -1   -1    0    0    0  501 -0.00000000000E+00  0.00000000000E+00  0.56403071818E+02  0.56403071818E+02  0.00000000000E+00 0.  1.
          1   -1    0    0  501    0  0.00000000000E+00 -0.00000000000E+00 -0.37959260237E+02  0.37959260237E+02  0.00000000000E+00 0. -1.
         23    2    1    2    0    0  0.00000000000E+00  0.00000000000E+00  0.18443811581E+02  0.94362332054E+02  0.92542290468E+02 0.  0.
          2    1    3    3  502    0 -0.95210238432E+01  0.29942004463E+02  0.43858264134E+02  0.53951096923E+02  0.00000000000E+00 0.  1.
         -2    1    3    3    0  502  0.95210238432E+01 -0.29942004463E+02 -0.25414452554E+02  0.40411235132E+02  0.00000000000E+00 0. -1.
<mgrwt>
<rscale>  0 0.92542290E+02</rscale>
<asrwt>0</asrwt>
<pdfrwt beam="2">  1        1 0.58398861E-02 0.92542290E+02</pdfrwt>
<pdfrwt beam="1">  1       -1 0.86773958E-02 0.92542290E+02</pdfrwt>
<totfact> 0.86225962E+04</totfact>
</mgrwt>
</event>
<event>
 5    1  0.3858870E+001  0.9088900E+02  0.7546771E-02  0.1300713E+00
          4   -1    0    0  501    0  0.00000000000E+00  0.00000000000E+00  0.14027709284E+02  0.14027709284E+02  0.00000000000E+00 0. -1.
         -4   -1    0    0    0  501 -0.00000000000E+00 -0.00000000000E+00 -0.14722307320E+03  0.14722307320E+03  0.00000000000E+00 0.  1.
         23    2    1    2    0    0  0.00000000000E+00  0.00000000000E+00 -0.13319536392E+03  0.16125078249E+03  0.90888997593E+02 0.  0.
          2    1    3    3  502    0 -0.28534850404E+02 -0.28961840469E+02 -0.30578638706E+02  0.50873166168E+02  0.00000000000E+00 0. -1.
         -2    1    3    3    0  502  0.28534850404E+02  0.28961840469E+02 -0.10261672521E+03  0.11037761632E+03  0.00000000000E+00 0.  1.
<mgrwt>
<rscale>  0 0.90888998E+02</rscale>
<asrwt>0</asrwt>
<pdfrwt beam="1">  1        4 0.21581092E-02 0.90888998E+02</pdfrwt>
<pdfrwt beam="2">  1       -4 0.22649702E-01 0.90888998E+02</pdfrwt>
<totfact> 0.23318058E+04</totfact>
</mgrwt>
</event>
<event>
 5    1  0.3858870E+001  0.9168237E+02  0.7546771E-02  0.1298828E+00
          2   -1    0    0  501    0  0.00000000000E+00  0.00000000000E+00  0.10595565601E+04  0.10595565601E+04  0.00000000000E+00 0.  1.
         -2   -1    0    0    0  501 -0.00000000000E+00 -0.00000000000E+00 -0.19832961729E+01  0.19832961729E+01  0.00000000000E+00 0. -1.
         23    2    1    2    0    0  0.00000000000E+00  0.00000000000E+00  0.10575732639E+04  0.10615398563E+04  0.91682374982E+02 0.  0.
          2    1    3    3  502    0 -0.40606087005E+02 -0.14789234717E+02  0.35173144729E+03  0.35437633495E+03  0.00000000000E+00 0. -1.
         -2    1    3    3    0  502  0.40606087005E+02  0.14789234717E+02  0.70584181662E+03  0.70716352130E+03  0.00000000000E+00 0.  1.
<mgrwt>
<rscale>  0 0.91682375E+02</rscale>
<asrwt>0</asrwt>
<pdfrwt beam="1">  1        2 0.16300825E+00 0.91682375E+02</pdfrwt>
<pdfrwt beam="2">  1       -2 0.30512333E-03 0.91682375E+02</pdfrwt>
<totfact> 0.24671463E+05</totfact>
</mgrwt>
</event>
<event>
 5    1  0.3858870E+001  0.9148902E+02  0.7546771E-02  0.1299285E+00
         -2   -1    0    0    0  501 -0.00000000000E+00  0.00000000000E+00  0.15391263716E+01  0.15391263716E+01  0.00000000000E+00 0.  1.
          2   -1    0    0  501    0  0.00000000000E+00 -0.00000000000E+00 -0.13595766230E+04  0.13595766230E+04  0.00000000000E+00 0. -1.
         23    2    1    2    0    0  0.00000000000E+00  0.00000000000E+00 -0.13580374967E+04  0.13611157494E+04  0.91489020866E+02 0.  0.
          2    1    3    3  502    0 -0.40089931282E+02  0.21062410424E+02 -0.77512758957E+03  0.77644935948E+03  0.00000000000E+00 0. -1.
         -2    1    3    3    0  502  0.40089931282E+02 -0.21062410424E+02 -0.58290990711E+03  0.58466638994E+03  0.00000000000E+00 0.  1.
<mgrwt>
<rscale>  0 0.91489021E+02</rscale>
<asrwt>0</asrwt>
<pdfrwt beam="2">  1        2 0.20916482E+00 0.91489021E+02</pdfrwt>
<pdfrwt beam="1">  1       -2 0.23678959E-03 0.91489021E+02</pdfrwt>
<totfact> 0.24110120E+05</totfact>
</mgrwt>
</event>
<event>
 5    1  0.3858870E+001  0.8922347E+02  0.7546771E-02  0.1304743E+00
          2   -1    0    0  501    0  0.00000000000E+00  0.00000000000E+00  0.17582464166E+04  0.17582464166E+04  0.00000000000E+00 0. -1.
         -2   -1    0    0    0  501 -0.00000000000E+00 -0.00000000000E+00 -0.11319271932E+01  0.11319271932E+01  0.00000000000E+00 0.  1.
         23    2    1    2    0    0  0.00000000000E+00  0.00000000000E+00  0.17571144894E+04  0.17593783437E+04  0.89223470708E+02 0.  0.
          2    1    3    3  502    0  0.35081289316E+02 -0.17916437358E+02  0.12914816436E+04  0.12920822463E+04  0.00000000000E+00 0. -1.
         -2    1    3    3    0  502 -0.35081289316E+02  0.17916437358E+02  0.46563284579E+03  0.46729609743E+03  0.00000000000E+00 0.  1.
<mgrwt>
<rscale>  0 0.89223471E+02</rscale>
<asrwt>0</asrwt>
<pdfrwt beam="1">  1        2 0.27049726E+00 0.89223471E+02</pdfrwt>
<pdfrwt beam="2">  1       -2 0.17414405E-03 0.89223471E+02</pdfrwt>
<totfact> 0.23052874E+05</totfact>
</mgrwt>
</event>
<event>
 5    1  0.3858870E+001  0.9124742E+02  0.7546771E-02  0.1299859E+00
         -1   -1    0    0    0  501 -0.00000000000E+00  0.00000000000E+00  0.17647774327E+01  0.17647774327E+01  0.00000000000E+00 0.  1.
          1   -1    0    0  501    0  0.00000000000E+00 -0.00000000000E+00 -0.11794817963E+04  0.11794817963E+04  0.00000000000E+00 0. -1.
         23    2    1    2    0    0  0.00000000000E+00  0.00000000000E+00 -0.11777170189E+04  0.11812465738E+04  0.91247418736E+02 0.  0.
          2    1    3    3  502    0  0.10884778613E+02 -0.38067548047E+02 -0.88232729734E+03  0.88321519249E+03  0.00000000000E+00 0. -1.
         -2    1    3    3    0  502 -0.10884778613E+02  0.38067548047E+02 -0.29538972158E+03  0.29803138129E+03  0.00000000000E+00 0.  1.
<mgrwt>
<rscale>  0 0.91247419E+02</rscale>
<asrwt>0</asrwt>
<pdfrwt beam="2">  1        1 0.18145960E+00 0.91247419E+02</pdfrwt>
<pdfrwt beam="1">  1       -1 0.27150294E-03 0.91247419E+02</pdfrwt>
<totfact> 0.12805171E+05</totfact>
</mgrwt>
</event>
<event>
 5    1  0.3858870E+001  0.8247510E+02  0.7546771E-02  0.1322171E+00
         -1   -1    0    0    0  501 -0.00000000000E+00  0.00000000000E+00  0.18574066358E+02  0.18574066358E+02  0.00000000000E+00 0.  1.
          1   -1    0    0  501    0  0.00000000000E+00 -0.00000000000E+00 -0.91554289729E+02  0.91554289729E+02  0.00000000000E+00 0. -1.
         23    2    1    2    0    0  0.00000000000E+00  0.00000000000E+00 -0.72980223371E+02  0.11012835609E+03  0.82475098127E+02 0.  0.
          2    1    3    3  502    0 -0.30186294544E+02  0.21858737542E+02 -0.12922349142E+02  0.39446215187E+02  0.00000000000E+00 0.  1.
         -2    1    3    3    0  502  0.30186294544E+02 -0.21858737542E+02 -0.60057874229E+02  0.70682140900E+02  0.00000000000E+00 0. -1.
<mgrwt>
<rscale>  0 0.82475098E+02</rscale>
<asrwt>0</asrwt>
<pdfrwt beam="2">  1        1 0.14085275E-01 0.82475098E+02</pdfrwt>
<pdfrwt beam="1">  1       -1 0.28575486E-02 0.82475098E+02</pdfrwt>
<totfact> 0.13514851E+05</totfact>
</mgrwt>
</event>
<event>
 5    1  0.3858870E+001  0.9045184E+02  0.7546771E-02  0.1301761E+00
         -1   -1    0    0    0  501 -0.00000000000E+00  0.00000000000E+00  0.19948303921E+02  0.19948303921E+02  0.00000000000E+00 0.  1.
          1   -1    0    0  501    0  0.00000000000E+00 -0.00000000000E+00 -0.10253422851E+03  0.10253422851E+03  0.00000000000E+00 0. -1.
         23    2    1    2    0    0  0.00000000000E+00  0.00000000000E+00 -0.82585924586E+02  0.12248253243E+03  0.90451842493E+02 0.  0.
          2    1    3    3  502    0 -0.21616128439E+02 -0.11450171511E+02 -0.92803262825E+02  0.95972959875E+02  0.00000000000E+00 0. -1.
         -2    1    3    3    0  502  0.21616128439E+02  0.11450171511E+02  0.10217338238E+02  0.26509572554E+02  0.00000000000E+00 0.  1.
<mgrwt>
<rscale>  0 0.90451842E+02</rscale>
<asrwt>0</asrwt>
<pdfrwt beam="2">  1        1 0.15774497E-01 0.90451842E+02</pdfrwt>
<pdfrwt beam="1">  1       -1 0.30689698E-02 0.90451842E+02</pdfrwt>
<totfact> 0.10719208E+05</totfact>
</mgrwt>
</event>
<event>
 5    1  0.3858870E+001  0.9139273E+02  0.7546771E-02  0.1299514E+00
         -1   -1    0    0    0  501 -0.00000000000E+00  0.00000000000E+00  0.37806125277E+01  0.37806125277E+01  0.00000000000E+00 0.  1.
          1   -1    0    0  501    0  0.00000000000E+00 -0.00000000000E+00 -0.55233320869E+03  0.55233320869E+03  0.00000000000E+00 0. -1.
         23    2    1    2    0    0  0.00000000000E+00  0.00000000000E+00 -0.54855259616E+03  0.55611382122E+03  0.91392731620E+02 0.  0.
          2    1    3    3  502    0  0.10338482562E+02 -0.18761511949E+02 -0.51988842170E+03  0.52032955861E+03  0.00000000000E+00 0. -1.
         -2    1    3    3    0  502 -0.10338482562E+02  0.18761511949E+02 -0.28664174461E+02  0.35784262600E+02  0.00000000000E+00 0.  1.
<mgrwt>
<rscale>  0 0.91392732E+02</rscale>
<asrwt>0</asrwt>
<pdfrwt beam="2">  1        1 0.84974323E-01 0.91392732E+02</pdfrwt>
<pdfrwt beam="1">  1       -1 0.58163281E-03 0.91392732E+02</pdfrwt>
<totfact> 0.13983506E+05</totfact>
</mgrwt>
</event>
<event>
 5    1  0.3858870E+001  0.9352220E+02  0.7546771E-02  0.1294540E+00
          1   -1    0    0  501    0  0.00000000000E+00  0.00000000000E+00  0.11230222427E+03  0.11230222427E+03  0.00000000000E+00 0. -1.
         -1   -1    0    0    0  501 -0.00000000000E+00 -0.00000000000E+00 -0.19470679262E+02  0.19470679262E+02  0.00000000000E+00 0.  1.
         23    2    1    2    0    0  0.00000000000E+00  0.00000000000E+00  0.92831545004E+02  0.13177290353E+03  0.93522202479E+02 0.  0.
          2    1    3    3  502    0  0.84233263956E+01 -0.23278973303E+02  0.10231136254E+03  0.10526384911E+03  0.00000000000E+00 0. -1.
         -2    1    3    3    0  502 -0.84233263956E+01  0.23278973303E+02 -0.94798175332E+01  0.26509054417E+02  0.00000000000E+00 0.  1.
<mgrwt>
<rscale>  0 0.93522202E+02</rscale>
<asrwt>0</asrwt>
<pdfrwt beam="1">  1        1 0.17277265E-01 0.93522202E+02</pdfrwt>
<pdfrwt beam="2">  1       -1 0.29954892E-02 0.93522202E+02</pdfrwt>
<totfact> 0.99395642E+04</totfact>
</mgrwt>
</event>
<event>
 5    1  0.3858870E+001  0.9097986E+02  0.7546771E-02  0.1300496E+00
          2   -1    0    0  501    0  0.00000000000E+00  0.00000000000E+00  0.45703206052E+03  0.45703206052E+03  0.00000000000E+00 0. -1.
         -2   -1    0    0    0  501 -0.00000000000E+00 -0.00000000000E+00 -0.45277652111E+01  0.45277652111E+01  0.00000000000E+00 0.  1.
         23    2    1    2    0    0  0.00000000000E+00  0.00000000000E+00  0.45250429531E+03  0.46155982573E+03  0.90979862915E+02 0.  0.
          2    1    3    3  502    0  0.43944065698E+02 -0.11638433578E+02  0.23474097312E+03  0.23910219261E+03  0.00000000000E+00 0. -1.
         -2    1    3    3    0  502 -0.43944065698E+02  0.11638433578E+02  0.21776332219E+03  0.22245763313E+03  0.00000000000E+00 0.  1.
<mgrwt>
<rscale>  0 0.90979863E+02</rscale>
<asrwt>0</asrwt>
<pdfrwt beam="1">  1        2 0.70312588E-01 0.90979863E+02</pdfrwt>
<pdfrwt beam="2">  1       -2 0.69657962E-03 0.90979863E+02</pdfrwt>
<totfact> 0.21034711E+05</totfact>
</mgrwt>
</event>
<event>
 5    1  0.3858870E+001  0.9118709E+02  0.7546771E-02  0.1300002E+00
          2   -1    0    0  501    0  0.00000000000E+00  0.00000000000E+00  0.30505280324E+03  0.30505280324E+03  0.00000000000E+00 0. -1.
         -2   -1    0    0    0  501 -0.00000000000E+00 -0.00000000000E+00 -0.68144646124E+01  0.68144646124E+01  0.00000000000E+00 0.  1.
         23    2    1    2    0    0  0.00000000000E+00  0.00000000000E+00  0.29823833863E+03  0.31186726785E+03  0.91187094100E+02 0.  0.
          2    1    3    3  502    0  0.17542187924E+02  0.21838657335E+02  0.27215257900E+03  0.27359035358E+03  0.00000000000E+00 0. -1.
         -2    1    3    3    0  502 -0.17542187924E+02 -0.21838657335E+02  0.26085759623E+02  0.38276914275E+02  0.00000000000E+00 0.  1.
<mgrwt>
<rscale>  0 0.91187094E+02</rscale>
<asrwt>0</asrwt>
<pdfrwt beam="1">  1        2 0.46931190E-01 0.91187094E+02</pdfrwt>
<pdfrwt beam="2">  1       -2 0.10483794E-02 0.91187094E+02</pdfrwt>
<totfact> 0.18072622E+05</totfact>
</mgrwt>
</event>
<event>
 5    1  0.3858870E+001  0.9101251E+02  0.7546771E-02  0.1300418E+00
          1   -1    0    0  501    0  0.00000000000E+00  0.00000000000E+00  0.92980033991E+01  0.92980033991E+01  0.00000000000E+00 0. -1.
         -1   -1    0    0    0  501 -0.00000000000E+00 -0.00000000000E+00 -0.22271655881E+03  0.22271655881E+03  0.00000000000E+00 0.  1.
         23    2    1    2    0    0  0.00000000000E+00  0.00000000000E+00 -0.21341855541E+03  0.23201456221E+03  0.91012511687E+02 0.  0.
          2    1    3    3  502    0 -0.12224311606E+01  0.22520564116E+02 -0.59522387593E+01  0.23325936043E+02  0.00000000000E+00 0. -1.
         -2    1    3    3    0  502  0.12224311606E+01 -0.22520564116E+02 -0.20746631665E+03  0.20868862617E+03  0.00000000000E+00 0.  1.
<mgrwt>
<rscale>  0 0.91012512E+02</rscale>
<asrwt>0</asrwt>
<pdfrwt beam="1">  1        1 0.14304621E-02 0.91012512E+02</pdfrwt>
<pdfrwt beam="2">  1       -1 0.34264085E-01 0.91012512E+02</pdfrwt>
<totfact> 0.67553585E+04</totfact>
</mgrwt>
</event>
<event>
 5    1  0.3858870E+001  0.8469021E+02  0.7546771E-02  0.1316245E+00
         -1   -1    0    0    0  501 -0.00000000000E+00  0.00000000000E+00  0.33755593438E+03  0.33755593438E+03  0.00000000000E+00 0.  1.
          1   -1    0    0  501    0  0.00000000000E+00 -0.00000000000E+00 -0.53120323458E+01  0.53120323458E+01  0.00000000000E+00 0. -1.
         23    2    1    2    0    0  0.00000000000E+00  0.00000000000E+00  0.33224390204E+03  0.34286796673E+03  0.84690212940E+02 0.  0.
          2    1    3    3  502    0  0.29916911918E+02  0.29838201449E+02  0.17740568137E+03  0.18236807743E+03  0.00000000000E+00 0. -1.
         -2    1    3    3    0  502 -0.29916911918E+02 -0.29838201449E+02  0.15483822067E+03  0.16049988930E+03  0.00000000000E+00 0.  1.
<mgrwt>
<rscale>  0 0.84690213E+02</rscale>
<asrwt>0</asrwt>
<pdfrwt beam="2">  1        1 0.81723601E-03 0.84690213E+02</pdfrwt>
<pdfrwt beam="1">  1       -1 0.51931665E-01 0.84690213E+02</pdfrwt>
<totfact> 0.69953971E+04</totfact>
</mgrwt>
</event>
<event>
 5    1  0.3858870E+001  0.8807272E+02  0.7546771E-02  0.1307587E+00
         -1   -1    0    0    0  501 -0.00000000000E+00  0.00000000000E+00  0.23071345054E+01  0.23071345054E+01  0.00000000000E+00 0.  1.
          1   -1    0    0  501    0  0.00000000000E+00 -0.00000000000E+00 -0.84052355953E+03  0.84052355953E+03  0.00000000000E+00 0. -1.
         23    2    1    2    0    0  0.00000000000E+00  0.00000000000E+00 -0.83821642502E+03  0.84283069404E+03  0.88072717838E+02 0.  0.
          2    1    3    3  502    0  0.28319299681E+02  0.72765474876E+01 -0.73422219285E+03  0.73480416395E+03  0.00000000000E+00 0. -1.
         -2    1    3    3    0  502 -0.28319299681E+02 -0.72765474876E+01 -0.10399423217E+03  0.10802653009E+03  0.00000000000E+00 0.  1.
<mgrwt>
<rscale>  0 0.88072718E+02</rscale>
<asrwt>0</asrwt>
<pdfrwt beam="2">  1        1 0.12931139E+00 0.88072718E+02</pdfrwt>
<pdfrwt beam="1">  1       -1 0.35494358E-03 0.88072718E+02</pdfrwt>
<totfact> 0.15403174E+05</totfact>
</mgrwt>
</event>
<event>
 5    1  0.3858870E+001  0.9211059E+02  0.7546771E-02  0.1297820E+00
          2   -1    0    0  501    0  0.00000000000E+00  0.00000000000E+00  0.38466740675E+03  0.38466740675E+03  0.00000000000E+00 0. -1.
         -2   -1    0    0    0  501 -0.00000000000E+00 -0.00000000000E+00 -0.55140891994E+01  0.55140891994E+01  0.00000000000E+00 0.  1.
         23    2    1    2    0    0  0.00000000000E+00  0.00000000000E+00  0.37915331755E+03  0.39018149595E+03  0.92110594243E+02 0.  0.
          2    1    3    3  502    0  0.66642558538E+01  0.45479971148E+02  0.20174390373E+03  0.20691409515E+03  0.00000000000E+00 0. -1.
         -2    1    3    3    0  502 -0.66642558538E+01 -0.45479971148E+02  0.17740941383E+03  0.18326740080E+03  0.00000000000E+00 0.  1.
<mgrwt>
<rscale>  0 0.92110594E+02</rscale>
<asrwt>0</asrwt>
<pdfrwt beam="1">  1        2 0.59179580E-01 0.92110594E+02</pdfrwt>
<pdfrwt beam="2">  1       -2 0.84832172E-03 0.92110594E+02</pdfrwt>
<totfact> 0.19157816E+05</totfact>
</mgrwt>
</event>
<event>
 5    1  0.3858870E+001  0.9432632E+02  0.7546771E-02  0.1292701E+00
          3   -1    0    0  501    0  0.00000000000E+00  0.00000000000E+00  0.16108421209E+02  0.16108421209E+02  0.00000000000E+00 0. -1.
         -3   -1    0    0    0  501 -0.00000000000E+00 -0.00000000000E+00 -0.13808699414E+03  0.13808699414E+03  0.00000000000E+00 0.  1.
         23    2    1    2    0    0  0.00000000000E+00  0.00000000000E+00 -0.12197857293E+03  0.15419541535E+03  0.94326315841E+02 0.  0.
          2    1    3    3  502    0 -0.16251262498E+02 -0.39982619262E+02 -0.29901995564E+02  0.52505644597E+02  0.00000000000E+00 0. -1.
         -2    1    3    3    0  502  0.16251262498E+02  0.39982619262E+02 -0.92076577369E+02  0.10168977075E+03  0.00000000000E+00 0.  1.
<mgrwt>
<rscale>  0 0.94326316E+02</rscale>
<asrwt>0</asrwt>
<pdfrwt beam="1">  1        3 0.24782186E-02 0.94326316E+02</pdfrwt>
<pdfrwt beam="2">  1       -3 0.21244153E-01 0.94326316E+02</pdfrwt>
<totfact> 0.28316756E+04</totfact>
</mgrwt>
</event>
<event>
 5    1  0.3858870E+001  0.9330975E+02  0.7546771E-02  0.1295029E+00
         -2   -1    0    0    0  501 -0.00000000000E+00  0.00000000000E+00  0.41890688926E+01  0.41890688926E+01  0.00000000000E+00 0. -1.
          2   -1    0    0  501    0  0.00000000000E+00 -0.00000000000E+00 -0.51960889451E+03  0.51960889451E+03  0.00000000000E+00 0.  1.
         23    2    1    2    0    0  0.00000000000E+00  0.00000000000E+00 -0.51541982562E+03  0.52379796340E+03  0.93309752037E+02 0.  0.
          2    1    3    3  502    0 -0.19142651439E+02  0.34042004233E+02 -0.11444052229E+03  0.12092118217E+03  0.00000000000E+00 0. -1.
         -2    1    3    3    0  502  0.19142651439E+02 -0.34042004233E+02 -0.40097930333E+03  0.40287678123E+03  0.00000000000E+00 0.  1.
<mgrwt>
<rscale>  0 0.93309752E+02</rscale>
<asrwt>0</asrwt>
<pdfrwt beam="2">  1        2 0.79939880E-01 0.93309752E+02</pdfrwt>
<pdfrwt beam="1">  1       -2 0.64447173E-03 0.93309752E+02</pdfrwt>
<totfact> 0.20521032E+05</totfact>
</mgrwt>
</event>
<event>
 5    1  0.3858870E+001  0.9092748E+02  0.7546771E-02  0.1300621E+00
          2   -1    0    0  501    0  0.00000000000E+00  0.00000000000E+00  0.10457637054E+04  0.10457637054E+04  0.00000000000E+00 0. -1.
         -2   -1    0    0    0  501 -0.00000000000E+00 -0.00000000000E+00 -0.19764996430E+01  0.19764996430E+01  0.00000000000E+00 0.  1.
         23    2    1    2    0    0  0.00000000000E+00  0.00000000000E+00  0.10437872058E+04  0.10477402051E+04  0.90927478585E+02 0.  0.
          2    1    3    3  502    0  0.38679804910E+01 -0.44963751870E+02  0.58527046528E+03  0.58700785156E+03  0.00000000000E+00 0. -1.
         -2    1    3    3    0  502 -0.38679804910E+01  0.44963751870E+02  0.45851674049E+03  0.46073235351E+03  0.00000000000E+00 0.  1.
<mgrwt>
<rscale>  0 0.90927479E+02</rscale>
<asrwt>0</asrwt>
<pdfrwt beam="1">  1        2 0.16088628E+00 0.90927479E+02</pdfrwt>
<pdfrwt beam="2">  1       -2 0.30407770E-03 0.90927479E+02</pdfrwt>
<totfact> 0.25212770E+05</totfact>
</mgrwt>
</event>
<event>
 5    1  0.3858870E+001  0.8922136E+02  0.7546771E-02  0.1304748E+00
          2   -1    0    0  501    0  0.00000000000E+00  0.00000000000E+00  0.21846144685E+01  0.21846144685E+01  0.00000000000E+00 0. -1.
         -2   -1    0    0    0  501 -0.00000000000E+00 -0.00000000000E+00 -0.91096756328E+03  0.91096756328E+03  0.00000000000E+00 0.  1.
         23    2    1    2    0    0  0.00000000000E+00  0.00000000000E+00 -0.90878294882E+03  0.91315217775E+03  0.89221363341E+02 0.  0.
          2    1    3    3  502    0  0.21706134134E+02  0.57957541763E+01 -0.84884062739E+03  0.84913789088E+03  0.00000000000E+00 0.  1.
         -2    1    3    3    0  502 -0.21706134134E+02 -0.57957541763E+01 -0.59942321427E+02  0.64014286871E+02  0.00000000000E+00 0. -1.
<mgrwt>
<rscale>  0 0.89221363E+02</rscale>
<asrwt>0</asrwt>
<pdfrwt beam="1">  1        2 0.33609463E-03 0.89221363E+02</pdfrwt>
<pdfrwt beam="2">  1       -2 0.14014882E+00 0.89221363E+02</pdfrwt>
<totfact> 0.21979039E+04</totfact>
</mgrwt>
</event>
<event>
 5    1  0.3858870E+001  0.9087457E+02  0.7546771E-02  0.1300748E+00
         -2   -1    0    0    0  501 -0.00000000000E+00  0.00000000000E+00  0.14470357500E+04  0.14470357500E+04  0.00000000000E+00 0.  1.
          2   -1    0    0  501    0  0.00000000000E+00 -0.00000000000E+00 -0.14267419976E+01  0.14267419976E+01  0.00000000000E+00 0. -1.
         23    2    1    2    0    0  0.00000000000E+00  0.00000000000E+00  0.14456090080E+04  0.14484624920E+04  0.90874565783E+02 0.  0.
          2    1    3    3  502    0 -0.37821454856E+02 -0.16586444239E+02  0.42081179319E+03  0.42283346351E+03  0.00000000000E+00 0. -1.
         -2    1    3    3    0  502  0.37821454856E+02  0.16586444239E+02  0.10247972148E+04  0.10256290285E+04  0.00000000000E+00 0.  1.
<mgrwt>
<rscale>  0 0.90874566E+02</rscale>
<asrwt>0</asrwt>
<pdfrwt beam="2">  1        2 0.21949993E-03 0.90874566E+02</pdfrwt>
<pdfrwt beam="1">  1       -2 0.22261971E+00 0.90874566E+02</pdfrwt>
<totfact> 0.11359676E+04</totfact>
</mgrwt>
</event>
<event>
 5    1  0.3858870E+001  0.8999461E+02  0.7546771E-02  0.1302865E+00
          2   -1    0    0  501    0  0.00000000000E+00  0.00000000000E+00  0.10071287743E+04  0.10071287743E+04  0.00000000000E+00 0. -1.
         -2   -1    0    0    0  501 -0.00000000000E+00 -0.00000000000E+00 -0.20104255048E+01  0.20104255048E+01  0.00000000000E+00 0.  1.
         23    2    1    2    0    0  0.00000000000E+00  0.00000000000E+00  0.10051183488E+04  0.10091391998E+04  0.89994608160E+02 0.  0.
          2    1    3    3  502    0  0.36628815118E+02 -0.16026999362E+02  0.27105820847E+03  0.27399103486E+03  0.00000000000E+00 0. -1.
         -2    1    3    3    0  502 -0.36628815118E+02  0.16026999362E+02  0.73406014031E+03  0.73514816492E+03  0.00000000000E+00 0.  1.
<mgrwt>
<rscale>  0 0.89994608E+02</rscale>
<asrwt>0</asrwt>
<pdfrwt beam="1">  1        2 0.15494249E+00 0.89994608E+02</pdfrwt>
<pdfrwt beam="2">  1       -2 0.30929704E-03 0.89994608E+02</pdfrwt>
<totfact> 0.25882386E+05</totfact>
</mgrwt>
</event>
<event>
 5    1  0.3858870E+001  0.8263891E+02  0.7546771E-02  0.1321725E+00
          2   -1    0    0  501    0  0.00000000000E+00  0.00000000000E+00  0.69013734927E+03  0.69013734927E+03  0.00000000000E+00 0. -1.
         -2   -1    0    0    0  501 -0.00000000000E+00 -0.00000000000E+00 -0.24738517873E+01  0.24738517873E+01  0.00000000000E+00 0.  1.
         23    2    1    2    0    0  0.00000000000E+00  0.00000000000E+00  0.68766349748E+03  0.69261120106E+03  0.82638913715E+02 0.  0.
          2    1    3    3  502    0 -0.21177830228E+02  0.17294514046E+02  0.60347194914E+03  0.60409104786E+03  0.00000000000E+00 0. -1.
         -2    1    3    3    0  502  0.21177830228E+02 -0.17294514046E+02  0.84191548344E+02  0.88520153196E+02  0.00000000000E+00 0.  1.
<mgrwt>
<rscale>  0 0.82638914E+02</rscale>
<asrwt>0</asrwt>
<pdfrwt beam="1">  1        2 0.10617482E+00 0.82638914E+02</pdfrwt>
<pdfrwt beam="2">  1       -2 0.38059313E-03 0.82638914E+02</pdfrwt>
<totfact> 0.30592966E+05</totfact>
</mgrwt>
</event>
<event>
 5    1  0.3858870E+001  0.9645471E+02  0.7546771E-02  0.1287933E+00
          4   -1    0    0  501    0  0.00000000000E+00  0.00000000000E+00  0.61199955811E+01  0.61199955811E+01  0.00000000000E+00 0. -1.
         -4   -1    0    0    0  501 -0.00000000000E+00 -0.00000000000E+00 -0.38004565001E+03  0.38004565001E+03  0.00000000000E+00 0.  1.
         23    2    1    2    0    0  0.00000000000E+00  0.00000000000E+00 -0.37392565443E+03  0.38616564559E+03  0.96454708516E+02 0.  0.
          2    1    3    3  502    0 -0.36848205740E+02  0.98014074143E+01 -0.68736720965E+02  0.78604037190E+02  0.00000000000E+00 0. -1.
         -2    1    3    3    0  502  0.36848205740E+02 -0.98014074143E+01 -0.30518893347E+03  0.30756160840E+03  0.00000000000E+00 0.  1.
<mgrwt>
<rscale>  0 0.96454709E+02</rscale>
<asrwt>0</asrwt>
<pdfrwt beam="1">  1        4 0.94153784E-03 0.96454709E+02</pdfrwt>
<pdfrwt beam="2">  1       -4 0.58468558E-01 0.96454709E+02</pdfrwt>
<totfact> 0.13326933E+04</totfact>
</mgrwt>
</event>
<event>
 5    1  0.3858870E+001  0.9164494E+02  0.7546771E-02  0.1298916E+00
          2   -1    0    0  501    0  0.00000000000E+00  0.00000000000E+00  0.28367745978E+04  0.28367745978E+04  0.00000000000E+00 0.  1.
         -2   -1    0    0    0  501 -0.00000000000E+00 -0.00000000000E+00 -0.74017110784E+00  0.74017110784E+00  0.00000000000E+00 0. -1.
         23    2    1    2    0    0  0.00000000000E+00  0.00000000000E+00  0.28360344267E+04  0.28375147690E+04  0.91644936505E+02 0.  0.
          2    1    3    3  502    0  0.38286605875E+02  0.24145321535E+02  0.11972557489E+04  0.11981110921E+04  0.00000000000E+00 0. -1.
         -2    1    3    3    0  502 -0.38286605875E+02 -0.24145321535E+02  0.16387786778E+04  0.16394036768E+04  0.00000000000E+00 0.  1.
<mgrwt>
<rscale>  0 0.91644937E+02</rscale>
<asrwt>0</asrwt>
<pdfrwt beam="1">  1        2 0.43641816E+00 0.91644937E+02</pdfrwt>
<pdfrwt beam="2">  1       -2 0.11387475E-03 0.91644937E+02</pdfrwt>
<totfact> 0.11492520E+05</totfact>
</mgrwt>
</event>
<event>
 5    1  0.3858870E+001  0.9212615E+02  0.7546771E-02  0.1297783E+00
         -2   -1    0    0    0  501 -0.00000000000E+00  0.00000000000E+00  0.11214762838E+02  0.11214762838E+02  0.00000000000E+00 0.  1.
          2   -1    0    0  501    0  0.00000000000E+00 -0.00000000000E+00 -0.18919764422E+03  0.18919764422E+03  0.00000000000E+00 0. -1.
         23    2    1    2    0    0  0.00000000000E+00  0.00000000000E+00 -0.17798288138E+03  0.20041240705E+03  0.92126146330E+02 0.  0.
          2    1    3    3  502    0  0.53536158648E+01 -0.39937813056E+02 -0.40439431732E+02  0.57087982565E+02  0.00000000000E+00 0. -1.
         -2    1    3    3    0  502 -0.53536158648E+01  0.39937813056E+02 -0.13754344965E+03  0.14332442449E+03  0.00000000000E+00 0.  1.
<mgrwt>
<rscale>  0 0.92126146E+02</rscale>
<asrwt>0</asrwt>
<pdfrwt beam="2">  1        2 0.29107332E-01 0.92126146E+02</pdfrwt>
<pdfrwt beam="1">  1       -2 0.17253480E-02 0.92126146E+02</pdfrwt>
<totfact> 0.14743680E+05</totfact>
</mgrwt>
</event>
<event>
 5    1  0.3858870E+001  0.9216452E+02  0.7546771E-02  0.1297693E+00
         -2   -1    0    0    0  501 -0.00000000000E+00  0.00000000000E+00  0.17416932540E+02  0.17416932540E+02  0.00000000000E+00 0.  1.
          2   -1    0    0  501    0  0.00000000000E+00 -0.00000000000E+00 -0.12192586875E+03  0.12192586875E+03  0.00000000000E+00 0. -1.
         23    2    1    2    0    0  0.00000000000E+00  0.00000000000E+00 -0.10450893621E+03  0.13934280129E+03  0.92164518788E+02 0.  0.
          2    1    3    3  502    0 -0.11571993736E+02 -0.18945523369E+02 -0.11330815648E+03  0.11546247105E+03  0.00000000000E+00 0. -1.
         -2    1    3    3    0  502  0.11571993736E+02  0.18945523369E+02  0.87992202784E+01  0.23880330238E+02  0.00000000000E+00 0.  1.
<mgrwt>
<rscale>  0 0.92164519E+02</rscale>
<asrwt>0</asrwt>
<pdfrwt beam="2">  1        2 0.18757826E-01 0.92164519E+02</pdfrwt>
<pdfrwt beam="1">  1       -2 0.26795281E-02 0.92164519E+02</pdfrwt>
<totfact> 0.12673664E+05</totfact>
</mgrwt>
</event>
<event>
 5    1  0.3858870E+001  0.9960846E+02  0.7546771E-02  0.1281121E+00
          3   -1    0    0  501    0  0.00000000000E+00  0.00000000000E+00  0.93446501786E+02  0.93446501786E+02  0.00000000000E+00 0. -1.
         -3   -1    0    0    0  501 -0.00000000000E+00 -0.00000000000E+00 -0.26544185916E+02  0.26544185916E+02  0.00000000000E+00 0.  1.
         23    2    1    2    0    0  0.00000000000E+00  0.00000000000E+00  0.66902315870E+02  0.11999068770E+03  0.99608459814E+02 0.  0.
          2    1    3    3  502    0  0.49632180843E+02 -0.40912829923E+01  0.32719063109E+02  0.59587155181E+02  0.00000000000E+00 0. -1.
         -2    1    3    3    0  502 -0.49632180843E+02  0.40912829923E+01  0.34183252761E+02  0.60403532522E+02  0.00000000000E+00 0.  1.
<mgrwt>
<rscale>  0 0.99608460E+02</rscale>
<asrwt>0</asrwt>
<pdfrwt beam="1">  1        3 0.14376385E-01 0.99608460E+02</pdfrwt>
<pdfrwt beam="2">  1       -3 0.40837210E-02 0.99608460E+02</pdfrwt>
<totfact> 0.26107721E+04</totfact>
</mgrwt>
</event>
<event>
 5    1  0.3858870E+001  0.8639833E+02  0.7546771E-02  0.1311816E+00
          1   -1    0    0  501    0  0.00000000000E+00  0.00000000000E+00  0.21962014726E+03  0.21962014726E+03  0.00000000000E+00 0. -1.
         -1   -1    0    0    0  501 -0.00000000000E+00 -0.00000000000E+00 -0.84972526510E+01  0.84972526510E+01  0.00000000000E+00 0.  1.
         23    2    1    2    0    0  0.00000000000E+00  0.00000000000E+00  0.21112289461E+03  0.22811739991E+03  0.86398330505E+02 0.  0.
          2    1    3    3  502    0  0.10405521706E+02 -0.29359997546E+02  0.18458905606E+03  0.18719883535E+03  0.00000000000E+00 0. -1.
         -2    1    3    3    0  502 -0.10405521706E+02  0.29359997546E+02  0.26533838549E+02  0.40918564564E+02  0.00000000000E+00 0.  1.
<mgrwt>
<rscale>  0 0.86398331E+02</rscale>
<asrwt>0</asrwt>
<pdfrwt beam="1">  1        1 0.33787711E-01 0.86398331E+02</pdfrwt>
<pdfrwt beam="2">  1       -1 0.13072698E-02 0.86398331E+02</pdfrwt>
<totfact> 0.13920589E+05</totfact>
</mgrwt>
</event>
<event>
 5    1  0.3858870E+001  0.9014063E+02  0.7546771E-02  0.1302512E+00
         -3   -1    0    0    0  501 -0.00000000000E+00  0.00000000000E+00  0.77028685375E+01  0.77028685375E+01  0.00000000000E+00 0.  1.
          3   -1    0    0  501    0  0.00000000000E+00 -0.00000000000E+00 -0.26371126344E+03  0.26371126344E+03  0.00000000000E+00 0. -1.
         23    2    1    2    0    0  0.00000000000E+00  0.00000000000E+00 -0.25600839490E+03  0.27141413198E+03  0.90140627779E+02 0.  0.
          2    1    3    3  502    0  0.40668647764E+02  0.10644710365E+02 -0.17693510513E+03  0.18186060650E+03  0.00000000000E+00 0. -1.
         -2    1    3    3    0  502 -0.40668647764E+02 -0.10644710365E+02 -0.79073289771E+02  0.89553525475E+02  0.00000000000E+00 0.  1.
<mgrwt>
<rscale>  0 0.90140628E+02</rscale>
<asrwt>0</asrwt>
<pdfrwt beam="2">  1        3 0.40570963E-01 0.90140628E+02</pdfrwt>
<pdfrwt beam="1">  1       -3 0.11850567E-02 0.90140628E+02</pdfrwt>
<totfact> 0.25965065E+04</totfact>
</mgrwt>
</event>
<event>
 5    1  0.3858870E+001  0.9190243E+02  0.7546771E-02  0.1298309E+00
         -2   -1    0    0    0  501 -0.00000000000E+00  0.00000000000E+00  0.30808566828E+01  0.30808566828E+01  0.00000000000E+00 0.  1.
          2   -1    0    0  501    0  0.00000000000E+00 -0.00000000000E+00 -0.68536595093E+03  0.68536595093E+03  0.00000000000E+00 0. -1.
         23    2    1    2    0    0  0.00000000000E+00  0.00000000000E+00 -0.68228509425E+03  0.68844680761E+03  0.91902432396E+02 0.  0.
          2    1    3    3  502    0  0.15684685854E+02 -0.24034894709E+02 -0.60996927141E+03  0.61064408423E+03  0.00000000000E+00 0. -1.
         -2    1    3    3    0  502 -0.15684685854E+02  0.24034894709E+02 -0.72315822835E+02  0.77802723386E+02  0.00000000000E+00 0.  1.
<mgrwt>
<rscale>  0 0.91902432E+02</rscale>
<asrwt>0</asrwt>
<pdfrwt beam="2">  1        2 0.10544092E+00 0.91902432E+02</pdfrwt>
<pdfrwt beam="1">  1       -2 0.47397795E-03 0.91902432E+02</pdfrwt>
<totfact> 0.23107322E+05</totfact>
</mgrwt>
</event>
<event>
 5    1  0.3858870E+001  0.9057242E+02  0.7546771E-02  0.1301471E+00
         -1   -1    0    0    0  501 -0.00000000000E+00  0.00000000000E+00  0.31913493168E+02  0.31913493168E+02  0.00000000000E+00 0.  1.
          1   -1    0    0  501    0  0.00000000000E+00 -0.00000000000E+00 -0.64262501947E+02  0.64262501947E+02  0.00000000000E+00 0. -1.
         23    2    1    2    0    0  0.00000000000E+00  0.00000000000E+00 -0.32349008779E+02  0.96175995115E+02  0.90572422223E+02 0.  0.
          2    1    3    3  502    0  0.21776859507E+02  0.30942050021E+02 -0.42597726520E+02  0.56975506792E+02  0.00000000000E+00 0. -1.
         -2    1    3    3    0  502 -0.21776859507E+02 -0.30942050021E+02  0.10248717741E+02  0.39200488324E+02  0.00000000000E+00 0.  1.
<mgrwt>
<rscale>  0 0.90572422E+02</rscale>
<asrwt>0</asrwt>
<pdfrwt beam="2">  1        1 0.98865387E-02 0.90572422E+02</pdfrwt>
<pdfrwt beam="1">  1       -1 0.49097682E-02 0.90572422E+02</pdfrwt>
<totfact> 0.99187759E+04</totfact>
</mgrwt>
</event>
<event>
 5    1  0.3858870E+001  0.9108580E+02  0.7546771E-02  0.1300243E+00
          1   -1    0    0  501    0  0.00000000000E+00  0.00000000000E+00  0.25163436620E+02  0.25163436620E+02  0.00000000000E+00 0. -1.
         -1   -1    0    0    0  501 -0.00000000000E+00 -0.00000000000E+00 -0.82427371489E+02  0.82427371489E+02  0.00000000000E+00 0.  1.
         23    2    1    2    0    0  0.00000000000E+00  0.00000000000E+00 -0.57263934868E+02  0.10759080811E+03  0.91085804344E+02 0.  0.
          2    1    3    3  502    0  0.19982410256E+02  0.35518443560E+02 -0.46183906908E+01  0.41014461902E+02  0.00000000000E+00 0. -1.
         -2    1    3    3    0  502 -0.19982410256E+02 -0.35518443560E+02 -0.52645544177E+02  0.66576346207E+02  0.00000000000E+00 0.  1.
<mgrwt>
<rscale>  0 0.91085804E+02</rscale>
<asrwt>0</asrwt>
<pdfrwt beam="1">  1        1 0.38712979E-02 0.91085804E+02</pdfrwt>
<pdfrwt beam="2">  1       -1 0.12681134E-01 0.91085804E+02</pdfrwt>
<totfact> 0.84437576E+04</totfact>
</mgrwt>
</event>
<event>
 5    1  0.3858870E+001  0.9071507E+02  0.7546771E-02  0.1301129E+00
         -2   -1    0    0    0  501 -0.00000000000E+00  0.00000000000E+00  0.12906901113E+01  0.12906901113E+01  0.00000000000E+00 0.  1.
          2   -1    0    0  501    0  0.00000000000E+00 -0.00000000000E+00 -0.15939580402E+04  0.15939580402E+04  0.00000000000E+00 0. -1.
         23    2    1    2    0    0  0.00000000000E+00  0.00000000000E+00 -0.15926673501E+04  0.15952487304E+04  0.90715067774E+02 0.  0.
          2    1    3    3  502    0  0.38739745705E+02 -0.11047721542E+02 -0.11628866831E+04  0.11635842289E+04  0.00000000000E+00 0. -1.
         -2    1    3    3    0  502 -0.38739745705E+02  0.11047721542E+02 -0.42978066704E+03  0.43166450145E+03  0.00000000000E+00 0.  1.
<mgrwt>
<rscale>  0 0.90715068E+02</rscale>
<asrwt>0</asrwt>
<pdfrwt beam="2">  1        2 0.24522476E+00 0.90715068E+02</pdfrwt>
<pdfrwt beam="1">  1       -2 0.19856735E-03 0.90715068E+02</pdfrwt>
<totfact> 0.23305686E+05</totfact>
</mgrwt>
</event>
<event>
 5    1  0.3858870E+001  0.9030722E+02  0.7546771E-02  0.1302109E+00
          2   -1    0    0  501    0  0.00000000000E+00  0.00000000000E+00  0.63895457473E+03  0.63895457473E+03  0.00000000000E+00 0. -1.
         -2   -1    0    0    0  501 -0.00000000000E+00 -0.00000000000E+00 -0.31909127217E+01  0.31909127217E+01  0.00000000000E+00 0.  1.
         23    2    1    2    0    0  0.00000000000E+00  0.00000000000E+00  0.63576366201E+03  0.64214548745E+03  0.90307215239E+02 0.  0.
          2    1    3    3  502    0  0.25364701891E+01  0.39064245192E+02  0.15786798884E+03  0.16264916487E+03  0.00000000000E+00 0.  1.
         -2    1    3    3    0  502 -0.25364701891E+01 -0.39064245192E+02  0.47789567317E+03  0.47949632258E+03  0.00000000000E+00 0. -1.
<mgrwt>
<rscale>  0 0.90307215E+02</rscale>
<asrwt>0</asrwt>
<pdfrwt beam="1">  1        2 0.98300602E-01 0.90307215E+02</pdfrwt>
<pdfrwt beam="2">  1       -2 0.49091016E-03 0.90307215E+02</pdfrwt>
<totfact> 0.23774777E+05</totfact>
</mgrwt>
</event>
<event>
 5    1  0.3858870E+001  0.8925522E+02  0.7546771E-02  0.1304665E+00
          2   -1    0    0  501    0  0.00000000000E+00  0.00000000000E+00  0.25460830000E+01  0.25460830000E+01  0.00000000000E+00 0.  1.
         -2   -1    0    0    0  501 -0.00000000000E+00 -0.00000000000E+00 -0.78223047766E+03  0.78223047766E+03  0.00000000000E+00 0. -1.
         23    2    1    2    0    0  0.00000000000E+00  0.00000000000E+00 -0.77968439466E+03  0.78477656066E+03  0.89255223293E+02 0.  0.
          2    1    3    3  502    0 -0.39380829898E+02 -0.22030631106E+01 -0.57341824456E+03  0.57477316086E+03  0.00000000000E+00 0. -1.
         -2    1    3    3    0  502  0.39380829898E+02  0.22030631106E+01 -0.20626615010E+03  0.21000339980E+03  0.00000000000E+00 0.  1.
<mgrwt>
<rscale>  0 0.89255223E+02</rscale>
<asrwt>0</asrwt>
<pdfrwt beam="1">  1        2 0.39170497E-03 0.89255223E+02</pdfrwt>
<pdfrwt beam="2">  1       -2 0.12034318E+00 0.89255223E+02</pdfrwt>
<totfact> 0.25782507E+04</totfact>
</mgrwt>
</event>
<event>
 5    1  0.3858870E+001  0.9132564E+02  0.7546771E-02  0.1299673E+00
         -2   -1    0    0    0  501 -0.00000000000E+00  0.00000000000E+00  0.77494204837E+02  0.77494204837E+02  0.00000000000E+00 0.  1.
          2   -1    0    0  501    0  0.00000000000E+00 -0.00000000000E+00 -0.26906441106E+02  0.26906441106E+02  0.00000000000E+00 0. -1.
         23    2    1    2    0    0  0.00000000000E+00  0.00000000000E+00  0.50587763731E+02  0.10440064594E+03  0.91325642807E+02 0.  0.
          2    1    3    3  502    0 -0.41047079370E+02 -0.18856020056E+02  0.17652496694E+02  0.48497658260E+02  0.00000000000E+00 0. -1.
         -2    1    3    3    0  502  0.41047079370E+02  0.18856020056E+02  0.32935267037E+02  0.55902987684E+02  0.00000000000E+00 0.  1.
<mgrwt>
<rscale>  0 0.91325643E+02</rscale>
<asrwt>0</asrwt>
<pdfrwt beam="2">  1        2 0.41394525E-02 0.91325643E+02</pdfrwt>
<pdfrwt beam="1">  1       -2 0.11922185E-01 0.91325643E+02</pdfrwt>
<totfact> 0.85483741E+04</totfact>
</mgrwt>
</event>
<event>
 5    1  0.3858870E+001  0.8497663E+02  0.7546771E-02  0.1315494E+00
         -1   -1    0    0    0  501 -0.00000000000E+00  0.00000000000E+00  0.16632087508E+02  0.16632087508E+02  0.00000000000E+00 0.  1.
          1   -1    0    0  501    0  0.00000000000E+00 -0.00000000000E+00 -0.10854061450E+03  0.10854061450E+03  0.00000000000E+00 0. -1.
         23    2    1    2    0    0  0.00000000000E+00  0.00000000000E+00 -0.91908526994E+02  0.12517270201E+03  0.84976632048E+02 0.  0.
          2    1    3    3  502    0  0.32267178074E+02  0.25057076887E+01 -0.86504146398E+02  0.92360254958E+02  0.00000000000E+00 0. -1.
         -2    1    3    3    0  502 -0.32267178074E+02 -0.25057076887E+01 -0.54043805956E+01  0.32812447051E+02  0.00000000000E+00 0.  1.
<mgrwt>
<rscale>  0 0.84976632E+02</rscale>
<asrwt>0</asrwt>
<pdfrwt beam="2">  1        1 0.16698556E-01 0.84976632E+02</pdfrwt>
<pdfrwt beam="1">  1       -1 0.25587826E-02 0.84976632E+02</pdfrwt>
<totfact> 0.12812589E+05</totfact>
</mgrwt>
</event>
<event>
 5    1  0.3858870E+001  0.8266468E+02  0.7546771E-02  0.1321655E+00
          1   -1    0    0  501    0  0.00000000000E+00  0.00000000000E+00  0.46986857694E+03  0.46986857694E+03  0.00000000000E+00 0. -1.
         -1   -1    0    0    0  501 -0.00000000000E+00 -0.00000000000E+00 -0.36358299484E+01  0.36358299484E+01  0.00000000000E+00 0.  1.
         23    2    1    2    0    0  0.00000000000E+00  0.00000000000E+00  0.46623274700E+03  0.47350440689E+03  0.82664677920E+02 0.  0.
          2    1    3    3  502    0 -0.40985296476E+02  0.29169082724E+01  0.25877081791E+03  0.26201266970E+03  0.00000000000E+00 0.  1.
         -2    1    3    3    0  502  0.40985296476E+02 -0.29169082724E+01  0.20746192908E+03  0.21149173719E+03  0.00000000000E+00 0. -1.
<mgrwt>
<rscale>  0 0.82664678E+02</rscale>
<asrwt>0</asrwt>
<pdfrwt beam="1">  1        1 0.72287425E-01 0.82664678E+02</pdfrwt>
<pdfrwt beam="2">  1       -1 0.55935883E-03 0.82664678E+02</pdfrwt>
<totfact> 0.17894470E+05</totfact>
</mgrwt>
</event>
<event>
 5    1  0.3858870E+001  0.1009365E+03  0.7546771E-02  0.1278339E+00
          3   -1    0    0  501    0  0.00000000000E+00  0.00000000000E+00  0.16281637267E+04  0.16281637267E+04  0.00000000000E+00 0. -1.
         -3   -1    0    0    0  501 -0.00000000000E+00 -0.00000000000E+00 -0.15643673125E+01  0.15643673125E+01  0.00000000000E+00 0.  1.
         23    2    1    2    0    0  0.00000000000E+00  0.00000000000E+00  0.16265993594E+04  0.16297280940E+04  0.10093653676E+03 0.  0.
          2    1    3    3  502    0 -0.13416006076E+02  0.47766299721E+02  0.66405768941E+03  0.66590856991E+03  0.00000000000E+00 0.  1.
         -2    1    3    3    0  502  0.13416006076E+02 -0.47766299721E+02  0.96254166997E+03  0.96381952410E+03  0.00000000000E+00 0. -1.
<mgrwt>
<rscale>  0 0.10093654E+03</rscale>
<asrwt>0</asrwt>
<pdfrwt beam="1">  1        3 0.25048537E+00 0.10093654E+03</pdfrwt>
<pdfrwt beam="2">  1       -3 0.24067320E-03 0.10093654E+03</pdfrwt>
<totfact> 0.40925108E+03</totfact>
</mgrwt>
</event>
<event>
 5    1  0.3858870E+001  0.8970691E+02  0.7546771E-02  0.1303563E+00
         -1   -1    0    0    0  501 -0.00000000000E+00  0.00000000000E+00  0.47395159734E+01  0.47395159734E+01  0.00000000000E+00 0.  1.
          1   -1    0    0  501    0  0.00000000000E+00 -0.00000000000E+00 -0.42448052681E+03  0.42448052681E+03  0.00000000000E+00 0. -1.
         23    2    1    2    0    0  0.00000000000E+00  0.00000000000E+00 -0.41974101084E+03  0.42922004279E+03  0.89706905804E+02 0.  0.
          2    1    3    3  502    0 -0.37562284785E+02  0.35010722352E+01 -0.32595721546E+03  0.32813303560E+03  0.00000000000E+00 0. -1.
         -2    1    3    3    0  502  0.37562284785E+02 -0.35010722352E+01 -0.93783795381E+02  0.10108700718E+03  0.00000000000E+00 0.  1.
<mgrwt>
<rscale>  0 0.89706906E+02</rscale>
<asrwt>0</asrwt>
<pdfrwt beam="2">  1        1 0.65304687E-01 0.89706906E+02</pdfrwt>
<pdfrwt beam="1">  1       -1 0.72915641E-03 0.89706906E+02</pdfrwt>
<totfact> 0.14216623E+05</totfact>
</mgrwt>
</event>
<event>
 5    1  0.3858870E+001  0.8972397E+02  0.7546771E-02  0.1303522E+00
          2   -1    0    0  501    0  0.00000000000E+00  0.00000000000E+00  0.22630753060E+03  0.22630753060E+03  0.00000000000E+00 0. -1.
         -2   -1    0    0    0  501 -0.00000000000E+00 -0.00000000000E+00 -0.88931978301E+01  0.88931978301E+01  0.00000000000E+00 0.  1.
         23    2    1    2    0    0  0.00000000000E+00  0.00000000000E+00  0.21741433277E+03  0.23520072843E+03  0.89723968705E+02 0.  0.
          2    1    3    3  502    0  0.37892338232E+02  0.20532179171E+02  0.14136393386E+03  0.14778755521E+03  0.00000000000E+00 0. -1.
         -2    1    3    3    0  502 -0.37892338232E+02 -0.20532179171E+02  0.76050398906E+02  0.87413173217E+02  0.00000000000E+00 0.  1.
<mgrwt>
<rscale>  0 0.89723969E+02</rscale>
<asrwt>0</asrwt>
<pdfrwt beam="1">  1        2 0.34816539E-01 0.89723969E+02</pdfrwt>
<pdfrwt beam="2">  1       -2 0.13681845E-02 0.89723969E+02</pdfrwt>
<totfact> 0.16892710E+05</totfact>
</mgrwt>
</event>
<event>
 5    1  0.3858870E+001  0.1013265E+03  0.7546771E-02  0.1277531E+00
         -3   -1    0    0    0  501 -0.00000000000E+00  0.00000000000E+00  0.89926309689E+02  0.89926309689E+02  0.00000000000E+00 0.  1.
          3   -1    0    0  501    0  0.00000000000E+00 -0.00000000000E+00 -0.28542998010E+02  0.28542998010E+02  0.00000000000E+00 0. -1.
         23    2    1    2    0    0  0.00000000000E+00  0.00000000000E+00  0.61383311679E+02  0.11846930770E+03  0.10132653115E+03 0.  0.
          2    1    3    3  502    0  0.20585070712E+02 -0.16360123261E+02 -0.19940438566E+02  0.33000300901E+02  0.00000000000E+00 0. -1.
         -2    1    3    3    0  502 -0.20585070712E+02  0.16360123261E+02  0.81323750244E+02  0.85469006799E+02  0.00000000000E+00 0.  1.
<mgrwt>
<rscale>  0 0.10132653E+03</rscale>
<asrwt>0</asrwt>
<pdfrwt beam="2">  1        3 0.43912305E-02 0.10132653E+03</pdfrwt>
<pdfrwt beam="1">  1       -3 0.13834817E-01 0.10132653E+03</pdfrwt>
<totfact> 0.24987040E+04</totfact>
</mgrwt>
</event>
<event>
 5    1  0.3858870E+001  0.9352026E+02  0.7546771E-02  0.1294544E+00
          2   -1    0    0  501    0  0.00000000000E+00  0.00000000000E+00  0.45114787564E+02  0.45114787564E+02  0.00000000000E+00 0.  1.
         -2   -1    0    0    0  501 -0.00000000000E+00 -0.00000000000E+00 -0.48465480400E+02  0.48465480400E+02  0.00000000000E+00 0. -1.
         23    2    1    2    0    0  0.00000000000E+00  0.00000000000E+00 -0.33506928362E+01  0.93580267964E+02  0.93520262028E+02 0.  0.
          2    1    3    3  502    0  0.19941958491E+02  0.33438769989E+02 -0.27589391684E+02  0.47718000590E+02  0.00000000000E+00 0. -1.
         -2    1    3    3    0  502 -0.19941958491E+02 -0.33438769989E+02  0.24238698848E+02  0.45862267374E+02  0.00000000000E+00 0.  1.
<mgrwt>
<rscale>  0 0.93520262E+02</rscale>
<asrwt>0</asrwt>
<pdfrwt beam="1">  1        2 0.69407365E-02 0.93520262E+02</pdfrwt>
<pdfrwt beam="2">  1       -2 0.74562278E-02 0.93520262E+02</pdfrwt>
<totfact> 0.91467345E+04</totfact>
</mgrwt>
</event>
<event>
 5    1  0.3858870E+001  0.9110359E+02  0.7546771E-02  0.1300201E+00
         -2   -1    0    0    0  501 -0.00000000000E+00  0.00000000000E+00  0.23204372674E+01  0.23204372674E+01  0.00000000000E+00 0.  1.
          2   -1    0    0  501    0  0.00000000000E+00 -0.00000000000E+00 -0.89421337431E+03  0.89421337431E+03  0.00000000000E+00 0. -1.
         23    2    1    2    0    0  0.00000000000E+00  0.00000000000E+00 -0.89189293704E+03  0.89653381158E+03  0.91103590242E+02 0.  0.
          2    1    3    3  502    0  0.17647174007E+02  0.15898191609E+02 -0.82844814722E+03  0.82878857851E+03  0.00000000000E+00 0. -1.
         -2    1    3    3    0  502 -0.17647174007E+02 -0.15898191609E+02 -0.63444789823E+02  0.67745233061E+02  0.00000000000E+00 0.  1.
<mgrwt>
<rscale>  0 0.91103590E+02</rscale>
<asrwt>0</asrwt>
<pdfrwt beam="2">  1        2 0.13757135E+00 0.91103590E+02</pdfrwt>
<pdfrwt beam="1">  1       -2 0.35699018E-03 0.91103590E+02</pdfrwt>
<totfact> 0.24828394E+05</totfact>
</mgrwt>
</event>
<event>
 5    1  0.3858870E+001  0.9114377E+02  0.7546771E-02  0.1300105E+00
         -1   -1    0    0    0  501 -0.00000000000E+00  0.00000000000E+00  0.88001569776E+01  0.88001569776E+01  0.00000000000E+00 0.  1.
          1   -1    0    0  501    0  0.00000000000E+00 -0.00000000000E+00 -0.23599540250E+03  0.23599540250E+03  0.00000000000E+00 0. -1.
         23    2    1    2    0    0  0.00000000000E+00  0.00000000000E+00 -0.22719524552E+03  0.24479555947E+03  0.91143767488E+02 0.  0.
          2    1    3    3  502    0 -0.19786304584E+02  0.37971955486E+02 -0.71692895744E+02  0.83505919267E+02  0.00000000000E+00 0. -1.
         -2    1    3    3    0  502  0.19786304584E+02 -0.37971955486E+02 -0.15550234978E+03  0.16128964021E+03  0.00000000000E+00 0.  1.
<mgrwt>
<rscale>  0 0.91143767E+02</rscale>
<asrwt>0</asrwt>
<pdfrwt beam="2">  1        1 0.36306976E-01 0.91143767E+02</pdfrwt>
<pdfrwt beam="1">  1       -1 0.13538706E-02 0.91143767E+02</pdfrwt>
<totfact> 0.12240644E+05</totfact>
</mgrwt>
</event>
<event>
 5    1  0.3858870E+001  0.9178848E+02  0.7546771E-02  0.1298578E+00
         -1   -1    0    0    0  501 -0.00000000000E+00  0.00000000000E+00  0.61152256443E+01  0.61152256443E+01  0.00000000000E+00 0.  1.
          1   -1    0    0  501    0  0.00000000000E+00 -0.00000000000E+00 -0.34443230572E+03  0.34443230572E+03  0.00000000000E+00 0. -1.
         23    2    1    2    0    0  0.00000000000E+00  0.00000000000E+00 -0.33831708007E+03  0.35054753136E+03  0.91788480076E+02 0.  0.
          2    1    3    3  502    0  0.21245198140E+02  0.99784621832E+01 -0.31977527769E+03  0.32063555070E+03  0.00000000000E+00 0. -1.
         -2    1    3    3    0  502 -0.21245198140E+02 -0.99784621832E+01 -0.18541802388E+02  0.29911980665E+02  0.00000000000E+00 0.  1.
<mgrwt>
<rscale>  0 0.91788480E+02</rscale>
<asrwt>0</asrwt>
<pdfrwt beam="2">  1        1 0.52989582E-01 0.91788480E+02</pdfrwt>
<pdfrwt beam="1">  1       -1 0.94080401E-03 0.91788480E+02</pdfrwt>
<totfact> 0.12913489E+05</totfact>
</mgrwt>
</event>
<event>
 5    1  0.3858870E+001  0.9133887E+02  0.7546771E-02  0.1299641E+00
         -4   -1    0    0    0  501 -0.00000000000E+00  0.00000000000E+00  0.21307429884E+03  0.21307429884E+03  0.00000000000E+00 0.  1.
          4   -1    0    0  501    0  0.00000000000E+00 -0.00000000000E+00 -0.97885910128E+01  0.97885910128E+01  0.00000000000E+00 0. -1.
         23    2    1    2    0    0  0.00000000000E+00  0.00000000000E+00  0.20328570783E+03  0.22286288985E+03  0.91338867230E+02 0.  0.
          2    1    3    3  502    0 -0.30872505777E+02  0.17161751360E+02  0.31007902247E+02  0.47001354495E+02  0.00000000000E+00 0. -1.
         -2    1    3    3    0  502  0.30872505777E+02 -0.17161751360E+02  0.17227780558E+03  0.17586153536E+03  0.00000000000E+00 0.  1.
<mgrwt>
<rscale>  0 0.91338867E+02</rscale>
<asrwt>0</asrwt>
<pdfrwt beam="2">  1        4 0.15059372E-02 0.91338867E+02</pdfrwt>
<pdfrwt beam="1">  1       -4 0.32780658E-01 0.91338867E+02</pdfrwt>
<totfact> 0.20370606E+04</totfact>
</mgrwt>
</event>
<event>
 5    1  0.3858870E+001  0.9477789E+02  0.7546771E-02  0.1291677E+00
         -1   -1    0    0    0  501 -0.00000000000E+00  0.00000000000E+00  0.88035063603E+03  0.88035063603E+03  0.00000000000E+00 0.  1.
          1   -1    0    0  501    0  0.00000000000E+00 -0.00000000000E+00 -0.25509292903E+01  0.25509292903E+01  0.00000000000E+00 0. -1.
         23    2    1    2    0    0  0.00000000000E+00  0.00000000000E+00  0.87779970674E+03  0.88290156532E+03  0.94777892426E+02 0.  0.
          2    1    3    3  502    0 -0.15732328125E+01  0.42611090462E+02  0.63151463809E+03  0.63295254025E+03  0.00000000000E+00 0. -1.
         -2    1    3    3    0  502  0.15732328125E+01 -0.42611090462E+02  0.24628506865E+03  0.24994902506E+03  0.00000000000E+00 0.  1.
<mgrwt>
<rscale>  0 0.94777892E+02</rscale>
<asrwt>0</asrwt>
<pdfrwt beam="2">  1        1 0.39245136E-03 0.94777892E+02</pdfrwt>
<pdfrwt beam="1">  1       -1 0.13543832E+00 0.94777892E+02</pdfrwt>
<totfact> 0.26761955E+04</totfact>
</mgrwt>
</event>
<event>
 5    1  0.3858870E+001  0.1103937E+03  0.7546771E-02  0.1259843E+00
          1   -1    0    0  501    0  0.00000000000E+00  0.00000000000E+00  0.36913600462E+02  0.36913600462E+02  0.00000000000E+00 0. -1.
         -1   -1    0    0    0  501 -0.00000000000E+00 -0.00000000000E+00 -0.82535771398E+02  0.82535771398E+02  0.00000000000E+00 0.  1.
         23    2    1    2    0    0  0.00000000000E+00  0.00000000000E+00 -0.45622170937E+02  0.11944937186E+03  0.11039370433E+03 0.  0.
          2    1    3    3  502    0 -0.12357665321E+02 -0.42627668085E+02  0.12696381576E+02  0.46163059730E+02  0.00000000000E+00 0. -1.
         -2    1    3    3    0  502  0.12357665321E+02  0.42627668085E+02 -0.58318552512E+02  0.73286312130E+02  0.00000000000E+00 0.  1.
<mgrwt>
<rscale>  0 0.11039370E+03</rscale>
<asrwt>0</asrwt>
<pdfrwt beam="1">  1        1 0.56790155E-02 0.11039370E+03</pdfrwt>
<pdfrwt beam="2">  1       -1 0.12697811E-01 0.11039370E+03</pdfrwt>
<totfact> 0.51539283E+04</totfact>
</mgrwt>
</event>
<event>
 5    1  0.3858870E+001  0.9063294E+02  0.7546771E-02  0.1301326E+00
          2   -1    0    0  501    0  0.00000000000E+00  0.00000000000E+00  0.48163615205E+03  0.48163615205E+03  0.00000000000E+00 0. -1.
         -2   -1    0    0    0  501 -0.00000000000E+00 -0.00000000000E+00 -0.42637632557E+01  0.42637632557E+01  0.00000000000E+00 0.  1.
         23    2    1    2    0    0  0.00000000000E+00  0.00000000000E+00  0.47737238880E+03  0.48589991531E+03  0.90632941644E+02 0.  0.
          2    1    3    3  502    0  0.17465318392E+02  0.14792037707E+02  0.44837230908E+03  0.44895608836E+03  0.00000000000E+00 0. -1.
         -2    1    3    3    0  502 -0.17465318392E+02 -0.14792037707E+02  0.29000079722E+02  0.36943826953E+02  0.00000000000E+00 0.  1.
<mgrwt>
<rscale>  0 0.90632942E+02</rscale>
<asrwt>0</asrwt>
<pdfrwt beam="1">  1        2 0.74097827E-01 0.90632942E+02</pdfrwt>
<pdfrwt beam="2">  1       -2 0.65596396E-03 0.90632942E+02</pdfrwt>
<totfact> 0.21626225E+05</totfact>
</mgrwt>
</event>
<event>
 5    1  0.3858870E+001  0.9144462E+02  0.7546771E-02  0.1299391E+00
          2   -1    0    0  501    0  0.00000000000E+00  0.00000000000E+00  0.98945401886E+03  0.98945401886E+03  0.00000000000E+00 0. -1.
         -2   -1    0    0    0  501 -0.00000000000E+00 -0.00000000000E+00 -0.21128113440E+01  0.21128113440E+01  0.00000000000E+00 0.  1.
         23    2    1    2    0    0  0.00000000000E+00  0.00000000000E+00  0.98734120751E+03  0.99156683020E+03  0.91444620956E+02 0.  0.
          2    1    3    3  502    0  0.35121811001E+01  0.36170844831E+02  0.79453507189E+03  0.79536573090E+03  0.00000000000E+00 0. -1.
         -2    1    3    3    0  502 -0.35121811001E+01 -0.36170844831E+02  0.19280613562E+03  0.19620109930E+03  0.00000000000E+00 0.  1.
<mgrwt>
<rscale>  0 0.91444621E+02</rscale>
<asrwt>0</asrwt>
<pdfrwt beam="1">  1        2 0.15222333E+00 0.91444621E+02</pdfrwt>
<pdfrwt beam="2">  1       -2 0.32504869E-03 0.91444621E+02</pdfrwt>
<totfact> 0.24796615E+05</totfact>
</mgrwt>
</event>
<event>
 5    1  0.3858870E+001  0.7613682E+02  0.7546771E-02  0.1340386E+00
          1   -1    0    0  501    0  0.00000000000E+00  0.00000000000E+00  0.68500471311E+02  0.68500471311E+02  0.00000000000E+00 0. -1.
         -1   -1    0    0    0  501 -0.00000000000E+00 -0.00000000000E+00 -0.21156116795E+02  0.21156116795E+02  0.00000000000E+00 0.  1.
         23    2    1    2    0    0  0.00000000000E+00  0.00000000000E+00  0.47344354516E+02  0.89656588106E+02  0.76136823458E+02 0.  0.
          2    1    3    3  502    0 -0.59046613265E+01  0.32834874266E+02  0.45264171388E+02  0.56230233904E+02  0.00000000000E+00 0. -1.
         -2    1    3    3    0  502  0.59046613265E+01 -0.32834874266E+02  0.20801831279E+01  0.33426354203E+02  0.00000000000E+00 0.  1.
<mgrwt>
<rscale>  0 0.76136823E+02</rscale>
<asrwt>0</asrwt>
<pdfrwt beam="1">  1        1 0.10538534E-01 0.76136823E+02</pdfrwt>
<pdfrwt beam="2">  1       -1 0.32547872E-02 0.76136823E+02</pdfrwt>
<totfact> 0.16068053E+05</totfact>
</mgrwt>
</event>
<event>
 5    1  0.3858870E+001  0.9168065E+02  0.7546771E-02  0.1298832E+00
         -2   -1    0    0    0  501 -0.00000000000E+00  0.00000000000E+00  0.12466440179E+01  0.12466440179E+01  0.00000000000E+00 0. -1.
          2   -1    0    0  501    0  0.00000000000E+00 -0.00000000000E+00 -0.16855938856E+04  0.16855938856E+04  0.00000000000E+00 0.  1.
         23    2    1    2    0    0  0.00000000000E+00  0.00000000000E+00 -0.16843472415E+04  0.16868405296E+04  0.91680653009E+02 0.  0.
          2    1    3    3  502    0  0.28512610249E+02 -0.16454592169E+02 -0.25524180787E+03  0.25735598503E+03  0.00000000000E+00 0. -1.
         -2    1    3    3    0  502 -0.28512610249E+02  0.16454592169E+02 -0.14291054337E+04  0.14294845445E+04  0.00000000000E+00 0.  1.
<mgrwt>
<rscale>  0 0.91680653E+02</rscale>
<asrwt>0</asrwt>
<pdfrwt beam="2">  1        2 0.25932232E+00 0.91680653E+02</pdfrwt>
<pdfrwt beam="1">  1       -2 0.19179125E-03 0.91680653E+02</pdfrwt>
<totfact> 0.22015813E+05</totfact>
</mgrwt>
</event>
<event>
 5    1  0.3858870E+001  0.9188878E+02  0.7546771E-02  0.1298341E+00
         -1   -1    0    0    0  501 -0.00000000000E+00  0.00000000000E+00  0.30116580996E+02  0.30116580996E+02  0.00000000000E+00 0.  1.
          1   -1    0    0  501    0  0.00000000000E+00 -0.00000000000E+00 -0.70090531387E+02  0.70090531387E+02  0.00000000000E+00 0. -1.
         23    2    1    2    0    0  0.00000000000E+00  0.00000000000E+00 -0.39973950391E+02  0.10020711238E+03  0.91888784202E+02 0.  0.
          2    1    3    3  502    0 -0.41781494551E+02 -0.86178857506E+01 -0.38587588029E+02  0.57523588133E+02  0.00000000000E+00 0. -1.
         -2    1    3    3    0  502  0.41781494551E+02  0.86178857506E+01 -0.13863623618E+01  0.42683524249E+02  0.00000000000E+00 0.  1.
<mgrwt>
<rscale>  0 0.91888784E+02</rscale>
<asrwt>0</asrwt>
<pdfrwt beam="2">  1        1 0.10783159E-01 0.91888784E+02</pdfrwt>
<pdfrwt beam="1">  1       -1 0.46333202E-02 0.91888784E+02</pdfrwt>
<totfact> 0.96589176E+04</totfact>
</mgrwt>
</event>
<event>
 5    1  0.3858870E+001  0.9049629E+02  0.7546771E-02  0.1301654E+00
          2   -1    0    0  501    0  0.00000000000E+00  0.00000000000E+00  0.41033898323E+01  0.41033898323E+01  0.00000000000E+00 0. -1.
         -2   -1    0    0    0  501 -0.00000000000E+00 -0.00000000000E+00 -0.49895203198E+03  0.49895203198E+03  0.00000000000E+00 0.  1.
         23    2    1    2    0    0  0.00000000000E+00  0.00000000000E+00 -0.49484864215E+03  0.50305542181E+03  0.90496291523E+02 0.  0.
          2    1    3    3  502    0  0.41951028881E+02  0.48207653695E+01 -0.15705817255E+03  0.16263578378E+03  0.00000000000E+00 0. -1.
         -2    1    3    3    0  502 -0.41951028881E+02 -0.48207653695E+01 -0.33779046960E+03  0.34041963803E+03  0.00000000000E+00 0.  1.
<mgrwt>
<rscale>  0 0.90496292E+02</rscale>
<asrwt>0</asrwt>
<pdfrwt beam="1">  1        2 0.63129103E-03 0.90496292E+02</pdfrwt>
<pdfrwt beam="2">  1       -2 0.76761816E-01 0.90496292E+02</pdfrwt>
<totfact> 0.37076040E+04</totfact>
</mgrwt>
</event>
<event>
 5    1  0.3858870E+001  0.9136498E+02  0.7546771E-02  0.1299579E+00
         -2   -1    0    0    0  501 -0.00000000000E+00  0.00000000000E+00  0.60363402761E+01  0.60363402761E+01  0.00000000000E+00 0.  1.
          2   -1    0    0  501    0  0.00000000000E+00 -0.00000000000E+00 -0.34572102844E+03  0.34572102844E+03  0.00000000000E+00 0. -1.
         23    2    1    2    0    0  0.00000000000E+00  0.00000000000E+00 -0.33968468816E+03  0.35175736871E+03  0.91364977278E+02 0.  0.
          2    1    3    3  502    0  0.27408485998E+02  0.60185663433E-01 -0.31054800895E+03  0.31175518374E+03  0.00000000000E+00 0. -1.
         -2    1    3    3    0  502 -0.27408485998E+02 -0.60185663433E-01 -0.29136679208E+02  0.40002184968E+02  0.00000000000E+00 0.  1.
<mgrwt>
<rscale>  0 0.91364977E+02</rscale>
<asrwt>0</asrwt>
<pdfrwt beam="2">  1        2 0.53187848E-01 0.91364977E+02</pdfrwt>
<pdfrwt beam="1">  1       -2 0.92866778E-03 0.91364977E+02</pdfrwt>
<totfact> 0.18830514E+05</totfact>
</mgrwt>
</event>
<event>
 5    1  0.3858870E+001  0.1013615E+03  0.7546771E-02  0.1277459E+00
         -2   -1    0    0    0  501 -0.00000000000E+00  0.00000000000E+00  0.47050996664E+02  0.47050996664E+02  0.00000000000E+00 0. -1.
          2   -1    0    0  501    0  0.00000000000E+00 -0.00000000000E+00 -0.54590499145E+02  0.54590499145E+02  0.00000000000E+00 0.  1.
         23    2    1    2    0    0  0.00000000000E+00  0.00000000000E+00 -0.75395024809E+01  0.10164149581E+03  0.10136147973E+03 0.  0.
          2    1    3    3  502    0 -0.32147147343E+02  0.24775858875E+02 -0.34205785540E+02  0.53078413971E+02  0.00000000000E+00 0.  1.
         -2    1    3    3    0  502  0.32147147343E+02 -0.24775858875E+02  0.26666283059E+02  0.48563081837E+02  0.00000000000E+00 0. -1.
<mgrwt>
<rscale>  0 0.10136148E+03</rscale>
<asrwt>0</asrwt>
<pdfrwt beam="2">  1        2 0.83985383E-02 0.10136148E+03</pdfrwt>
<pdfrwt beam="1">  1       -2 0.72386149E-02 0.10136148E+03</pdfrwt>
<totfact> 0.76346977E+04</totfact>
</mgrwt>
</event>
<event>
 5    1  0.3858870E+001  0.9179314E+02  0.7546771E-02  0.1298567E+00
         -2   -1    0    0    0  501 -0.00000000000E+00  0.00000000000E+00  0.42494391564E+03  0.42494391564E+03  0.00000000000E+00 0.  1.
          2   -1    0    0  501    0  0.00000000000E+00 -0.00000000000E+00 -0.49571134578E+01  0.49571134578E+01  0.00000000000E+00 0. -1.
         23    2    1    2    0    0  0.00000000000E+00  0.00000000000E+00  0.41998680218E+03  0.42990102910E+03  0.91793141422E+02 0.  0.
          2    1    3    3  502    0 -0.38848672846E+00  0.38389446475E+02  0.92199984242E+02  0.99873608209E+02  0.00000000000E+00 0. -1.
         -2    1    3    3    0  502  0.38848672846E+00 -0.38389446475E+02  0.32778681794E+03  0.33002742089E+03  0.00000000000E+00 0.  1.
<mgrwt>
<rscale>  0 0.91793141E+02</rscale>
<asrwt>0</asrwt>
<pdfrwt beam="2">  1        2 0.76263317E-03 0.91793141E+02</pdfrwt>
<pdfrwt beam="1">  1       -2 0.65375958E-01 0.91793141E+02</pdfrwt>
<totfact> 0.40240165E+04</totfact>
</mgrwt>
</event>
<event>
 5    1  0.3858870E+001  0.8679746E+02  0.7546771E-02  0.1310798E+00
          2   -1    0    0  501    0  0.00000000000E+00  0.00000000000E+00  0.66753476227E+03  0.66753476227E+03  0.00000000000E+00 0. -1.
         -2   -1    0    0    0  501 -0.00000000000E+00 -0.00000000000E+00 -0.28215008925E+01  0.28215008925E+01  0.00000000000E+00 0.  1.
         23    2    1    2    0    0  0.00000000000E+00  0.00000000000E+00  0.66471326137E+03  0.67035626316E+03  0.86797463730E+02 0.  0.
          2    1    3    3  502    0  0.16527281873E+02  0.38761288764E+02  0.41256720243E+03  0.41471349758E+03  0.00000000000E+00 0. -1.
         -2    1    3    3    0  502 -0.16527281873E+02 -0.38761288764E+02  0.25214605894E+03  0.25564276558E+03  0.00000000000E+00 0.  1.
<mgrwt>
<rscale>  0 0.86797464E+02</rscale>
<asrwt>0</asrwt>
<pdfrwt beam="1">  1        2 0.10269753E+00 0.86797464E+02</pdfrwt>
<pdfrwt beam="2">  1       -2 0.43407759E-03 0.86797464E+02</pdfrwt>
<totfact> 0.26686012E+05</totfact>
</mgrwt>
</event>
<event>
 5    1  0.3858870E+001  0.1013251E+03  0.7546771E-02  0.1277534E+00
          2   -1    0    0  501    0  0.00000000000E+00  0.00000000000E+00  0.52028179269E+03  0.52028179269E+03  0.00000000000E+00 0. -1.
         -2   -1    0    0    0  501 -0.00000000000E+00 -0.00000000000E+00 -0.49332748259E+01  0.49332748259E+01  0.00000000000E+00 0.  1.
         23    2    1    2    0    0  0.00000000000E+00  0.00000000000E+00  0.51534851786E+03  0.52521506752E+03  0.10132508219E+03 0.  0.
          2    1    3    3  502    0  0.43922058414E+02  0.44772369008E+01  0.38648105122E+03  0.38899459612E+03  0.00000000000E+00 0. -1.
         -2    1    3    3    0  502 -0.43922058414E+02 -0.44772369008E+01  0.12886746665E+03  0.13622047139E+03  0.00000000000E+00 0.  1.
<mgrwt>
<rscale>  0 0.10132508E+03</rscale>
<asrwt>0</asrwt>
<pdfrwt beam="1">  1        2 0.80043310E-01 0.10132508E+03</pdfrwt>
<pdfrwt beam="2">  1       -2 0.75896577E-03 0.10132508E+03</pdfrwt>
<totfact> 0.16483448E+05</totfact>
</mgrwt>
</event>
<event>
 5    1  0.3858870E+001  0.1165775E+03  0.7546771E-02  0.1248852E+00
          2   -1    0    0  501    0  0.00000000000E+00  0.00000000000E+00  0.25105312776E+03  0.25105312776E+03  0.00000000000E+00 0.  1.
         -2   -1    0    0    0  501 -0.00000000000E+00 -0.00000000000E+00 -0.13533294944E+02  0.13533294944E+02  0.00000000000E+00 0. -1.
         23    2    1    2    0    0  0.00000000000E+00  0.00000000000E+00  0.23751983282E+03  0.26458642271E+03  0.11657745965E+03 0.  0.
          2    1    3    3  502    0  0.21604633923E+02 -0.15268096161E+02  0.87726965113E+00  0.26469691523E+02  0.00000000000E+00 0. -1.
         -2    1    3    3    0  502 -0.21604633923E+02  0.15268096161E+02  0.23664256317E+03  0.23811673118E+03  0.00000000000E+00 0.  1.
<mgrwt>
<rscale>  0 0.11657746E+03</rscale>
<asrwt>0</asrwt>
<pdfrwt beam="1">  1        2 0.38623555E-01 0.11657746E+03</pdfrwt>
<pdfrwt beam="2">  1       -2 0.20820456E-02 0.11657746E+03</pdfrwt>
<totfact> 0.86206308E+04</totfact>
</mgrwt>
</event>
<event>
 5    1  0.3858870E+001  0.9119448E+02  0.7546771E-02  0.1299985E+00
          3   -1    0    0  501    0  0.00000000000E+00  0.00000000000E+00  0.27550687286E+03  0.27550687286E+03  0.00000000000E+00 0. -1.
         -3   -1    0    0    0  501 -0.00000000000E+00 -0.00000000000E+00 -0.75464840209E+01  0.75464840209E+01  0.00000000000E+00 0.  1.
         23    2    1    2    0    0  0.00000000000E+00  0.00000000000E+00  0.26796038884E+03  0.28305335688E+03  0.91194478203E+02 0.  0.
          2    1    3    3  502    0 -0.43930047606E+02  0.25273529096E+01  0.96880293568E+02  0.10640501810E+03  0.00000000000E+00 0.  1.
         -2    1    3    3    0  502  0.43930047606E+02 -0.25273529096E+01  0.17108009527E+03  0.17664833878E+03  0.00000000000E+00 0. -1.
<mgrwt>
<rscale>  0 0.91194478E+02</rscale>
<asrwt>0</asrwt>
<pdfrwt beam="1">  1        3 0.42385665E-01 0.91194478E+02</pdfrwt>
<pdfrwt beam="2">  1       -3 0.11609978E-02 0.91194478E+02</pdfrwt>
<totfact> 0.24689171E+04</totfact>
</mgrwt>
</event>
<event>
 5    1  0.3858870E+001  0.9928049E+02  0.7546771E-02  0.1281816E+00
          2   -1    0    0  501    0  0.00000000000E+00  0.00000000000E+00  0.59586993246E+03  0.59586993246E+03  0.00000000000E+00 0. -1.
         -2   -1    0    0    0  501 -0.00000000000E+00 -0.00000000000E+00 -0.41353890504E+01  0.41353890504E+01  0.00000000000E+00 0.  1.
         23    2    1    2    0    0  0.00000000000E+00  0.00000000000E+00  0.59173454341E+03  0.60000532151E+03  0.99280491420E+02 0.  0.
          2    1    3    3  502    0 -0.28301641147E+02 -0.13507504595E+01  0.54219953908E+03  0.54293935904E+03  0.00000000000E+00 0. -1.
         -2    1    3    3    0  502  0.28301641147E+02  0.13507504595E+01  0.49535004324E+02  0.57065962463E+02  0.00000000000E+00 0.  1.
<mgrwt>
<rscale>  0 0.99280491E+02</rscale>
<asrwt>0</asrwt>
<pdfrwt beam="1">  1        2 0.91672229E-01 0.99280491E+02</pdfrwt>
<pdfrwt beam="2">  1       -2 0.63621417E-03 0.99280491E+02</pdfrwt>
<totfact> 0.18141308E+05</totfact>
</mgrwt>
</event>
<event>
 5    1  0.3858870E+001  0.9253592E+02  0.7546771E-02  0.1296824E+00
         -1   -1    0    0    0  501 -0.00000000000E+00  0.00000000000E+00  0.35719981177E+01  0.35719981177E+01  0.00000000000E+00 0.  1.
          1   -1    0    0  501    0  0.00000000000E+00 -0.00000000000E+00 -0.59930721192E+03  0.59930721192E+03  0.00000000000E+00 0. -1.
         23    2    1    2    0    0  0.00000000000E+00  0.00000000000E+00 -0.59573521380E+03  0.60287921004E+03  0.92535922385E+02 0.  0.
          2    1    3    3  502    0  0.35908568302E+02  0.28967030853E+02 -0.32063321133E+03  0.32393544166E+03  0.00000000000E+00 0. -1.
         -2    1    3    3    0  502 -0.35908568302E+02 -0.28967030853E+02 -0.27510200247E+03  0.27894376838E+03  0.00000000000E+00 0.  1.
<mgrwt>
<rscale>  0 0.92535922E+02</rscale>
<asrwt>0</asrwt>
<pdfrwt beam="2">  1        1 0.92201070E-01 0.92535922E+02</pdfrwt>
<pdfrwt beam="1">  1       -1 0.54953841E-03 0.92535922E+02</pdfrwt>
<totfact> 0.13613497E+05</totfact>
</mgrwt>
</event>
<event>
 5    1  0.3858870E+001  0.9216923E+02  0.7546771E-02  0.1297682E+00
          2   -1    0    0  501    0  0.00000000000E+00  0.00000000000E+00  0.59567924274E+02  0.59567924274E+02  0.00000000000E+00 0. -1.
         -2   -1    0    0    0  501 -0.00000000000E+00 -0.00000000000E+00 -0.35653280061E+02  0.35653280061E+02  0.00000000000E+00 0.  1.
         23    2    1    2    0    0  0.00000000000E+00  0.00000000000E+00  0.23914644213E+02  0.95221204334E+02  0.92169233191E+02 0.  0.
          2    1    3    3  502    0 -0.45823527223E+02 -0.39127556389E+01  0.15002216115E+02  0.48375322141E+02  0.00000000000E+00 0. -1.
         -2    1    3    3    0  502  0.45823527223E+02  0.39127556389E+01  0.89124280978E+01  0.46845882193E+02  0.00000000000E+00 0.  1.
<mgrwt>
<rscale>  0 0.92169233E+02</rscale>
<asrwt>0</asrwt>
<pdfrwt beam="1">  1        2 0.91642961E-02 0.92169233E+02</pdfrwt>
<pdfrwt beam="2">  1       -2 0.54851200E-02 0.92169233E+02</pdfrwt>
<totfact> 0.10267292E+05</totfact>
</mgrwt>
</event>
<event>
 5    1  0.3858870E+001  0.9136051E+02  0.7546771E-02  0.1299590E+00
          2   -1    0    0  501    0  0.00000000000E+00  0.00000000000E+00  0.86483799038E+03  0.86483799038E+03  0.00000000000E+00 0. -1.
         -2   -1    0    0    0  501 -0.00000000000E+00 -0.00000000000E+00 -0.24128051634E+01  0.24128051634E+01  0.00000000000E+00 0.  1.
         23    2    1    2    0    0  0.00000000000E+00  0.00000000000E+00  0.86242518521E+03  0.86725079554E+03  0.91360507193E+02 0.  0.
          2    1    3    3  502    0 -0.18170664611E+02 -0.18914882573E+02  0.78623409778E+03  0.78667147040E+03  0.00000000000E+00 0. -1.
         -2    1    3    3    0  502  0.18170664611E+02  0.18914882573E+02  0.76191087435E+02  0.80579325138E+02  0.00000000000E+00 0.  1.
<mgrwt>
<rscale>  0 0.91360507E+02</rscale>
<asrwt>0</asrwt>
<pdfrwt beam="1">  1        2 0.13305175E+00 0.91360507E+02</pdfrwt>
<pdfrwt beam="2">  1       -2 0.37120148E-03 0.91360507E+02</pdfrwt>
<totfact> 0.24541478E+05</totfact>
</mgrwt>
</event>
<event>
 5    1  0.3858870E+001  0.8569796E+02  0.7546771E-02  0.1313617E+00
          2   -1    0    0  501    0  0.00000000000E+00  0.00000000000E+00  0.10544806687E+03  0.10544806687E+03  0.00000000000E+00 0. -1.
         -2   -1    0    0    0  501 -0.00000000000E+00 -0.00000000000E+00 -0.17411748158E+02  0.17411748158E+02  0.00000000000E+00 0.  1.
         23    2    1    2    0    0  0.00000000000E+00  0.00000000000E+00  0.88036318714E+02  0.12285981503E+03  0.85697962264E+02 0.  0.
          2    1    3    3  502    0 -0.34495083532E+02 -0.17678815516E+02  0.70202514843E+02  0.80192545765E+02  0.00000000000E+00 0. -1.
         -2    1    3    3    0  502  0.34495083532E+02  0.17678815516E+02  0.17833803871E+02  0.42667269265E+02  0.00000000000E+00 0.  1.
<mgrwt>
<rscale>  0 0.85697962E+02</rscale>
<asrwt>0</asrwt>
<pdfrwt beam="1">  1        2 0.16222779E-01 0.85697962E+02</pdfrwt>
<pdfrwt beam="2">  1       -2 0.26787306E-02 0.85697962E+02</pdfrwt>
<totfact> 0.14769999E+05</totfact>
</mgrwt>
</event>
<event>
 5    1  0.3858870E+001  0.9261007E+02  0.7546771E-02  0.1296651E+00
          1   -1    0    0  501    0  0.00000000000E+00  0.00000000000E+00  0.42631692847E+02  0.42631692847E+02  0.00000000000E+00 0. -1.
         -1   -1    0    0    0  501 -0.00000000000E+00 -0.00000000000E+00 -0.50294884568E+02  0.50294884568E+02  0.00000000000E+00 0.  1.
         23    2    1    2    0    0  0.00000000000E+00  0.00000000000E+00 -0.76631917213E+01  0.92926577415E+02  0.92610065774E+02 0.  0.
          2    1    3    3  502    0  0.43765379895E+02 -0.14251501365E+02  0.12495335481E+01  0.46044273288E+02  0.00000000000E+00 0. -1.
         -2    1    3    3    0  502 -0.43765379895E+02  0.14251501365E+02 -0.89127252694E+01  0.46882304127E+02  0.00000000000E+00 0.  1.
<mgrwt>
<rscale>  0 0.92610066E+02</rscale>
<asrwt>0</asrwt>
<pdfrwt beam="1">  1        1 0.65587220E-02 0.92610066E+02</pdfrwt>
<pdfrwt beam="2">  1       -1 0.77376745E-02 0.92610066E+02</pdfrwt>
<totfact> 0.87600648E+04</totfact>
</mgrwt>
</event>
<event>
 5    1  0.3858870E+001  0.9147719E+02  0.7546771E-02  0.1299313E+00
         -3   -1    0    0    0  501 -0.00000000000E+00  0.00000000000E+00  0.67321389956E+01  0.67321389956E+01  0.00000000000E+00 0.  1.
          3   -1    0    0  501    0  0.00000000000E+00 -0.00000000000E+00 -0.31075100969E+03  0.31075100969E+03  0.00000000000E+00 0. -1.
         23    2    1    2    0    0  0.00000000000E+00  0.00000000000E+00 -0.30401887069E+03  0.31748314868E+03  0.91477188200E+02 0.  0.
          2    1    3    3  502    0 -0.38184916904E+02 -0.22640099246E+02 -0.11377626436E+03  0.12212985018E+03  0.00000000000E+00 0. -1.
         -2    1    3    3    0  502  0.38184916904E+02  0.22640099246E+02 -0.19024260633E+03  0.19535329851E+03  0.00000000000E+00 0.  1.
<mgrwt>
<rscale>  0 0.91477188E+02</rscale>
<asrwt>0</asrwt>
<pdfrwt beam="2">  1        3 0.47807840E-01 0.91477188E+02</pdfrwt>
<pdfrwt beam="1">  1       -3 0.10357139E-02 0.91477188E+02</pdfrwt>
<totfact> 0.23164688E+04</totfact>
</mgrwt>
</event>
<event>
 5    1  0.3858870E+001  0.9016201E+02  0.7546771E-02  0.1302460E+00
          3   -1    0    0  501    0  0.00000000000E+00  0.00000000000E+00  0.36884220485E+01  0.36884220485E+01  0.00000000000E+00 0. -1.
         -3   -1    0    0    0  501 -0.00000000000E+00 -0.00000000000E+00 -0.55099366109E+03  0.55099366109E+03  0.00000000000E+00 0.  1.
         23    2    1    2    0    0  0.00000000000E+00  0.00000000000E+00 -0.54730523904E+03  0.55468208314E+03  0.90162013469E+02 0.  0.
          2    1    3    3  502    0  0.35874190446E+02 -0.17158595735E+02 -0.14301406853E+03  0.14843988260E+03  0.00000000000E+00 0. -1.
         -2    1    3    3    0  502 -0.35874190446E+02  0.17158595735E+02 -0.40429117051E+03  0.40624220054E+03  0.00000000000E+00 0.  1.
<mgrwt>
<rscale>  0 0.90162013E+02</rscale>
<asrwt>0</asrwt>
<pdfrwt beam="1">  1        3 0.56744982E-03 0.90162013E+02</pdfrwt>
<pdfrwt beam="2">  1       -3 0.84768215E-01 0.90162013E+02</pdfrwt>
<totfact> 0.17141186E+04</totfact>
</mgrwt>
</event>
<event>
 5    1  0.3858870E+001  0.8939344E+02  0.7546771E-02  0.1304327E+00
         -2   -1    0    0    0  501 -0.00000000000E+00  0.00000000000E+00  0.11795725163E+02  0.11795725163E+02  0.00000000000E+00 0. -1.
          2   -1    0    0  501    0  0.00000000000E+00 -0.00000000000E+00 -0.16936615426E+03  0.16936615426E+03  0.00000000000E+00 0.  1.
         23    2    1    2    0    0  0.00000000000E+00  0.00000000000E+00 -0.15757042910E+03  0.18116187943E+03  0.89393436170E+02 0.  0.
          2    1    3    3  502    0  0.32434143356E+02  0.29452930352E+02 -0.60847185761E+02  0.74978855530E+02  0.00000000000E+00 0. -1.
         -2    1    3    3    0  502 -0.32434143356E+02 -0.29452930352E+02 -0.96723243339E+02  0.10618302390E+03  0.00000000000E+00 0.  1.
<mgrwt>
<rscale>  0 0.89393436E+02</rscale>
<asrwt>0</asrwt>
<pdfrwt beam="2">  1        2 0.26056331E-01 0.89393436E+02</pdfrwt>
<pdfrwt beam="1">  1       -2 0.18147270E-02 0.89393436E+02</pdfrwt>
<totfact> 0.15377184E+05</totfact>
</mgrwt>
</event>
<event>
 5    1  0.3858870E+001  0.8202022E+02  0.7546771E-02  0.1323414E+00
          1   -1    0    0  501    0  0.00000000000E+00  0.00000000000E+00  0.82702006911E+01  0.82702006911E+01  0.00000000000E+00 0. -1.
         -1   -1    0    0    0  501 -0.00000000000E+00 -0.00000000000E+00 -0.20336015066E+03  0.20336015066E+03  0.00000000000E+00 0.  1.
         23    2    1    2    0    0  0.00000000000E+00  0.00000000000E+00 -0.19508994997E+03  0.21163035135E+03  0.82020223324E+02 0.  0.
          2    1    3    3  502    0 -0.33715652244E+02  0.19267706515E+02 -0.63525211886E+02  0.74454296490E+02  0.00000000000E+00 0. -1.
         -2    1    3    3    0  502  0.33715652244E+02 -0.19267706515E+02 -0.13156473808E+03  0.13717605486E+03  0.00000000000E+00 0.  1.
<mgrwt>
<rscale>  0 0.82020223E+02</rscale>
<asrwt>0</asrwt>
<pdfrwt beam="1">  1        1 0.12723386E-02 0.82020223E+02</pdfrwt>
<pdfrwt beam="2">  1       -1 0.31286177E-01 0.82020223E+02</pdfrwt>
<totfact> 0.90939736E+04</totfact>
</mgrwt>
</event>
<event>
 5    1  0.3858870E+001  0.9088363E+02  0.7546771E-02  0.1300726E+00
          2   -1    0    0  501    0  0.00000000000E+00  0.00000000000E+00  0.37301141090E+03  0.37301141090E+03  0.00000000000E+00 0. -1.
         -2   -1    0    0    0  501 -0.00000000000E+00 -0.00000000000E+00 -0.55359129649E+01  0.55359129649E+01  0.00000000000E+00 0.  1.
         23    2    1    2    0    0  0.00000000000E+00  0.00000000000E+00  0.36747549794E+03  0.37854732387E+03  0.90883633415E+02 0.  0.
          2    1    3    3  502    0  0.40416689718E+02  0.15932806211E+02  0.23924511003E+03  0.24315753288E+03  0.00000000000E+00 0. -1.
         -2    1    3    3    0  502 -0.40416689718E+02 -0.15932806211E+02  0.12823038791E+03  0.13538979099E+03  0.00000000000E+00 0.  1.
<mgrwt>
<rscale>  0 0.90883633E+02</rscale>
<asrwt>0</asrwt>
<pdfrwt beam="1">  1        2 0.57386351E-01 0.90883633E+02</pdfrwt>
<pdfrwt beam="2">  1       -2 0.85167921E-03 0.90883633E+02</pdfrwt>
<totfact> 0.19632972E+05</totfact>
</mgrwt>
</event>
<event>
 5    1  0.3858870E+001  0.9129157E+02  0.7546771E-02  0.1299754E+00
         -2   -1    0    0    0  501 -0.00000000000E+00  0.00000000000E+00  0.49899809037E+01  0.49899809037E+01  0.00000000000E+00 0.  1.
          2   -1    0    0  501    0  0.00000000000E+00 -0.00000000000E+00 -0.41754420278E+03  0.41754420278E+03  0.00000000000E+00 0. -1.
         23    2    1    2    0    0  0.00000000000E+00  0.00000000000E+00 -0.41255422188E+03  0.42253418369E+03  0.91291568030E+02 0.  0.
          2    1    3    3  502    0  0.13099613504E+02  0.19385231710E+02 -0.38768161620E+03  0.38838694960E+03  0.00000000000E+00 0. -1.
         -2    1    3    3    0  502 -0.13099613504E+02 -0.19385231710E+02 -0.24872605685E+02  0.34147234089E+02  0.00000000000E+00 0.  1.
<mgrwt>
<rscale>  0 0.91291568E+02</rscale>
<asrwt>0</asrwt>
<pdfrwt beam="2">  1        2 0.64237582E-01 0.91291568E+02</pdfrwt>
<pdfrwt beam="1">  1       -2 0.76768922E-03 0.91291568E+02</pdfrwt>
<totfact> 0.20201622E+05</totfact>
</mgrwt>
</event>
<event>
 5    1  0.3858870E+001  0.9112074E+02  0.7546771E-02  0.1300160E+00
          1   -1    0    0  501    0  0.00000000000E+00  0.00000000000E+00  0.28996367258E+02  0.28996367258E+02  0.00000000000E+00 0. -1.
         -1   -1    0    0    0  501 -0.00000000000E+00 -0.00000000000E+00 -0.71586467459E+02  0.71586467459E+02  0.00000000000E+00 0.  1.
         23    2    1    2    0    0  0.00000000000E+00  0.00000000000E+00 -0.42590100200E+02  0.10058283472E+03  0.91120744096E+02 0.  0.
          2    1    3    3  502    0 -0.36269676979E+01 -0.29612223792E+02  0.16714754474E+02  0.34196808472E+02  0.00000000000E+00 0. -1.
         -2    1    3    3    0  502  0.36269676979E+01  0.29612223792E+02 -0.59304854674E+02  0.66386026244E+02  0.00000000000E+00 0.  1.
<mgrwt>
<rscale>  0 0.91120744E+02</rscale>
<asrwt>0</asrwt>
<pdfrwt beam="1">  1        1 0.44609797E-02 0.91120744E+02</pdfrwt>
<pdfrwt beam="2">  1       -1 0.11013302E-01 0.91120744E+02</pdfrwt>
<totfact> 0.86360750E+04</totfact>
</mgrwt>
</event>
<event>
 5    1  0.3858870E+001  0.9180198E+02  0.7546771E-02  0.1298546E+00
          2   -1    0    0  501    0  0.00000000000E+00  0.00000000000E+00  0.12383550814E+04  0.12383550814E+04  0.00000000000E+00 0. -1.
         -2   -1    0    0    0  501 -0.00000000000E+00 -0.00000000000E+00 -0.17013706419E+01  0.17013706419E+01  0.00000000000E+00 0.  1.
         23    2    1    2    0    0  0.00000000000E+00  0.00000000000E+00  0.12366537107E+04  0.12400564520E+04  0.91801982108E+02 0.  0.
          2    1    3    3  502    0 -0.10511214466E+02  0.20902762301E+02  0.84892873761E+02  0.88057998596E+02  0.00000000000E+00 0.  1.
         -2    1    3    3    0  502  0.10511214466E+02 -0.20902762301E+02  0.11517608370E+04  0.11519984534E+04  0.00000000000E+00 0. -1.
<mgrwt>
<rscale>  0 0.91801982E+02</rscale>
<asrwt>0</asrwt>
<pdfrwt beam="1">  1        2 0.19051545E+00 0.91801982E+02</pdfrwt>
<pdfrwt beam="2">  1       -2 0.26175032E-03 0.91801982E+02</pdfrwt>
<totfact> 0.24328534E+05</totfact>
</mgrwt>
</event>
<event>
 5    1  0.3858870E+001  0.9368554E+02  0.7546771E-02  0.1294164E+00
         -2   -1    0    0    0  501 -0.00000000000E+00  0.00000000000E+00  0.11461657272E+01  0.11461657272E+01  0.00000000000E+00 0.  1.
          2   -1    0    0  501    0  0.00000000000E+00 -0.00000000000E+00 -0.19144219955E+04  0.19144219955E+04  0.00000000000E+00 0. -1.
         23    2    1    2    0    0  0.00000000000E+00  0.00000000000E+00 -0.19132758298E+04  0.19155681612E+04  0.93685535249E+02 0.  0.
          2    1    3    3  502    0 -0.67315691120E+00  0.36571799288E+02 -0.15549624766E+04  0.15553926364E+04  0.00000000000E+00 0. -1.
         -2    1    3    3    0  502  0.67315691120E+00 -0.36571799288E+02 -0.35831335314E+03  0.36017552482E+03  0.00000000000E+00 0.  1.
<mgrwt>
<rscale>  0 0.93685535E+02</rscale>
<asrwt>0</asrwt>
<pdfrwt beam="2">  1        2 0.29452514E+00 0.93685535E+02</pdfrwt>
<pdfrwt beam="1">  1       -2 0.17633398E-03 0.93685535E+02</pdfrwt>
<totfact> 0.19036567E+05</totfact>
</mgrwt>
</event>
<event>
 5    1  0.3858870E+001  0.8977868E+02  0.7546771E-02  0.1303389E+00
         -2   -1    0    0    0  501 -0.00000000000E+00  0.00000000000E+00  0.72763311712E+02  0.72763311712E+02  0.00000000000E+00 0. -1.
          2   -1    0    0  501    0  0.00000000000E+00 -0.00000000000E+00 -0.27693253594E+02  0.27693253594E+02  0.00000000000E+00 0.  1.
         23    2    1    2    0    0  0.00000000000E+00  0.00000000000E+00  0.45070058118E+02  0.10045656531E+03  0.89778679954E+02 0.  0.
          2    1    3    3  502    0  0.37090749539E+02  0.53577261674E+01  0.50184830282E+02  0.62633426550E+02  0.00000000000E+00 0. -1.
         -2    1    3    3    0  502 -0.37090749539E+02 -0.53577261674E+01 -0.51147721641E+01  0.37823138756E+02  0.00000000000E+00 0.  1.
<mgrwt>
<rscale>  0 0.89778680E+02</rscale>
<asrwt>0</asrwt>
<pdfrwt beam="2">  1        2 0.42605006E-02 0.89778680E+02</pdfrwt>
<pdfrwt beam="1">  1       -2 0.11194356E-01 0.89778680E+02</pdfrwt>
<totfact> 0.90664196E+04</totfact>
</mgrwt>
</event>
<event>
 5    1  0.3858870E+001  0.9087643E+02  0.7546771E-02  0.1300743E+00
          4   -1    0    0  501    0  0.00000000000E+00  0.00000000000E+00  0.25615575168E+03  0.25615575168E+03  0.00000000000E+00 0. -1.
         -4   -1    0    0    0  501 -0.00000000000E+00 -0.00000000000E+00 -0.80600621801E+01  0.80600621801E+01  0.00000000000E+00 0.  1.
         23    2    1    2    0    0  0.00000000000E+00  0.00000000000E+00  0.24809568950E+03  0.26421581386E+03  0.90876427887E+02 0.  0.
          2    1    3    3  502    0  0.23303768384E+02 -0.44160052324E+01  0.23672914764E+03  0.23791438810E+03  0.00000000000E+00 0. -1.
         -2    1    3    3    0  502 -0.23303768384E+02  0.44160052324E+01  0.11366541860E+02  0.26301425760E+02  0.00000000000E+00 0.  1.
<mgrwt>
<rscale>  0 0.90876428E+02</rscale>
<asrwt>0</asrwt>
<pdfrwt beam="1">  1        4 0.39408571E-01 0.90876428E+02</pdfrwt>
<pdfrwt beam="2">  1       -4 0.12400098E-02 0.90876428E+02</pdfrwt>
<totfact> 0.19138511E+04</totfact>
</mgrwt>
</event>
<event>
 5    1  0.3858870E+001  0.9222267E+02  0.7546771E-02  0.1297557E+00
         -1   -1    0    0    0  501 -0.00000000000E+00  0.00000000000E+00  0.35069067379E+01  0.35069067379E+01  0.00000000000E+00 0.  1.
          1   -1    0    0  501    0  0.00000000000E+00 -0.00000000000E+00 -0.60630504136E+03  0.60630504136E+03  0.00000000000E+00 0. -1.
         23    2    1    2    0    0  0.00000000000E+00  0.00000000000E+00 -0.60279813462E+03  0.60981194810E+03  0.92222670418E+02 0.  0.
          2    1    3    3  502    0 -0.39297867822E+02 -0.17642746263E+02 -0.41018565333E+03  0.41244134020E+03  0.00000000000E+00 0. -1.
         -2    1    3    3    0  502  0.39297867822E+02  0.17642746263E+02 -0.19261248129E+03  0.19737060789E+03  0.00000000000E+00 0.  1.
<mgrwt>
<rscale>  0 0.92222670E+02</rscale>
<asrwt>0</asrwt>
<pdfrwt beam="2">  1        1 0.93277691E-01 0.92222670E+02</pdfrwt>
<pdfrwt beam="1">  1       -1 0.53952416E-03 0.92222670E+02</pdfrwt>
<totfact> 0.13745690E+05</totfact>
</mgrwt>
</event>
<event>
 5    1  0.3858870E+001  0.8959025E+02  0.7546771E-02  0.1303847E+00
          2   -1    0    0  501    0  0.00000000000E+00  0.00000000000E+00  0.12924876397E+04  0.12924876397E+04  0.00000000000E+00 0. -1.
         -2   -1    0    0    0  501 -0.00000000000E+00 -0.00000000000E+00 -0.15525125330E+01  0.15525125330E+01  0.00000000000E+00 0.  1.
         23    2    1    2    0    0  0.00000000000E+00  0.00000000000E+00  0.12909351272E+04  0.12940401523E+04  0.89590250796E+02 0.  0.
          2    1    3    3  502    0  0.30938807483E+02 -0.58731779310E+01  0.11056165415E+04  0.11060649352E+04  0.00000000000E+00 0. -1.
         -2    1    3    3    0  502 -0.30938807483E+02  0.58731779310E+01  0.18531858573E+03  0.18797521710E+03  0.00000000000E+00 0.  1.
<mgrwt>
<rscale>  0 0.89590251E+02</rscale>
<asrwt>0</asrwt>
<pdfrwt beam="1">  1        2 0.19884339E+00 0.89590251E+02</pdfrwt>
<pdfrwt beam="2">  1       -2 0.23884912E-03 0.89590251E+02</pdfrwt>
<totfact> 0.25759508E+05</totfact>
</mgrwt>
</event>
<event>
 5    1  0.3858870E+001  0.8765211E+02  0.7546771E-02  0.1308639E+00
         -4   -1    0    0    0  501 -0.00000000000E+00  0.00000000000E+00  0.15468381230E+02  0.15468381230E+02  0.00000000000E+00 0. -1.
          4   -1    0    0  501    0  0.00000000000E+00 -0.00000000000E+00 -0.12417092252E+03  0.12417092252E+03  0.00000000000E+00 0.  1.
         23    2    1    2    0    0  0.00000000000E+00  0.00000000000E+00 -0.10870254129E+03  0.13963930375E+03  0.87652111606E+02 0.  0.
          2    1    3    3  502    0  0.41735205250E+02  0.13366382265E+02 -0.53577939870E+02  0.69217650732E+02  0.00000000000E+00 0. -1.
         -2    1    3    3    0  502 -0.41735205250E+02 -0.13366382265E+02 -0.55124601420E+02  0.70421653018E+02  0.00000000000E+00 0.  1.
<mgrwt>
<rscale>  0 0.87652112E+02</rscale>
<asrwt>0</asrwt>
<pdfrwt beam="2">  1        4 0.19103218E-01 0.87652112E+02</pdfrwt>
<pdfrwt beam="1">  1       -4 0.23797511E-02 0.87652112E+02</pdfrwt>
<totfact> 0.26903807E+04</totfact>
</mgrwt>
</event>
<event>
 5    1  0.3858870E+001  0.8524440E+02  0.7546771E-02  0.1314795E+00
         -1   -1    0    0    0  501 -0.00000000000E+00  0.00000000000E+00  0.17910493042E+02  0.17910493042E+02  0.00000000000E+00 0.  1.
          1   -1    0    0  501    0  0.00000000000E+00 -0.00000000000E+00 -0.10142948573E+03  0.10142948573E+03  0.00000000000E+00 0. -1.
         23    2    1    2    0    0  0.00000000000E+00  0.00000000000E+00 -0.83518992686E+02  0.11933997877E+03  0.85244403885E+02 0.  0.
          2    1    3    3  502    0  0.23947312091E+02 -0.19943902156E+02 -0.82465278878E+02  0.88157559007E+02  0.00000000000E+00 0. -1.
         -2    1    3    3    0  502 -0.23947312091E+02  0.19943902156E+02 -0.10537138083E+01  0.31182419764E+02  0.00000000000E+00 0.  1.
<mgrwt>
<rscale>  0 0.85244404E+02</rscale>
<asrwt>0</asrwt>
<pdfrwt beam="2">  1        1 0.15604536E-01 0.85244404E+02</pdfrwt>
<pdfrwt beam="1">  1       -1 0.27554605E-02 0.85244404E+02</pdfrwt>
<totfact> 0.12564766E+05</totfact>
</mgrwt>
</event>
<event>
 5    1  0.3858870E+001  0.9107068E+02  0.7546771E-02  0.1300279E+00
          1   -1    0    0  501    0  0.00000000000E+00  0.00000000000E+00  0.13929819846E+02  0.13929819846E+02  0.00000000000E+00 0. -1.
         -1   -1    0    0    0  501 -0.00000000000E+00 -0.00000000000E+00 -0.14885098035E+03  0.14885098035E+03  0.00000000000E+00 0.  1.
         23    2    1    2    0    0  0.00000000000E+00  0.00000000000E+00 -0.13492116051E+03  0.16278080020E+03  0.91070683325E+02 0.  0.
          2    1    3    3  502    0 -0.34520813460E+02  0.17162575373E+02 -0.24146658048E+02  0.45489577380E+02  0.00000000000E+00 0. -1.
         -2    1    3    3    0  502  0.34520813460E+02 -0.17162575373E+02 -0.11077450246E+03  0.11729122282E+03  0.00000000000E+00 0.  1.
<mgrwt>
<rscale>  0 0.91070683E+02</rscale>
<asrwt>0</asrwt>
<pdfrwt beam="1">  1        1 0.21430492E-02 0.91070683E+02</pdfrwt>
<pdfrwt beam="2">  1       -1 0.22900151E-01 0.91070683E+02</pdfrwt>
<totfact> 0.75150018E+04</totfact>
</mgrwt>
</event>
<event>
 5    1  0.3858870E+001  0.9294351E+02  0.7546771E-02  0.1295876E+00
          1   -1    0    0  501    0  0.00000000000E+00  0.00000000000E+00  0.15709347889E+04  0.15709347889E+04  0.00000000000E+00 0. -1.
         -1   -1    0    0    0  501 -0.00000000000E+00 -0.00000000000E+00 -0.13747382053E+01  0.13747382053E+01  0.00000000000E+00 0.  1.
         23    2    1    2    0    0  0.00000000000E+00  0.00000000000E+00  0.15695600507E+04  0.15723095271E+04  0.92943511281E+02 0.  0.
          2    1    3    3  502    0  0.41999620965E+01 -0.35884406112E+02  0.12792302685E+04  0.12797403683E+04  0.00000000000E+00 0. -1.
         -2    1    3    3    0  502 -0.41999620965E+01  0.35884406112E+02  0.29032978217E+03  0.29256915883E+03  0.00000000000E+00 0.  1.
<mgrwt>
<rscale>  0 0.92943511E+02</rscale>
<asrwt>0</asrwt>
<pdfrwt beam="1">  1        1 0.24168084E+00 0.92943511E+02</pdfrwt>
<pdfrwt beam="2">  1       -1 0.21149944E-03 0.92943511E+02</pdfrwt>
<totfact> 0.10092629E+05</totfact>
</mgrwt>
</event>
<event>
 5    1  0.3858870E+001  0.8647716E+02  0.7546771E-02  0.1311614E+00
          3   -1    0    0  501    0  0.00000000000E+00  0.00000000000E+00  0.33173121093E+02  0.33173121093E+02  0.00000000000E+00 0. -1.
         -3   -1    0    0    0  501 -0.00000000000E+00 -0.00000000000E+00 -0.56358116847E+02  0.56358116847E+02  0.00000000000E+00 0.  1.
         23    2    1    2    0    0  0.00000000000E+00  0.00000000000E+00 -0.23184995754E+02  0.89531237939E+02  0.86477156168E+02 0.  0.
          2    1    3    3  502    0  0.33922044428E+02  0.25700263598E+02 -0.36829235881E+01  0.42717356815E+02  0.00000000000E+00 0. -1.
         -2    1    3    3    0  502 -0.33922044428E+02 -0.25700263598E+02 -0.19502072166E+02  0.46813881124E+02  0.00000000000E+00 0.  1.
<mgrwt>
<rscale>  0 0.86477156E+02</rscale>
<asrwt>0</asrwt>
<pdfrwt beam="1">  1        3 0.51035571E-02 0.86477156E+02</pdfrwt>
<pdfrwt beam="2">  1       -3 0.86704796E-02 0.86477156E+02</pdfrwt>
<totfact> 0.40941541E+04</totfact>
</mgrwt>
</event>
<event>
 5    1  0.3858870E+001  0.9062193E+02  0.7546771E-02  0.1301353E+00
          2   -1    0    0  501    0  0.00000000000E+00  0.00000000000E+00  0.16230259144E+02  0.16230259144E+02  0.00000000000E+00 0. -1.
         -2   -1    0    0    0  501 -0.00000000000E+00 -0.00000000000E+00 -0.12649728549E+03  0.12649728549E+03  0.00000000000E+00 0.  1.
         23    2    1    2    0    0  0.00000000000E+00  0.00000000000E+00 -0.11026702635E+03  0.14272754463E+03  0.90621933868E+02 0.  0.
          2    1    3    3  502    0 -0.16419115273E+02 -0.32253167164E+02 -0.12196091359E+02  0.38191606184E+02  0.00000000000E+00 0. -1.
         -2    1    3    3    0  502  0.16419115273E+02  0.32253167164E+02 -0.98070934986E+02  0.10453593845E+03  0.00000000000E+00 0.  1.
<mgrwt>
<rscale>  0 0.90621934E+02</rscale>
<asrwt>0</asrwt>
<pdfrwt beam="1">  1        2 0.24969629E-02 0.90621934E+02</pdfrwt>
<pdfrwt beam="2">  1       -2 0.19461121E-01 0.90621934E+02</pdfrwt>
<totfact> 0.75269320E+04</totfact>
</mgrwt>
</event>
<event>
 5    1  0.3858870E+001  0.9348407E+02  0.7546771E-02  0.1294627E+00
          1   -1    0    0  501    0  0.00000000000E+00  0.00000000000E+00  0.99376028415E+02  0.99376028415E+02  0.00000000000E+00 0. -1.
         -1   -1    0    0    0  501 -0.00000000000E+00 -0.00000000000E+00 -0.21985360433E+02  0.21985360433E+02  0.00000000000E+00 0.  1.
         23    2    1    2    0    0  0.00000000000E+00  0.00000000000E+00  0.77390667982E+02  0.12136138885E+03  0.93484069297E+02 0.  0.
          2    1    3    3  502    0 -0.18651143391E+02 -0.41363416046E+02  0.24121847245E+02  0.51387360812E+02  0.00000000000E+00 0. -1.
         -2    1    3    3    0  502  0.18651143391E+02  0.41363416046E+02  0.53268820737E+02  0.69974028035E+02  0.00000000000E+00 0.  1.
<mgrwt>
<rscale>  0 0.93484069E+02</rscale>
<asrwt>0</asrwt>
<pdfrwt beam="1">  1        1 0.15288620E-01 0.93484069E+02</pdfrwt>
<pdfrwt beam="2">  1       -1 0.33823632E-02 0.93484069E+02</pdfrwt>
<totfact> 0.97453665E+04</totfact>
</mgrwt>
</event>
<event>
 5    1  0.3858870E+001  0.8992459E+02  0.7546771E-02  0.1303034E+00
         -3   -1    0    0    0  501 -0.00000000000E+00  0.00000000000E+00  0.85739065426E+01  0.85739065426E+01  0.00000000000E+00 0.  1.
          3   -1    0    0  501    0  0.00000000000E+00 -0.00000000000E+00 -0.23578607897E+03  0.23578607897E+03  0.00000000000E+00 0. -1.
         23    2    1    2    0    0  0.00000000000E+00  0.00000000000E+00 -0.22721217243E+03  0.24435998551E+03  0.89924586296E+02 0.  0.
          2    1    3    3  502    0  0.40788157582E+02 -0.15471225102E+02 -0.84015840251E+02  0.94666224274E+02  0.00000000000E+00 0.  1.
         -2    1    3    3    0  502 -0.40788157582E+02  0.15471225102E+02 -0.14319633218E+03  0.14969376124E+03  0.00000000000E+00 0. -1.
<mgrwt>
<rscale>  0 0.89924586E+02</rscale>
<asrwt>0</asrwt>
<pdfrwt beam="2">  1        3 0.36274782E-01 0.89924586E+02</pdfrwt>
<pdfrwt beam="1">  1       -3 0.13190625E-02 0.89924586E+02</pdfrwt>
<totfact> 0.27353564E+04</totfact>
</mgrwt>
</event>
<event>
 5    1  0.3858870E+001  0.8358828E+02  0.7546771E-02  0.1319166E+00
         -1   -1    0    0    0  501 -0.00000000000E+00  0.00000000000E+00  0.21236683575E+01  0.21236683575E+01  0.00000000000E+00 0.  1.
          1   -1    0    0  501    0  0.00000000000E+00 -0.00000000000E+00 -0.82251551349E+03  0.82251551349E+03  0.00000000000E+00 0. -1.
         23    2    1    2    0    0  0.00000000000E+00  0.00000000000E+00 -0.82039184514E+03  0.82463918185E+03  0.83588280746E+02 0.  0.
          2    1    3    3  502    0  0.37122055881E+02 -0.42086045931E+01 -0.22536849034E+03  0.22844411970E+03  0.00000000000E+00 0.  1.
         -2    1    3    3    0  502 -0.37122055881E+02  0.42086045931E+01 -0.59502335479E+03  0.59619506215E+03  0.00000000000E+00 0. -1.
<mgrwt>
<rscale>  0 0.83588281E+02</rscale>
<asrwt>0</asrwt>
<pdfrwt beam="2">  1        1 0.12654093E+00 0.83588281E+02</pdfrwt>
<pdfrwt beam="1">  1       -1 0.32671799E-03 0.83588281E+02</pdfrwt>
<totfact> 0.17714309E+05</totfact>
</mgrwt>
</event>
<event>
 5    1  0.3858870E+001  0.9063331E+02  0.7546771E-02  0.1301325E+00
         -2   -1    0    0    0  501 -0.00000000000E+00  0.00000000000E+00  0.48124048079E+01  0.48124048079E+01  0.00000000000E+00 0.  1.
          2   -1    0    0  501    0  0.00000000000E+00 -0.00000000000E+00 -0.42673036228E+03  0.42673036228E+03  0.00000000000E+00 0. -1.
         23    2    1    2    0    0  0.00000000000E+00  0.00000000000E+00 -0.42191795748E+03  0.43154276709E+03  0.90633310591E+02 0.  0.
          2    1    3    3  502    0  0.22434559379E+02 -0.36051937306E+02 -0.28632596157E+03  0.28945743712E+03  0.00000000000E+00 0. -1.
         -2    1    3    3    0  502 -0.22434559379E+02  0.36051937306E+02 -0.13559199591E+03  0.14208532997E+03  0.00000000000E+00 0.  1.
<mgrwt>
<rscale>  0 0.90633311E+02</rscale>
<asrwt>0</asrwt>
<pdfrwt beam="2">  1        2 0.65650841E-01 0.90633311E+02</pdfrwt>
<pdfrwt beam="1">  1       -2 0.74036979E-03 0.90633311E+02</pdfrwt>
<totfact> 0.20751078E+05</totfact>
</mgrwt>
</event>
<event>
 5    1  0.3858870E+001  0.9006359E+02  0.7546771E-02  0.1302698E+00
         -1   -1    0    0    0  501 -0.00000000000E+00  0.00000000000E+00  0.15398550964E+02  0.15398550964E+02  0.00000000000E+00 0.  1.
          1   -1    0    0  501    0  0.00000000000E+00 -0.00000000000E+00 -0.13169179158E+03  0.13169179158E+03  0.00000000000E+00 0. -1.
         23    2    1    2    0    0  0.00000000000E+00  0.00000000000E+00 -0.11629324062E+03  0.14709034255E+03  0.90063594515E+02 0.  0.
          2    1    3    3  502    0 -0.40125153829E+02  0.44944307665E+01 -0.25579667606E+02  0.47796937899E+02  0.00000000000E+00 0.  1.
         -2    1    3    3    0  502  0.40125153829E+02 -0.44944307665E+01 -0.90713573015E+02  0.99293404649E+02  0.00000000000E+00 0. -1.
<mgrwt>
<rscale>  0 0.90063595E+02</rscale>
<asrwt>0</asrwt>
<pdfrwt beam="2">  1        1 0.20260276E-01 0.90063595E+02</pdfrwt>
<pdfrwt beam="1">  1       -1 0.23690078E-02 0.90063595E+02</pdfrwt>
<totfact> 0.11321560E+05</totfact>
</mgrwt>
</event>
<event>
 5    1  0.3858870E+001  0.1002130E+03  0.7546771E-02  0.1279849E+00
          2   -1    0    0  501    0  0.00000000000E+00  0.00000000000E+00  0.11292386574E+04  0.11292386574E+04  0.00000000000E+00 0. -1.
         -2   -1    0    0    0  501 -0.00000000000E+00 -0.00000000000E+00 -0.22233234560E+01  0.22233234560E+01  0.00000000000E+00 0.  1.
         23    2    1    2    0    0  0.00000000000E+00  0.00000000000E+00  0.11270153340E+04  0.11314619809E+04  0.10021302898E+03 0.  0.
          2    1    3    3  502    0 -0.42775047642E+02  0.18381257431E+00  0.85812968169E+03  0.85919514029E+03  0.00000000000E+00 0. -1.
         -2    1    3    3    0  502  0.42775047642E+02 -0.18381257431E+00  0.26888565226E+03  0.27226684058E+03  0.00000000000E+00 0.  1.
<mgrwt>
<rscale>  0 0.10021303E+03</rscale>
<asrwt>0</asrwt>
<pdfrwt beam="1">  1        2 0.17372857E+00 0.10021303E+03</pdfrwt>
<pdfrwt beam="2">  1       -2 0.34205066E-03 0.10021303E+03</pdfrwt>
<totfact> 0.19464688E+05</totfact>
</mgrwt>
</event>
<event>
 5    1  0.3858870E+001  0.8324077E+02  0.7546771E-02  0.1320098E+00
         -2   -1    0    0    0  501 -0.00000000000E+00  0.00000000000E+00  0.72893863394E+00  0.72893863394E+00  0.00000000000E+00 0.  1.
          2   -1    0    0  501    0  0.00000000000E+00 -0.00000000000E+00 -0.23764088796E+04  0.23764088796E+04  0.00000000000E+00 0. -1.
         23    2    1    2    0    0  0.00000000000E+00  0.00000000000E+00 -0.23756799409E+04  0.23771378182E+04  0.83240765070E+02 0.  0.
          2    1    3    3  502    0  0.29668749196E+02  0.29046289898E+02 -0.12702843118E+04  0.12709626880E+04  0.00000000000E+00 0. -1.
         -2    1    3    3    0  502 -0.29668749196E+02 -0.29046289898E+02 -0.11053956292E+04  0.11061751302E+04  0.00000000000E+00 0.  1.
<mgrwt>
<rscale>  0 0.83240765E+02</rscale>
<asrwt>0</asrwt>
<pdfrwt beam="2">  1        2 0.36559893E+00 0.83240765E+02</pdfrwt>
<pdfrwt beam="1">  1       -2 0.11214515E-03 0.83240765E+02</pdfrwt>
<totfact> 0.20436471E+05</totfact>
</mgrwt>
</event>
<event>
 5    1  0.3858870E+001  0.9068116E+02  0.7546771E-02  0.1301210E+00
         -1   -1    0    0    0  501 -0.00000000000E+00  0.00000000000E+00  0.62357197318E+01  0.62357197318E+01  0.00000000000E+00 0.  1.
          1   -1    0    0  501    0  0.00000000000E+00 -0.00000000000E+00 -0.32967620450E+03  0.32967620450E+03  0.00000000000E+00 0. -1.
         23    2    1    2    0    0  0.00000000000E+00  0.00000000000E+00 -0.32344048477E+03  0.33591192424E+03  0.90681164826E+02 0.  0.
          2    1    3    3  502    0  0.40128960139E+02 -0.77472257269E+01 -0.23444342875E+03  0.23797914663E+03  0.00000000000E+00 0. -1.
         -2    1    3    3    0  502 -0.40128960139E+02  0.77472257269E+01 -0.88997056022E+02  0.97932777602E+02  0.00000000000E+00 0.  1.
<mgrwt>
<rscale>  0 0.90681165E+02</rscale>
<asrwt>0</asrwt>
<pdfrwt beam="2">  1        1 0.50719424E-01 0.90681165E+02</pdfrwt>
<pdfrwt beam="1">  1       -1 0.95934135E-03 0.90681165E+02</pdfrwt>
<totfact> 0.13231408E+05</totfact>
</mgrwt>
</event>
<event>
 5    1  0.3858870E+001  0.9657511E+02  0.7546771E-02  0.1287667E+00
         -4   -1    0    0    0  501 -0.00000000000E+00  0.00000000000E+00  0.29565564953E+02  0.29565564953E+02  0.00000000000E+00 0. -1.
          4   -1    0    0  501    0  0.00000000000E+00 -0.00000000000E+00 -0.78864982444E+02  0.78864982444E+02  0.00000000000E+00 0.  1.
         23    2    1    2    0    0  0.00000000000E+00  0.00000000000E+00 -0.49299417491E+02  0.10843054740E+03  0.96575105715E+02 0.  0.
          2    1    3    3  502    0  0.26960178973E+02  0.23946030344E+02  0.11408579341E+02  0.37820884469E+02  0.00000000000E+00 0. -1.
         -2    1    3    3    0  502 -0.26960178973E+02 -0.23946030344E+02 -0.60707996832E+02  0.70609662928E+02  0.00000000000E+00 0.  1.
<mgrwt>
<rscale>  0 0.96575106E+02</rscale>
<asrwt>0</asrwt>
<pdfrwt beam="2">  1        4 0.12133074E-01 0.96575106E+02</pdfrwt>
<pdfrwt beam="1">  1       -4 0.45485484E-02 0.96575106E+02</pdfrwt>
<totfact> 0.22186191E+04</totfact>
</mgrwt>
</event>
<event>
 5    1  0.3858870E+001  0.8955136E+02  0.7546771E-02  0.1303942E+00
         -4   -1    0    0    0  501 -0.00000000000E+00  0.00000000000E+00  0.16879198214E+03  0.16879198214E+03  0.00000000000E+00 0.  1.
          4   -1    0    0  501    0  0.00000000000E+00 -0.00000000000E+00 -0.11877706441E+02  0.11877706441E+02  0.00000000000E+00 0. -1.
         23    2    1    2    0    0  0.00000000000E+00  0.00000000000E+00  0.15691427570E+03  0.18066968858E+03  0.89551362097E+02 0.  0.
          2    1    3    3  502    0 -0.30124511190E+02 -0.25409246750E+02  0.35576614765E+02  0.53092480758E+02  0.00000000000E+00 0. -1.
         -2    1    3    3    0  502  0.30124511190E+02  0.25409246750E+02  0.12133766093E+03  0.12757720782E+03  0.00000000000E+00 0.  1.
<mgrwt>
<rscale>  0 0.89551362E+02</rscale>
<asrwt>0</asrwt>
<pdfrwt beam="2">  1        4 0.18273396E-02 0.89551362E+02</pdfrwt>
<pdfrwt beam="1">  1       -4 0.25967996E-01 0.89551362E+02</pdfrwt>
<totfact> 0.23316375E+04</totfact>
</mgrwt>
</event>
<event>
 5    1  0.3858870E+001  0.9238915E+02  0.7546771E-02  0.1297167E+00
         -2   -1    0    0    0  501 -0.00000000000E+00  0.00000000000E+00  0.33345932200E+01  0.33345932200E+01  0.00000000000E+00 0.  1.
          2   -1    0    0  501    0  0.00000000000E+00 -0.00000000000E+00 -0.63993976393E+03  0.63993976393E+03  0.00000000000E+00 0. -1.
         23    2    1    2    0    0  0.00000000000E+00  0.00000000000E+00 -0.63660517071E+03  0.64327435715E+03  0.92389150836E+02 0.  0.
          2    1    3    3  502    0  0.11279272059E+02  0.39894892279E+02 -0.46016232492E+03  0.46202617857E+03  0.00000000000E+00 0. -1.
         -2    1    3    3    0  502 -0.11279272059E+02 -0.39894892279E+02 -0.17644284579E+03  0.18124817858E+03  0.00000000000E+00 0.  1.
<mgrwt>
<rscale>  0 0.92389151E+02</rscale>
<asrwt>0</asrwt>
<pdfrwt beam="2">  1        2 0.98452189E-01 0.92389151E+02</pdfrwt>
<pdfrwt beam="1">  1       -2 0.51301477E-03 0.92389151E+02</pdfrwt>
<totfact> 0.22395297E+05</totfact>
</mgrwt>
</event>
<event>
 5    1  0.3858870E+001  0.9146227E+02  0.7546771E-02  0.1299349E+00
         -1   -1    0    0    0  501 -0.00000000000E+00  0.00000000000E+00  0.98084542841E+01  0.98084542841E+01  0.00000000000E+00 0.  1.
          1   -1    0    0  501    0  0.00000000000E+00 -0.00000000000E+00 -0.21321778099E+03  0.21321778099E+03  0.00000000000E+00 0. -1.
         23    2    1    2    0    0  0.00000000000E+00  0.00000000000E+00 -0.20340932671E+03  0.22302623528E+03  0.91462273259E+02 0.  0.
          2    1    3    3  502    0 -0.28931834413E+02  0.25896551342E+02 -0.16061504825E+03  0.16524187162E+03  0.00000000000E+00 0. -1.
         -2    1    3    3    0  502  0.28931834413E+02 -0.25896551342E+02 -0.42794278461E+02  0.57784363654E+02  0.00000000000E+00 0.  1.
<mgrwt>
<rscale>  0 0.91462273E+02</rscale>
<asrwt>0</asrwt>
<pdfrwt beam="2">  1        1 0.32802729E-01 0.91462273E+02</pdfrwt>
<pdfrwt beam="1">  1       -1 0.15089933E-02 0.91462273E+02</pdfrwt>
<totfact> 0.11888821E+05</totfact>
</mgrwt>
</event>
<event>
 5    1  0.3858870E+001  0.8897438E+02  0.7546771E-02  0.1305355E+00
         -2   -1    0    0    0  501 -0.00000000000E+00  0.00000000000E+00  0.19785019406E+01  0.19785019406E+01  0.00000000000E+00 0.  1.
          2   -1    0    0  501    0  0.00000000000E+00 -0.00000000000E+00 -0.10003073727E+04  0.10003073727E+04  0.00000000000E+00 0. -1.
         23    2    1    2    0    0  0.00000000000E+00  0.00000000000E+00 -0.99832887081E+03  0.10022858747E+04  0.88974380091E+02 0.  0.
          2    1    3    3  502    0  0.29896380344E+02  0.80586307586E+01 -0.85900203565E+03  0.85955990620E+03  0.00000000000E+00 0. -1.
         -2    1    3    3    0  502 -0.29896380344E+02 -0.80586307586E+01 -0.13932683515E+03  0.14272596849E+03  0.00000000000E+00 0.  1.
<mgrwt>
<rscale>  0 0.88974380E+02</rscale>
<asrwt>0</asrwt>
<pdfrwt beam="2">  1        2 0.15389334E+00 0.88974380E+02</pdfrwt>
<pdfrwt beam="1">  1       -2 0.30438512E-03 0.88974380E+02</pdfrwt>
<totfact> 0.26662249E+05</totfact>
</mgrwt>
</event>
<event>
 5    1  0.3858870E+001  0.9232125E+02  0.7546771E-02  0.1297326E+00
         -2   -1    0    0    0  501 -0.00000000000E+00  0.00000000000E+00  0.51612917415E+02  0.51612917415E+02  0.00000000000E+00 0.  1.
          2   -1    0    0  501    0  0.00000000000E+00 -0.00000000000E+00 -0.41284304432E+02  0.41284304432E+02  0.00000000000E+00 0. -1.
         23    2    1    2    0    0  0.00000000000E+00  0.00000000000E+00  0.10328612983E+02  0.92897221847E+02  0.92321252054E+02 0.  0.
          2    1    3    3  502    0  0.45793838351E+02 -0.12931001640E+00 -0.67803766811E+00  0.45799040242E+02  0.00000000000E+00 0. -1.
         -2    1    3    3    0  502 -0.45793838351E+02  0.12931001640E+00  0.11006650651E+02  0.47098181606E+02  0.00000000000E+00 0.  1.
<mgrwt>
<rscale>  0 0.92321252E+02</rscale>
<asrwt>0</asrwt>
<pdfrwt beam="2">  1        2 0.63514315E-02 0.92321252E+02</pdfrwt>
<pdfrwt beam="1">  1       -2 0.79404488E-02 0.92321252E+02</pdfrwt>
<totfact> 0.92759179E+04</totfact>
</mgrwt>
</event>
<event>
 5    1  0.3858870E+001  0.9134034E+02  0.7546771E-02  0.1299638E+00
          2   -1    0    0  501    0  0.00000000000E+00  0.00000000000E+00  0.81824573210E+01  0.81824573210E+01  0.00000000000E+00 0. -1.
         -2   -1    0    0    0  501 -0.00000000000E+00 -0.00000000000E+00 -0.25490686029E+03  0.25490686029E+03  0.00000000000E+00 0.  1.
         23    2    1    2    0    0  0.00000000000E+00  0.00000000000E+00 -0.24672440297E+03  0.26308931761E+03  0.91340341693E+02 0.  0.
          2    1    3    3  502    0  0.39572264244E+01 -0.36054066845E+02 -0.43425741168E+02  0.56580476960E+02  0.00000000000E+00 0. -1.
         -2    1    3    3    0  502 -0.39572264244E+01  0.36054066845E+02 -0.20329866180E+03  0.20650884065E+03  0.00000000000E+00 0.  1.
<mgrwt>
<rscale>  0 0.91340342E+02</rscale>
<asrwt>0</asrwt>
<pdfrwt beam="1">  1        2 0.12588394E-02 0.91340342E+02</pdfrwt>
<pdfrwt beam="2">  1       -2 0.39216445E-01 0.91340342E+02</pdfrwt>
<totfact> 0.55375778E+04</totfact>
</mgrwt>
</event>
<event>
 5    1  0.3858870E+001  0.9185668E+02  0.7546771E-02  0.1298417E+00
         -1   -1    0    0    0  501 -0.00000000000E+00  0.00000000000E+00  0.95631447769E+01  0.95631447769E+01  0.00000000000E+00 0. -1.
          1   -1    0    0  501    0  0.00000000000E+00 -0.00000000000E+00 -0.22057729722E+03  0.22057729722E+03  0.00000000000E+00 0.  1.
         23    2    1    2    0    0  0.00000000000E+00  0.00000000000E+00 -0.21101415244E+03  0.23014044199E+03  0.91856684629E+02 0.  0.
          2    1    3    3  502    0  0.29401388971E+02  0.33219027306E+02 -0.13530664800E+03  0.14239323875E+03  0.00000000000E+00 0. -1.
         -2    1    3    3    0  502 -0.29401388971E+02 -0.33219027306E+02 -0.75707504437E+02  0.87747203241E+02  0.00000000000E+00 0.  1.
<mgrwt>
<rscale>  0 0.91856685E+02</rscale>
<asrwt>0</asrwt>
<pdfrwt beam="2">  1        1 0.33934967E-01 0.91856685E+02</pdfrwt>
<pdfrwt beam="1">  1       -1 0.14712531E-02 0.91856685E+02</pdfrwt>
<totfact> 0.11830578E+05</totfact>
</mgrwt>
</event>
<event>
 5    1  0.3858870E+001  0.9086111E+02  0.7546771E-02  0.1300780E+00
         -1   -1    0    0    0  501 -0.00000000000E+00  0.00000000000E+00  0.11370652631E+01  0.11370652631E+01  0.00000000000E+00 0.  1.
          1   -1    0    0  501    0  0.00000000000E+00 -0.00000000000E+00 -0.18151424696E+04  0.18151424696E+04  0.00000000000E+00 0. -1.
         23    2    1    2    0    0  0.00000000000E+00  0.00000000000E+00 -0.18140054043E+04  0.18162795349E+04  0.90861112689E+02 0.  0.
          2    1    3    3  502    0 -0.24469222100E+02 -0.15735139652E+02 -0.16045226009E+04  0.16047863142E+04  0.00000000000E+00 0. -1.
         -2    1    3    3    0  502  0.24469222100E+02  0.15735139652E+02 -0.20948280346E+03  0.21149322068E+03  0.00000000000E+00 0.  1.
<mgrwt>
<rscale>  0 0.90861113E+02</rscale>
<asrwt>0</asrwt>
<pdfrwt beam="2">  1        1 0.27925256E+00 0.90861113E+02</pdfrwt>
<pdfrwt beam="1">  1       -1 0.17493319E-03 0.90861113E+02</pdfrwt>
<totfact> 0.91879917E+04</totfact>
</mgrwt>
</event>
<event>
 5    1  0.3858870E+001  0.9827861E+02  0.7546771E-02  0.1283958E+00
         -2   -1    0    0    0  501 -0.00000000000E+00  0.00000000000E+00  0.16648789477E+01  0.16648789477E+01  0.00000000000E+00 0. -1.
          2   -1    0    0  501    0  0.00000000000E+00 -0.00000000000E+00 -0.14503584877E+04  0.14503584877E+04  0.00000000000E+00 0.  1.
         23    2    1    2    0    0  0.00000000000E+00  0.00000000000E+00 -0.14486936088E+04  0.14520233667E+04  0.98278610346E+02 0.  0.
          2    1    3    3  502    0  0.39880654065E+02 -0.20785933675E+02 -0.43176956020E+03  0.43410537284E+03  0.00000000000E+00 0. -1.
         -2    1    3    3    0  502 -0.39880654065E+02  0.20785933675E+02 -0.10169240486E+04  0.10179179938E+04  0.00000000000E+00 0.  1.
<mgrwt>
<rscale>  0 0.98278610E+02</rscale>
<asrwt>0</asrwt>
<pdfrwt beam="2">  1        2 0.22313129E+00 0.98278610E+02</pdfrwt>
<pdfrwt beam="1">  1       -2 0.25613612E-03 0.98278610E+02</pdfrwt>
<totfact> 0.19584326E+05</totfact>
</mgrwt>
</event>
<event>
 5    1  0.3858870E+001  0.8732350E+02  0.7546771E-02  0.1309466E+00
          1   -1    0    0  501    0  0.00000000000E+00  0.00000000000E+00  0.42567398760E+03  0.42567398760E+03  0.00000000000E+00 0. -1.
         -1   -1    0    0    0  501 -0.00000000000E+00 -0.00000000000E+00 -0.44784230687E+01  0.44784230687E+01  0.00000000000E+00 0.  1.
         23    2    1    2    0    0  0.00000000000E+00  0.00000000000E+00  0.42119556453E+03  0.43015241067E+03  0.87323495254E+02 0.  0.
          2    1    3    3  502    0  0.27891422364E+02  0.28233295038E+02  0.30025815432E+03  0.30286962480E+03  0.00000000000E+00 0. -1.
         -2    1    3    3    0  502 -0.27891422364E+02 -0.28233295038E+02  0.12093741021E+03  0.12728278587E+03  0.00000000000E+00 0.  1.
<mgrwt>
<rscale>  0 0.87323495E+02</rscale>
<asrwt>0</asrwt>
<pdfrwt beam="1">  1        1 0.65488274E-01 0.87323495E+02</pdfrwt>
<pdfrwt beam="2">  1       -1 0.68898850E-03 0.87323495E+02</pdfrwt>
<totfact> 0.15272651E+05</totfact>
</mgrwt>
</event>
<event>
 5    1  0.3858870E+001  0.1161286E+03  0.7546771E-02  0.1249624E+00
          2   -1    0    0  501    0  0.00000000000E+00  0.00000000000E+00  0.41823040481E+03  0.41823040481E+03  0.00000000000E+00 0.  1.
         -2   -1    0    0    0  501 -0.00000000000E+00 -0.00000000000E+00 -0.80612549623E+01  0.80612549623E+01  0.00000000000E+00 0. -1.
         23    2    1    2    0    0  0.00000000000E+00  0.00000000000E+00  0.41016914985E+03  0.42629165978E+03  0.11612858263E+03 0.  0.
          2    1    3    3  502    0 -0.16666400718E+02  0.24985742208E+02  0.22668152689E+02  0.37628464929E+02  0.00000000000E+00 0. -1.
         -2    1    3    3    0  502  0.16666400718E+02 -0.24985742208E+02  0.38750099716E+03  0.38866319485E+03  0.00000000000E+00 0.  1.
<mgrwt>
<rscale>  0 0.11612858E+03</rscale>
<asrwt>0</asrwt>
<pdfrwt beam="1">  1        2 0.64343122E-01 0.11612858E+03</pdfrwt>
<pdfrwt beam="2">  1       -2 0.12401934E-02 0.11612858E+03</pdfrwt>
<totfact> 0.10584768E+05</totfact>
</mgrwt>
</event>
<event>
 5    1  0.3858870E+001  0.9066743E+02  0.7546771E-02  0.1301243E+00
         -1   -1    0    0    0  501 -0.00000000000E+00  0.00000000000E+00  0.18360591732E+02  0.18360591732E+02  0.00000000000E+00 0.  1.
          1   -1    0    0  501    0  0.00000000000E+00 -0.00000000000E+00 -0.11193243366E+03  0.11193243366E+03  0.00000000000E+00 0. -1.
         23    2    1    2    0    0  0.00000000000E+00  0.00000000000E+00 -0.93571841932E+02  0.13029302540E+03  0.90667430009E+02 0.  0.
          2    1    3    3  502    0  0.13244842102E+02 -0.41173561623E+02 -0.66303154283E+02  0.79163099275E+02  0.00000000000E+00 0. -1.
         -2    1    3    3    0  502 -0.13244842102E+02  0.41173561623E+02 -0.27268687649E+02  0.51129926121E+02  0.00000000000E+00 0.  1.
<mgrwt>
<rscale>  0 0.90667430E+02</rscale>
<asrwt>0</asrwt>
<pdfrwt beam="2">  1        1 0.17220375E-01 0.90667430E+02</pdfrwt>
<pdfrwt beam="1">  1       -1 0.28247064E-02 0.90667430E+02</pdfrwt>
<totfact> 0.10808681E+05</totfact>
</mgrwt>
</event>
<event>
 5    1  0.3858870E+001  0.9502973E+02  0.7546771E-02  0.1291109E+00
         -2   -1    0    0    0  501 -0.00000000000E+00  0.00000000000E+00  0.75447099771E+01  0.75447099771E+01  0.00000000000E+00 0.  1.
          2   -1    0    0  501    0  0.00000000000E+00 -0.00000000000E+00 -0.29923777378E+03  0.29923777378E+03  0.00000000000E+00 0. -1.
         23    2    1    2    0    0  0.00000000000E+00  0.00000000000E+00 -0.29169306380E+03  0.30678248376E+03  0.95029726241E+02 0.  0.
          2    1    3    3  502    0 -0.28752406154E+02 -0.33732770425E+02 -0.90581489507E+02  0.10084446887E+03  0.00000000000E+00 0. -1.
         -2    1    3    3    0  502  0.28752406154E+02  0.33732770425E+02 -0.20111157430E+03  0.20593801489E+03  0.00000000000E+00 0.  1.
<mgrwt>
<rscale>  0 0.95029726E+02</rscale>
<asrwt>0</asrwt>
<pdfrwt beam="2">  1        2 0.46036587E-01 0.95029726E+02</pdfrwt>
<pdfrwt beam="1">  1       -2 0.11607244E-02 0.95029726E+02</pdfrwt>
<totfact> 0.16067195E+05</totfact>
</mgrwt>
</event>
<event>
 5    1  0.3858870E+001  0.9442086E+02  0.7546771E-02  0.1292486E+00
         -1   -1    0    0    0  501 -0.00000000000E+00  0.00000000000E+00  0.38467880043E+02  0.38467880043E+02  0.00000000000E+00 0.  1.
          1   -1    0    0  501    0  0.00000000000E+00 -0.00000000000E+00 -0.57939883376E+02  0.57939883376E+02  0.00000000000E+00 0. -1.
         23    2    1    2    0    0  0.00000000000E+00  0.00000000000E+00 -0.19472003334E+02  0.96407763419E+02  0.94420855396E+02 0.  0.
          2    1    3    3  502    0 -0.20474740144E+02  0.36373129422E+02 -0.32259318230E+02  0.52753039160E+02  0.00000000000E+00 0. -1.
         -2    1    3    3    0  502  0.20474740144E+02 -0.36373129422E+02  0.12787314896E+02  0.43654724260E+02  0.00000000000E+00 0.  1.
<mgrwt>
<rscale>  0 0.94420855E+02</rscale>
<asrwt>0</asrwt>
<pdfrwt beam="2">  1        1 0.89138282E-02 0.94420855E+02</pdfrwt>
<pdfrwt beam="1">  1       -1 0.59181354E-02 0.94420855E+02</pdfrwt>
<totfact> 0.86962254E+04</totfact>
</mgrwt>
</event>
<event>
 5    1  0.3858870E+001  0.9107458E+02  0.7546771E-02  0.1300270E+00
         -1   -1    0    0    0  501 -0.00000000000E+00  0.00000000000E+00  0.21564610586E+01  0.21564610586E+01  0.00000000000E+00 0.  1.
          1   -1    0    0  501    0  0.00000000000E+00 -0.00000000000E+00 -0.96159630324E+03  0.96159630324E+03  0.00000000000E+00 0. -1.
         23    2    1    2    0    0  0.00000000000E+00  0.00000000000E+00 -0.95943984219E+03  0.96375276430E+03  0.91074584424E+02 0.  0.
          2    1    3    3  502    0  0.23777519993E+02 -0.29032317257E+02 -0.20675330468E+03  0.21013132775E+03  0.00000000000E+00 0.  1.
         -2    1    3    3    0  502 -0.23777519993E+02  0.29032317257E+02 -0.75268653750E+03  0.75362143656E+03  0.00000000000E+00 0. -1.
<mgrwt>
<rscale>  0 0.91074584E+02</rscale>
<asrwt>0</asrwt>
<pdfrwt beam="2">  1        1 0.14793774E+00 0.91074584E+02</pdfrwt>
<pdfrwt beam="1">  1       -1 0.33176359E-03 0.91074584E+02</pdfrwt>
<totfact> 0.13774706E+05</totfact>
</mgrwt>
</event>
<event>
 5    1  0.3858870E+001  0.9427843E+02  0.7546771E-02  0.1292810E+00
          1   -1    0    0  501    0  0.00000000000E+00  0.00000000000E+00  0.79052111120E+03  0.79052111120E+03  0.00000000000E+00 0. -1.
         -1   -1    0    0    0  501 -0.00000000000E+00 -0.00000000000E+00 -0.28109379425E+01  0.28109379425E+01  0.00000000000E+00 0.  1.
         23    2    1    2    0    0  0.00000000000E+00  0.00000000000E+00  0.78771017326E+03  0.79333204915E+03  0.94278434137E+02 0.  0.
          2    1    3    3  502    0 -0.15657119995E+02 -0.31208259061E+02  0.12735695058E+03  0.13205640348E+03  0.00000000000E+00 0.  1.
         -2    1    3    3    0  502  0.15657119995E+02  0.31208259061E+02  0.66035322269E+03  0.66127564567E+03  0.00000000000E+00 0. -1.
<mgrwt>
<rscale>  0 0.94278434E+02</rscale>
<asrwt>0</asrwt>
<pdfrwt beam="1">  1        1 0.12161846E+00 0.94278434E+02</pdfrwt>
<pdfrwt beam="2">  1       -1 0.43245262E-03 0.94278434E+02</pdfrwt>
<totfact> 0.12944810E+05</totfact>
</mgrwt>
</event>
<event>
 5    1  0.3858870E+001  0.8983036E+02  0.7546771E-02  0.1303263E+00
         -2   -1    0    0    0  501 -0.00000000000E+00  0.00000000000E+00  0.11239672751E+03  0.11239672751E+03  0.00000000000E+00 0.  1.
          2   -1    0    0  501    0  0.00000000000E+00 -0.00000000000E+00 -0.17948686382E+02  0.17948686382E+02  0.00000000000E+00 0. -1.
         23    2    1    2    0    0  0.00000000000E+00  0.00000000000E+00  0.94448041129E+02  0.13034541389E+03  0.89830364856E+02 0.  0.
          2    1    3    3  502    0  0.15775422475E+01  0.42923607758E+02  0.28169291925E+02  0.51365686504E+02  0.00000000000E+00 0.  1.
         -2    1    3    3    0  502 -0.15775422475E+01 -0.42923607758E+02  0.66278749205E+02  0.78979727390E+02  0.00000000000E+00 0. -1.
<mgrwt>
<rscale>  0 0.89830365E+02</rscale>
<asrwt>0</asrwt>
<pdfrwt beam="2">  1        2 0.27613364E-02 0.89830365E+02</pdfrwt>
<pdfrwt beam="1">  1       -2 0.17291804E-01 0.89830365E+02</pdfrwt>
<totfact> 0.79923602E+04</totfact>
</mgrwt>
</event>
<event>
 5    1  0.3858870E+001  0.9079240E+02  0.7546771E-02  0.1300944E+00
          3   -1    0    0  501    0  0.00000000000E+00  0.00000000000E+00  0.28996371314E+02  0.28996371314E+02  0.00000000000E+00 0. -1.
         -3   -1    0    0    0  501 -0.00000000000E+00 -0.00000000000E+00 -0.71071478122E+02  0.71071478122E+02  0.00000000000E+00 0.  1.
         23    2    1    2    0    0  0.00000000000E+00  0.00000000000E+00 -0.42075106808E+02  0.10006784944E+03  0.90792399890E+02 0.  0.
          2    1    3    3  502    0 -0.67611594672E+00  0.27823924730E+02  0.18489745399E+02  0.33414048020E+02  0.00000000000E+00 0. -1.
         -2    1    3    3    0  502  0.67611594672E+00 -0.27823924730E+02 -0.60564852208E+02  0.66653801415E+02  0.00000000000E+00 0.  1.
<mgrwt>
<rscale>  0 0.90792400E+02</rscale>
<asrwt>0</asrwt>
<pdfrwt beam="1">  1        3 0.44609802E-02 0.90792400E+02</pdfrwt>
<pdfrwt beam="2">  1       -3 0.10934074E-01 0.90792400E+02</pdfrwt>
<totfact> 0.35068100E+04</totfact>
</mgrwt>
</event>
<event>
 5    1  0.3858870E+001  0.8985090E+02  0.7546771E-02  0.1303213E+00
          2   -1    0    0  501    0  0.00000000000E+00  0.00000000000E+00  0.65460762603E+03  0.65460762603E+03  0.00000000000E+00 0. -1.
         -2   -1    0    0    0  501 -0.00000000000E+00 -0.00000000000E+00 -0.30832152038E+01  0.30832152038E+01  0.00000000000E+00 0.  1.
         23    2    1    2    0    0  0.00000000000E+00  0.00000000000E+00  0.65152441083E+03  0.65769084124E+03  0.89850902836E+02 0.  0.
          2    1    3    3  502    0  0.18063221932E+02  0.21988094612E+02  0.58022825297E+03  0.58092562504E+03  0.00000000000E+00 0. -1.
         -2    1    3    3    0  502 -0.18063221932E+02 -0.21988094612E+02  0.71296157860E+02  0.76765216191E+02  0.00000000000E+00 0.  1.
<mgrwt>
<rscale>  0 0.89850903E+02</rscale>
<asrwt>0</asrwt>
<pdfrwt beam="1">  1        2 0.10070876E+00 0.89850903E+02</pdfrwt>
<pdfrwt beam="2">  1       -2 0.47434132E-03 0.89850903E+02</pdfrwt>
<totfact> 0.24246585E+05</totfact>
</mgrwt>
</event>
<event>
 5    1  0.3858870E+001  0.9233389E+02  0.7546771E-02  0.1297296E+00
          1   -1    0    0  501    0  0.00000000000E+00  0.00000000000E+00  0.35758437633E+03  0.35758437633E+03  0.00000000000E+00 0. -1.
         -1   -1    0    0    0  501 -0.00000000000E+00 -0.00000000000E+00 -0.59605149455E+01  0.59605149455E+01  0.00000000000E+00 0.  1.
         23    2    1    2    0    0  0.00000000000E+00  0.00000000000E+00  0.35162386139E+03  0.36354489128E+03  0.92333894522E+02 0.  0.
          2    1    3    3  502    0 -0.96156078626E+01  0.42933919527E+02  0.12074541475E+03  0.12851162026E+03  0.00000000000E+00 0. -1.
         -2    1    3    3    0  502  0.96156078626E+01 -0.42933919527E+02  0.23087844664E+03  0.23503327102E+03  0.00000000000E+00 0.  1.
<mgrwt>
<rscale>  0 0.92333895E+02</rscale>
<asrwt>0</asrwt>
<pdfrwt beam="1">  1        1 0.55012964E-01 0.92333895E+02</pdfrwt>
<pdfrwt beam="2">  1       -1 0.91700257E-03 0.92333895E+02</pdfrwt>
<totfact> 0.12796697E+05</totfact>
</mgrwt>
</event>
<event>
 5    1  0.3858870E+001  0.8925405E+02  0.7546771E-02  0.1304668E+00
         -2   -1    0    0    0  501 -0.00000000000E+00  0.00000000000E+00  0.68543111013E+01  0.68543111013E+01  0.00000000000E+00 0.  1.
          2   -1    0    0  501    0  0.00000000000E+00 -0.00000000000E+00 -0.29055749116E+03  0.29055749116E+03  0.00000000000E+00 0. -1.
         23    2    1    2    0    0  0.00000000000E+00  0.00000000000E+00 -0.28370318006E+03  0.29741180226E+03  0.89254051722E+02 0.  0.
          2    1    3    3  502    0 -0.35152067289E+02 -0.19850101297E+02 -0.20524013716E+03  0.20917267569E+03  0.00000000000E+00 0. -1.
         -2    1    3    3    0  502  0.35152067289E+02  0.19850101297E+02 -0.78463042901E+02  0.88239126568E+02  0.00000000000E+00 0.  1.
<mgrwt>
<rscale>  0 0.89254052E+02</rscale>
<asrwt>0</asrwt>
<pdfrwt beam="2">  1        2 0.44701144E-01 0.89254052E+02</pdfrwt>
<pdfrwt beam="1">  1       -2 0.10545096E-02 0.89254052E+02</pdfrwt>
<totfact> 0.18790846E+05</totfact>
</mgrwt>
</event>
<event>
 5    1  0.3858870E+001  0.9029817E+02  0.7546771E-02  0.1302131E+00
         -1   -1    0    0    0  501 -0.00000000000E+00  0.00000000000E+00  0.49293829327E+02  0.49293829327E+02  0.00000000000E+00 0.  1.
          1   -1    0    0  501    0  0.00000000000E+00 -0.00000000000E+00 -0.41352844918E+02  0.41352844918E+02  0.00000000000E+00 0. -1.
         23    2    1    2    0    0  0.00000000000E+00  0.00000000000E+00  0.79409844088E+01  0.90646674246E+02  0.90298174502E+02 0.  0.
          2    1    3    3  502    0  0.20347062475E+02 -0.25608555167E+02  0.35213575491E+02  0.48060346940E+02  0.00000000000E+00 0.  1.
         -2    1    3    3    0  502 -0.20347062475E+02  0.25608555167E+02 -0.27272591082E+02  0.42586327306E+02  0.00000000000E+00 0. -1.
<mgrwt>
<rscale>  0 0.90298175E+02</rscale>
<asrwt>0</asrwt>
<pdfrwt beam="2">  1        1 0.63619761E-02 0.90298175E+02</pdfrwt>
<pdfrwt beam="1">  1       -1 0.75836660E-02 0.90298175E+02</pdfrwt>
<totfact> 0.93641150E+04</totfact>
</mgrwt>
</event>
<event>
 5    1  0.3858870E+001  0.9656904E+02  0.7546771E-02  0.1287681E+00
         -1   -1    0    0    0  501 -0.00000000000E+00  0.00000000000E+00  0.31603433721E+03  0.31603433721E+03  0.00000000000E+00 0.  1.
          1   -1    0    0  501    0  0.00000000000E+00 -0.00000000000E+00 -0.73770298688E+01  0.73770298688E+01  0.00000000000E+00 0. -1.
         23    2    1    2    0    0  0.00000000000E+00  0.00000000000E+00  0.30865730734E+03  0.32341136708E+03  0.96569037381E+02 0.  0.
          2    1    3    3  502    0 -0.10064183599E+02  0.30828361973E+02  0.34523722041E+02  0.47366265178E+02  0.00000000000E+00 0. -1.
         -2    1    3    3    0  502  0.10064183599E+02 -0.30828361973E+02  0.27413358530E+03  0.27604510190E+03  0.00000000000E+00 0.  1.
<mgrwt>
<rscale>  0 0.96569037E+02</rscale>
<asrwt>0</asrwt>
<pdfrwt beam="2">  1        1 0.11349279E-02 0.96569037E+02</pdfrwt>
<pdfrwt beam="1">  1       -1 0.48620657E-01 0.96569037E+02</pdfrwt>
<totfact> 0.51030716E+04</totfact>
</mgrwt>
</event>
<event>
 5    1  0.3858870E+001  0.9418668E+02  0.7546771E-02  0.1293018E+00
          2   -1    0    0  501    0  0.00000000000E+00  0.00000000000E+00  0.32113180577E+02  0.32113180577E+02  0.00000000000E+00 0. -1.
         -2   -1    0    0    0  501 -0.00000000000E+00 -0.00000000000E+00 -0.69061446582E+02  0.69061446582E+02  0.00000000000E+00 0.  1.
         23    2    1    2    0    0  0.00000000000E+00  0.00000000000E+00 -0.36948266006E+02  0.10117462716E+03  0.94186680693E+02 0.  0.
          2    1    3    3  502    0  0.39697471439E+01 -0.31011481960E+02  0.19356844095E+02  0.36771705414E+02  0.00000000000E+00 0. -1.
         -2    1    3    3    0  502 -0.39697471439E+01  0.31011481960E+02 -0.56305110101E+02  0.64402921745E+02  0.00000000000E+00 0.  1.
<mgrwt>
<rscale>  0 0.94186681E+02</rscale>
<asrwt>0</asrwt>
<pdfrwt beam="1">  1        2 0.49404893E-02 0.94186681E+02</pdfrwt>
<pdfrwt beam="2">  1       -2 0.10624838E-01 0.94186681E+02</pdfrwt>
<totfact> 0.81811984E+04</totfact>
</mgrwt>
</event>
<event>
 5    1  0.3858870E+001  0.9108513E+02  0.7546771E-02  0.1300245E+00
         -2   -1    0    0    0  501 -0.00000000000E+00  0.00000000000E+00  0.12737487950E+02  0.12737487950E+02  0.00000000000E+00 0.  1.
          2   -1    0    0  501    0  0.00000000000E+00 -0.00000000000E+00 -0.16283628702E+03  0.16283628702E+03  0.00000000000E+00 0. -1.
         23    2    1    2    0    0  0.00000000000E+00  0.00000000000E+00 -0.15009879907E+03  0.17557377497E+03  0.91085130371E+02 0.  0.
          2    1    3    3  502    0 -0.42333965349E+02 -0.14660885520E+02 -0.59269242529E+02  0.74296361259E+02  0.00000000000E+00 0. -1.
         -2    1    3    3    0  502  0.42333965349E+02  0.14660885520E+02 -0.90829556539E+02  0.10127741371E+03  0.00000000000E+00 0.  1.
<mgrwt>
<rscale>  0 0.91085130E+02</rscale>
<asrwt>0</asrwt>
<pdfrwt beam="2">  1        2 0.25051736E-01 0.91085130E+02</pdfrwt>
<pdfrwt beam="1">  1       -2 0.19596136E-02 0.91085130E+02</pdfrwt>
<totfact> 0.14420004E+05</totfact>
</mgrwt>
</event>
<event>
 5    1  0.3858870E+001  0.9141543E+02  0.7546771E-02  0.1299460E+00
         -1   -1    0    0    0  501 -0.00000000000E+00  0.00000000000E+00  0.47804445518E+03  0.47804445518E+03  0.00000000000E+00 0.  1.
          1   -1    0    0  501    0  0.00000000000E+00 -0.00000000000E+00 -0.43702949903E+01  0.43702949903E+01  0.00000000000E+00 0. -1.
         23    2    1    2    0    0  0.00000000000E+00  0.00000000000E+00  0.47367416019E+03  0.48241475017E+03  0.91415431687E+02 0.  0.
          2    1    3    3  502    0  0.38757133449E+02 -0.22731157544E+02  0.28110695832E+03  0.28467515334E+03  0.00000000000E+00 0. -1.
         -2    1    3    3    0  502 -0.38757133449E+02  0.22731157544E+02  0.19256720187E+03  0.19773959682E+03  0.00000000000E+00 0.  1.
<mgrwt>
<rscale>  0 0.91415432E+02</rscale>
<asrwt>0</asrwt>
<pdfrwt beam="2">  1        1 0.67235345E-03 0.91415432E+02</pdfrwt>
<pdfrwt beam="1">  1       -1 0.73545260E-01 0.91415432E+02</pdfrwt>
<totfact> 0.48006568E+04</totfact>
</mgrwt>
</event>
<event>
 5    1  0.3858870E+001  0.9066101E+02  0.7546771E-02  0.1301259E+00
          2   -1    0    0  501    0  0.00000000000E+00  0.00000000000E+00  0.18089896101E+04  0.18089896101E+04  0.00000000000E+00 0. -1.
         -2   -1    0    0    0  501 -0.00000000000E+00 -0.00000000000E+00 -0.11359129713E+01  0.11359129713E+01  0.00000000000E+00 0.  1.
         23    2    1    2    0    0  0.00000000000E+00  0.00000000000E+00  0.18078536971E+04  0.18101255230E+04  0.90661011755E+02 0.  0.
          2    1    3    3  502    0  0.70936724363E+01  0.30974201883E+02  0.25845992433E+03  0.26040594051E+03  0.00000000000E+00 0.  1.
         -2    1    3    3    0  502 -0.70936724363E+01 -0.30974201883E+02  0.15493937728E+04  0.15497195825E+04  0.00000000000E+00 0. -1.
<mgrwt>
<rscale>  0 0.90661012E+02</rscale>
<asrwt>0</asrwt>
<pdfrwt beam="1">  1        2 0.27830379E+00 0.90661012E+02</pdfrwt>
<pdfrwt beam="2">  1       -2 0.17475729E-03 0.90661012E+02</pdfrwt>
<totfact> 0.21680831E+05</totfact>
</mgrwt>
</event>
<event>
 5    1  0.3858870E+001  0.9048703E+02  0.7546771E-02  0.1301677E+00
         -3   -1    0    0    0  501 -0.00000000000E+00  0.00000000000E+00  0.31459049798E+03  0.31459049798E+03  0.00000000000E+00 0.  1.
          3   -1    0    0  501    0  0.00000000000E+00 -0.00000000000E+00 -0.65067937083E+01  0.65067937083E+01  0.00000000000E+00 0. -1.
         23    2    1    2    0    0  0.00000000000E+00  0.00000000000E+00  0.30808370427E+03  0.32109729169E+03  0.90487026096E+02 0.  0.
          2    1    3    3  502    0 -0.32240074306E+02 -0.29495588860E+01  0.26619233726E+03  0.26815384149E+03  0.00000000000E+00 0.  1.
         -2    1    3    3    0  502  0.32240074306E+02  0.29495588860E+01  0.41891367006E+02  0.52943450194E+02  0.00000000000E+00 0. -1.
<mgrwt>
<rscale>  0 0.90487026E+02</rscale>
<asrwt>0</asrwt>
<pdfrwt beam="2">  1        3 0.10010454E-02 0.90487026E+02</pdfrwt>
<pdfrwt beam="1">  1       -3 0.48398526E-01 0.90487026E+02</pdfrwt>
<totfact> 0.23705453E+04</totfact>
</mgrwt>
</event>
<event>
 5    1  0.3858870E+001  0.9122192E+02  0.7546771E-02  0.1299919E+00
          2   -1    0    0  501    0  0.00000000000E+00  0.00000000000E+00  0.65603774870E+01  0.65603774870E+01  0.00000000000E+00 0. -1.
         -2   -1    0    0    0  501 -0.00000000000E+00 -0.00000000000E+00 -0.31710977316E+03  0.31710977316E+03  0.00000000000E+00 0.  1.
         23    2    1    2    0    0  0.00000000000E+00  0.00000000000E+00 -0.31054939567E+03  0.32367015065E+03  0.91221923171E+02 0.  0.
          2    1    3    3  502    0  0.18830634704E+02  0.21346531687E+02 -0.28172536311E+03  0.28315975604E+03  0.00000000000E+00 0.  1.
         -2    1    3    3    0  502 -0.18830634704E+02 -0.21346531687E+02 -0.28824032564E+02  0.40510394612E+02  0.00000000000E+00 0. -1.
<mgrwt>
<rscale>  0 0.91221923E+02</rscale>
<asrwt>0</asrwt>
<pdfrwt beam="1">  1        2 0.10092889E-02 0.91221923E+02</pdfrwt>
<pdfrwt beam="2">  1       -2 0.48786118E-01 0.91221923E+02</pdfrwt>
<totfact> 0.49343951E+04</totfact>
</mgrwt>
</event>
<event>
 5    1  0.3858870E+001  0.8852989E+02  0.7546771E-02  0.1306451E+00
         -1   -1    0    0    0  501 -0.00000000000E+00  0.00000000000E+00  0.24248914817E+01  0.24248914817E+01  0.00000000000E+00 0.  1.
          1   -1    0    0  501    0  0.00000000000E+00 -0.00000000000E+00 -0.80803006984E+03  0.80803006984E+03  0.00000000000E+00 0. -1.
         23    2    1    2    0    0  0.00000000000E+00  0.00000000000E+00 -0.80560517836E+03  0.81045496133E+03  0.88529887232E+02 0.  0.
          2    1    3    3  502    0 -0.36606473261E+02  0.17872676385E+02 -0.56134330331E+03  0.56281948315E+03  0.00000000000E+00 0. -1.
         -2    1    3    3    0  502  0.36606473261E+02 -0.17872676385E+02 -0.24426187506E+03  0.24763547818E+03  0.00000000000E+00 0.  1.
<mgrwt>
<rscale>  0 0.88529887E+02</rscale>
<asrwt>0</asrwt>
<pdfrwt beam="2">  1        1 0.12431245E+00 0.88529887E+02</pdfrwt>
<pdfrwt beam="1">  1       -1 0.37305982E-03 0.88529887E+02</pdfrwt>
<totfact> 0.15258838E+05</totfact>
</mgrwt>
</event>
<event>
 5    1  0.3858870E+001  0.9223084E+02  0.7546771E-02  0.1297538E+00
          2   -1    0    0  501    0  0.00000000000E+00  0.00000000000E+00  0.10738461377E+04  0.10738461377E+04  0.00000000000E+00 0. -1.
         -2   -1    0    0    0  501 -0.00000000000E+00 -0.00000000000E+00 -0.19803881606E+01  0.19803881606E+01  0.00000000000E+00 0.  1.
         23    2    1    2    0    0  0.00000000000E+00  0.00000000000E+00  0.10718657495E+04  0.10758265258E+04  0.92230844674E+02 0.  0.
          2    1    3    3  502    0 -0.42200840958E+02 -0.23837664469E+01  0.75102788516E+03  0.75221637686E+03  0.00000000000E+00 0. -1.
         -2    1    3    3    0  502  0.42200840958E+02  0.23837664469E+01  0.32083786433E+03  0.32361014896E+03  0.00000000000E+00 0.  1.
<mgrwt>
<rscale>  0 0.92230845E+02</rscale>
<asrwt>0</asrwt>
<pdfrwt beam="1">  1        2 0.16520663E+00 0.92230845E+02</pdfrwt>
<pdfrwt beam="2">  1       -2 0.30467596E-03 0.92230845E+02</pdfrwt>
<totfact> 0.24285011E+05</totfact>
</mgrwt>
</event>
<event>
 5    1  0.3858870E+001  0.9490581E+02  0.7546771E-02  0.1291388E+00
          3   -1    0    0  501    0  0.00000000000E+00  0.00000000000E+00  0.15593390582E+03  0.15593390582E+03  0.00000000000E+00 0. -1.
         -3   -1    0    0    0  501 -0.00000000000E+00 -0.00000000000E+00 -0.14440594539E+02  0.14440594539E+02  0.00000000000E+00 0.  1.
         23    2    1    2    0    0  0.00000000000E+00  0.00000000000E+00  0.14149331129E+03  0.17037450036E+03  0.94905812445E+02 0.  0.
          2    1    3    3  502    0  0.32247073514E+02  0.67939061982E+01  0.13204009776E+03  0.13609047847E+03  0.00000000000E+00 0. -1.
         -2    1    3    3    0  502 -0.32247073514E+02 -0.67939061982E+01  0.94532135216E+01  0.34284021898E+02  0.00000000000E+00 0.  1.
<mgrwt>
<rscale>  0 0.94905812E+02</rscale>
<asrwt>0</asrwt>
<pdfrwt beam="1">  1        3 0.23989831E-01 0.94905812E+02</pdfrwt>
<pdfrwt beam="2">  1       -3 0.22216300E-02 0.94905812E+02</pdfrwt>
<totfact> 0.27002047E+04</totfact>
</mgrwt>
</event>
<event>
 5    1  0.3858870E+001  0.9121764E+02  0.7546771E-02  0.1299930E+00
         -1   -1    0    0    0  501 -0.00000000000E+00  0.00000000000E+00  0.16704309472E+01  0.16704309472E+01  0.00000000000E+00 0.  1.
          1   -1    0    0  501    0  0.00000000000E+00 -0.00000000000E+00 -0.12452860272E+04  0.12452860272E+04  0.00000000000E+00 0. -1.
         23    2    1    2    0    0  0.00000000000E+00  0.00000000000E+00 -0.12436155963E+04  0.12469564582E+04  0.91217636847E+02 0.  0.
          2    1    3    3  502    0 -0.25102111101E+01 -0.43029024747E+02 -0.82565598221E+03  0.82678026046E+03  0.00000000000E+00 0. -1.
         -2    1    3    3    0  502  0.25102111101E+01  0.43029024747E+02 -0.41795961407E+03  0.42017619772E+03  0.00000000000E+00 0.  1.
<mgrwt>
<rscale>  0 0.91217637E+02</rscale>
<asrwt>0</asrwt>
<pdfrwt beam="2">  1        1 0.19158374E+00 0.91217637E+02</pdfrwt>
<pdfrwt beam="1">  1       -1 0.25698767E-03 0.91217637E+02</pdfrwt>
<totfact> 0.12484118E+05</totfact>
</mgrwt>
</event>
<event>
 5    1  0.3858870E+001  0.8699273E+02  0.7546771E-02  0.1310302E+00
          1   -1    0    0  501    0  0.00000000000E+00  0.00000000000E+00  0.12640837327E+04  0.12640837327E+04  0.00000000000E+00 0. -1.
         -1   -1    0    0    0  501 -0.00000000000E+00 -0.00000000000E+00 -0.14966840499E+01  0.14966840499E+01  0.00000000000E+00 0.  1.
         23    2    1    2    0    0  0.00000000000E+00  0.00000000000E+00  0.12625870486E+04  0.12655804167E+04  0.86992734418E+02 0.  0.
          2    1    3    3  502    0  0.75014695036E+00 -0.27987057773E+02  0.11155722886E+04  0.11159235499E+04  0.00000000000E+00 0. -1.
         -2    1    3    3    0  502 -0.75014695036E+00  0.27987057773E+02  0.14701476000E+03  0.14965686680E+03  0.00000000000E+00 0.  1.
<mgrwt>
<rscale>  0 0.86992734E+02</rscale>
<asrwt>0</asrwt>
<pdfrwt beam="1">  1        1 0.19447357E+00 0.86992734E+02</pdfrwt>
<pdfrwt beam="2">  1       -1 0.23026009E-03 0.86992734E+02</pdfrwt>
<totfact> 0.14037432E+05</totfact>
</mgrwt>
</event>
<event>
 5    1  0.3858870E+001  0.8906071E+02  0.7546771E-02  0.1305142E+00
         -1   -1    0    0    0  501 -0.00000000000E+00  0.00000000000E+00  0.13794339405E+01  0.13794339405E+01  0.00000000000E+00 0.  1.
          1   -1    0    0  501    0  0.00000000000E+00 -0.00000000000E+00 -0.14375119007E+04  0.14375119007E+04  0.00000000000E+00 0. -1.
         23    2    1    2    0    0  0.00000000000E+00  0.00000000000E+00 -0.14361324668E+04  0.14388913346E+04  0.89060714250E+02 0.  0.
          2    1    3    3  502    0  0.43158670332E+02 -0.10580382673E+02 -0.67141568987E+03  0.67288456954E+03  0.00000000000E+00 0. -1.
         -2    1    3    3    0  502 -0.43158670332E+02  0.10580382673E+02 -0.76471677690E+03  0.76600676511E+03  0.00000000000E+00 0.  1.
<mgrwt>
<rscale>  0 0.89060714E+02</rscale>
<asrwt>0</asrwt>
<pdfrwt beam="2">  1        1 0.22115787E+00 0.89060714E+02</pdfrwt>
<pdfrwt beam="1">  1       -1 0.21221850E-03 0.89060714E+02</pdfrwt>
<totfact> 0.12155959E+05</totfact>
</mgrwt>
</event>
<event>
 5    1  0.3858870E+001  0.9070237E+02  0.7546771E-02  0.1301160E+00
          1   -1    0    0  501    0  0.00000000000E+00  0.00000000000E+00  0.16504941257E+03  0.16504941257E+03  0.00000000000E+00 0. -1.
         -1   -1    0    0    0  501 -0.00000000000E+00 -0.00000000000E+00 -0.12461299208E+02  0.12461299208E+02  0.00000000000E+00 0.  1.
         23    2    1    2    0    0  0.00000000000E+00  0.00000000000E+00  0.15258811336E+03  0.17751071178E+03  0.90702372938E+02 0.  0.
          2    1    3    3  502    0  0.33146362729E+02  0.21980496422E+02  0.33644945337E+02  0.52094202478E+02  0.00000000000E+00 0.  1.
         -2    1    3    3    0  502 -0.33146362729E+02 -0.21980496422E+02  0.11894316803E+03  0.12541650930E+03  0.00000000000E+00 0. -1.
<mgrwt>
<rscale>  0 0.90702373E+02</rscale>
<asrwt>0</asrwt>
<pdfrwt beam="1">  1        1 0.25392216E-01 0.90702373E+02</pdfrwt>
<pdfrwt beam="2">  1       -1 0.19171231E-02 0.90702373E+02</pdfrwt>
<totfact> 0.11575364E+05</totfact>
</mgrwt>
</event>
<event>
 5    1  0.3858870E+001  0.9205361E+02  0.7546771E-02  0.1297953E+00
         -2   -1    0    0    0  501 -0.00000000000E+00  0.00000000000E+00  0.61987233212E+01  0.61987233212E+01  0.00000000000E+00 0.  1.
          2   -1    0    0  501    0  0.00000000000E+00 -0.00000000000E+00 -0.34175856444E+03  0.34175856444E+03  0.00000000000E+00 0. -1.
         23    2    1    2    0    0  0.00000000000E+00  0.00000000000E+00 -0.33555984112E+03  0.34795728776E+03  0.92053610111E+02 0.  0.
          2    1    3    3  502    0 -0.45369828843E+02 -0.38763194853E+01 -0.19314205164E+03  0.19843714202E+03  0.00000000000E+00 0. -1.
         -2    1    3    3    0  502  0.45369828843E+02  0.38763194853E+01 -0.14241778948E+03  0.14952014574E+03  0.00000000000E+00 0.  1.
<mgrwt>
<rscale>  0 0.92053610E+02</rscale>
<asrwt>0</asrwt>
<pdfrwt beam="2">  1        2 0.52578245E-01 0.92053610E+02</pdfrwt>
<pdfrwt beam="1">  1       -2 0.95364966E-03 0.92053610E+02</pdfrwt>
<totfact> 0.18379502E+05</totfact>
</mgrwt>
</event>
<event>
 5    1  0.3858870E+001  0.9330739E+02  0.7546771E-02  0.1295034E+00
          1   -1    0    0  501    0  0.00000000000E+00  0.00000000000E+00  0.38172852861E+03  0.38172852861E+03  0.00000000000E+00 0. -1.
         -1   -1    0    0    0  501 -0.00000000000E+00 -0.00000000000E+00 -0.57018718089E+01  0.57018718089E+01  0.00000000000E+00 0.  1.
         23    2    1    2    0    0  0.00000000000E+00  0.00000000000E+00  0.37602665681E+03  0.38743040042E+03  0.93307387403E+02 0.  0.
          2    1    3    3  502    0  0.20985510560E+02  0.36153165729E+02  0.27402732232E+03  0.27719743221E+03  0.00000000000E+00 0. -1.
         -2    1    3    3    0  502 -0.20985510560E+02 -0.36153165729E+02  0.10199933448E+03  0.11023296821E+03  0.00000000000E+00 0.  1.
<mgrwt>
<rscale>  0 0.93307387E+02</rscale>
<asrwt>0</asrwt>
<pdfrwt beam="1">  1        1 0.58727446E-01 0.93307387E+02</pdfrwt>
<pdfrwt beam="2">  1       -1 0.87721135E-03 0.93307387E+02</pdfrwt>
<totfact> 0.12586291E+05</totfact>
</mgrwt>
</event>
<event>
 5    1  0.3858870E+001  0.9057033E+02  0.7546771E-02  0.1301476E+00
         -3   -1    0    0    0  501 -0.00000000000E+00  0.00000000000E+00  0.21461296832E+03  0.21461296832E+03  0.00000000000E+00 0.  1.
          3   -1    0    0  501    0  0.00000000000E+00 -0.00000000000E+00 -0.95555558074E+01  0.95555558074E+01  0.00000000000E+00 0. -1.
         23    2    1    2    0    0  0.00000000000E+00  0.00000000000E+00  0.20505741251E+03  0.22416852413E+03  0.90570330590E+02 0.  0.
          2    1    3    3  502    0 -0.31303598277E+02  0.25101213494E+02  0.50566237951E+02  0.64551766858E+02  0.00000000000E+00 0. -1.
         -2    1    3    3    0  502  0.31303598277E+02 -0.25101213494E+02  0.15449117456E+03  0.15961675727E+03  0.00000000000E+00 0.  1.
<mgrwt>
<rscale>  0 0.90570331E+02</rscale>
<asrwt>0</asrwt>
<pdfrwt beam="2">  1        3 0.14700857E-02 0.90570331E+02</pdfrwt>
<pdfrwt beam="1">  1       -3 0.33017376E-01 0.90570331E+02</pdfrwt>
<totfact> 0.27787410E+04</totfact>
</mgrwt>
</event>
<event>
 5    1  0.3858870E+001  0.8998660E+02  0.7546771E-02  0.1302884E+00
         -2   -1    0    0    0  501 -0.00000000000E+00  0.00000000000E+00  0.62373526769E+00  0.62373526769E+00  0.00000000000E+00 0.  1.
          2   -1    0    0  501    0  0.00000000000E+00 -0.00000000000E+00 -0.32456028566E+04  0.32456028566E+04  0.00000000000E+00 0. -1.
         23    2    1    2    0    0  0.00000000000E+00  0.00000000000E+00 -0.32449791214E+04  0.32462265919E+04  0.89986598260E+02 0.  0.
          2    1    3    3  502    0 -0.24208802496E+02  0.34528355884E+02 -0.10565402605E+04  0.10573814806E+04  0.00000000000E+00 0. -1.
         -2    1    3    3    0  502  0.24208802496E+02 -0.34528355884E+02 -0.21884388609E+04  0.21888451113E+04  0.00000000000E+00 0.  1.
<mgrwt>
<rscale>  0 0.89986598E+02</rscale>
<asrwt>0</asrwt>
<pdfrwt beam="2">  1        2 0.49933788E+00 0.89986598E+02</pdfrwt>
<pdfrwt beam="1">  1       -2 0.95956512E-04 0.89986598E+02</pdfrwt>
<totfact> 0.84537953E+04</totfact>
</mgrwt>
</event>
<event>
 5    1  0.3858870E+001  0.9047027E+02  0.7546771E-02  0.1301717E+00
         -4   -1    0    0    0  501 -0.00000000000E+00  0.00000000000E+00  0.10525455090E+03  0.10525455090E+03  0.00000000000E+00 0.  1.
          4   -1    0    0  501    0  0.00000000000E+00 -0.00000000000E+00 -0.19440653159E+02  0.19440653159E+02  0.00000000000E+00 0. -1.
         23    2    1    2    0    0  0.00000000000E+00  0.00000000000E+00  0.85813897745E+02  0.12469520406E+03  0.90470265115E+02 0.  0.
          2    1    3    3  502    0 -0.38882109257E+02 -0.29147185558E+01  0.11298964691E+02  0.40595327411E+02  0.00000000000E+00 0. -1.
         -2    1    3    3    0  502  0.38882109257E+02  0.29147185558E+01  0.74514933055E+02  0.84099876651E+02  0.00000000000E+00 0.  1.
<mgrwt>
<rscale>  0 0.90470265E+02</rscale>
<asrwt>0</asrwt>
<pdfrwt beam="2">  1        4 0.29908698E-02 0.90470265E+02</pdfrwt>
<pdfrwt beam="1">  1       -4 0.16193008E-01 0.90470265E+02</pdfrwt>
<totfact> 0.25539151E+04</totfact>
</mgrwt>
</event>
<event>
 5    1  0.3858870E+001  0.8891421E+02  0.7546771E-02  0.1305503E+00
          2   -1    0    0  501    0  0.00000000000E+00  0.00000000000E+00  0.18295018013E+04  0.18295018013E+04  0.00000000000E+00 0. -1.
         -2   -1    0    0    0  501 -0.00000000000E+00 -0.00000000000E+00 -0.10803128200E+01  0.10803128200E+01  0.00000000000E+00 0.  1.
         23    2    1    2    0    0  0.00000000000E+00  0.00000000000E+00  0.18284214884E+04  0.18305821141E+04  0.88914211466E+02 0.  0.
          2    1    3    3  502    0  0.21616365517E+02  0.36030216187E+02  0.61515682528E+03  0.61659010974E+03  0.00000000000E+00 0.  1.
         -2    1    3    3    0  502 -0.21616365517E+02 -0.36030216187E+02  0.12132646632E+04  0.12139920043E+04  0.00000000000E+00 0. -1.
<mgrwt>
<rscale>  0 0.88914211E+02</rscale>
<asrwt>0</asrwt>
<pdfrwt beam="1">  1        2 0.28145934E+00 0.88914211E+02</pdfrwt>
<pdfrwt beam="2">  1       -2 0.16620344E-03 0.88914211E+02</pdfrwt>
<totfact> 0.22639000E+05</totfact>
</mgrwt>
</event>
<event>
 5    1  0.3858870E+001  0.9181214E+02  0.7546771E-02  0.1298522E+00
         -1   -1    0    0    0  501 -0.00000000000E+00  0.00000000000E+00  0.62953736614E+03  0.62953736614E+03  0.00000000000E+00 0.  1.
          1   -1    0    0  501    0  0.00000000000E+00 -0.00000000000E+00 -0.33474856810E+01  0.33474856810E+01  0.00000000000E+00 0. -1.
         23    2    1    2    0    0  0.00000000000E+00  0.00000000000E+00  0.62618988046E+03  0.63288485182E+03  0.91812141219E+02 0.  0.
          2    1    3    3  502    0 -0.16877460092E+01 -0.35051827163E+02  0.10908612498E+03  0.11459171757E+03  0.00000000000E+00 0. -1.
         -2    1    3    3    0  502  0.16877460092E+01  0.35051827163E+02  0.51710375548E+03  0.51829313425E+03  0.00000000000E+00 0.  1.
<mgrwt>
<rscale>  0 0.91812141E+02</rscale>
<asrwt>0</asrwt>
<pdfrwt beam="2">  1        1 0.51499830E-03 0.91812141E+02</pdfrwt>
<pdfrwt beam="1">  1       -1 0.96851808E-01 0.91812141E+02</pdfrwt>
<totfact> 0.39420163E+04</totfact>
</mgrwt>
</event>
<event>
 5    1  0.3858870E+001  0.9082043E+02  0.7546771E-02  0.1300877E+00
         -2   -1    0    0    0  501 -0.00000000000E+00  0.00000000000E+00  0.17341361680E+01  0.17341361680E+01  0.00000000000E+00 0.  1.
          2   -1    0    0  501    0  0.00000000000E+00 -0.00000000000E+00 -0.11891152480E+04  0.11891152480E+04  0.00000000000E+00 0. -1.
         23    2    1    2    0    0  0.00000000000E+00  0.00000000000E+00 -0.11873811118E+04  0.11908493842E+04  0.90820432932E+02 0.  0.
          2    1    3    3  502    0 -0.24547295845E+01 -0.30835353788E+02 -0.10296059025E+04  0.10300704632E+04  0.00000000000E+00 0. -1.
         -2    1    3    3    0  502  0.24547295845E+01  0.30835353788E+02 -0.15777520932E+03  0.16077892094E+03  0.00000000000E+00 0.  1.
<mgrwt>
<rscale>  0 0.90820433E+02</rscale>
<asrwt>0</asrwt>
<pdfrwt beam="2">  1        2 0.18294039E+00 0.90820433E+02</pdfrwt>
<pdfrwt beam="1">  1       -2 0.26679079E-03 0.90820433E+02</pdfrwt>
<totfact> 0.25150335E+05</totfact>
</mgrwt>
</event>
<event>
 5    1  0.3858870E+001  0.9056591E+02  0.7546771E-02  0.1301487E+00
          4   -1    0    0  501    0  0.00000000000E+00  0.00000000000E+00  0.76276809647E+02  0.76276809647E+02  0.00000000000E+00 0. -1.
         -4   -1    0    0    0  501 -0.00000000000E+00 -0.00000000000E+00 -0.26882953812E+02  0.26882953812E+02  0.00000000000E+00 0.  1.
         23    2    1    2    0    0  0.00000000000E+00  0.00000000000E+00  0.49393855835E+02  0.10315976346E+03  0.90565908612E+02 0.  0.
          2    1    3    3  502    0  0.35421779990E+02  0.17660818379E+02  0.49754608955E+02  0.63577732861E+02  0.00000000000E+00 0. -1.
         -2    1    3    3    0  502 -0.35421779990E+02 -0.17660818379E+02 -0.36075312014E+00  0.39582030598E+02  0.00000000000E+00 0.  1.
<mgrwt>
<rscale>  0 0.90565909E+02</rscale>
<asrwt>0</asrwt>
<pdfrwt beam="1">  1        4 0.11734894E-01 0.90565909E+02</pdfrwt>
<pdfrwt beam="2">  1       -4 0.41358391E-02 0.90565909E+02</pdfrwt>
<totfact> 0.26746002E+04</totfact>
</mgrwt>
</event>
<event>
 5    1  0.3858870E+001  0.9355237E+02  0.7546771E-02  0.1294470E+00
         -1   -1    0    0    0  501 -0.00000000000E+00  0.00000000000E+00  0.17453533016E+03  0.17453533016E+03  0.00000000000E+00 0.  1.
          1   -1    0    0  501    0  0.00000000000E+00 -0.00000000000E+00 -0.12536210456E+02  0.12536210456E+02  0.00000000000E+00 0. -1.
         23    2    1    2    0    0  0.00000000000E+00  0.00000000000E+00  0.16199911970E+03  0.18707154061E+03  0.93552373158E+02 0.  0.
          2    1    3    3  502    0  0.76543456258E+01 -0.27223297642E+02  0.64925947691E+01  0.29014664022E+02  0.00000000000E+00 0. -1.
         -2    1    3    3    0  502 -0.76543456258E+01  0.27223297642E+02  0.15550652493E+03  0.15805687659E+03  0.00000000000E+00 0.  1.
<mgrwt>
<rscale>  0 0.93552373E+02</rscale>
<asrwt>0</asrwt>
<pdfrwt beam="2">  1        1 0.19286479E-02 0.93552373E+02</pdfrwt>
<pdfrwt beam="1">  1       -1 0.26851587E-01 0.93552373E+02</pdfrwt>
<totfact> 0.67380464E+04</totfact>
</mgrwt>
</event>
<event>
 5    1  0.3858870E+001  0.9558875E+02  0.7546771E-02  0.1289856E+00
          2   -1    0    0  501    0  0.00000000000E+00  0.00000000000E+00  0.20569555209E+04  0.20569555209E+04  0.00000000000E+00 0. -1.
         -2   -1    0    0    0  501 -0.00000000000E+00 -0.00000000000E+00 -0.11105259270E+01  0.11105259270E+01  0.00000000000E+00 0.  1.
         23    2    1    2    0    0  0.00000000000E+00  0.00000000000E+00  0.20558449950E+04  0.20580660468E+04  0.95588753243E+02 0.  0.
          2    1    3    3  502    0  0.23045491070E+02  0.18524932304E+02  0.18363990053E+04  0.18366370285E+04  0.00000000000E+00 0. -1.
         -2    1    3    3    0  502 -0.23045491070E+02 -0.18524932304E+02  0.21944598967E+03  0.22142901833E+03  0.00000000000E+00 0.  1.
<mgrwt>
<rscale>  0 0.95588753E+02</rscale>
<asrwt>0</asrwt>
<pdfrwt beam="1">  1        2 0.31645165E+00 0.95588753E+02</pdfrwt>
<pdfrwt beam="2">  1       -2 0.17085179E-03 0.95588753E+02</pdfrwt>
<totfact> 0.16899292E+05</totfact>
</mgrwt>
</event>
<event>
 5    1  0.3858870E+001  0.9114419E+02  0.7546771E-02  0.1300104E+00
          2   -1    0    0  501    0  0.00000000000E+00  0.00000000000E+00  0.92934009080E+02  0.92934009080E+02  0.00000000000E+00 0. -1.
         -2   -1    0    0    0  501 -0.00000000000E+00 -0.00000000000E+00 -0.22347209703E+02  0.22347209703E+02  0.00000000000E+00 0.  1.
         23    2    1    2    0    0  0.00000000000E+00  0.00000000000E+00  0.70586799377E+02  0.11528121878E+03  0.91144188831E+02 0.  0.
          2    1    3    3  502    0  0.85183601896E+01 -0.40910091005E+02  0.12295261463E+02  0.43558827588E+02  0.00000000000E+00 0.  1.
         -2    1    3    3    0  502 -0.85183601896E+01  0.40910091005E+02  0.58291537914E+02  0.71722391195E+02  0.00000000000E+00 0. -1.
<mgrwt>
<rscale>  0 0.91144189E+02</rscale>
<asrwt>0</asrwt>
<pdfrwt beam="1">  1        2 0.14297540E-01 0.91144189E+02</pdfrwt>
<pdfrwt beam="2">  1       -2 0.34380323E-02 0.91144189E+02</pdfrwt>
<totfact> 0.12011513E+05</totfact>
</mgrwt>
</event>
<event>
 5    1  0.3858870E+001  0.8811368E+02  0.7546771E-02  0.1307485E+00
          2   -1    0    0  501    0  0.00000000000E+00  0.00000000000E+00  0.12677913782E+04  0.12677913782E+04  0.00000000000E+00 0. -1.
         -2   -1    0    0    0  501 -0.00000000000E+00 -0.00000000000E+00 -0.15310131922E+01  0.15310131922E+01  0.00000000000E+00 0.  1.
         23    2    1    2    0    0  0.00000000000E+00  0.00000000000E+00  0.12662603650E+04  0.12693223914E+04  0.88113683956E+02 0.  0.
          2    1    3    3  502    0 -0.12390256699E+02 -0.16155036788E+02  0.11959601606E+04  0.11961334413E+04  0.00000000000E+00 0. -1.
         -2    1    3    3    0  502  0.12390256699E+02  0.16155036788E+02  0.70300204427E+02  0.73188950103E+02  0.00000000000E+00 0.  1.
<mgrwt>
<rscale>  0 0.88113684E+02</rscale>
<asrwt>0</asrwt>
<pdfrwt beam="1">  1        2 0.19504399E+00 0.88113684E+02</pdfrwt>
<pdfrwt beam="2">  1       -2 0.23554150E-03 0.88113684E+02</pdfrwt>
<totfact> 0.27000936E+05</totfact>
</mgrwt>
</event>
<event>
 5    1  0.3858870E+001  0.9356378E+02  0.7546771E-02  0.1294444E+00
          2   -1    0    0  501    0  0.00000000000E+00  0.00000000000E+00  0.59314790431E+03  0.59314790431E+03  0.00000000000E+00 0.  1.
         -2   -1    0    0    0  501 -0.00000000000E+00 -0.00000000000E+00 -0.36897124311E+01  0.36897124311E+01  0.00000000000E+00 0. -1.
         23    2    1    2    0    0  0.00000000000E+00  0.00000000000E+00  0.58945819188E+03  0.59683761675E+03  0.93563779232E+02 0.  0.
          2    1    3    3  502    0 -0.27803282901E+02 -0.16649777187E+02  0.79511267493E+02  0.85861978074E+02  0.00000000000E+00 0. -1.
         -2    1    3    3    0  502  0.27803282901E+02  0.16649777187E+02  0.50994692439E+03  0.51097563867E+03  0.00000000000E+00 0.  1.
<mgrwt>
<rscale>  0 0.93563779E+02</rscale>
<asrwt>0</asrwt>
<pdfrwt beam="1">  1        2 0.91253448E-01 0.93563779E+02</pdfrwt>
<pdfrwt beam="2">  1       -2 0.56764854E-03 0.93563779E+02</pdfrwt>
<totfact> 0.21209522E+05</totfact>
</mgrwt>
</event>
<event>
 5    1  0.3858870E+001  0.9166453E+02  0.7546771E-02  0.1298870E+00
         -2   -1    0    0    0  501 -0.00000000000E+00  0.00000000000E+00  0.62132991995E+01  0.62132991995E+01  0.00000000000E+00 0.  1.
          2   -1    0    0  501    0  0.00000000000E+00 -0.00000000000E+00 -0.33808071236E+03  0.33808071236E+03  0.00000000000E+00 0. -1.
         23    2    1    2    0    0  0.00000000000E+00  0.00000000000E+00 -0.33186741316E+03  0.34429401156E+03  0.91664532279E+02 0.  0.
          2    1    3    3  502    0 -0.24727888808E+02  0.34636622723E+02 -0.22983384380E+03  0.23374079634E+03  0.00000000000E+00 0. -1.
         -2    1    3    3    0  502  0.24727888808E+02 -0.34636622723E+02 -0.10203356935E+03  0.11055321521E+03  0.00000000000E+00 0.  1.
<mgrwt>
<rscale>  0 0.91664532E+02</rscale>
<asrwt>0</asrwt>
<pdfrwt beam="2">  1        2 0.52012428E-01 0.91664532E+02</pdfrwt>
<pdfrwt beam="1">  1       -2 0.95589198E-03 0.91664532E+02</pdfrwt>
<totfact> 0.18514322E+05</totfact>
</mgrwt>
</event>
<event>
 5    1  0.3858870E+001  0.8730794E+02  0.7546771E-02  0.1309505E+00
         -2   -1    0    0    0  501 -0.00000000000E+00  0.00000000000E+00  0.41751607794E+02  0.41751607794E+02  0.00000000000E+00 0.  1.
          2   -1    0    0  501    0  0.00000000000E+00 -0.00000000000E+00 -0.45643012298E+02  0.45643012298E+02  0.00000000000E+00 0. -1.
         23    2    1    2    0    0  0.00000000000E+00  0.00000000000E+00 -0.38914045034E+01  0.87394620092E+02  0.87307941174E+02 0.  0.
          2    1    3    3  502    0 -0.32102039460E+02  0.20960996313E+02 -0.22841408131E+02  0.44627729377E+02  0.00000000000E+00 0. -1.
         -2    1    3    3    0  502  0.32102039460E+02 -0.20960996313E+02  0.18950003627E+02  0.42766890715E+02  0.00000000000E+00 0.  1.
<mgrwt>
<rscale>  0 0.87307941E+02</rscale>
<asrwt>0</asrwt>
<pdfrwt beam="2">  1        2 0.70220019E-02 0.87307941E+02</pdfrwt>
<pdfrwt beam="1">  1       -2 0.64233242E-02 0.87307941E+02</pdfrwt>
<totfact> 0.11171090E+05</totfact>
</mgrwt>
</event>
<event>
 5    1  0.3858870E+001  0.9262462E+02  0.7546771E-02  0.1296617E+00
         -1   -1    0    0    0  501 -0.00000000000E+00  0.00000000000E+00  0.83206611618E+01  0.83206611618E+01  0.00000000000E+00 0.  1.
          1   -1    0    0  501    0  0.00000000000E+00 -0.00000000000E+00 -0.25777159370E+03  0.25777159370E+03  0.00000000000E+00 0. -1.
         23    2    1    2    0    0  0.00000000000E+00  0.00000000000E+00 -0.24945093254E+03  0.26609225486E+03  0.92624620665E+02 0.  0.
          2    1    3    3  502    0 -0.17897312600E+02  0.27765714191E+02 -0.21797353374E+03  0.22046249135E+03  0.00000000000E+00 0. -1.
         -2    1    3    3    0  502  0.17897312600E+02 -0.27765714191E+02 -0.31477398803E+02  0.45629763513E+02  0.00000000000E+00 0.  1.
<mgrwt>
<rscale>  0 0.92624621E+02</rscale>
<asrwt>0</asrwt>
<pdfrwt beam="2">  1        1 0.39657167E-01 0.92624621E+02</pdfrwt>
<pdfrwt beam="1">  1       -1 0.12801018E-02 0.92624621E+02</pdfrwt>
<totfact> 0.11927719E+05</totfact>
</mgrwt>
</event>
<event>
 5    1  0.3858870E+001  0.9126229E+02  0.7546771E-02  0.1299823E+00
         -4   -1    0    0    0  501 -0.00000000000E+00  0.00000000000E+00  0.79772252687E+03  0.79772252687E+03  0.00000000000E+00 0.  1.
          4   -1    0    0  501    0  0.00000000000E+00 -0.00000000000E+00 -0.26101827037E+01  0.26101827037E+01  0.00000000000E+00 0. -1.
         23    2    1    2    0    0  0.00000000000E+00  0.00000000000E+00  0.79511234417E+03  0.80033270957E+03  0.91262293242E+02 0.  0.
          2    1    3    3  502    0 -0.37421487508E+02 -0.12233856964E+02  0.19525286643E+03  0.19918262181E+03  0.00000000000E+00 0. -1.
         -2    1    3    3    0  502  0.37421487508E+02  0.12233856964E+02  0.59985947774E+03  0.60115008776E+03  0.00000000000E+00 0.  1.
<mgrwt>
<rscale>  0 0.91262293E+02</rscale>
<asrwt>0</asrwt>
<pdfrwt beam="2">  1        4 0.40156720E-03 0.91262293E+02</pdfrwt>
<pdfrwt beam="1">  1       -4 0.12272635E+00 0.91262293E+02</pdfrwt>
<totfact> 0.88827417E+03</totfact>
</mgrwt>
</event>
<event>
 5    1  0.3858870E+001  0.9260285E+02  0.7546771E-02  0.1296668E+00
          2   -1    0    0  501    0  0.00000000000E+00  0.00000000000E+00  0.24408815701E+03  0.24408815701E+03  0.00000000000E+00 0. -1.
         -2   -1    0    0    0  501 -0.00000000000E+00 -0.00000000000E+00 -0.87829826437E+01  0.87829826437E+01  0.00000000000E+00 0.  1.
         23    2    1    2    0    0  0.00000000000E+00  0.00000000000E+00  0.23530517437E+03  0.25287113966E+03  0.92602851934E+02 0.  0.
          2    1    3    3  502    0  0.11074174054E+02 -0.25133153270E+02  0.21944270950E+03  0.22115473198E+03  0.00000000000E+00 0. -1.
         -2    1    3    3    0  502 -0.11074174054E+02  0.25133153270E+02  0.15862464871E+02  0.31716407679E+02  0.00000000000E+00 0.  1.
<mgrwt>
<rscale>  0 0.92602852E+02</rscale>
<asrwt>0</asrwt>
<pdfrwt beam="1">  1        2 0.37552019E-01 0.92602852E+02</pdfrwt>
<pdfrwt beam="2">  1       -2 0.13512283E-02 0.92602852E+02</pdfrwt>
<totfact> 0.15959419E+05</totfact>
</mgrwt>
</event>
<event>
 5    1  0.3858870E+001  0.9127107E+02  0.7546771E-02  0.1299802E+00
         -1   -1    0    0    0  501 -0.00000000000E+00  0.00000000000E+00  0.54157955918E+01  0.54157955918E+01  0.00000000000E+00 0.  1.
          1   -1    0    0  501    0  0.00000000000E+00 -0.00000000000E+00 -0.38454218809E+03  0.38454218809E+03  0.00000000000E+00 0. -1.
         23    2    1    2    0    0  0.00000000000E+00  0.00000000000E+00 -0.37912639250E+03  0.38995798369E+03  0.91271066327E+02 0.  0.
          2    1    3    3  502    0 -0.14771668374E+01 -0.34632343028E+02 -0.31638027456E+03  0.31827356054E+03  0.00000000000E+00 0. -1.
         -2    1    3    3    0  502  0.14771668374E+01  0.34632343028E+02 -0.62746117941E+02  0.71684423149E+02  0.00000000000E+00 0.  1.
<mgrwt>
<rscale>  0 0.91271066E+02</rscale>
<asrwt>0</asrwt>
<pdfrwt beam="2">  1        1 0.59160345E-01 0.91271066E+02</pdfrwt>
<pdfrwt beam="1">  1       -1 0.83319921E-03 0.91271066E+02</pdfrwt>
<totfact> 0.13364134E+05</totfact>
</mgrwt>
</event>
<event>
 5    1  0.3858870E+001  0.9135967E+02  0.7546771E-02  0.1299592E+00
         -2   -1    0    0    0  501 -0.00000000000E+00  0.00000000000E+00  0.17176395956E+03  0.17176395956E+03  0.00000000000E+00 0.  1.
          2   -1    0    0  501    0  0.00000000000E+00 -0.00000000000E+00 -0.12148341826E+02  0.12148341826E+02  0.00000000000E+00 0. -1.
         23    2    1    2    0    0  0.00000000000E+00  0.00000000000E+00  0.15961561773E+03  0.18391230139E+03  0.91359669310E+02 0.  0.
          2    1    3    3  502    0  0.32964158303E+02  0.22639288423E+02  0.35361871567E+02  0.53381973303E+02  0.00000000000E+00 0. -1.
         -2    1    3    3    0  502 -0.32964158303E+02 -0.22639288423E+02  0.12425374617E+03  0.13053032808E+03  0.00000000000E+00 0.  1.
<mgrwt>
<rscale>  0 0.91359669E+02</rscale>
<asrwt>0</asrwt>
<pdfrwt beam="2">  1        2 0.18689758E-02 0.91359669E+02</pdfrwt>
<pdfrwt beam="1">  1       -2 0.26425223E-01 0.91359669E+02</pdfrwt>
<totfact> 0.66026712E+04</totfact>
</mgrwt>
</event>
<event>
 5    1  0.3858870E+001  0.7761226E+02  0.7546771E-02  0.1335967E+00
         -1   -1    0    0    0  501 -0.00000000000E+00  0.00000000000E+00  0.27727482717E+03  0.27727482717E+03  0.00000000000E+00 0.  1.
          1   -1    0    0  501    0  0.00000000000E+00 -0.00000000000E+00 -0.54311309772E+01  0.54311309772E+01  0.00000000000E+00 0. -1.
         23    2    1    2    0    0  0.00000000000E+00  0.00000000000E+00  0.27184369620E+03  0.28270595815E+03  0.77612264574E+02 0.  0.
          2    1    3    3  502    0  0.26597466098E+02 -0.27299604798E+02  0.10934819044E+03  0.11580034705E+03  0.00000000000E+00 0. -1.
         -2    1    3    3    0  502 -0.26597466098E+02  0.27299604798E+02  0.16249550576E+03  0.16690561110E+03  0.00000000000E+00 0.  1.
<mgrwt>
<rscale>  0 0.77612265E+02</rscale>
<asrwt>0</asrwt>
<pdfrwt beam="2">  1        1 0.83555883E-03 0.77612265E+02</pdfrwt>
<pdfrwt beam="1">  1       -1 0.42657655E-01 0.77612265E+02</pdfrwt>
<totfact> 0.94878136E+04</totfact>
</mgrwt>
</event>
<event>
 5    1  0.3858870E+001  0.9056205E+02  0.7546771E-02  0.1301496E+00
         -2   -1    0    0    0  501 -0.00000000000E+00  0.00000000000E+00  0.25702396048E+01  0.25702396048E+01  0.00000000000E+00 0.  1.
          2   -1    0    0  501    0  0.00000000000E+00 -0.00000000000E+00 -0.79773546774E+03  0.79773546774E+03  0.00000000000E+00 0. -1.
         23    2    1    2    0    0  0.00000000000E+00  0.00000000000E+00 -0.79516522813E+03  0.80030570734E+03  0.90562051508E+02 0.  0.
          2    1    3    3  502    0  0.15714648960E+02 -0.37451693976E+02 -0.57449939647E+03  0.57593327402E+03  0.00000000000E+00 0. -1.
         -2    1    3    3    0  502 -0.15714648960E+02  0.37451693976E+02 -0.22066583166E+03  0.22437243333E+03  0.00000000000E+00 0.  1.
<mgrwt>
<rscale>  0 0.90562052E+02</rscale>
<asrwt>0</asrwt>
<pdfrwt beam="2">  1        2 0.12272851E+00 0.90562052E+02</pdfrwt>
<pdfrwt beam="1">  1       -2 0.39542154E-03 0.90562052E+02</pdfrwt>
<totfact> 0.24799843E+05</totfact>
</mgrwt>
</event>
<event>
 5    1  0.3858870E+001  0.8967645E+02  0.7546771E-02  0.1303637E+00
         -1   -1    0    0    0  501 -0.00000000000E+00  0.00000000000E+00  0.63952035258E+02  0.63952035258E+02  0.00000000000E+00 0.  1.
          1   -1    0    0  501    0  0.00000000000E+00 -0.00000000000E+00 -0.31437098807E+02  0.31437098807E+02  0.00000000000E+00 0. -1.
         23    2    1    2    0    0  0.00000000000E+00  0.00000000000E+00  0.32514936451E+02  0.95389134065E+02  0.89676450673E+02 0.  0.
          2    1    3    3  502    0  0.19678746683E+02 -0.37517094777E+02  0.31879100818E+02  0.53019454359E+02  0.00000000000E+00 0. -1.
         -2    1    3    3    0  502 -0.19678746683E+02  0.37517094777E+02  0.63583563286E+00  0.42369679707E+02  0.00000000000E+00 0.  1.
<mgrwt>
<rscale>  0 0.89676451E+02</rscale>
<asrwt>0</asrwt>
<pdfrwt beam="2">  1        1 0.48364768E-02 0.89676451E+02</pdfrwt>
<pdfrwt beam="1">  1       -1 0.98387746E-02 0.89676451E+02</pdfrwt>
<totfact> 0.91575597E+04</totfact>
</mgrwt>
</event>
<event>
 5    1  0.3858870E+001  0.9098959E+02  0.7546771E-02  0.1300473E+00
          2   -1    0    0  501    0  0.00000000000E+00  0.00000000000E+00  0.29455300059E+03  0.29455300059E+03  0.00000000000E+00 0. -1.
         -2   -1    0    0    0  501 -0.00000000000E+00 -0.00000000000E+00 -0.70268390479E+01  0.70268390479E+01  0.00000000000E+00 0.  1.
         23    2    1    2    0    0  0.00000000000E+00  0.00000000000E+00  0.28752616154E+03  0.30157983963E+03  0.90989593387E+02 0.  0.
          2    1    3    3  502    0  0.32986888502E+02 -0.26529893124E+02  0.19900665515E+03  0.20345913308E+03  0.00000000000E+00 0. -1.
         -2    1    3    3    0  502 -0.32986888502E+02  0.26529893124E+02  0.88519506390E+02  0.98120706549E+02  0.00000000000E+00 0.  1.
<mgrwt>
<rscale>  0 0.90989593E+02</rscale>
<asrwt>0</asrwt>
<pdfrwt beam="1">  1        2 0.45315837E-01 0.90989593E+02</pdfrwt>
<pdfrwt beam="2">  1       -2 0.10810524E-02 0.90989593E+02</pdfrwt>
<totfact> 0.17941996E+05</totfact>
</mgrwt>
</event>
<event>
 5    1  0.3858870E+001  0.9156469E+02  0.7546771E-02  0.1299106E+00
          2   -1    0    0  501    0  0.00000000000E+00  0.00000000000E+00  0.13819405421E+04  0.13819405421E+04  0.00000000000E+00 0.  1.
         -2   -1    0    0    0  501 -0.00000000000E+00 -0.00000000000E+00 -0.15167246492E+01  0.15167246492E+01  0.00000000000E+00 0. -1.
         23    2    1    2    0    0  0.00000000000E+00  0.00000000000E+00  0.13804238174E+04  0.13834572667E+04  0.91564693718E+02 0.  0.
          2    1    3    3  502    0  0.11679544475E+02 -0.26526843112E+02  0.15475833332E+03  0.15744912479E+03  0.00000000000E+00 0. -1.
         -2    1    3    3    0  502 -0.11679544475E+02  0.26526843112E+02  0.12256654841E+04  0.12260081420E+04  0.00000000000E+00 0.  1.
<mgrwt>
<rscale>  0 0.91564694E+02</rscale>
<asrwt>0</asrwt>
<pdfrwt beam="1">  1        2 0.21260523E+00 0.91564694E+02</pdfrwt>
<pdfrwt beam="2">  1       -2 0.23334336E-03 0.91564694E+02</pdfrwt>
<totfact> 0.23957024E+05</totfact>
</mgrwt>
</event>
<event>
 5    1  0.3858870E+001  0.9069525E+02  0.7546771E-02  0.1301177E+00
          1   -1    0    0  501    0  0.00000000000E+00  0.00000000000E+00  0.45815852888E+03  0.45815852888E+03  0.00000000000E+00 0. -1.
         -1   -1    0    0    0  501 -0.00000000000E+00 -0.00000000000E+00 -0.44884177925E+01  0.44884177925E+01  0.00000000000E+00 0.  1.
         23    2    1    2    0    0  0.00000000000E+00  0.00000000000E+00  0.45367011109E+03  0.46264694668E+03  0.90695245583E+02 0.  0.
          2    1    3    3  502    0  0.29905637228E+02 -0.16370103828E+02  0.74305769655E+02  0.81753745122E+02  0.00000000000E+00 0. -1.
         -2    1    3    3    0  502 -0.29905637228E+02  0.16370103828E+02  0.37936434144E+03  0.38089320155E+03  0.00000000000E+00 0.  1.
<mgrwt>
<rscale>  0 0.90695246E+02</rscale>
<asrwt>0</asrwt>
<pdfrwt beam="1">  1        1 0.70485891E-01 0.90695246E+02</pdfrwt>
<pdfrwt beam="2">  1       -1 0.69052618E-03 0.90695246E+02</pdfrwt>
<totfact> 0.13965238E+05</totfact>
</mgrwt>
</event>
<event>
 5    1  0.3858870E+001  0.9083068E+02  0.7546771E-02  0.1300852E+00
         -1   -1    0    0    0  501 -0.00000000000E+00  0.00000000000E+00  0.25245435616E+03  0.25245435616E+03  0.00000000000E+00 0.  1.
          1   -1    0    0  501    0  0.00000000000E+00 -0.00000000000E+00 -0.81700042919E+01  0.81700042919E+01  0.00000000000E+00 0. -1.
         23    2    1    2    0    0  0.00000000000E+00  0.00000000000E+00  0.24428435187E+03  0.26062436045E+03  0.90830681454E+02 0.  0.
          2    1    3    3  502    0  0.40494519262E+01  0.36346799971E+02  0.44879280725E+02  0.57893330941E+02  0.00000000000E+00 0. -1.
         -2    1    3    3    0  502 -0.40494519262E+01 -0.36346799971E+02  0.19940507114E+03  0.20273102951E+03  0.00000000000E+00 0.  1.
<mgrwt>
<rscale>  0 0.90830681E+02</rscale>
<asrwt>0</asrwt>
<pdfrwt beam="2">  1        1 0.12569239E-02 0.90830681E+02</pdfrwt>
<pdfrwt beam="1">  1       -1 0.38839126E-01 0.90830681E+02</pdfrwt>
<totfact> 0.65194359E+04</totfact>
</mgrwt>
</event>
<event>
 5    1  0.3858870E+001  0.9217150E+02  0.7546771E-02  0.1297677E+00
         -1   -1    0    0    0  501 -0.00000000000E+00  0.00000000000E+00  0.72364542106E+01  0.72364542106E+01  0.00000000000E+00 0.  1.
          1   -1    0    0  501    0  0.00000000000E+00 -0.00000000000E+00 -0.29349959388E+03  0.29349959388E+03  0.00000000000E+00 0. -1.
         23    2    1    2    0    0  0.00000000000E+00  0.00000000000E+00 -0.28626313967E+03  0.30073604809E+03  0.92171500410E+02 0.  0.
          2    1    3    3  502    0  0.40864235178E+02  0.18643274619E+02 -0.10946962870E+03  0.11832606227E+03  0.00000000000E+00 0. -1.
         -2    1    3    3    0  502 -0.40864235178E+02 -0.18643274619E+02 -0.17679351097E+03  0.18240998582E+03  0.00000000000E+00 0.  1.
<mgrwt>
<rscale>  0 0.92171500E+02</rscale>
<asrwt>0</asrwt>
<pdfrwt beam="2">  1        1 0.45153767E-01 0.92171500E+02</pdfrwt>
<pdfrwt beam="1">  1       -1 0.11133011E-02 0.92171500E+02</pdfrwt>
<totfact> 0.12394523E+05</totfact>
</mgrwt>
</event>
<event>
 5    1  0.3858870E+001  0.8916117E+02  0.7546771E-02  0.1304896E+00
          3   -1    0    0  501    0  0.00000000000E+00  0.00000000000E+00  0.50029621513E+01  0.50029621513E+01  0.00000000000E+00 0. -1.
         -3   -1    0    0    0  501 -0.00000000000E+00 -0.00000000000E+00 -0.39725039192E+03  0.39725039192E+03  0.00000000000E+00 0.  1.
         23    2    1    2    0    0  0.00000000000E+00  0.00000000000E+00 -0.39224742976E+03  0.40225335407E+03  0.89161172611E+02 0.  0.
          2    1    3    3  502    0 -0.35309697839E+02 -0.18401717491E+02 -0.10566435390E+03  0.11291746390E+03  0.00000000000E+00 0. -1.
         -2    1    3    3    0  502  0.35309697839E+02  0.18401717491E+02 -0.28658307586E+03  0.28933589017E+03  0.00000000000E+00 0.  1.
<mgrwt>
<rscale>  0 0.89161173E+02</rscale>
<asrwt>0</asrwt>
<pdfrwt beam="1">  1        3 0.76968622E-03 0.89161173E+02</pdfrwt>
<pdfrwt beam="2">  1       -3 0.61115466E-01 0.89161173E+02</pdfrwt>
<totfact> 0.21794078E+04</totfact>
</mgrwt>
</event>
<event>
 5    1  0.3858870E+001  0.9141099E+02  0.7546771E-02  0.1299470E+00
         -2   -1    0    0    0  501 -0.00000000000E+00  0.00000000000E+00  0.15014392454E+01  0.15014392454E+01  0.00000000000E+00 0.  1.
          2   -1    0    0  501    0  0.00000000000E+00 -0.00000000000E+00 -0.13913265091E+04  0.13913265091E+04  0.00000000000E+00 0. -1.
         23    2    1    2    0    0  0.00000000000E+00  0.00000000000E+00 -0.13898250698E+04  0.13928279483E+04  0.91410988923E+02 0.  0.
          2    1    3    3  502    0  0.71481893433E+01  0.21159580974E+02 -0.13025164107E+04  0.13027078815E+04  0.00000000000E+00 0. -1.
         -2    1    3    3    0  502 -0.71481893433E+01 -0.21159580974E+02 -0.87308659129E+02  0.90120066782E+02  0.00000000000E+00 0.  1.
<mgrwt>
<rscale>  0 0.91410989E+02</rscale>
<asrwt>0</asrwt>
<pdfrwt beam="2">  1        2 0.21404925E+00 0.91410989E+02</pdfrwt>
<pdfrwt beam="1">  1       -2 0.23099172E-03 0.91410989E+02</pdfrwt>
<totfact> 0.24019117E+05</totfact>
</mgrwt>
</event>
<event>
 5    1  0.3858870E+001  0.9129648E+02  0.7546771E-02  0.1299742E+00
         -4   -1    0    0    0  501 -0.00000000000E+00  0.00000000000E+00  0.84478714417E+01  0.84478714417E+01  0.00000000000E+00 0.  1.
          4   -1    0    0  501    0  0.00000000000E+00 -0.00000000000E+00 -0.24666116898E+03  0.24666116898E+03  0.00000000000E+00 0. -1.
         23    2    1    2    0    0  0.00000000000E+00  0.00000000000E+00 -0.23821329754E+03  0.25510904043E+03  0.91296480660E+02 0.  0.
          2    1    3    3  502    0  0.25913595696E+02  0.11381032478E+02 -0.21918442849E+03  0.22100419913E+03  0.00000000000E+00 0. -1.
         -2    1    3    3    0  502 -0.25913595696E+02 -0.11381032478E+02 -0.19028869053E+02  0.34104841292E+02  0.00000000000E+00 0.  1.
<mgrwt>
<rscale>  0 0.91296481E+02</rscale>
<asrwt>0</asrwt>
<pdfrwt beam="2">  1        4 0.37947871E-01 0.91296481E+02</pdfrwt>
<pdfrwt beam="1">  1       -4 0.12996726E-02 0.91296481E+02</pdfrwt>
<totfact> 0.19216731E+04</totfact>
</mgrwt>
</event>
<event>
 5    1  0.3858870E+001  0.8953248E+02  0.7546771E-02  0.1303988E+00
          2   -1    0    0  501    0  0.00000000000E+00  0.00000000000E+00  0.93944518399E+03  0.93944518399E+03  0.00000000000E+00 0. -1.
         -2   -1    0    0    0  501 -0.00000000000E+00 -0.00000000000E+00 -0.21331912428E+01  0.21331912428E+01  0.00000000000E+00 0.  1.
         23    2    1    2    0    0  0.00000000000E+00  0.00000000000E+00  0.93731199275E+03  0.94157837524E+03  0.89532479907E+02 0.  0.
          2    1    3    3  502    0 -0.24306200810E+02  0.96376611397E+01  0.85079274687E+03  0.85119443962E+03  0.00000000000E+00 0. -1.
         -2    1    3    3    0  502  0.24306200810E+02 -0.96376611397E+01  0.86519245879E+02  0.90383935616E+02  0.00000000000E+00 0.  1.
<mgrwt>
<rscale>  0 0.89532480E+02</rscale>
<asrwt>0</asrwt>
<pdfrwt beam="1">  1        2 0.14452970E+00 0.89532480E+02</pdfrwt>
<pdfrwt beam="2">  1       -2 0.32818402E-03 0.89532480E+02</pdfrwt>
<totfact> 0.26121253E+05</totfact>
</mgrwt>
</event>
<event>
 5    1  0.3858870E+001  0.9129276E+02  0.7546771E-02  0.1299751E+00
         -1   -1    0    0    0  501 -0.00000000000E+00  0.00000000000E+00  0.15127674691E+03  0.15127674691E+03  0.00000000000E+00 0.  1.
          1   -1    0    0  501    0  0.00000000000E+00 -0.00000000000E+00 -0.13773379844E+02  0.13773379844E+02  0.00000000000E+00 0. -1.
         23    2    1    2    0    0  0.00000000000E+00  0.00000000000E+00  0.13750336707E+03  0.16505012675E+03  0.91292761962E+02 0.  0.
          2    1    3    3  502    0 -0.92879327651E+01 -0.25288986547E+02  0.21329475421E+01  0.27024951449E+02  0.00000000000E+00 0. -1.
         -2    1    3    3    0  502  0.92879327651E+01  0.25288986547E+02  0.13537041952E+03  0.13802517530E+03  0.00000000000E+00 0.  1.
<mgrwt>
<rscale>  0 0.91292762E+02</rscale>
<asrwt>0</asrwt>
<pdfrwt beam="2">  1        1 0.21189816E-02 0.91292762E+02</pdfrwt>
<pdfrwt beam="1">  1       -1 0.23273345E-01 0.91292762E+02</pdfrwt>
<totfact> 0.74393812E+04</totfact>
</mgrwt>
</event>
<event>
 5    1  0.3858870E+001  0.9269357E+02  0.7546771E-02  0.1296457E+00
         -4   -1    0    0    0  501 -0.00000000000E+00  0.00000000000E+00  0.11069298795E+03  0.11069298795E+03  0.00000000000E+00 0.  1.
          4   -1    0    0  501    0  0.00000000000E+00 -0.00000000000E+00 -0.19405244971E+02  0.19405244971E+02  0.00000000000E+00 0. -1.
         23    2    1    2    0    0  0.00000000000E+00  0.00000000000E+00  0.91287742984E+02  0.13009823293E+03  0.92693571467E+02 0.  0.
          2    1    3    3  502    0 -0.36118137783E+02 -0.28494452216E+02  0.53530021151E+02  0.70582695106E+02  0.00000000000E+00 0. -1.
         -2    1    3    3    0  502  0.36118137783E+02  0.28494452216E+02  0.37757721833E+02  0.59515537820E+02  0.00000000000E+00 0.  1.
<mgrwt>
<rscale>  0 0.92693571E+02</rscale>
<asrwt>0</asrwt>
<pdfrwt beam="2">  1        4 0.29854224E-02 0.92693571E+02</pdfrwt>
<pdfrwt beam="1">  1       -4 0.17029690E-01 0.92693571E+02</pdfrwt>
<totfact> 0.23633516E+04</totfact>
</mgrwt>
</event>
<event>
 5    1  0.3858870E+001  0.8895629E+02  0.7546771E-02  0.1305399E+00
          1   -1    0    0  501    0  0.00000000000E+00  0.00000000000E+00  0.12822040785E+02  0.12822040785E+02  0.00000000000E+00 0. -1.
         -1   -1    0    0    0  501 -0.00000000000E+00 -0.00000000000E+00 -0.15428942522E+03  0.15428942522E+03  0.00000000000E+00 0.  1.
         23    2    1    2    0    0  0.00000000000E+00  0.00000000000E+00 -0.14146738444E+03  0.16711146601E+03  0.88956288207E+02 0.  0.
          2    1    3    3  502    0 -0.37499674869E+01 -0.37920970492E+02 -0.11382828487E+03  0.12003724712E+03  0.00000000000E+00 0. -1.
         -2    1    3    3    0  502  0.37499674869E+01  0.37920970492E+02 -0.27639099567E+02  0.47074218890E+02  0.00000000000E+00 0.  1.
<mgrwt>
<rscale>  0 0.88956288E+02</rscale>
<asrwt>0</asrwt>
<pdfrwt beam="1">  1        1 0.19726215E-02 0.88956288E+02</pdfrwt>
<pdfrwt beam="2">  1       -1 0.23736836E-01 0.88956288E+02</pdfrwt>
<totfact> 0.79196500E+04</totfact>
</mgrwt>
</event>
<event>
 5    1  0.3858870E+001  0.9050763E+02  0.7546771E-02  0.1301627E+00
          2   -1    0    0  501    0  0.00000000000E+00  0.00000000000E+00  0.10082170153E+04  0.10082170153E+04  0.00000000000E+00 0. -1.
         -2   -1    0    0    0  501 -0.00000000000E+00 -0.00000000000E+00 -0.20312171457E+01  0.20312171457E+01  0.00000000000E+00 0.  1.
         23    2    1    2    0    0  0.00000000000E+00  0.00000000000E+00  0.10061857982E+04  0.10102482325E+04  0.90507628145E+02 0.  0.
          2    1    3    3  502    0  0.57161204838E+00  0.36499066836E+02  0.80164291619E+03  0.80247359689E+03  0.00000000000E+00 0. -1.
         -2    1    3    3    0  502 -0.57161204838E+00 -0.36499066836E+02  0.20454288200E+03  0.20777463559E+03  0.00000000000E+00 0.  1.
<mgrwt>
<rscale>  0 0.90507628E+02</rscale>
<asrwt>0</asrwt>
<pdfrwt beam="1">  1        2 0.15510991E+00 0.90507628E+02</pdfrwt>
<pdfrwt beam="2">  1       -2 0.31249575E-03 0.90507628E+02</pdfrwt>
<totfact> 0.25499339E+05</totfact>
</mgrwt>
</event>
<event>
 5    1  0.3858870E+001  0.9262790E+02  0.7546771E-02  0.1296610E+00
          3   -1    0    0  501    0  0.00000000000E+00  0.00000000000E+00  0.18241205840E+03  0.18241205840E+03  0.00000000000E+00 0. -1.
         -3   -1    0    0    0  501 -0.00000000000E+00 -0.00000000000E+00 -0.11758991586E+02  0.11758991586E+02  0.00000000000E+00 0.  1.
         23    2    1    2    0    0  0.00000000000E+00  0.00000000000E+00  0.17065306681E+03  0.19417104998E+03  0.92627897739E+02 0.  0.
          2    1    3    3  502    0  0.40937630794E+02  0.15612662986E+02  0.11679379314E+03  0.12474147257E+03  0.00000000000E+00 0. -1.
         -2    1    3    3    0  502 -0.40937630794E+02 -0.15612662986E+02  0.53859273665E+02  0.69429577417E+02  0.00000000000E+00 0.  1.
<mgrwt>
<rscale>  0 0.92627898E+02</rscale>
<asrwt>0</asrwt>
<pdfrwt beam="1">  1        3 0.28063392E-01 0.92627898E+02</pdfrwt>
<pdfrwt beam="2">  1       -3 0.18090758E-02 0.92627898E+02</pdfrwt>
<totfact> 0.27598342E+04</totfact>
</mgrwt>
</event>
<event>
 5    1  0.3858870E+001  0.8979696E+02  0.7546771E-02  0.1303344E+00
          2   -1    0    0  501    0  0.00000000000E+00  0.00000000000E+00  0.99379604975E+03  0.99379604975E+03  0.00000000000E+00 0. -1.
         -2   -1    0    0    0  501 -0.00000000000E+00 -0.00000000000E+00 -0.20284579605E+01  0.20284579605E+01  0.00000000000E+00 0.  1.
         23    2    1    2    0    0  0.00000000000E+00  0.00000000000E+00  0.99176759179E+03  0.99582450771E+03  0.89796960042E+02 0.  0.
          2    1    3    3  502    0 -0.17175172932E+02  0.11907898631E+02  0.93656493691E+03  0.93679809226E+03  0.00000000000E+00 0. -1.
         -2    1    3    3    0  502  0.17175172932E+02 -0.11907898631E+02  0.55202654880E+02  0.59026415450E+02  0.00000000000E+00 0.  1.
<mgrwt>
<rscale>  0 0.89796960E+02</rscale>
<asrwt>0</asrwt>
<pdfrwt beam="1">  1        2 0.15289131E+00 0.89796960E+02</pdfrwt>
<pdfrwt beam="2">  1       -2 0.31207125E-03 0.89796960E+02</pdfrwt>
<totfact> 0.26017510E+05</totfact>
</mgrwt>
</event>
<event>
 5    1  0.3858870E+001  0.9040645E+02  0.7546771E-02  0.1301870E+00
          1   -1    0    0  501    0  0.00000000000E+00  0.00000000000E+00  0.74397330550E+01  0.74397330550E+01  0.00000000000E+00 0. -1.
         -1   -1    0    0    0  501 -0.00000000000E+00 -0.00000000000E+00 -0.27465121631E+03  0.27465121631E+03  0.00000000000E+00 0.  1.
         23    2    1    2    0    0  0.00000000000E+00  0.00000000000E+00 -0.26721148325E+03  0.28209094936E+03  0.90406454030E+02 0.  0.
          2    1    3    3  502    0  0.11995290849E+01  0.43318449652E+02 -0.93476241690E+02  0.10303268758E+03  0.00000000000E+00 0. -1.
         -2    1    3    3    0  502 -0.11995290849E+01 -0.43318449652E+02 -0.17373524156E+03  0.17905826178E+03  0.00000000000E+00 0.  1.
<mgrwt>
<rscale>  0 0.90406454E+02</rscale>
<asrwt>0</asrwt>
<pdfrwt beam="1">  1        1 0.11445743E-02 0.90406454E+02</pdfrwt>
<pdfrwt beam="2">  1       -1 0.42254035E-01 0.90406454E+02</pdfrwt>
<totfact> 0.64056202E+04</totfact>
</mgrwt>
</event>
<event>
 5    1  0.3858870E+001  0.9116703E+02  0.7546771E-02  0.1300050E+00
          2   -1    0    0  501    0  0.00000000000E+00  0.00000000000E+00  0.44551445710E+01  0.44551445710E+01  0.00000000000E+00 0. -1.
         -2   -1    0    0    0  501 -0.00000000000E+00 -0.00000000000E+00 -0.46639496269E+03  0.46639496269E+03  0.00000000000E+00 0.  1.
         23    2    1    2    0    0  0.00000000000E+00  0.00000000000E+00 -0.46193981812E+03  0.47085010726E+03  0.91167033207E+02 0.  0.
          2    1    3    3  502    0  0.34360753596E+02  0.27387420869E+02 -0.29361510321E+03  0.29688476055E+03  0.00000000000E+00 0. -1.
         -2    1    3    3    0  502 -0.34360753596E+02 -0.27387420869E+02 -0.16832471490E+03  0.17396534671E+03  0.00000000000E+00 0.  1.
<mgrwt>
<rscale>  0 0.91167033E+02</rscale>
<asrwt>0</asrwt>
<pdfrwt beam="1">  1        2 0.68540671E-03 0.91167033E+02</pdfrwt>
<pdfrwt beam="2">  1       -2 0.71753086E-01 0.91167033E+02</pdfrwt>
<totfact> 0.38290526E+04</totfact>
</mgrwt>
</event>
<event>
 5    1  0.3858870E+001  0.9145385E+02  0.7546771E-02  0.1299369E+00
         -1   -1    0    0    0  501 -0.00000000000E+00  0.00000000000E+00  0.11722626868E+03  0.11722626868E+03  0.00000000000E+00 0.  1.
          1   -1    0    0  501    0  0.00000000000E+00 -0.00000000000E+00 -0.17836885692E+02  0.17836885692E+02  0.00000000000E+00 0. -1.
         23    2    1    2    0    0  0.00000000000E+00  0.00000000000E+00  0.99389382992E+02  0.13506315438E+03  0.91453847479E+02 0.  0.
          2    1    3    3  502    0  0.22271384455E+02  0.38485019995E+02  0.33937356056E+02  0.55936173140E+02  0.00000000000E+00 0. -1.
         -2    1    3    3    0  502 -0.22271384455E+02 -0.38485019995E+02  0.65452026936E+02  0.79126981236E+02  0.00000000000E+00 0.  1.
<mgrwt>
<rscale>  0 0.91453847E+02</rscale>
<asrwt>0</asrwt>
<pdfrwt beam="2">  1        1 0.27441363E-02 0.91453847E+02</pdfrwt>
<pdfrwt beam="1">  1       -1 0.18034810E-01 0.91453847E+02</pdfrwt>
<totfact> 0.78287988E+04</totfact>
</mgrwt>
</event>
<event>
 5    1  0.3858870E+001  0.9714944E+02  0.7546771E-02  0.1286407E+00
         -1   -1    0    0    0  501 -0.00000000000E+00  0.00000000000E+00  0.42696011156E+02  0.42696011156E+02  0.00000000000E+00 0.  1.
          1   -1    0    0  501    0  0.00000000000E+00 -0.00000000000E+00 -0.55262858419E+02  0.55262858419E+02  0.00000000000E+00 0. -1.
         23    2    1    2    0    0  0.00000000000E+00  0.00000000000E+00 -0.12566847263E+02  0.97958869574E+02  0.97149444044E+02 0.  0.
          2    1    3    3  502    0  0.30984251363E+02 -0.16125080541E+02 -0.40320581223E+02  0.53345958846E+02  0.00000000000E+00 0. -1.
         -2    1    3    3    0  502 -0.30984251363E+02  0.16125080541E+02  0.27753733960E+02  0.44612910729E+02  0.00000000000E+00 0.  1.
<mgrwt>
<rscale>  0 0.97149444E+02</rscale>
<asrwt>0</asrwt>
<pdfrwt beam="2">  1        1 0.85019782E-02 0.97149444E+02</pdfrwt>
<pdfrwt beam="1">  1       -1 0.65686171E-02 0.97149444E+02</pdfrwt>
<totfact> 0.79694485E+04</totfact>
</mgrwt>
</event>
<event>
 5    1  0.3858870E+001  0.9091617E+02  0.7546771E-02  0.1300648E+00
         -4   -1    0    0    0  501 -0.00000000000E+00  0.00000000000E+00  0.67608336948E+03  0.67608336948E+03  0.00000000000E+00 0.  1.
          4   -1    0    0  501    0  0.00000000000E+00 -0.00000000000E+00 -0.30564835426E+01  0.30564835426E+01  0.00000000000E+00 0. -1.
         23    2    1    2    0    0  0.00000000000E+00  0.00000000000E+00  0.67302688593E+03  0.67913985302E+03  0.90916174407E+02 0.  0.
          2    1    3    3  502    0  0.39111302000E+02  0.13053061937E+02  0.19353423991E+03  0.19787768543E+03  0.00000000000E+00 0. -1.
         -2    1    3    3    0  502 -0.39111302000E+02 -0.13053061937E+02  0.47949264602E+03  0.48126216759E+03  0.00000000000E+00 0.  1.
<mgrwt>
<rscale>  0 0.90916174E+02</rscale>
<asrwt>0</asrwt>
<pdfrwt beam="2">  1        4 0.47022878E-03 0.90916174E+02</pdfrwt>
<pdfrwt beam="1">  1       -4 0.10401271E+00 0.90916174E+02</pdfrwt>
<totfact> 0.10384668E+04</totfact>
</mgrwt>
</event>
<event>
 5    1  0.3858870E+001  0.9046018E+02  0.7546771E-02  0.1301741E+00
         -2   -1    0    0    0  501 -0.00000000000E+00  0.00000000000E+00  0.38963219421E+01  0.38963219421E+01  0.00000000000E+00 0.  1.
          2   -1    0    0  501    0  0.00000000000E+00 -0.00000000000E+00 -0.52504928528E+03  0.52504928528E+03  0.00000000000E+00 0. -1.
         23    2    1    2    0    0  0.00000000000E+00  0.00000000000E+00 -0.52115296333E+03  0.52894560722E+03  0.90460180210E+02 0.  0.
          2    1    3    3  502    0  0.12808165368E+02  0.26443054653E+02 -0.59505275740E+02  0.66363861253E+02  0.00000000000E+00 0.  1.
         -2    1    3    3    0  502 -0.12808165368E+02 -0.26443054653E+02 -0.46164768759E+03  0.46258174597E+03  0.00000000000E+00 0. -1.
<mgrwt>
<rscale>  0 0.90460180E+02</rscale>
<asrwt>0</asrwt>
<pdfrwt beam="2">  1        2 0.80776804E-01 0.90460180E+02</pdfrwt>
<pdfrwt beam="1">  1       -2 0.59943421E-03 0.90460180E+02</pdfrwt>
<totfact> 0.22350986E+05</totfact>
</mgrwt>
</event>
<event>
 5    1  0.3858870E+001  0.9236462E+02  0.7546771E-02  0.1297224E+00
          1   -1    0    0  501    0  0.00000000000E+00  0.00000000000E+00  0.15916662839E+04  0.15916662839E+04  0.00000000000E+00 0. -1.
         -1   -1    0    0    0  501 -0.00000000000E+00 -0.00000000000E+00 -0.13399830817E+01  0.13399830817E+01  0.00000000000E+00 0.  1.
         23    2    1    2    0    0  0.00000000000E+00  0.00000000000E+00  0.15903263008E+04  0.15930062669E+04  0.92364622928E+02 0.  0.
          2    1    3    3  502    0  0.50274082533E+00  0.40964573397E+02  0.11628331201E+04  0.11635545601E+04  0.00000000000E+00 0. -1.
         -2    1    3    3    0  502 -0.50274082533E+00 -0.40964573397E+02  0.42749318067E+03  0.42945170688E+03  0.00000000000E+00 0.  1.
<mgrwt>
<rscale>  0 0.92364623E+02</rscale>
<asrwt>0</asrwt>
<pdfrwt beam="1">  1        1 0.24487022E+00 0.92364623E+02</pdfrwt>
<pdfrwt beam="2">  1       -1 0.20615252E-03 0.92364623E+02</pdfrwt>
<totfact> 0.10137974E+05</totfact>
</mgrwt>
</event>
<event>
 5    1  0.3858870E+001  0.9164519E+02  0.7546771E-02  0.1298916E+00
         -1   -1    0    0    0  501 -0.00000000000E+00  0.00000000000E+00  0.13481212311E+02  0.13481212311E+02  0.00000000000E+00 0.  1.
          1   -1    0    0  501    0  0.00000000000E+00 -0.00000000000E+00 -0.15575085456E+03  0.15575085456E+03  0.00000000000E+00 0. -1.
         23    2    1    2    0    0  0.00000000000E+00  0.00000000000E+00 -0.14226964225E+03  0.16923206687E+03  0.91645192735E+02 0.  0.
          2    1    3    3  502    0  0.38377626662E+02  0.41552251386E+01 -0.11672761829E+03  0.12294488601E+03  0.00000000000E+00 0. -1.
         -2    1    3    3    0  502 -0.38377626662E+02 -0.41552251386E+01 -0.25542023959E+02  0.46287180862E+02  0.00000000000E+00 0.  1.
<mgrwt>
<rscale>  0 0.91645193E+02</rscale>
<asrwt>0</asrwt>
<pdfrwt beam="2">  1        1 0.23961670E-01 0.91645193E+02</pdfrwt>
<pdfrwt beam="1">  1       -1 0.20740327E-02 0.91645193E+02</pdfrwt>
<totfact> 0.11136359E+05</totfact>
</mgrwt>
</event>
<event>
 5    1  0.3858870E+001  0.9055224E+02  0.7546771E-02  0.1301520E+00
          1   -1    0    0  501    0  0.00000000000E+00  0.00000000000E+00  0.26297573251E+02  0.26297573251E+02  0.00000000000E+00 0. -1.
         -1   -1    0    0    0  501 -0.00000000000E+00 -0.00000000000E+00 -0.77951182672E+02  0.77951182672E+02  0.00000000000E+00 0.  1.
         23    2    1    2    0    0  0.00000000000E+00  0.00000000000E+00 -0.51653609421E+02  0.10424875592E+03  0.90552237660E+02 0.  0.
          2    1    3    3  502    0 -0.13617986901E+02  0.38367082201E+02 -0.30201941323E+01  0.40824063204E+02  0.00000000000E+00 0. -1.
         -2    1    3    3    0  502  0.13617986901E+02 -0.38367082201E+02 -0.48633415289E+02  0.63424692719E+02  0.00000000000E+00 0.  1.
<mgrwt>
<rscale>  0 0.90552238E+02</rscale>
<asrwt>0</asrwt>
<pdfrwt beam="1">  1        1 0.40457805E-02 0.90552238E+02</pdfrwt>
<pdfrwt beam="2">  1       -1 0.11992490E-01 0.90552238E+02</pdfrwt>
<totfact> 0.86528144E+04</totfact>
</mgrwt>
</event>
<event>
 5    1  0.3858870E+001  0.8993892E+02  0.7546771E-02  0.1303000E+00
         -3   -1    0    0    0  501 -0.00000000000E+00  0.00000000000E+00  0.32741528474E+03  0.32741528474E+03  0.00000000000E+00 0.  1.
          3   -1    0    0  501    0  0.00000000000E+00 -0.00000000000E+00 -0.61764140829E+01  0.61764140829E+01  0.00000000000E+00 0. -1.
         23    2    1    2    0    0  0.00000000000E+00  0.00000000000E+00  0.32123887066E+03  0.33359169882E+03  0.89938920955E+02 0.  0.
          2    1    3    3  502    0  0.42547785738E+02 -0.14401684340E+02  0.15272526085E+03  0.15919399450E+03  0.00000000000E+00 0. -1.
         -2    1    3    3    0  502 -0.42547785738E+02  0.14401684340E+02  0.16851360981E+03  0.17439770433E+03  0.00000000000E+00 0.  1.
<mgrwt>
<rscale>  0 0.89938921E+02</rscale>
<asrwt>0</asrwt>
<pdfrwt beam="2">  1        3 0.95021780E-03 0.89938921E+02</pdfrwt>
<pdfrwt beam="1">  1       -3 0.50371569E-01 0.89938921E+02</pdfrwt>
<totfact> 0.23625676E+04</totfact>
</mgrwt>
</event>
<event>
 5    1  0.3858870E+001  0.8787072E+02  0.7546771E-02  0.1308092E+00
          2   -1    0    0  501    0  0.00000000000E+00  0.00000000000E+00  0.46615513756E+02  0.46615513756E+02  0.00000000000E+00 0. -1.
         -2   -1    0    0    0  501 -0.00000000000E+00 -0.00000000000E+00 -0.41409299286E+02  0.41409299286E+02  0.00000000000E+00 0.  1.
         23    2    1    2    0    0  0.00000000000E+00  0.00000000000E+00  0.52062144704E+01  0.88024813042E+02  0.87870717774E+02 0.  0.
          2    1    3    3  502    0 -0.34053511067E+02 -0.25045567109E+02  0.14598818179E+02  0.44721891060E+02  0.00000000000E+00 0. -1.
         -2    1    3    3    0  502  0.34053511067E+02  0.25045567109E+02 -0.93926037086E+01  0.43302921982E+02  0.00000000000E+00 0.  1.
<mgrwt>
<rscale>  0 0.87870718E+02</rscale>
<asrwt>0</asrwt>
<pdfrwt beam="1">  1        2 0.71716175E-02 0.87870718E+02</pdfrwt>
<pdfrwt beam="2">  1       -2 0.63706614E-02 0.87870718E+02</pdfrwt>
<totfact> 0.11027411E+05</totfact>
</mgrwt>
</event>
<event>
 5    1  0.3858870E+001  0.9124804E+02  0.7546771E-02  0.1299857E+00
         -4   -1    0    0    0  501 -0.00000000000E+00  0.00000000000E+00  0.22815678779E+03  0.22815678779E+03  0.00000000000E+00 0.  1.
          4   -1    0    0  501    0  0.00000000000E+00 -0.00000000000E+00 -0.91233357893E+01  0.91233357893E+01  0.00000000000E+00 0. -1.
         23    2    1    2    0    0  0.00000000000E+00  0.00000000000E+00  0.21903345200E+03  0.23728012358E+03  0.91248035324E+02 0.  0.
          2    1    3    3  502    0  0.37774235885E+02 -0.24968510154E+02  0.94984407884E+02  0.10522526853E+03  0.00000000000E+00 0.  1.
         -2    1    3    3    0  502 -0.37774235885E+02  0.24968510154E+02  0.12404904412E+03  0.13205485505E+03  0.00000000000E+00 0. -1.
<mgrwt>
<rscale>  0 0.91248035E+02</rscale>
<asrwt>0</asrwt>
<pdfrwt beam="2">  1        4 0.14035903E-02 0.91248035E+02</pdfrwt>
<pdfrwt beam="1">  1       -4 0.35101040E-01 0.91248035E+02</pdfrwt>
<totfact> 0.19881926E+04</totfact>
</mgrwt>
</event>
<event>
 5    1  0.3858870E+001  0.9087101E+02  0.7546771E-02  0.1300756E+00
          2   -1    0    0  501    0  0.00000000000E+00  0.00000000000E+00  0.21640769470E+04  0.21640769470E+04  0.00000000000E+00 0.  1.
         -2   -1    0    0    0  501 -0.00000000000E+00 -0.00000000000E+00 -0.95393337561E+00  0.95393337561E+00  0.00000000000E+00 0. -1.
         23    2    1    2    0    0  0.00000000000E+00  0.00000000000E+00  0.21631230136E+04  0.21650308803E+04  0.90871012476E+02 0.  0.
          2    1    3    3  502    0  0.13951593979E+02 -0.29400083513E+02  0.32611727241E+03  0.32773691774E+03  0.00000000000E+00 0. -1.
         -2    1    3    3    0  502 -0.13951593979E+02  0.29400083513E+02  0.18370057412E+04  0.18372939626E+04  0.00000000000E+00 0.  1.
<mgrwt>
<rscale>  0 0.90871012E+02</rscale>
<asrwt>0</asrwt>
<pdfrwt beam="1">  1        2 0.33293098E+00 0.90871012E+02</pdfrwt>
<pdfrwt beam="2">  1       -2 0.14676071E-03 0.90871012E+02</pdfrwt>
<totfact> 0.18297250E+05</totfact>
</mgrwt>
</event>
<event>
 5    1  0.3858870E+001  0.8881545E+02  0.7546771E-02  0.1305746E+00
         -4   -1    0    0    0  501 -0.00000000000E+00  0.00000000000E+00  0.79276728581E+01  0.79276728581E+01  0.00000000000E+00 0.  1.
          4   -1    0    0  501    0  0.00000000000E+00 -0.00000000000E+00 -0.24875469731E+03  0.24875469731E+03  0.00000000000E+00 0. -1.
         23    2    1    2    0    0  0.00000000000E+00  0.00000000000E+00 -0.24082702445E+03  0.25668237017E+03  0.88815446003E+02 0.  0.
          2    1    3    3  502    0  0.13216265663E+02 -0.23306026693E+02 -0.18062567344E+02  0.32312488256E+02  0.00000000000E+00 0.  1.
         -2    1    3    3    0  502 -0.13216265663E+02  0.23306026693E+02 -0.22276445711E+03  0.22436988191E+03  0.00000000000E+00 0. -1.
<mgrwt>
<rscale>  0 0.88815446E+02</rscale>
<asrwt>0</asrwt>
<pdfrwt beam="2">  1        4 0.38269950E-01 0.88815446E+02</pdfrwt>
<pdfrwt beam="1">  1       -4 0.12196421E-02 0.88815446E+02</pdfrwt>
<totfact> 0.20617426E+04</totfact>
</mgrwt>
</event>
<event>
 5    1  0.3858870E+001  0.8244367E+02  0.7546771E-02  0.1322256E+00
         -3   -1    0    0    0  501 -0.00000000000E+00  0.00000000000E+00  0.97252125793E+02  0.97252125793E+02  0.00000000000E+00 0.  1.
          3   -1    0    0  501    0  0.00000000000E+00 -0.00000000000E+00 -0.17472520088E+02  0.17472520088E+02  0.00000000000E+00 0. -1.
         23    2    1    2    0    0  0.00000000000E+00  0.00000000000E+00  0.79779605705E+02  0.11472464588E+03  0.82443670988E+02 0.  0.
          2    1    3    3  502    0  0.15871883550E+02 -0.23580032968E+02  0.81434212801E+02  0.86252337108E+02  0.00000000000E+00 0.  1.
         -2    1    3    3    0  502 -0.15871883550E+02  0.23580032968E+02 -0.16546070961E+01  0.28472308772E+02  0.00000000000E+00 0. -1.
<mgrwt>
<rscale>  0 0.82443671E+02</rscale>
<asrwt>0</asrwt>
<pdfrwt beam="2">  1        3 0.26880801E-02 0.82443671E+02</pdfrwt>
<pdfrwt beam="1">  1       -3 0.14961865E-01 0.82443671E+02</pdfrwt>
<totfact> 0.44102864E+04</totfact>
</mgrwt>
</event>
<event>
 5    1  0.3858870E+001  0.9082306E+02  0.7546771E-02  0.1300871E+00
         -4   -1    0    0    0  501 -0.00000000000E+00  0.00000000000E+00  0.30093006711E+02  0.30093006711E+02  0.00000000000E+00 0.  1.
          4   -1    0    0  501    0  0.00000000000E+00 -0.00000000000E+00 -0.68527778592E+02  0.68527778592E+02  0.00000000000E+00 0. -1.
         23    2    1    2    0    0  0.00000000000E+00  0.00000000000E+00 -0.38434771881E+02  0.98620785302E+02  0.90823056567E+02 0.  0.
          2    1    3    3  502    0 -0.10514961740E+02  0.39390390829E+02 -0.40935586037E+02  0.57774471129E+02  0.00000000000E+00 0. -1.
         -2    1    3    3    0  502  0.10514961740E+02 -0.39390390829E+02  0.25008141560E+01  0.40846314173E+02  0.00000000000E+00 0.  1.
<mgrwt>
<rscale>  0 0.90823057E+02</rscale>
<asrwt>0</asrwt>
<pdfrwt beam="2">  1        4 0.10542735E-01 0.90823057E+02</pdfrwt>
<pdfrwt beam="1">  1       -4 0.46296933E-02 0.90823057E+02</pdfrwt>
<totfact> 0.26824921E+04</totfact>
</mgrwt>
</event>
<event>
 5    1  0.3858870E+001  0.9304773E+02  0.7546771E-02  0.1295635E+00
         -3   -1    0    0    0  501 -0.00000000000E+00  0.00000000000E+00  0.10536382974E+03  0.10536382974E+03  0.00000000000E+00 0.  1.
          3   -1    0    0  501    0  0.00000000000E+00 -0.00000000000E+00 -0.20542820435E+02  0.20542820435E+02  0.00000000000E+00 0. -1.
         23    2    1    2    0    0  0.00000000000E+00  0.00000000000E+00  0.84821009305E+02  0.12590665017E+03  0.93047734731E+02 0.  0.
          2    1    3    3  502    0  0.36446484934E+02  0.13271979704E+02  0.77172745728E+02  0.86372011627E+02  0.00000000000E+00 0.  1.
         -2    1    3    3    0  502 -0.36446484934E+02 -0.13271979704E+02  0.76482635763E+01  0.39534638547E+02  0.00000000000E+00 0. -1.
<mgrwt>
<rscale>  0 0.93047735E+02</rscale>
<asrwt>0</asrwt>
<pdfrwt beam="2">  1        3 0.31604339E-02 0.93047735E+02</pdfrwt>
<pdfrwt beam="1">  1       -3 0.16209820E-01 0.93047735E+02</pdfrwt>
<totfact> 0.31081960E+04</totfact>
</mgrwt>
</event>
<event>
 5    1  0.3858870E+001  0.9436462E+02  0.7546771E-02  0.1292614E+00
         -2   -1    0    0    0  501 -0.00000000000E+00  0.00000000000E+00  0.89205140879E+02  0.89205140879E+02  0.00000000000E+00 0.  1.
          2   -1    0    0  501    0  0.00000000000E+00 -0.00000000000E+00 -0.24955627270E+02  0.24955627270E+02  0.00000000000E+00 0. -1.
         23    2    1    2    0    0  0.00000000000E+00  0.00000000000E+00  0.64249513609E+02  0.11416076815E+03  0.94364617232E+02 0.  0.
          2    1    3    3  502    0  0.27144726738E+02 -0.38012239667E+02  0.24063231129E+02  0.52543369196E+02  0.00000000000E+00 0. -1.
         -2    1    3    3    0  502 -0.27144726738E+02  0.38012239667E+02  0.40186282480E+02  0.61617398953E+02  0.00000000000E+00 0.  1.
<mgrwt>
<rscale>  0 0.94364617E+02</rscale>
<asrwt>0</asrwt>
<pdfrwt beam="2">  1        2 0.38393273E-02 0.94364617E+02</pdfrwt>
<pdfrwt beam="1">  1       -2 0.13723868E-01 0.94364617E+02</pdfrwt>
<totfact> 0.75789035E+04</totfact>
</mgrwt>
</event>
<event>
 5    1  0.3858870E+001  0.9147028E+02  0.7546771E-02  0.1299330E+00
         -2   -1    0    0    0  501 -0.00000000000E+00  0.00000000000E+00  0.73383958916E+01  0.73383958916E+01  0.00000000000E+00 0.  1.
          2   -1    0    0  501    0  0.00000000000E+00 -0.00000000000E+00 -0.28503546621E+03  0.28503546621E+03  0.00000000000E+00 0. -1.
         23    2    1    2    0    0  0.00000000000E+00  0.00000000000E+00 -0.27769707032E+03  0.29237386210E+03  0.91470281385E+02 0.  0.
          2    1    3    3  502    0 -0.18761345078E+02  0.23501499878E+02 -0.24899131955E+03  0.25080068935E+03  0.00000000000E+00 0. -1.
         -2    1    3    3    0  502  0.18761345078E+02 -0.23501499878E+02 -0.28705750767E+02  0.41573172753E+02  0.00000000000E+00 0.  1.
<mgrwt>
<rscale>  0 0.91470281E+02</rscale>
<asrwt>0</asrwt>
<pdfrwt beam="2">  1        2 0.43851610E-01 0.91470281E+02</pdfrwt>
<pdfrwt beam="1">  1       -2 0.11289840E-02 0.91470281E+02</pdfrwt>
<totfact> 0.17475803E+05</totfact>
</mgrwt>
</event>
<event>
 5    1  0.3858870E+001  0.9092944E+02  0.7546771E-02  0.1300616E+00
         -1   -1    0    0    0  501 -0.00000000000E+00  0.00000000000E+00  0.16309873508E+03  0.16309873508E+03  0.00000000000E+00 0.  1.
          1   -1    0    0  501    0  0.00000000000E+00 -0.00000000000E+00 -0.12673554950E+02  0.12673554950E+02  0.00000000000E+00 0. -1.
         23    2    1    2    0    0  0.00000000000E+00  0.00000000000E+00  0.15042518013E+03  0.17577229003E+03  0.90929440367E+02 0.  0.
          2    1    3    3  502    0  0.54971836906E+01 -0.36226606158E+02  0.23182865407E+02  0.43359327378E+02  0.00000000000E+00 0. -1.
         -2    1    3    3    0  502 -0.54971836906E+01  0.36226606158E+02  0.12724231472E+03  0.13241296265E+03  0.00000000000E+00 0.  1.
<mgrwt>
<rscale>  0 0.90929440E+02</rscale>
<asrwt>0</asrwt>
<pdfrwt beam="2">  1        1 0.19497778E-02 0.90929440E+02</pdfrwt>
<pdfrwt beam="1">  1       -1 0.25092112E-01 0.90929440E+02</pdfrwt>
<totfact> 0.73816083E+04</totfact>
</mgrwt>
</event>
<event>
 5    1  0.3858870E+001  0.9078406E+02  0.7546771E-02  0.1300964E+00
         -3   -1    0    0    0  501 -0.00000000000E+00  0.00000000000E+00  0.16464567515E+02  0.16464567515E+02  0.00000000000E+00 0.  1.
          3   -1    0    0  501    0  0.00000000000E+00 -0.00000000000E+00 -0.12514367266E+03  0.12514367266E+03  0.00000000000E+00 0. -1.
         23    2    1    2    0    0  0.00000000000E+00  0.00000000000E+00 -0.10867910514E+03  0.14160824017E+03  0.90784061321E+02 0.  0.
          2    1    3    3  502    0  0.21217911581E+02 -0.31907700742E+02 -0.92296335622E+02  0.99934552121E+02  0.00000000000E+00 0. -1.
         -2    1    3    3    0  502 -0.21217911581E+02  0.31907700742E+02 -0.16382769520E+02  0.41673688049E+02  0.00000000000E+00 0.  1.
<mgrwt>
<rscale>  0 0.90784061E+02</rscale>
<asrwt>0</asrwt>
<pdfrwt beam="2">  1        3 0.19252873E-01 0.90784061E+02</pdfrwt>
<pdfrwt beam="1">  1       -3 0.25330104E-02 0.90784061E+02</pdfrwt>
<totfact> 0.32202654E+04</totfact>
</mgrwt>
</event>
<event>
 5    1  0.3858870E+001  0.8447784E+02  0.7546771E-02  0.1316804E+00
         -1   -1    0    0    0  501 -0.00000000000E+00  0.00000000000E+00  0.21674503330E+02  0.21674503330E+02  0.00000000000E+00 0.  1.
          1   -1    0    0  501    0  0.00000000000E+00 -0.00000000000E+00 -0.82314520823E+02  0.82314520823E+02  0.00000000000E+00 0. -1.
         23    2    1    2    0    0  0.00000000000E+00  0.00000000000E+00 -0.60640017492E+02  0.10398902415E+03  0.84477839833E+02 0.  0.
          2    1    3    3  502    0 -0.36603551429E+02 -0.66693530388E+01 -0.54933900009E+02  0.66347823004E+02  0.00000000000E+00 0. -1.
         -2    1    3    3    0  502  0.36603551429E+02  0.66693530388E+01 -0.57061174828E+01  0.37641201148E+02  0.00000000000E+00 0.  1.
<mgrwt>
<rscale>  0 0.84477840E+02</rscale>
<asrwt>0</asrwt>
<pdfrwt beam="2">  1        1 0.12663772E-01 0.84477840E+02</pdfrwt>
<pdfrwt beam="1">  1       -1 0.33345390E-02 0.84477840E+02</pdfrwt>
<totfact> 0.12460301E+05</totfact>
</mgrwt>
</event>
<event>
 5    1  0.3858870E+001  0.9116072E+02  0.7546771E-02  0.1300065E+00
         -2   -1    0    0    0  501 -0.00000000000E+00  0.00000000000E+00  0.16535387247E+02  0.16535387247E+02  0.00000000000E+00 0.  1.
          2   -1    0    0  501    0  0.00000000000E+00 -0.00000000000E+00 -0.12564382180E+03  0.12564382180E+03  0.00000000000E+00 0. -1.
         23    2    1    2    0    0  0.00000000000E+00  0.00000000000E+00 -0.10910843455E+03  0.14217920905E+03  0.91160720679E+02 0.  0.
          2    1    3    3  502    0  0.66485973900E+01  0.45089567917E+02 -0.55403142815E+02  0.71741070636E+02  0.00000000000E+00 0. -1.
         -2    1    3    3    0  502 -0.66485973900E+01 -0.45089567917E+02 -0.53705291736E+02  0.70438138410E+02  0.00000000000E+00 0.  1.
<mgrwt>
<rscale>  0 0.91160721E+02</rscale>
<asrwt>0</asrwt>
<pdfrwt beam="2">  1        2 0.19329819E-01 0.91160721E+02</pdfrwt>
<pdfrwt beam="1">  1       -2 0.25439057E-02 0.91160721E+02</pdfrwt>
<totfact> 0.13186885E+05</totfact>
</mgrwt>
</event>
<event>
 5    1  0.3858870E+001  0.9169238E+02  0.7546771E-02  0.1298804E+00
         -2   -1    0    0    0  501 -0.00000000000E+00  0.00000000000E+00  0.25013614514E+03  0.25013614514E+03  0.00000000000E+00 0.  1.
          2   -1    0    0  501    0  0.00000000000E+00 -0.00000000000E+00 -0.84029171828E+01  0.84029171828E+01  0.00000000000E+00 0. -1.
         23    2    1    2    0    0  0.00000000000E+00  0.00000000000E+00  0.24173322796E+03  0.25853906233E+03  0.91692383807E+02 0.  0.
          2    1    3    3  502    0 -0.26494803362E+01 -0.38894173571E+02  0.52838172384E+02  0.65663147539E+02  0.00000000000E+00 0. -1.
         -2    1    3    3    0  502  0.26494803362E+01  0.38894173571E+02  0.18889505558E+03  0.19287591479E+03  0.00000000000E+00 0.  1.
<mgrwt>
<rscale>  0 0.91692384E+02</rscale>
<asrwt>0</asrwt>
<pdfrwt beam="2">  1        2 0.12927567E-02 0.91692384E+02</pdfrwt>
<pdfrwt beam="1">  1       -2 0.38482478E-01 0.91692384E+02</pdfrwt>
<totfact> 0.55354124E+04</totfact>
</mgrwt>
</event>
<event>
 5    1  0.3858870E+001  0.9251300E+02  0.7546771E-02  0.1296878E+00
         -2   -1    0    0    0  501 -0.00000000000E+00  0.00000000000E+00  0.21721170375E+01  0.21721170375E+01  0.00000000000E+00 0.  1.
          2   -1    0    0  501    0  0.00000000000E+00 -0.00000000000E+00 -0.98505913141E+03  0.98505913141E+03  0.00000000000E+00 0. -1.
         23    2    1    2    0    0  0.00000000000E+00  0.00000000000E+00 -0.98288701437E+03  0.98723124844E+03  0.92512998486E+02 0.  0.
          2    1    3    3  502    0 -0.13145367365E+02  0.21249908518E+02 -0.76043899381E+02  0.80043949979E+02  0.00000000000E+00 0.  1.
         -2    1    3    3    0  502  0.13145367365E+02 -0.21249908518E+02 -0.90684311499E+03  0.90718729846E+03  0.00000000000E+00 0. -1.
<mgrwt>
<rscale>  0 0.92512998E+02</rscale>
<asrwt>0</asrwt>
<pdfrwt beam="2">  1        2 0.15154755E+00 0.92512998E+02</pdfrwt>
<pdfrwt beam="1">  1       -2 0.33417188E-03 0.92512998E+02</pdfrwt>
<totfact> 0.24043399E+05</totfact>
</mgrwt>
</event>
<event>
 5    1  0.3858870E+001  0.9000640E+02  0.7546771E-02  0.1302836E+00
         -4   -1    0    0    0  501 -0.00000000000E+00  0.00000000000E+00  0.20173723278E+02  0.20173723278E+02  0.00000000000E+00 0.  1.
          4   -1    0    0  501    0  0.00000000000E+00 -0.00000000000E+00 -0.10039237401E+03  0.10039237401E+03  0.00000000000E+00 0. -1.
         23    2    1    2    0    0  0.00000000000E+00  0.00000000000E+00 -0.80218650731E+02  0.12056609729E+03  0.90006399162E+02 0.  0.
          2    1    3    3  502    0  0.25548502681E+02  0.35137571209E+02 -0.55840260242E+02  0.70749625890E+02  0.00000000000E+00 0. -1.
         -2    1    3    3    0  502 -0.25548502681E+02 -0.35137571209E+02 -0.24378390489E+02  0.49816471398E+02  0.00000000000E+00 0.  1.
<mgrwt>
<rscale>  0 0.90006399E+02</rscale>
<asrwt>0</asrwt>
<pdfrwt beam="2">  1        4 0.15444981E-01 0.90006399E+02</pdfrwt>
<pdfrwt beam="1">  1       -4 0.31036498E-02 0.90006399E+02</pdfrwt>
<totfact> 0.26134955E+04</totfact>
</mgrwt>
</event>
<event>
 5    1  0.3858870E+001  0.8960189E+02  0.7546771E-02  0.1303819E+00
         -1   -1    0    0    0  501 -0.00000000000E+00  0.00000000000E+00  0.41860664565E+02  0.41860664565E+02  0.00000000000E+00 0.  1.
          1   -1    0    0  501    0  0.00000000000E+00 -0.00000000000E+00 -0.47947754705E+02  0.47947754705E+02  0.00000000000E+00 0. -1.
         23    2    1    2    0    0  0.00000000000E+00  0.00000000000E+00 -0.60870901399E+01  0.89808419270E+02  0.89601894542E+02 0.  0.
          2    1    3    3  502    0 -0.77935851547E+01  0.20744852518E+02 -0.42069596913E+02  0.47549341320E+02  0.00000000000E+00 0. -1.
         -2    1    3    3    0  502  0.77935851547E+01 -0.20744852518E+02  0.35982506773E+02  0.42259077950E+02  0.00000000000E+00 0.  1.
<mgrwt>
<rscale>  0 0.89601895E+02</rscale>
<asrwt>0</asrwt>
<pdfrwt beam="2">  1        1 0.73765777E-02 0.89601895E+02</pdfrwt>
<pdfrwt beam="1">  1       -1 0.64401022E-02 0.89601895E+02</pdfrwt>
<totfact> 0.97824706E+04</totfact>
</mgrwt>
</event>
<event>
 5    1  0.3858870E+001  0.8723637E+02  0.7546771E-02  0.1309686E+00
         -2   -1    0    0    0  501 -0.00000000000E+00  0.00000000000E+00  0.54794317232E+01  0.54794317232E+01  0.00000000000E+00 0.  1.
          2   -1    0    0  501    0  0.00000000000E+00 -0.00000000000E+00 -0.34721594964E+03  0.34721594964E+03  0.00000000000E+00 0. -1.
         23    2    1    2    0    0  0.00000000000E+00  0.00000000000E+00 -0.34173651792E+03  0.35269538136E+03  0.87236370609E+02 0.  0.
          2    1    3    3  502    0 -0.70553941799E+01  0.31994087620E+02 -0.28728559358E+03  0.28914773474E+03  0.00000000000E+00 0. -1.
         -2    1    3    3    0  502  0.70553941799E+01 -0.31994087620E+02 -0.54450924341E+02  0.63547646622E+02  0.00000000000E+00 0.  1.
<mgrwt>
<rscale>  0 0.87236371E+02</rscale>
<asrwt>0</asrwt>
<pdfrwt beam="2">  1        2 0.53417848E-01 0.87236371E+02</pdfrwt>
<pdfrwt beam="1">  1       -2 0.84298934E-03 0.87236371E+02</pdfrwt>
<totfact> 0.21322645E+05</totfact>
</mgrwt>
</event>
<event>
 5    1  0.3858870E+001  0.9165564E+02  0.7546771E-02  0.1298891E+00
         -3   -1    0    0    0  501 -0.00000000000E+00  0.00000000000E+00  0.96447015226E+01  0.96447015226E+01  0.00000000000E+00 0.  1.
          3   -1    0    0  501    0  0.00000000000E+00 -0.00000000000E+00 -0.21775574740E+03  0.21775574740E+03  0.00000000000E+00 0. -1.
         23    2    1    2    0    0  0.00000000000E+00  0.00000000000E+00 -0.20811104588E+03  0.22740044892E+03  0.91655642238E+02 0.  0.
          2    1    3    3  502    0 -0.26200616980E+01 -0.44710911920E+02 -0.12814309980E+03  0.13574455567E+03  0.00000000000E+00 0. -1.
         -2    1    3    3    0  502  0.26200616980E+01  0.44710911920E+02 -0.79967946083E+02  0.91655893256E+02  0.00000000000E+00 0.  1.
<mgrwt>
<rscale>  0 0.91655642E+02</rscale>
<asrwt>0</asrwt>
<pdfrwt beam="2">  1        3 0.33500882E-01 0.91655642E+02</pdfrwt>
<pdfrwt beam="1">  1       -3 0.14838003E-02 0.91655642E+02</pdfrwt>
<totfact> 0.26760470E+04</totfact>
</mgrwt>
</event>
<event>
 5    1  0.3858870E+001  0.9379125E+02  0.7546771E-02  0.1293922E+00
          3   -1    0    0  501    0  0.00000000000E+00  0.00000000000E+00  0.31494436316E+02  0.31494436316E+02  0.00000000000E+00 0. -1.
         -3   -1    0    0    0  501 -0.00000000000E+00 -0.00000000000E+00 -0.69828194765E+02  0.69828194765E+02  0.00000000000E+00 0.  1.
         23    2    1    2    0    0  0.00000000000E+00  0.00000000000E+00 -0.38333758449E+02  0.10132263108E+03  0.93791249765E+02 0.  0.
          2    1    3    3  502    0 -0.31853794097E+02 -0.33791105264E+02 -0.26225843514E+02  0.53331959099E+02  0.00000000000E+00 0. -1.
         -2    1    3    3    0  502  0.31853794097E+02  0.33791105264E+02 -0.12107914935E+02  0.47990671983E+02  0.00000000000E+00 0.  1.
<mgrwt>
<rscale>  0 0.93791250E+02</rscale>
<asrwt>0</asrwt>
<pdfrwt beam="1">  1        3 0.48452979E-02 0.93791250E+02</pdfrwt>
<pdfrwt beam="2">  1       -3 0.10742799E-01 0.93791250E+02</pdfrwt>
<totfact> 0.32006122E+04</totfact>
</mgrwt>
</event>
<event>
 5    1  0.3858870E+001  0.8713928E+02  0.7546771E-02  0.1309931E+00
          2   -1    0    0  501    0  0.00000000000E+00  0.00000000000E+00  0.59087682876E+03  0.59087682876E+03  0.00000000000E+00 0. -1.
         -2   -1    0    0    0  501 -0.00000000000E+00 -0.00000000000E+00 -0.32127060414E+01  0.32127060414E+01  0.00000000000E+00 0.  1.
         23    2    1    2    0    0  0.00000000000E+00  0.00000000000E+00  0.58766412271E+03  0.59408953480E+03  0.87139280637E+02 0.  0.
          2    1    3    3  502    0  0.17804421212E+01  0.41310625514E+02  0.20020941462E+03  0.20443470218E+03  0.00000000000E+00 0.  1.
         -2    1    3    3    0  502 -0.17804421212E+01 -0.41310625514E+02  0.38745470810E+03  0.38965483261E+03  0.00000000000E+00 0. -1.
<mgrwt>
<rscale>  0 0.87139281E+02</rscale>
<asrwt>0</asrwt>
<pdfrwt beam="1">  1        2 0.90904041E-01 0.87139281E+02</pdfrwt>
<pdfrwt beam="2">  1       -2 0.49426294E-03 0.87139281E+02</pdfrwt>
<totfact> 0.25560968E+05</totfact>
</mgrwt>
</event>
<event>
 5    1  0.3858870E+001  0.8909936E+02  0.7546771E-02  0.1305047E+00
         -1   -1    0    0    0  501 -0.00000000000E+00  0.00000000000E+00  0.74833489988E+02  0.74833489988E+02  0.00000000000E+00 0.  1.
          1   -1    0    0  501    0  0.00000000000E+00 -0.00000000000E+00 -0.26521200938E+02  0.26521200938E+02  0.00000000000E+00 0. -1.
         23    2    1    2    0    0  0.00000000000E+00  0.00000000000E+00  0.48312289049E+02  0.10135469093E+03  0.89099360825E+02 0.  0.
          2    1    3    3  502    0 -0.29019095903E+02  0.77297656164E+01 -0.13276176952E+02  0.32834647523E+02  0.00000000000E+00 0. -1.
         -2    1    3    3    0  502  0.29019095903E+02 -0.77297656164E+01  0.61588466001E+02  0.68520043402E+02  0.00000000000E+00 0.  1.
<mgrwt>
<rscale>  0 0.89099361E+02</rscale>
<asrwt>0</asrwt>
<pdfrwt beam="2">  1        1 0.40801848E-02 0.89099361E+02</pdfrwt>
<pdfrwt beam="1">  1       -1 0.11512845E-01 0.89099361E+02</pdfrwt>
<totfact> 0.90785939E+04</totfact>
</mgrwt>
</event>
<event>
 5    1  0.3858870E+001  0.8675175E+02  0.7546771E-02  0.1310914E+00
         -2   -1    0    0    0  501 -0.00000000000E+00  0.00000000000E+00  0.13324427209E+03  0.13324427209E+03  0.00000000000E+00 0.  1.
          2   -1    0    0  501    0  0.00000000000E+00 -0.00000000000E+00 -0.14120430215E+02  0.14120430215E+02  0.00000000000E+00 0. -1.
         23    2    1    2    0    0  0.00000000000E+00  0.00000000000E+00  0.11912384188E+03  0.14736470231E+03  0.86751748007E+02 0.  0.
          2    1    3    3  502    0  0.20718904341E+02 -0.25333653131E+02  0.11204312960E+02  0.34591958704E+02  0.00000000000E+00 0. -1.
         -2    1    3    3    0  502 -0.20718904341E+02  0.25333653131E+02  0.10791952892E+03  0.11277274360E+03  0.00000000000E+00 0.  1.
<mgrwt>
<rscale>  0 0.86751748E+02</rscale>
<asrwt>0</asrwt>
<pdfrwt beam="2">  1        2 0.21723740E-02 0.86751748E+02</pdfrwt>
<pdfrwt beam="1">  1       -2 0.20499118E-01 0.86751748E+02</pdfrwt>
<totfact> 0.82556836E+04</totfact>
</mgrwt>
</event>
<event>
 5    1  0.3858870E+001  0.9204459E+02  0.7546771E-02  0.1297975E+00
          1   -1    0    0  501    0  0.00000000000E+00  0.00000000000E+00  0.22414392432E+03  0.22414392432E+03  0.00000000000E+00 0. -1.
         -1   -1    0    0    0  501 -0.00000000000E+00 -0.00000000000E+00 -0.94495156113E+01  0.94495156113E+01  0.00000000000E+00 0.  1.
         23    2    1    2    0    0  0.00000000000E+00  0.00000000000E+00  0.21469440871E+03  0.23359343993E+03  0.92044587283E+02 0.  0.
          2    1    3    3  502    0  0.26326778151E+02  0.98698915042E+01  0.19981399564E+03  0.20178242456E+03  0.00000000000E+00 0. -1.
         -2    1    3    3    0  502 -0.26326778151E+02 -0.98698915042E+01  0.14880413069E+02  0.31811015376E+02  0.00000000000E+00 0.  1.
<mgrwt>
<rscale>  0 0.92044587E+02</rscale>
<asrwt>0</asrwt>
<pdfrwt beam="1">  1        1 0.34483677E-01 0.92044587E+02</pdfrwt>
<pdfrwt beam="2">  1       -1 0.14537718E-02 0.92044587E+02</pdfrwt>
<totfact> 0.11802913E+05</totfact>
</mgrwt>
</event>
<event>
 5    1  0.3858870E+001  0.9127741E+02  0.7546771E-02  0.1299787E+00
          2   -1    0    0  501    0  0.00000000000E+00  0.00000000000E+00  0.32390311842E+03  0.32390311842E+03  0.00000000000E+00 0. -1.
         -2   -1    0    0    0  501 -0.00000000000E+00 -0.00000000000E+00 -0.64305997274E+01  0.64305997274E+01  0.00000000000E+00 0.  1.
         23    2    1    2    0    0  0.00000000000E+00  0.00000000000E+00  0.31747251869E+03  0.33033371814E+03  0.91277408048E+02 0.  0.
          2    1    3    3  502    0  0.62903186752E+01  0.26771225585E+02  0.29055089762E+03  0.29184943162E+03  0.00000000000E+00 0. -1.
         -2    1    3    3    0  502 -0.62903186752E+01 -0.26771225585E+02  0.26921621068E+02  0.38484286524E+02  0.00000000000E+00 0.  1.
<mgrwt>
<rscale>  0 0.91277408E+02</rscale>
<asrwt>0</asrwt>
<pdfrwt beam="1">  1        2 0.49831236E-01 0.91277408E+02</pdfrwt>
<pdfrwt beam="2">  1       -2 0.98932329E-03 0.91277408E+02</pdfrwt>
<totfact> 0.18430542E+05</totfact>
</mgrwt>
</event>
<event>
 5    1  0.3858870E+001  0.9086252E+02  0.7546771E-02  0.1300776E+00
         -1   -1    0    0    0  501 -0.00000000000E+00  0.00000000000E+00  0.34446196571E+02  0.34446196571E+02  0.00000000000E+00 0.  1.
          1   -1    0    0  501    0  0.00000000000E+00 -0.00000000000E+00 -0.59919509884E+02  0.59919509884E+02  0.00000000000E+00 0. -1.
         23    2    1    2    0    0  0.00000000000E+00  0.00000000000E+00 -0.25473313313E+02  0.94365706455E+02  0.90862516274E+02 0.  0.
          2    1    3    3  502    0  0.45266314183E+02  0.11860563717E+01 -0.89132389734E+01  0.46150750356E+02  0.00000000000E+00 0. -1.
         -2    1    3    3    0  502 -0.45266314183E+02 -0.11860563717E+01 -0.16560074340E+02  0.48214956099E+02  0.00000000000E+00 0.  1.
<mgrwt>
<rscale>  0 0.90862516E+02</rscale>
<asrwt>0</asrwt>
<pdfrwt beam="2">  1        1 0.92183860E-02 0.90862516E+02</pdfrwt>
<pdfrwt beam="1">  1       -1 0.52994149E-02 0.90862516E+02</pdfrwt>
<totfact> 0.97278799E+04</totfact>
</mgrwt>
</event>
<event>
 5    1  0.3858870E+001  0.9275305E+02  0.7546771E-02  0.1296318E+00
          2   -1    0    0  501    0  0.00000000000E+00  0.00000000000E+00  0.81154489354E+03  0.81154489354E+03  0.00000000000E+00 0. -1.
         -2   -1    0    0    0  501 -0.00000000000E+00 -0.00000000000E+00 -0.26502315297E+01  0.26502315297E+01  0.00000000000E+00 0.  1.
         23    2    1    2    0    0  0.00000000000E+00  0.00000000000E+00  0.80889466201E+03  0.81419512507E+03  0.92753045548E+02 0.  0.
          2    1    3    3  502    0  0.59067732640E+01 -0.45457902726E+02  0.46618859975E+03  0.46843689161E+03  0.00000000000E+00 0. -1.
         -2    1    3    3    0  502 -0.59067732640E+01  0.45457902726E+02  0.34270606227E+03  0.34575823346E+03  0.00000000000E+00 0.  1.
<mgrwt>
<rscale>  0 0.92753046E+02</rscale>
<asrwt>0</asrwt>
<pdfrwt beam="1">  1        2 0.12485286E+00 0.92753046E+02</pdfrwt>
<pdfrwt beam="2">  1       -2 0.40772857E-03 0.92753046E+02</pdfrwt>
<totfact> 0.23354065E+05</totfact>
</mgrwt>
</event>
<event>
 5    1  0.3858870E+001  0.9213255E+02  0.7546771E-02  0.1297768E+00
          4   -1    0    0  501    0  0.00000000000E+00  0.00000000000E+00  0.99606756138E+01  0.99606756138E+01  0.00000000000E+00 0. -1.
         -4   -1    0    0    0  501 -0.00000000000E+00 -0.00000000000E+00 -0.21304798646E+03  0.21304798646E+03  0.00000000000E+00 0.  1.
         23    2    1    2    0    0  0.00000000000E+00  0.00000000000E+00 -0.20308731085E+03  0.22300866208E+03  0.92132554145E+02 0.  0.
          2    1    3    3  502    0 -0.89275715909E+01 -0.43385667260E+02 -0.70918176401E+02  0.83614624332E+02  0.00000000000E+00 0. -1.
         -2    1    3    3    0  502  0.89275715909E+01  0.43385667260E+02 -0.13216913445E+03  0.13939403775E+03  0.00000000000E+00 0.  1.
<mgrwt>
<rscale>  0 0.92132554E+02</rscale>
<asrwt>0</asrwt>
<pdfrwt beam="1">  1        4 0.15324114E-02 0.92132554E+02</pdfrwt>
<pdfrwt beam="2">  1       -4 0.32776618E-01 0.92132554E+02</pdfrwt>
<totfact> 0.19898407E+04</totfact>
</mgrwt>
</event>
<event>
 5    1  0.3858870E+001  0.9162051E+02  0.7546771E-02  0.1298974E+00
         -2   -1    0    0    0  501 -0.00000000000E+00  0.00000000000E+00  0.51913002189E+00  0.51913002189E+00  0.00000000000E+00 0.  1.
          2   -1    0    0  501    0  0.00000000000E+00 -0.00000000000E+00 -0.40424930906E+04  0.40424930906E+04  0.00000000000E+00 0. -1.
         23    2    1    2    0    0  0.00000000000E+00  0.00000000000E+00 -0.40419739605E+04  0.40430122206E+04  0.91620511384E+02 0.  0.
          2    1    3    3  502    0  0.32435971878E+02 -0.27199279006E+02 -0.27937737096E+04  0.27940943852E+04  0.00000000000E+00 0. -1.
         -2    1    3    3    0  502 -0.32435971878E+02  0.27199279006E+02 -0.12482002510E+04  0.12489178354E+04  0.00000000000E+00 0.  1.
<mgrwt>
<rscale>  0 0.91620511E+02</rscale>
<asrwt>0</asrwt>
<pdfrwt beam="2">  1        2 0.62186971E+00 0.91620511E+02</pdfrwt>
<pdfrwt beam="1">  1       -2 0.79872875E-04 0.91620511E+02</pdfrwt>
<totfact> 0.32040904E+04</totfact>
</mgrwt>
</event>
<event>
 5    1  0.3858870E+001  0.8322514E+02  0.7546771E-02  0.1320140E+00
          2   -1    0    0  501    0  0.00000000000E+00  0.00000000000E+00  0.13976487358E+04  0.13976487358E+04  0.00000000000E+00 0. -1.
         -2   -1    0    0    0  501 -0.00000000000E+00 -0.00000000000E+00 -0.12389421272E+01  0.12389421272E+01  0.00000000000E+00 0.  1.
         23    2    1    2    0    0  0.00000000000E+00  0.00000000000E+00  0.13964097937E+04  0.13988876779E+04  0.83225137976E+02 0.  0.
          2    1    3    3  502    0  0.42272610740E+01 -0.27556028190E+02  0.12174756603E+04  0.12177948053E+04  0.00000000000E+00 0. -1.
         -2    1    3    3    0  502 -0.42272610740E+01  0.27556028190E+02  0.17893413343E+03  0.18109287267E+03  0.00000000000E+00 0.  1.
<mgrwt>
<rscale>  0 0.83225138E+02</rscale>
<asrwt>0</asrwt>
<pdfrwt beam="1">  1        2 0.21502162E+00 0.83225138E+02</pdfrwt>
<pdfrwt beam="2">  1       -2 0.19060760E-03 0.83225138E+02</pdfrwt>
<totfact> 0.30681434E+05</totfact>
</mgrwt>
</event>
<event>
 5    1  0.3858870E+001  0.9634660E+02  0.7546771E-02  0.1288172E+00
         -4   -1    0    0    0  501 -0.00000000000E+00  0.00000000000E+00  0.85037857143E+02  0.85037857143E+02  0.00000000000E+00 0.  1.
          4   -1    0    0  501    0  0.00000000000E+00 -0.00000000000E+00 -0.27289808044E+02  0.27289808044E+02  0.00000000000E+00 0. -1.
         23    2    1    2    0    0  0.00000000000E+00  0.00000000000E+00  0.57748049099E+02  0.11232766519E+03  0.96346599274E+02 0.  0.
          2    1    3    3  502    0  0.24710751367E+02  0.38126757897E+02  0.47542372090E+02  0.65761295948E+02  0.00000000000E+00 0.  1.
         -2    1    3    3    0  502 -0.24710751367E+02 -0.38126757897E+02  0.10205677009E+02  0.46566369239E+02  0.00000000000E+00 0. -1.
<mgrwt>
<rscale>  0 0.96346599E+02</rscale>
<asrwt>0</asrwt>
<pdfrwt beam="2">  1        4 0.41984320E-02 0.96346599E+02</pdfrwt>
<pdfrwt beam="1">  1       -4 0.13082747E-01 0.96346599E+02</pdfrwt>
<totfact> 0.22134352E+04</totfact>
</mgrwt>
</event>
<event>
 5    1  0.3858870E+001  0.9701468E+02  0.7546771E-02  0.1286702E+00
          2   -1    0    0  501    0  0.00000000000E+00  0.00000000000E+00  0.32881795830E+02  0.32881795830E+02  0.00000000000E+00 0. -1.
         -2   -1    0    0    0  501 -0.00000000000E+00 -0.00000000000E+00 -0.71558201703E+02  0.71558201703E+02  0.00000000000E+00 0.  1.
         23    2    1    2    0    0  0.00000000000E+00  0.00000000000E+00 -0.38676405873E+02  0.10443999753E+03  0.97014682979E+02 0.  0.
          2    1    3    3  502    0 -0.47416994603E+02 -0.10091327583E+02 -0.17551049663E+02  0.51558176984E+02  0.00000000000E+00 0. -1.
         -2    1    3    3    0  502  0.47416994603E+02  0.10091327583E+02 -0.21125356209E+02  0.52881820549E+02  0.00000000000E+00 0.  1.
<mgrwt>
<rscale>  0 0.97014683E+02</rscale>
<asrwt>0</asrwt>
<pdfrwt beam="1">  1        2 0.50587379E-02 0.97014683E+02</pdfrwt>
<pdfrwt beam="2">  1       -2 0.11008954E-01 0.97014683E+02</pdfrwt>
<totfact> 0.75392485E+04</totfact>
</mgrwt>
</event>
<event>
 5    1  0.3858870E+001  0.9218251E+02  0.7546771E-02  0.1297651E+00
          3   -1    0    0  501    0  0.00000000000E+00  0.00000000000E+00  0.23919374994E+02  0.23919374994E+02  0.00000000000E+00 0. -1.
         -3   -1    0    0    0  501 -0.00000000000E+00 -0.00000000000E+00 -0.88815183673E+02  0.88815183673E+02  0.00000000000E+00 0.  1.
         23    2    1    2    0    0  0.00000000000E+00  0.00000000000E+00 -0.64895808679E+02  0.11273455867E+03  0.92182507743E+02 0.  0.
          2    1    3    3  502    0  0.24948582664E+02 -0.47353776406E+01  0.14592721982E+02  0.29288276036E+02  0.00000000000E+00 0. -1.
         -2    1    3    3    0  502 -0.24948582664E+02  0.47353776406E+01 -0.79488530660E+02  0.83446282631E+02  0.00000000000E+00 0.  1.
<mgrwt>
<rscale>  0 0.92182508E+02</rscale>
<asrwt>0</asrwt>
<pdfrwt beam="1">  1        3 0.36799038E-02 0.92182508E+02</pdfrwt>
<pdfrwt beam="2">  1       -3 0.13663875E-01 0.92182508E+02</pdfrwt>
<totfact> 0.32758902E+04</totfact>
</mgrwt>
</event>
<event>
 5    1  0.3858870E+001  0.7905653E+02  0.7546771E-02  0.1331750E+00
          1   -1    0    0  501    0  0.00000000000E+00  0.00000000000E+00  0.62623184523E+02  0.62623184523E+02  0.00000000000E+00 0. -1.
         -1   -1    0    0    0  501 -0.00000000000E+00 -0.00000000000E+00 -0.24950564895E+02  0.24950564895E+02  0.00000000000E+00 0.  1.
         23    2    1    2    0    0  0.00000000000E+00  0.00000000000E+00  0.37672619628E+02  0.87573749417E+02  0.79056532414E+02 0.  0.
          2    1    3    3  502    0  0.10820892441E+02  0.17521474159E+02  0.56211355328E+02  0.59864933289E+02  0.00000000000E+00 0. -1.
         -2    1    3    3    0  502 -0.10820892441E+02 -0.17521474159E+02 -0.18538735700E+02  0.27708816129E+02  0.00000000000E+00 0.  1.
<mgrwt>
<rscale>  0 0.79056532E+02</rscale>
<asrwt>0</asrwt>
<pdfrwt beam="1">  1        1 0.96343361E-02 0.79056532E+02</pdfrwt>
<pdfrwt beam="2">  1       -1 0.38385485E-02 0.79056532E+02</pdfrwt>
<totfact> 0.14336422E+05</totfact>
</mgrwt>
</event>
<event>
 5    1  0.3858870E+001  0.9262881E+02  0.7546771E-02  0.1296608E+00
         -3   -1    0    0    0  501 -0.00000000000E+00  0.00000000000E+00  0.19331704413E+02  0.19331704413E+02  0.00000000000E+00 0.  1.
          3   -1    0    0  501    0  0.00000000000E+00 -0.00000000000E+00 -0.11095886728E+03  0.11095886728E+03  0.00000000000E+00 0. -1.
         23    2    1    2    0    0  0.00000000000E+00  0.00000000000E+00 -0.91627162863E+02  0.13029057169E+03  0.92628808137E+02 0.  0.
          2    1    3    3  502    0 -0.38995760057E+02 -0.23603806721E+02 -0.34281701488E+02  0.57035463100E+02  0.00000000000E+00 0. -1.
         -2    1    3    3    0  502  0.38995760057E+02  0.23603806721E+02 -0.57345461376E+02  0.73255108590E+02  0.00000000000E+00 0.  1.
<mgrwt>
<rscale>  0 0.92628808E+02</rscale>
<asrwt>0</asrwt>
<pdfrwt beam="2">  1        3 0.17070595E-01 0.92628808E+02</pdfrwt>
<pdfrwt beam="1">  1       -3 0.29741083E-02 0.92628808E+02</pdfrwt>
<totfact> 0.31187390E+04</totfact>
</mgrwt>
</event>
<event>
 5    1  0.3858870E+001  0.9229921E+02  0.7546771E-02  0.1297377E+00
          2   -1    0    0  501    0  0.00000000000E+00  0.00000000000E+00  0.25873935673E+04  0.25873935673E+04  0.00000000000E+00 0. -1.
         -2   -1    0    0    0  501 -0.00000000000E+00 -0.00000000000E+00 -0.82313949549E+00  0.82313949549E+00  0.00000000000E+00 0.  1.
         23    2    1    2    0    0  0.00000000000E+00  0.00000000000E+00  0.25865704278E+04  0.25882167068E+04  0.92299205535E+02 0.  0.
          2    1    3    3  502    0  0.43133324316E+02 -0.73966074398E+01  0.88250472365E+03  0.88358914702E+03  0.00000000000E+00 0.  1.
         -2    1    3    3    0  502 -0.43133324316E+02  0.73966074398E+01  0.17040657041E+04  0.17046275598E+04  0.00000000000E+00 0. -1.
<mgrwt>
<rscale>  0 0.92299206E+02</rscale>
<asrwt>0</asrwt>
<pdfrwt beam="1">  1        2 0.39805404E+00 0.92299206E+02</pdfrwt>
<pdfrwt beam="2">  1       -2 0.12663892E-03 0.92299206E+02</pdfrwt>
<totfact> 0.13557826E+05</totfact>
</mgrwt>
</event>
<event>
 5    1  0.3858870E+001  0.1002281E+03  0.7546771E-02  0.1279817E+00
         -2   -1    0    0    0  501 -0.00000000000E+00  0.00000000000E+00  0.10331454836E+02  0.10331454836E+02  0.00000000000E+00 0.  1.
          2   -1    0    0  501    0  0.00000000000E+00 -0.00000000000E+00 -0.24308454372E+03  0.24308454372E+03  0.00000000000E+00 0. -1.
         23    2    1    2    0    0  0.00000000000E+00  0.00000000000E+00 -0.23275308888E+03  0.25341599856E+03  0.10022807960E+03 0.  0.
          2    1    3    3  502    0 -0.17903704799E+02 -0.15175604627E+02 -0.22832971318E+03  0.22953278533E+03  0.00000000000E+00 0. -1.
         -2    1    3    3    0  502  0.17903704799E+02  0.15175604627E+02 -0.44233757037E+01  0.23883213224E+02  0.00000000000E+00 0.  1.
<mgrwt>
<rscale>  0 0.10022808E+03</rscale>
<asrwt>0</asrwt>
<pdfrwt beam="2">  1        2 0.37397616E-01 0.10022808E+03</pdfrwt>
<pdfrwt beam="1">  1       -2 0.15894549E-02 0.10022808E+03</pdfrwt>
<totfact> 0.12871401E+05</totfact>
</mgrwt>
</event>
<event>
 5    1  0.3858870E+001  0.8882813E+02  0.7546771E-02  0.1305715E+00
          2   -1    0    0  501    0  0.00000000000E+00  0.00000000000E+00  0.11000546036E+04  0.11000546036E+04  0.00000000000E+00 0. -1.
         -2   -1    0    0    0  501 -0.00000000000E+00 -0.00000000000E+00 -0.17931921454E+01  0.17931921454E+01  0.00000000000E+00 0.  1.
         23    2    1    2    0    0  0.00000000000E+00  0.00000000000E+00  0.10982614115E+04  0.11018477958E+04  0.88828132361E+02 0.  0.
          2    1    3    3  502    0  0.12202257309E+02  0.24209361236E+02  0.98551078272E+03  0.98588360932E+03  0.00000000000E+00 0. -1.
         -2    1    3    3    0  502 -0.12202257309E+02 -0.24209361236E+02  0.11275062874E+03  0.11596418644E+03  0.00000000000E+00 0.  1.
<mgrwt>
<rscale>  0 0.88828132E+02</rscale>
<asrwt>0</asrwt>
<pdfrwt beam="1">  1        2 0.16923863E+00 0.88828132E+02</pdfrwt>
<pdfrwt beam="2">  1       -2 0.27587659E-03 0.88828132E+02</pdfrwt>
<totfact> 0.26796041E+05</totfact>
</mgrwt>
</event>
<event>
 5    1  0.3858870E+001  0.8734228E+02  0.7546771E-02  0.1309418E+00
         -1   -1    0    0    0  501 -0.00000000000E+00  0.00000000000E+00  0.29415443341E+01  0.29415443341E+01  0.00000000000E+00 0.  1.
          1   -1    0    0  501    0  0.00000000000E+00 -0.00000000000E+00 -0.64835623259E+03  0.64835623259E+03  0.00000000000E+00 0. -1.
         23    2    1    2    0    0  0.00000000000E+00  0.00000000000E+00 -0.64541468825E+03  0.65129777692E+03  0.87342283058E+02 0.  0.
          2    1    3    3  502    0 -0.25297025606E+02 -0.34168907512E+02 -0.39716939476E+03  0.39943833301E+03  0.00000000000E+00 0. -1.
         -2    1    3    3    0  502  0.25297025606E+02  0.34168907512E+02 -0.24824529350E+03  0.25185944391E+03  0.00000000000E+00 0.  1.
<mgrwt>
<rscale>  0 0.87342283E+02</rscale>
<asrwt>0</asrwt>
<pdfrwt beam="2">  1        1 0.99747232E-01 0.87342283E+02</pdfrwt>
<pdfrwt beam="1">  1       -1 0.45254474E-03 0.87342283E+02</pdfrwt>
<totfact> 0.15913575E+05</totfact>
</mgrwt>
</event>
<event>
 5    1  0.3858870E+001  0.9186080E+02  0.7546771E-02  0.1298407E+00
         -1   -1    0    0    0  501 -0.00000000000E+00  0.00000000000E+00  0.15890221619E+01  0.15890221619E+01  0.00000000000E+00 0.  1.
          1   -1    0    0  501    0  0.00000000000E+00 -0.00000000000E+00 -0.13276100689E+04  0.13276100689E+04  0.00000000000E+00 0. -1.
         23    2    1    2    0    0  0.00000000000E+00  0.00000000000E+00 -0.13260210468E+04  0.13291990911E+04  0.91860803869E+02 0.  0.
          2    1    3    3  502    0 -0.24881847590E+02  0.17953518111E+02 -0.11575627932E+04  0.11579693672E+04  0.00000000000E+00 0. -1.
         -2    1    3    3    0  502  0.24881847590E+02 -0.17953518111E+02 -0.16845825360E+03  0.17122972393E+03  0.00000000000E+00 0.  1.
<mgrwt>
<rscale>  0 0.91860804E+02</rscale>
<asrwt>0</asrwt>
<pdfrwt beam="2">  1        1 0.20424788E+00 0.91860804E+02</pdfrwt>
<pdfrwt beam="1">  1       -1 0.24446474E-03 0.91860804E+02</pdfrwt>
<totfact> 0.11818676E+05</totfact>
</mgrwt>
</event>
<event>
 5    1  0.3858870E+001  0.9219443E+02  0.7546771E-02  0.1297623E+00
         -2   -1    0    0    0  501 -0.00000000000E+00  0.00000000000E+00  0.66542415170E+02  0.66542415170E+02  0.00000000000E+00 0.  1.
          2   -1    0    0  501    0  0.00000000000E+00 -0.00000000000E+00 -0.31933814443E+02  0.31933814443E+02  0.00000000000E+00 0. -1.
         23    2    1    2    0    0  0.00000000000E+00  0.00000000000E+00  0.34608600727E+02  0.98476229613E+02  0.92194428002E+02 0.  0.
          2    1    3    3  502    0 -0.15869727581E+02  0.29591637166E+02 -0.16429875567E+02  0.37382536763E+02  0.00000000000E+00 0. -1.
         -2    1    3    3    0  502  0.15869727581E+02 -0.29591637166E+02  0.51038476295E+02  0.61093692851E+02  0.00000000000E+00 0.  1.
<mgrwt>
<rscale>  0 0.92194428E+02</rscale>
<asrwt>0</asrwt>
<pdfrwt beam="2">  1        2 0.49128945E-02 0.92194428E+02</pdfrwt>
<pdfrwt beam="1">  1       -2 0.10237295E-01 0.92194428E+02</pdfrwt>
<totfact> 0.87040935E+04</totfact>
</mgrwt>
</event>
<event>
 5    1  0.3858870E+001  0.9029598E+02  0.7546771E-02  0.1302137E+00
          1   -1    0    0  501    0  0.00000000000E+00  0.00000000000E+00  0.75616100591E+02  0.75616100591E+02  0.00000000000E+00 0. -1.
         -1   -1    0    0    0  501 -0.00000000000E+00 -0.00000000000E+00 -0.26956443690E+02  0.26956443690E+02  0.00000000000E+00 0.  1.
         23    2    1    2    0    0  0.00000000000E+00  0.00000000000E+00  0.48659656901E+02  0.10257254428E+03  0.90295983469E+02 0.  0.
          2    1    3    3  502    0 -0.32500883888E+02  0.65893486320E+01 -0.10472335866E+02  0.34776382609E+02  0.00000000000E+00 0.  1.
         -2    1    3    3    0  502  0.32500883888E+02 -0.65893486320E+01  0.59131992767E+02  0.67796161672E+02  0.00000000000E+00 0. -1.
<mgrwt>
<rscale>  0 0.90295983E+02</rscale>
<asrwt>0</asrwt>
<pdfrwt beam="1">  1        1 0.11633246E-01 0.90295983E+02</pdfrwt>
<pdfrwt beam="2">  1       -1 0.41471452E-02 0.90295983E+02</pdfrwt>
<totfact> 0.10255488E+05</totfact>
</mgrwt>
</event>
<event>
 5    1  0.3858870E+001  0.9249842E+02  0.7546771E-02  0.1296912E+00
          2   -1    0    0  501    0  0.00000000000E+00  0.00000000000E+00  0.28139811871E+04  0.28139811871E+04  0.00000000000E+00 0. -1.
         -2   -1    0    0    0  501 -0.00000000000E+00 -0.00000000000E+00 -0.76012930772E+00  0.76012930772E+00  0.00000000000E+00 0.  1.
         23    2    1    2    0    0  0.00000000000E+00  0.00000000000E+00  0.28132210578E+04  0.28147413164E+04  0.92498423159E+02 0.  0.
          2    1    3    3  502    0  0.46124350362E+02  0.74343693146E+00  0.15074495457E+04  0.15081552112E+04  0.00000000000E+00 0. -1.
         -2    1    3    3    0  502 -0.46124350362E+02 -0.74343693146E+00  0.13057715122E+04  0.13065861052E+04  0.00000000000E+00 0.  1.
<mgrwt>
<rscale>  0 0.92498423E+02</rscale>
<asrwt>0</asrwt>
<pdfrwt beam="1">  1        2 0.43291184E+00 0.92498423E+02</pdfrwt>
<pdfrwt beam="2">  1       -2 0.11694522E-03 0.92498423E+02</pdfrwt>
<totfact> 0.11414061E+05</totfact>
</mgrwt>
</event>
<event>
 5    1  0.3858870E+001  0.9069054E+02  0.7546771E-02  0.1301188E+00
          1   -1    0    0  501    0  0.00000000000E+00  0.00000000000E+00  0.21577208581E+03  0.21577208581E+03  0.00000000000E+00 0. -1.
         -1   -1    0    0    0  501 -0.00000000000E+00 -0.00000000000E+00 -0.95294690278E+01  0.95294690278E+01  0.00000000000E+00 0.  1.
         23    2    1    2    0    0  0.00000000000E+00  0.00000000000E+00  0.20624261678E+03  0.22530155484E+03  0.90690537738E+02 0.  0.
          2    1    3    3  502    0  0.30544565082E+01 -0.42390964916E+02  0.14239114501E+03  0.14859866012E+03  0.00000000000E+00 0. -1.
         -2    1    3    3    0  502 -0.30544565082E+01  0.42390964916E+02  0.63851471767E+02  0.76702894717E+02  0.00000000000E+00 0.  1.
<mgrwt>
<rscale>  0 0.90690538E+02</rscale>
<asrwt>0</asrwt>
<pdfrwt beam="1">  1        1 0.33195702E-01 0.90690538E+02</pdfrwt>
<pdfrwt beam="2">  1       -1 0.14660723E-02 0.90690538E+02</pdfrwt>
<totfact> 0.12189996E+05</totfact>
</mgrwt>
</event>
<event>
 5    1  0.3858870E+001  0.8246391E+02  0.7546771E-02  0.1322201E+00
          1   -1    0    0  501    0  0.00000000000E+00  0.00000000000E+00  0.63418228324E+01  0.63418228324E+01  0.00000000000E+00 0. -1.
         -1   -1    0    0    0  501 -0.00000000000E+00 -0.00000000000E+00 -0.26807339053E+03  0.26807339053E+03  0.00000000000E+00 0.  1.
         23    2    1    2    0    0  0.00000000000E+00  0.00000000000E+00 -0.26173156770E+03  0.27441521337E+03  0.82463906016E+02 0.  0.
          2    1    3    3  502    0 -0.21957741567E+02  0.15194419129E+02 -0.23541392478E+03  0.23692346606E+03  0.00000000000E+00 0.  1.
         -2    1    3    3    0  502  0.21957741567E+02 -0.15194419129E+02 -0.26317642917E+02  0.37491747306E+02  0.00000000000E+00 0. -1.
<mgrwt>
<rscale>  0 0.82463906E+02</rscale>
<asrwt>0</asrwt>
<pdfrwt beam="1">  1        1 0.97566495E-03 0.82463906E+02</pdfrwt>
<pdfrwt beam="2">  1       -1 0.41242064E-01 0.82463906E+02</pdfrwt>
<totfact> 0.82090313E+04</totfact>
</mgrwt>
</event>
<event>
 5    1  0.3858870E+001  0.9177915E+02  0.7546771E-02  0.1298600E+00
          1   -1    0    0  501    0  0.00000000000E+00  0.00000000000E+00  0.15177793122E+03  0.15177793122E+03  0.00000000000E+00 0. -1.
         -1   -1    0    0    0  501 -0.00000000000E+00 -0.00000000000E+00 -0.13874566933E+02  0.13874566933E+02  0.00000000000E+00 0.  1.
         23    2    1    2    0    0  0.00000000000E+00  0.00000000000E+00  0.13790336429E+03  0.16565249815E+03  0.91779149389E+02 0.  0.
          2    1    3    3  502    0 -0.44942959173E+02  0.36736275175E+01  0.53584761019E+02  0.70033504352E+02  0.00000000000E+00 0.  1.
         -2    1    3    3    0  502  0.44942959173E+02 -0.36736275175E+01  0.84318603268E+02  0.95618993800E+02  0.00000000000E+00 0. -1.
<mgrwt>
<rscale>  0 0.91779149E+02</rscale>
<asrwt>0</asrwt>
<pdfrwt beam="1">  1        1 0.23350450E-01 0.91779149E+02</pdfrwt>
<pdfrwt beam="2">  1       -1 0.21345489E-02 0.91779149E+02</pdfrwt>
<totfact> 0.11039576E+05</totfact>
</mgrwt>
</event>
<event>
 5    1  0.3858870E+001  0.9197596E+02  0.7546771E-02  0.1298136E+00
          2   -1    0    0  501    0  0.00000000000E+00  0.00000000000E+00  0.20019709425E+04  0.20019709425E+04  0.00000000000E+00 0. -1.
         -2   -1    0    0    0  501 -0.00000000000E+00 -0.00000000000E+00 -0.10564060665E+01  0.10564060665E+01  0.00000000000E+00 0.  1.
         23    2    1    2    0    0  0.00000000000E+00  0.00000000000E+00  0.20009145364E+04  0.20030273485E+04  0.91975958783E+02 0.  0.
          2    1    3    3  502    0 -0.19630930109E+02  0.39762955568E+02  0.73513679699E+03  0.73647306559E+03  0.00000000000E+00 0.  1.
         -2    1    3    3    0  502  0.19630930109E+02 -0.39762955568E+02  0.12657777394E+04  0.12665542829E+04  0.00000000000E+00 0. -1.
<mgrwt>
<rscale>  0 0.91975959E+02</rscale>
<asrwt>0</asrwt>
<pdfrwt beam="1">  1        2 0.30799249E+00 0.91975959E+02</pdfrwt>
<pdfrwt beam="2">  1       -2 0.16252561E-03 0.91975959E+02</pdfrwt>
<totfact> 0.19214480E+05</totfact>
</mgrwt>
</event>
<event>
 5    1  0.3858870E+001  0.8782133E+02  0.7546771E-02  0.1308215E+00
          1   -1    0    0  501    0  0.00000000000E+00  0.00000000000E+00  0.81381615723E+03  0.81381615723E+03  0.00000000000E+00 0. -1.
         -1   -1    0    0    0  501 -0.00000000000E+00 -0.00000000000E+00 -0.23692652372E+01  0.23692652372E+01  0.00000000000E+00 0.  1.
         23    2    1    2    0    0  0.00000000000E+00  0.00000000000E+00  0.81144689199E+03  0.81618542247E+03  0.87821326129E+02 0.  0.
          2    1    3    3  502    0 -0.66537436313E+01 -0.29944990120E+02  0.11372188860E+03  0.11778642827E+03  0.00000000000E+00 0.  1.
         -2    1    3    3    0  502  0.66537436313E+01  0.29944990120E+02  0.69772500339E+03  0.69839899419E+03  0.00000000000E+00 0. -1.
<mgrwt>
<rscale>  0 0.87821326E+02</rscale>
<asrwt>0</asrwt>
<pdfrwt beam="1">  1        1 0.12520226E+00 0.87821326E+02</pdfrwt>
<pdfrwt beam="2">  1       -1 0.36450299E-03 0.87821326E+02</pdfrwt>
<totfact> 0.15574692E+05</totfact>
</mgrwt>
</event>
<event>
 5    1  0.3858870E+001  0.9040998E+02  0.7546771E-02  0.1301862E+00
          1   -1    0    0  501    0  0.00000000000E+00  0.00000000000E+00  0.16912628516E+02  0.16912628516E+02  0.00000000000E+00 0. -1.
         -1   -1    0    0    0  501 -0.00000000000E+00 -0.00000000000E+00 -0.12082634854E+03  0.12082634854E+03  0.00000000000E+00 0.  1.
         23    2    1    2    0    0  0.00000000000E+00  0.00000000000E+00 -0.10391372002E+03  0.13773897705E+03  0.90409980593E+02 0.  0.
          2    1    3    3  502    0  0.39487290494E+02  0.55276856806E+01 -0.19506467775E+02  0.44388103188E+02  0.00000000000E+00 0. -1.
         -2    1    3    3    0  502 -0.39487290494E+02 -0.55276856806E+01 -0.84407252244E+02  0.93350873863E+02  0.00000000000E+00 0.  1.
<mgrwt>
<rscale>  0 0.90409981E+02</rscale>
<asrwt>0</asrwt>
<pdfrwt beam="1">  1        1 0.26019428E-02 0.90409981E+02</pdfrwt>
<pdfrwt beam="2">  1       -1 0.18588669E-01 0.90409981E+02</pdfrwt>
<totfact> 0.80150316E+04</totfact>
</mgrwt>
</event>
<event>
 5    1  0.3858870E+001  0.8934076E+02  0.7546771E-02  0.1304456E+00
         -2   -1    0    0    0  501 -0.00000000000E+00  0.00000000000E+00  0.12526227471E+01  0.12526227471E+01  0.00000000000E+00 0.  1.
          2   -1    0    0  501    0  0.00000000000E+00 -0.00000000000E+00 -0.15930118151E+04  0.15930118151E+04  0.00000000000E+00 0. -1.
         23    2    1    2    0    0  0.00000000000E+00  0.00000000000E+00 -0.15917591924E+04  0.15942644379E+04  0.89340759703E+02 0.  0.
          2    1    3    3  502    0 -0.33427806570E+02 -0.24804754780E+02 -0.10851346966E+04  0.10859327806E+04  0.00000000000E+00 0. -1.
         -2    1    3    3    0  502  0.33427806570E+02  0.24804754780E+02 -0.50662449575E+03  0.50833165729E+03  0.00000000000E+00 0.  1.
<mgrwt>
<rscale>  0 0.89340760E+02</rscale>
<asrwt>0</asrwt>
<pdfrwt beam="2">  1        2 0.24508031E+00 0.89340760E+02</pdfrwt>
<pdfrwt beam="1">  1       -2 0.19270996E-03 0.89340760E+02</pdfrwt>
<totfact> 0.24268670E+05</totfact>
</mgrwt>
</event>
<event>
 5    1  0.3858870E+001  0.8761506E+02  0.7546771E-02  0.1308732E+00
         -4   -1    0    0    0  501 -0.00000000000E+00  0.00000000000E+00  0.15891127088E+02  0.15891127088E+02  0.00000000000E+00 0.  1.
          4   -1    0    0  501    0  0.00000000000E+00 -0.00000000000E+00 -0.12076548400E+03  0.12076548400E+03  0.00000000000E+00 0. -1.
         23    2    1    2    0    0  0.00000000000E+00  0.00000000000E+00 -0.10487435691E+03  0.13665661109E+03  0.87615059302E+02 0.  0.
          2    1    3    3  502    0  0.41774168950E+02  0.12132789676E+02 -0.60513836512E+02  0.74526573692E+02  0.00000000000E+00 0.  1.
         -2    1    3    3    0  502 -0.41774168950E+02 -0.12132789676E+02 -0.44360520397E+02  0.62130037395E+02  0.00000000000E+00 0. -1.
<mgrwt>
<rscale>  0 0.87615059E+02</rscale>
<asrwt>0</asrwt>
<pdfrwt beam="2">  1        4 0.18579306E-01 0.87615059E+02</pdfrwt>
<pdfrwt beam="1">  1       -4 0.24447887E-02 0.87615059E+02</pdfrwt>
<totfact> 0.27109955E+04</totfact>
</mgrwt>
</event>
<event>
 5    1  0.3858870E+001  0.9037692E+02  0.7546771E-02  0.1301942E+00
          2   -1    0    0  501    0  0.00000000000E+00  0.00000000000E+00  0.56241266502E+03  0.56241266502E+03  0.00000000000E+00 0.  1.
         -2   -1    0    0    0  501 -0.00000000000E+00 -0.00000000000E+00 -0.36307800797E+01  0.36307800797E+01  0.00000000000E+00 0. -1.
         23    2    1    2    0    0  0.00000000000E+00  0.00000000000E+00  0.55878188494E+03  0.56604344510E+03  0.90376915210E+02 0.  0.
          2    1    3    3  502    0  0.89736058403E+01  0.42302546797E+02  0.19725881287E+03  0.20194323540E+03  0.00000000000E+00 0. -1.
         -2    1    3    3    0  502 -0.89736058403E+01 -0.42302546797E+02  0.36152307206E+03  0.36410020970E+03  0.00000000000E+00 0.  1.
<mgrwt>
<rscale>  0 0.90376915E+02</rscale>
<asrwt>0</asrwt>
<pdfrwt beam="1">  1        2 0.86524956E-01 0.90376915E+02</pdfrwt>
<pdfrwt beam="2">  1       -2 0.55858200E-03 0.90376915E+02</pdfrwt>
<totfact> 0.22884825E+05</totfact>
</mgrwt>
</event>
<event>
 5    1  0.3858870E+001  0.8623709E+02  0.7546771E-02  0.1312229E+00
          1   -1    0    0  501    0  0.00000000000E+00  0.00000000000E+00  0.20612397918E+04  0.20612397918E+04  0.00000000000E+00 0. -1.
         -1   -1    0    0    0  501 -0.00000000000E+00 -0.00000000000E+00 -0.90198569660E+00  0.90198569660E+00  0.00000000000E+00 0.  1.
         23    2    1    2    0    0  0.00000000000E+00  0.00000000000E+00  0.20603378061E+04  0.20621417775E+04  0.86237087369E+02 0.  0.
          2    1    3    3  502    0 -0.39869855194E+02  0.14274151476E+02  0.12242168758E+04  0.12249491075E+04  0.00000000000E+00 0. -1.
         -2    1    3    3    0  502  0.39869855194E+02 -0.14274151476E+02  0.83612093027E+03  0.83719267005E+03  0.00000000000E+00 0.  1.
<mgrwt>
<rscale>  0 0.86237087E+02</rscale>
<asrwt>0</asrwt>
<pdfrwt beam="1">  1        1 0.31711004E+00 0.86237087E+02</pdfrwt>
<pdfrwt beam="2">  1       -1 0.13876868E-03 0.86237087E+02</pdfrwt>
<totfact> 0.88211284E+04</totfact>
</mgrwt>
</event>
<event>
 5    1  0.3858870E+001  0.9028049E+02  0.7546771E-02  0.1302174E+00
          2   -1    0    0  501    0  0.00000000000E+00  0.00000000000E+00  0.17636679883E+02  0.17636679883E+02  0.00000000000E+00 0.  1.
         -2   -1    0    0    0  501 -0.00000000000E+00 -0.00000000000E+00 -0.11553431563E+03  0.11553431563E+03  0.00000000000E+00 0. -1.
         23    2    1    2    0    0  0.00000000000E+00  0.00000000000E+00 -0.97897635744E+02  0.13317099551E+03  0.90280490477E+02 0.  0.
          2    1    3    3  502    0  0.16109222558E+02 -0.30011147261E+02 -0.92643724744E+02  0.98706817119E+02  0.00000000000E+00 0. -1.
         -2    1    3    3    0  502 -0.16109222558E+02  0.30011147261E+02 -0.52539109998E+01  0.34464178391E+02  0.00000000000E+00 0.  1.
<mgrwt>
<rscale>  0 0.90280490E+02</rscale>
<asrwt>0</asrwt>
<pdfrwt beam="1">  1        2 0.27133354E-02 0.90280490E+02</pdfrwt>
<pdfrwt beam="2">  1       -2 0.17774510E-01 0.90280490E+02</pdfrwt>
<totfact> 0.78250612E+04</totfact>
</mgrwt>
</event>
<event>
 5    1  0.3858870E+001  0.9579055E+02  0.7546771E-02  0.1289405E+00
          2   -1    0    0  501    0  0.00000000000E+00  0.00000000000E+00  0.50140748139E+02  0.50140748139E+02  0.00000000000E+00 0. -1.
         -2   -1    0    0    0  501 -0.00000000000E+00 -0.00000000000E+00 -0.45750361494E+02  0.45750361494E+02  0.00000000000E+00 0.  1.
         23    2    1    2    0    0  0.00000000000E+00  0.00000000000E+00  0.43903866448E+01  0.95891109634E+02  0.95790549700E+02 0.  0.
          2    1    3    3  502    0  0.39491151069E+02 -0.25583960405E+02 -0.67510397411E+01  0.47535950399E+02  0.00000000000E+00 0. -1.
         -2    1    3    3    0  502 -0.39491151069E+02  0.25583960405E+02  0.11141426386E+02  0.48355159235E+02  0.00000000000E+00 0.  1.
<mgrwt>
<rscale>  0 0.95790550E+02</rscale>
<asrwt>0</asrwt>
<pdfrwt beam="1">  1        2 0.77139612E-02 0.95790550E+02</pdfrwt>
<pdfrwt beam="2">  1       -2 0.70385172E-02 0.95790550E+02</pdfrwt>
<totfact> 0.87798066E+04</totfact>
</mgrwt>
</event>
<event>
 5    1  0.3858870E+001  0.9242072E+02  0.7546771E-02  0.1297093E+00
          2   -1    0    0  501    0  0.00000000000E+00  0.00000000000E+00  0.16028918931E+03  0.16028918931E+03  0.00000000000E+00 0. -1.
         -2   -1    0    0    0  501 -0.00000000000E+00 -0.00000000000E+00 -0.13322153335E+02  0.13322153335E+02  0.00000000000E+00 0.  1.
         23    2    1    2    0    0  0.00000000000E+00  0.00000000000E+00  0.14696703598E+03  0.17361134265E+03  0.92420715382E+02 0.  0.
          2    1    3    3  502    0  0.31136973049E+02 -0.76424027352E+00  0.13760861226E+03  0.14108942314E+03  0.00000000000E+00 0. -1.
         -2    1    3    3    0  502 -0.31136973049E+02  0.76424027352E+00  0.93584237154E+01  0.32521919505E+02  0.00000000000E+00 0.  1.
<mgrwt>
<rscale>  0 0.92420715E+02</rscale>
<asrwt>0</asrwt>
<pdfrwt beam="1">  1        2 0.24659874E-01 0.92420715E+02</pdfrwt>
<pdfrwt beam="2">  1       -2 0.20495622E-02 0.92420715E+02</pdfrwt>
<totfact> 0.13786253E+05</totfact>
</mgrwt>
</event>
<event>
 5    1  0.3858870E+001  0.8949850E+02  0.7546771E-02  0.1304071E+00
          1   -1    0    0  501    0  0.00000000000E+00  0.00000000000E+00  0.30704761877E+03  0.30704761877E+03  0.00000000000E+00 0. -1.
         -1   -1    0    0    0  501 -0.00000000000E+00 -0.00000000000E+00 -0.65217739731E+01  0.65217739731E+01  0.00000000000E+00 0.  1.
         23    2    1    2    0    0  0.00000000000E+00  0.00000000000E+00  0.30052584480E+03  0.31356939274E+03  0.89498495375E+02 0.  0.
          2    1    3    3  502    0  0.33358543855E+02  0.24577571729E+02  0.20947792700E+03  0.21353653406E+03  0.00000000000E+00 0.  1.
         -2    1    3    3    0  502 -0.33358543855E+02 -0.24577571729E+02  0.91047917796E+02  0.10003285868E+03  0.00000000000E+00 0. -1.
<mgrwt>
<rscale>  0 0.89498495E+02</rscale>
<asrwt>0</asrwt>
<pdfrwt beam="1">  1        1 0.47238084E-01 0.89498495E+02</pdfrwt>
<pdfrwt beam="2">  1       -1 0.10033501E-02 0.89498495E+02</pdfrwt>
<totfact> 0.13520743E+05</totfact>
</mgrwt>
</event>
<event>
 5    1  0.3858870E+001  0.9028316E+02  0.7546771E-02  0.1302167E+00
         -2   -1    0    0    0  501 -0.00000000000E+00  0.00000000000E+00  0.17450008928E+01  0.17450008928E+01  0.00000000000E+00 0.  1.
          2   -1    0    0  501    0  0.00000000000E+00 -0.00000000000E+00 -0.11677713950E+04  0.11677713950E+04  0.00000000000E+00 0. -1.
         23    2    1    2    0    0  0.00000000000E+00  0.00000000000E+00 -0.11660263941E+04  0.11695163959E+04  0.90283157385E+02 0.  0.
          2    1    3    3  502    0  0.36823068300E+02  0.22099625576E+02 -0.40285175559E+03  0.40513438362E+03  0.00000000000E+00 0. -1.
         -2    1    3    3    0  502 -0.36823068300E+02 -0.22099625576E+02 -0.76317463852E+03  0.76438201227E+03  0.00000000000E+00 0.  1.
<mgrwt>
<rscale>  0 0.90283157E+02</rscale>
<asrwt>0</asrwt>
<pdfrwt beam="2">  1        2 0.17965691E+00 0.90283157E+02</pdfrwt>
<pdfrwt beam="1">  1       -2 0.26846201E-03 0.90283157E+02</pdfrwt>
<totfact> 0.25588870E+05</totfact>
</mgrwt>
</event>
<event>
 5    1  0.3858870E+001  0.9069041E+02  0.7546771E-02  0.1301188E+00
          2   -1    0    0  501    0  0.00000000000E+00  0.00000000000E+00  0.23354691363E+02  0.23354691363E+02  0.00000000000E+00 0. -1.
         -2   -1    0    0    0  501 -0.00000000000E+00 -0.00000000000E+00 -0.88041729440E+02  0.88041729440E+02  0.00000000000E+00 0.  1.
         23    2    1    2    0    0  0.00000000000E+00  0.00000000000E+00 -0.64687038077E+02  0.11139642080E+03  0.90690405626E+02 0.  0.
          2    1    3    3  502    0 -0.37292439857E+02 -0.25199037838E+02 -0.25563280440E+02  0.51760978404E+02  0.00000000000E+00 0. -1.
         -2    1    3    3    0  502  0.37292439857E+02  0.25199037838E+02 -0.39123757637E+02  0.59635442399E+02  0.00000000000E+00 0.  1.
<mgrwt>
<rscale>  0 0.90690406E+02</rscale>
<asrwt>0</asrwt>
<pdfrwt beam="1">  1        2 0.35930294E-02 0.90690406E+02</pdfrwt>
<pdfrwt beam="2">  1       -2 0.13544882E-01 0.90690406E+02</pdfrwt>
<totfact> 0.83925566E+04</totfact>
</mgrwt>
</event>
<event>
 5    1  0.3858870E+001  0.8934776E+02  0.7546771E-02  0.1304439E+00
          3   -1    0    0  501    0  0.00000000000E+00  0.00000000000E+00  0.36686427462E+01  0.36686427462E+01  0.00000000000E+00 0. -1.
         -3   -1    0    0    0  501 -0.00000000000E+00 -0.00000000000E+00 -0.54400378992E+03  0.54400378992E+03  0.00000000000E+00 0.  1.
         23    2    1    2    0    0  0.00000000000E+00  0.00000000000E+00 -0.54033514718E+03  0.54767243267E+03  0.89347760079E+02 0.  0.
          2    1    3    3  502    0 -0.12240034197E+02 -0.20133801761E+02 -0.37517087174E+02  0.44302598575E+02  0.00000000000E+00 0. -1.
         -2    1    3    3    0  502  0.12240034197E+02  0.20133801761E+02 -0.50281806000E+03  0.50336983409E+03  0.00000000000E+00 0.  1.
<mgrwt>
<rscale>  0 0.89347760E+02</rscale>
<asrwt>0</asrwt>
<pdfrwt beam="1">  1        3 0.56440681E-03 0.89347760E+02</pdfrwt>
<pdfrwt beam="2">  1       -3 0.83692856E-01 0.89347760E+02</pdfrwt>
<totfact> 0.17720656E+04</totfact>
</mgrwt>
</event>
<event>
 5    1  0.3858870E+001  0.9140010E+02  0.7546771E-02  0.1299496E+00
          2   -1    0    0  501    0  0.00000000000E+00  0.00000000000E+00  0.87212771432E+01  0.87212771432E+01  0.00000000000E+00 0. -1.
         -2   -1    0    0    0  501 -0.00000000000E+00 -0.00000000000E+00 -0.23947118014E+03  0.23947118014E+03  0.00000000000E+00 0.  1.
         23    2    1    2    0    0  0.00000000000E+00  0.00000000000E+00 -0.23074990300E+03  0.24819245728E+03  0.91400099121E+02 0.  0.
          2    1    3    3  502    0 -0.16167057076E+02  0.35123771823E+02 -0.49224798942E+02  0.62594999101E+02  0.00000000000E+00 0. -1.
         -2    1    3    3    0  502  0.16167057076E+02 -0.35123771823E+02 -0.18152510405E+03  0.18559745818E+03  0.00000000000E+00 0.  1.
<mgrwt>
<rscale>  0 0.91400099E+02</rscale>
<asrwt>0</asrwt>
<pdfrwt beam="1">  1        2 0.13417351E-02 0.91400099E+02</pdfrwt>
<pdfrwt beam="2">  1       -2 0.36841714E-01 0.91400099E+02</pdfrwt>
<totfact> 0.57020378E+04</totfact>
</mgrwt>
</event>
<event>
 5    1  0.3858870E+001  0.9215338E+02  0.7546771E-02  0.1297719E+00
         -2   -1    0    0    0  501 -0.00000000000E+00  0.00000000000E+00  0.27288918487E+01  0.27288918487E+01  0.00000000000E+00 0.  1.
          2   -1    0    0  501    0  0.00000000000E+00 -0.00000000000E+00 -0.77799399346E+03  0.77799399346E+03  0.00000000000E+00 0. -1.
         23    2    1    2    0    0  0.00000000000E+00  0.00000000000E+00 -0.77526510161E+03  0.78072288531E+03  0.92153382295E+02 0.  0.
          2    1    3    3  502    0  0.12037711526E+02 -0.32090355867E+02 -0.12673309889E+03  0.13128585527E+03  0.00000000000E+00 0.  1.
         -2    1    3    3    0  502 -0.12037711526E+02  0.32090355867E+02 -0.64853200272E+03  0.64943703004E+03  0.00000000000E+00 0. -1.
<mgrwt>
<rscale>  0 0.92153382E+02</rscale>
<asrwt>0</asrwt>
<pdfrwt beam="2">  1        2 0.11969140E+00 0.92153382E+02</pdfrwt>
<pdfrwt beam="1">  1       -2 0.41982946E-03 0.92153382E+02</pdfrwt>
<totfact> 0.23578416E+05</totfact>
</mgrwt>
</event>
<event>
 5    1  0.3858870E+001  0.9425867E+02  0.7546771E-02  0.1292855E+00
         -2   -1    0    0    0  501 -0.00000000000E+00  0.00000000000E+00  0.12418119574E+01  0.12418119574E+01  0.00000000000E+00 0.  1.
          2   -1    0    0  501    0  0.00000000000E+00 -0.00000000000E+00 -0.17886557223E+04  0.17886557223E+04  0.00000000000E+00 0. -1.
         23    2    1    2    0    0  0.00000000000E+00  0.00000000000E+00 -0.17874139104E+04  0.17898975343E+04  0.94258666735E+02 0.  0.
          2    1    3    3  502    0 -0.20367755402E+02  0.22573489840E+02 -0.15775205200E+04  0.15778134868E+04  0.00000000000E+00 0. -1.
         -2    1    3    3    0  502  0.20367755402E+02 -0.22573489840E+02 -0.20989339033E+03  0.21208404751E+03  0.00000000000E+00 0.  1.
<mgrwt>
<rscale>  0 0.94258667E+02</rscale>
<asrwt>0</asrwt>
<pdfrwt beam="2">  1        2 0.27517588E+00 0.94258667E+02</pdfrwt>
<pdfrwt beam="1">  1       -2 0.19104933E-03 0.94258667E+02</pdfrwt>
<totfact> 0.19716520E+05</totfact>
</mgrwt>
</event>
<event>
 5    1  0.3858870E+001  0.9030808E+02  0.7546771E-02  0.1302107E+00
          1   -1    0    0  501    0  0.00000000000E+00  0.00000000000E+00  0.15774101045E+02  0.15774101045E+02  0.00000000000E+00 0. -1.
         -1   -1    0    0    0  501 -0.00000000000E+00 -0.00000000000E+00 -0.12925538621E+03  0.12925538621E+03  0.00000000000E+00 0.  1.
         23    2    1    2    0    0  0.00000000000E+00  0.00000000000E+00 -0.11348128517E+03  0.14502948726E+03  0.90308084306E+02 0.  0.
          2    1    3    3  502    0 -0.30064019675E+02  0.26558353062E+02 -0.90030382422E+02  0.98562980654E+02  0.00000000000E+00 0. -1.
         -2    1    3    3    0  502  0.30064019675E+02 -0.26558353062E+02 -0.23450902745E+02  0.46466506603E+02  0.00000000000E+00 0.  1.
<mgrwt>
<rscale>  0 0.90308084E+02</rscale>
<asrwt>0</asrwt>
<pdfrwt beam="1">  1        1 0.24267849E-02 0.90308084E+02</pdfrwt>
<pdfrwt beam="2">  1       -1 0.19885443E-01 0.90308084E+02</pdfrwt>
<totfact> 0.79258487E+04</totfact>
</mgrwt>
</event>
<event>
 5    1  0.3858870E+001  0.8978643E+02  0.7546771E-02  0.1303370E+00
          4   -1    0    0  501    0  0.00000000000E+00  0.00000000000E+00  0.42135830820E+01  0.42135830820E+01  0.00000000000E+00 0.  1.
         -4   -1    0    0    0  501 -0.00000000000E+00 -0.00000000000E+00 -0.47831041861E+03  0.47831041861E+03  0.00000000000E+00 0. -1.
         23    2    1    2    0    0  0.00000000000E+00  0.00000000000E+00 -0.47409683553E+03  0.48252400169E+03  0.89786428547E+02 0.  0.
          2    1    3    3  502    0  0.27880227112E+02 -0.34141400207E+02 -0.28279436679E+03  0.28620900782E+03  0.00000000000E+00 0.  1.
         -2    1    3    3    0  502 -0.27880227112E+02  0.34141400207E+02 -0.19130246874E+03  0.19631499387E+03  0.00000000000E+00 0. -1.
<mgrwt>
<rscale>  0 0.89786429E+02</rscale>
<asrwt>0</asrwt>
<pdfrwt beam="1">  1        4 0.64824346E-03 0.89786429E+02</pdfrwt>
<pdfrwt beam="2">  1       -4 0.73586229E-01 0.89786429E+02</pdfrwt>
<totfact> 0.13953039E+04</totfact>
</mgrwt>
</event>
<event>
 5    1  0.3858870E+001  0.9031139E+02  0.7546771E-02  0.1302099E+00
          1   -1    0    0  501    0  0.00000000000E+00  0.00000000000E+00  0.79207769590E+02  0.79207769590E+02  0.00000000000E+00 0. -1.
         -1   -1    0    0    0  501 -0.00000000000E+00 -0.00000000000E+00 -0.25742887954E+02  0.25742887954E+02  0.00000000000E+00 0.  1.
         23    2    1    2    0    0  0.00000000000E+00  0.00000000000E+00  0.53464881636E+02  0.10495065754E+03  0.90311388820E+02 0.  0.
          2    1    3    3  502    0 -0.43341516824E+02  0.86043846516E+01  0.15923418942E+02  0.46968902336E+02  0.00000000000E+00 0. -1.
         -2    1    3    3    0  502  0.43341516824E+02 -0.86043846516E+01  0.37541462694E+02  0.57981755208E+02  0.00000000000E+00 0.  1.
<mgrwt>
<rscale>  0 0.90311389E+02</rscale>
<asrwt>0</asrwt>
<pdfrwt beam="1">  1        1 0.12185811E-01 0.90311389E+02</pdfrwt>
<pdfrwt beam="2">  1       -1 0.39604443E-02 0.90311389E+02</pdfrwt>
<totfact> 0.10325141E+05</totfact>
</mgrwt>
</event>
<event>
 5    1  0.3858870E+001  0.8723062E+02  0.7546771E-02  0.1309700E+00
         -2   -1    0    0    0  501 -0.00000000000E+00  0.00000000000E+00  0.12749302120E+02  0.12749302120E+02  0.00000000000E+00 0.  1.
          2   -1    0    0  501    0  0.00000000000E+00 -0.00000000000E+00 -0.14920780246E+03  0.14920780246E+03  0.00000000000E+00 0. -1.
         23    2    1    2    0    0  0.00000000000E+00  0.00000000000E+00 -0.13645850034E+03  0.16195710458E+03  0.87230621970E+02 0.  0.
          2    1    3    3  502    0 -0.84703493010E+01  0.24944558186E+02 -0.13276815283E+03  0.13535641916E+03  0.00000000000E+00 0. -1.
         -2    1    3    3    0  502  0.84703493010E+01 -0.24944558186E+02 -0.36903475094E+01  0.26600685426E+02  0.00000000000E+00 0.  1.
<mgrwt>
<rscale>  0 0.87230622E+02</rscale>
<asrwt>0</asrwt>
<pdfrwt beam="2">  1        2 0.22955046E-01 0.87230622E+02</pdfrwt>
<pdfrwt beam="1">  1       -2 0.19614312E-02 0.87230622E+02</pdfrwt>
<totfact> 0.15730074E+05</totfact>
</mgrwt>
</event>
<event>
 5    1  0.3858870E+001  0.8938258E+02  0.7546771E-02  0.1304354E+00
         -1   -1    0    0    0  501 -0.00000000000E+00  0.00000000000E+00  0.12253036023E+01  0.12253036023E+01  0.00000000000E+00 0.  1.
          1   -1    0    0  501    0  0.00000000000E+00 -0.00000000000E+00 -0.16300543054E+04  0.16300543054E+04  0.00000000000E+00 0. -1.
         23    2    1    2    0    0  0.00000000000E+00  0.00000000000E+00 -0.16288290018E+04  0.16312796090E+04  0.89382580237E+02 0.  0.
          2    1    3    3  502    0 -0.13978267716E+02 -0.42233988012E+02 -0.89229467683E+03  0.89340298410E+03  0.00000000000E+00 0. -1.
         -2    1    3    3    0  502  0.13978267716E+02  0.42233988012E+02 -0.73653432501E+03  0.73787662494E+03  0.00000000000E+00 0.  1.
<mgrwt>
<rscale>  0 0.89382580E+02</rscale>
<asrwt>0</asrwt>
<pdfrwt beam="2">  1        1 0.25077741E+00 0.89382580E+02</pdfrwt>
<pdfrwt beam="1">  1       -1 0.18850838E-03 0.89382580E+02</pdfrwt>
<totfact> 0.10808750E+05</totfact>
</mgrwt>
</event>
<event>
 5    1  0.3858870E+001  0.9216335E+02  0.7546771E-02  0.1297696E+00
         -2   -1    0    0    0  501 -0.00000000000E+00  0.00000000000E+00  0.75486511488E+00  0.75486511488E+00  0.00000000000E+00 0.  1.
          2   -1    0    0  501    0  0.00000000000E+00 -0.00000000000E+00 -0.28131126546E+04  0.28131126546E+04  0.00000000000E+00 0. -1.
         23    2    1    2    0    0  0.00000000000E+00  0.00000000000E+00 -0.28123577895E+04  0.28138675197E+04  0.92163346449E+02 0.  0.
          2    1    3    3  502    0 -0.38774974484E+02 -0.14668844812E+02 -0.79186427884E+03  0.79294874346E+03  0.00000000000E+00 0. -1.
         -2    1    3    3    0  502  0.38774974484E+02  0.14668844812E+02 -0.20204935106E+04  0.20209187762E+04  0.00000000000E+00 0.  1.
<mgrwt>
<rscale>  0 0.92163346E+02</rscale>
<asrwt>0</asrwt>
<pdfrwt beam="2">  1        2 0.43277620E+00 0.92163346E+02</pdfrwt>
<pdfrwt beam="1">  1       -2 0.11613587E-03 0.92163346E+02</pdfrwt>
<totfact> 0.11532836E+05</totfact>
</mgrwt>
</event>
<event>
 5    1  0.3858870E+001  0.9151831E+02  0.7546771E-02  0.1299216E+00
         -2   -1    0    0    0  501 -0.00000000000E+00  0.00000000000E+00  0.20473714562E+02  0.20473714562E+02  0.00000000000E+00 0.  1.
          2   -1    0    0  501    0  0.00000000000E+00 -0.00000000000E+00 -0.10227260506E+03  0.10227260506E+03  0.00000000000E+00 0. -1.
         23    2    1    2    0    0  0.00000000000E+00  0.00000000000E+00 -0.81798890503E+02  0.12274631963E+03  0.91518306881E+02 0.  0.
          2    1    3    3  502    0  0.25418001732E+02  0.32084133396E+02 -0.13463885359E+02  0.43089936607E+02  0.00000000000E+00 0. -1.
         -2    1    3    3    0  502 -0.25418001732E+02 -0.32084133396E+02 -0.68335005144E+02  0.79656383020E+02  0.00000000000E+00 0.  1.
<mgrwt>
<rscale>  0 0.91518307E+02</rscale>
<asrwt>0</asrwt>
<pdfrwt beam="2">  1        2 0.15734247E-01 0.91518307E+02</pdfrwt>
<pdfrwt beam="1">  1       -2 0.31498022E-02 0.91518307E+02</pdfrwt>
<totfact> 0.12225613E+05</totfact>
</mgrwt>
</event>
<event>
 5    1  0.3858870E+001  0.9117915E+02  0.7546771E-02  0.1300021E+00
         -2   -1    0    0    0  501 -0.00000000000E+00  0.00000000000E+00  0.14523107203E+01  0.14523107203E+01  0.00000000000E+00 0.  1.
          2   -1    0    0  501    0  0.00000000000E+00 -0.00000000000E+00 -0.14311052048E+04  0.14311052048E+04  0.00000000000E+00 0. -1.
         23    2    1    2    0    0  0.00000000000E+00  0.00000000000E+00 -0.14296528941E+04  0.14325575155E+04  0.91179151801E+02 0.  0.
          2    1    3    3  502    0 -0.17333763420E+01 -0.39580084751E+02 -0.10692310420E+04  0.10699647699E+04  0.00000000000E+00 0. -1.
         -2    1    3    3    0  502  0.17333763420E+01  0.39580084751E+02 -0.36042185210E+03  0.36259274561E+03  0.00000000000E+00 0.  1.
<mgrwt>
<rscale>  0 0.91179152E+02</rscale>
<asrwt>0</asrwt>
<pdfrwt beam="2">  1        2 0.22017003E+00 0.91179152E+02</pdfrwt>
<pdfrwt beam="1">  1       -2 0.22343242E-03 0.91179152E+02</pdfrwt>
<totfact> 0.23980739E+05</totfact>
</mgrwt>
</event>
<event>
 5    1  0.3858870E+001  0.9217651E+02  0.7546771E-02  0.1297665E+00
          1   -1    0    0  501    0  0.00000000000E+00  0.00000000000E+00  0.33856943877E+03  0.33856943877E+03  0.00000000000E+00 0. -1.
         -1   -1    0    0    0  501 -0.00000000000E+00 -0.00000000000E+00 -0.62738306890E+01  0.62738306890E+01  0.00000000000E+00 0.  1.
         23    2    1    2    0    0  0.00000000000E+00  0.00000000000E+00  0.33229560808E+03  0.34484326946E+03  0.92176511874E+02 0.  0.
          2    1    3    3  502    0 -0.14804665416E+02  0.17631243846E+02  0.31551584773E+03  0.31635468867E+03  0.00000000000E+00 0. -1.
         -2    1    3    3    0  502  0.14804665416E+02 -0.17631243846E+02  0.16779760349E+02  0.28488580782E+02  0.00000000000E+00 0.  1.
<mgrwt>
<rscale>  0 0.92176512E+02</rscale>
<asrwt>0</asrwt>
<pdfrwt beam="1">  1        1 0.52087592E-01 0.92176512E+02</pdfrwt>
<pdfrwt beam="2">  1       -1 0.96520499E-03 0.92176512E+02</pdfrwt>
<totfact> 0.12729500E+05</totfact>
</mgrwt>
</event>
<event>
 5    1  0.3858870E+001  0.9047910E+02  0.7546771E-02  0.1301696E+00
         -1   -1    0    0    0  501 -0.00000000000E+00  0.00000000000E+00  0.41634611948E+01  0.41634611948E+01  0.00000000000E+00 0.  1.
          1   -1    0    0  501    0  0.00000000000E+00 -0.00000000000E+00 -0.49156621758E+03  0.49156621758E+03  0.00000000000E+00 0. -1.
         23    2    1    2    0    0  0.00000000000E+00  0.00000000000E+00 -0.48740275639E+03  0.49572967878E+03  0.90479099721E+02 0.  0.
          2    1    3    3  502    0 -0.18040430238E+02  0.89770541057E+01 -0.46562029816E+03  0.46605611967E+03  0.00000000000E+00 0. -1.
         -2    1    3    3    0  502  0.18040430238E+02 -0.89770541057E+01 -0.21782458225E+02  0.29673559105E+02  0.00000000000E+00 0.  1.
<mgrwt>
<rscale>  0 0.90479100E+02</rscale>
<asrwt>0</asrwt>
<pdfrwt beam="2">  1        1 0.75625582E-01 0.90479100E+02</pdfrwt>
<pdfrwt beam="1">  1       -1 0.64053241E-03 0.90479100E+02</pdfrwt>
<totfact> 0.14183731E+05</totfact>
</mgrwt>
</event>
<event>
 5    1  0.3858870E+001  0.9170843E+02  0.7546771E-02  0.1298766E+00
         -1   -1    0    0    0  501 -0.00000000000E+00  0.00000000000E+00  0.37149110315E+02  0.37149110315E+02  0.00000000000E+00 0.  1.
          1   -1    0    0  501    0  0.00000000000E+00 -0.00000000000E+00 -0.56599181194E+02  0.56599181194E+02  0.00000000000E+00 0. -1.
         23    2    1    2    0    0  0.00000000000E+00  0.00000000000E+00 -0.19450070879E+02  0.93748291510E+02  0.91708434202E+02 0.  0.
          2    1    3    3  502    0 -0.45444315902E+02  0.55224567213E+01 -0.70347979377E+01  0.46315998942E+02  0.00000000000E+00 0. -1.
         -2    1    3    3    0  502  0.45444315902E+02 -0.55224567213E+01 -0.12415272941E+02  0.47432292567E+02  0.00000000000E+00 0.  1.
<mgrwt>
<rscale>  0 0.91708434E+02</rscale>
<asrwt>0</asrwt>
<pdfrwt beam="2">  1        1 0.87075663E-02 0.91708434E+02</pdfrwt>
<pdfrwt beam="1">  1       -1 0.57152478E-02 0.91708434E+02</pdfrwt>
<totfact> 0.93992429E+04</totfact>
</mgrwt>
</event>
<event>
 5    1  0.3858870E+001  0.9045375E+02  0.7546771E-02  0.1301757E+00
          2   -1    0    0  501    0  0.00000000000E+00  0.00000000000E+00  0.11795929625E+03  0.11795929625E+03  0.00000000000E+00 0. -1.
         -2   -1    0    0    0  501 -0.00000000000E+00 -0.00000000000E+00 -0.17340476759E+02  0.17340476759E+02  0.00000000000E+00 0.  1.
         23    2    1    2    0    0  0.00000000000E+00  0.00000000000E+00  0.10061881949E+03  0.13529977301E+03  0.90453754709E+02 0.  0.
          2    1    3    3  502    0 -0.40561817392E+02  0.95145621406E+01  0.76632011296E+02  0.87225300676E+02  0.00000000000E+00 0. -1.
         -2    1    3    3    0  502  0.40561817392E+02 -0.95145621406E+01  0.23986808198E+02  0.48074472337E+02  0.00000000000E+00 0.  1.
<mgrwt>
<rscale>  0 0.90453755E+02</rscale>
<asrwt>0</asrwt>
<pdfrwt beam="1">  1        2 0.18147584E-01 0.90453755E+02</pdfrwt>
<pdfrwt beam="2">  1       -2 0.26677657E-02 0.90453755E+02</pdfrwt>
<totfact> 0.13199534E+05</totfact>
</mgrwt>
</event>
<event>
 5    1  0.3858870E+001  0.8912230E+02  0.7546771E-02  0.1304991E+00
         -2   -1    0    0    0  501 -0.00000000000E+00  0.00000000000E+00  0.85902516800E+02  0.85902516800E+02  0.00000000000E+00 0.  1.
          2   -1    0    0  501    0  0.00000000000E+00 -0.00000000000E+00 -0.23115690991E+02  0.23115690991E+02  0.00000000000E+00 0. -1.
         23    2    1    2    0    0  0.00000000000E+00  0.00000000000E+00  0.62786825809E+02  0.10901820779E+03  0.89122298751E+02 0.  0.
          2    1    3    3  502    0  0.31835543649E+02  0.31952524967E+01  0.69333358882E+02  0.76359846332E+02  0.00000000000E+00 0.  1.
         -2    1    3    3    0  502 -0.31835543649E+02 -0.31952524967E+01 -0.65465330731E+01  0.32658361459E+02  0.00000000000E+00 0. -1.
<mgrwt>
<rscale>  0 0.89122299E+02</rscale>
<asrwt>0</asrwt>
<pdfrwt beam="2">  1        2 0.35562602E-02 0.89122299E+02</pdfrwt>
<pdfrwt beam="1">  1       -2 0.13215772E-01 0.89122299E+02</pdfrwt>
<totfact> 0.88226389E+04</totfact>
</mgrwt>
</event>
<event>
 5    1  0.3858870E+001  0.9334319E+02  0.7546771E-02  0.1294952E+00
          2   -1    0    0  501    0  0.00000000000E+00  0.00000000000E+00  0.28137500605E+01  0.28137500605E+01  0.00000000000E+00 0. -1.
         -2   -1    0    0    0  501 -0.00000000000E+00 -0.00000000000E+00 -0.77414052932E+03  0.77414052932E+03  0.00000000000E+00 0.  1.
         23    2    1    2    0    0  0.00000000000E+00  0.00000000000E+00 -0.77132677926E+03  0.77695427938E+03  0.93343193886E+02 0.  0.
          2    1    3    3  502    0  0.24438653361E+02  0.37842608924E+02 -0.28408537491E+03  0.28763485718E+03  0.00000000000E+00 0. -1.
         -2    1    3    3    0  502 -0.24438653361E+02 -0.37842608924E+02 -0.48724140435E+03  0.48931942220E+03  0.00000000000E+00 0.  1.
<mgrwt>
<rscale>  0 0.93343194E+02</rscale>
<asrwt>0</asrwt>
<pdfrwt beam="1">  1        2 0.43288428E-03 0.93343194E+02</pdfrwt>
<pdfrwt beam="2">  1       -2 0.11909864E+00 0.93343194E+02</pdfrwt>
<totfact> 0.23193949E+04</totfact>
</mgrwt>
</event>
<event>
 5    1  0.3858870E+001  0.9102392E+02  0.7546771E-02  0.1300391E+00
         -1   -1    0    0    0  501 -0.00000000000E+00  0.00000000000E+00  0.17434514597E+01  0.17434514597E+01  0.00000000000E+00 0.  1.
          1   -1    0    0  501    0  0.00000000000E+00 -0.00000000000E+00 -0.11880678492E+04  0.11880678492E+04  0.00000000000E+00 0. -1.
         23    2    1    2    0    0  0.00000000000E+00  0.00000000000E+00 -0.11863243977E+04  0.11898113006E+04  0.91023922700E+02 0.  0.
          2    1    3    3  502    0  0.37268966287E+02 -0.21565212373E+02 -0.40047325559E+03  0.40278140805E+03  0.00000000000E+00 0.  1.
         -2    1    3    3    0  502 -0.37268966287E+02  0.21565212373E+02 -0.78585114214E+03  0.78702989260E+03  0.00000000000E+00 0. -1.
<mgrwt>
<rscale>  0 0.91023923E+02</rscale>
<asrwt>0</asrwt>
<pdfrwt beam="2">  1        1 0.18278018E+00 0.91023923E+02</pdfrwt>
<pdfrwt beam="1">  1       -1 0.26822255E-03 0.91023923E+02</pdfrwt>
<totfact> 0.12846198E+05</totfact>
</mgrwt>
</event>
<event>
 5    1  0.3858870E+001  0.9181674E+02  0.7546771E-02  0.1298511E+00
          2   -1    0    0  501    0  0.00000000000E+00  0.00000000000E+00  0.12734203356E+04  0.12734203356E+04  0.00000000000E+00 0. -1.
         -2   -1    0    0    0  501 -0.00000000000E+00 -0.00000000000E+00 -0.16550532761E+01  0.16550532761E+01  0.00000000000E+00 0.  1.
         23    2    1    2    0    0  0.00000000000E+00  0.00000000000E+00  0.12717652823E+04  0.12750753888E+04  0.91816741353E+02 0.  0.
          2    1    3    3  502    0 -0.10049712552E+01 -0.34922083880E+02  0.10494820019E+04  0.10500633477E+04  0.00000000000E+00 0. -1.
         -2    1    3    3    0  502  0.10049712552E+01  0.34922083880E+02  0.22228328040E+03  0.22501204113E+03  0.00000000000E+00 0.  1.
<mgrwt>
<rscale>  0 0.91816741E+02</rscale>
<asrwt>0</asrwt>
<pdfrwt beam="1">  1        2 0.19591004E+00 0.91816741E+02</pdfrwt>
<pdfrwt beam="2">  1       -2 0.25462460E-03 0.91816741E+02</pdfrwt>
<totfact> 0.24212258E+05</totfact>
</mgrwt>
</event>
<event>
 5    1  0.3858870E+001  0.8716572E+02  0.7546771E-02  0.1309864E+00
          3   -1    0    0  501    0  0.00000000000E+00  0.00000000000E+00  0.13493851079E+02  0.13493851079E+02  0.00000000000E+00 0. -1.
         -3   -1    0    0    0  501 -0.00000000000E+00 -0.00000000000E+00 -0.14076527293E+03  0.14076527293E+03  0.00000000000E+00 0.  1.
         23    2    1    2    0    0  0.00000000000E+00  0.00000000000E+00 -0.12727142185E+03  0.15425912401E+03  0.87165718721E+02 0.  0.
          2    1    3    3  502    0 -0.24414970872E+02  0.45712563830E+01 -0.25892916430E+00  0.24840576320E+02  0.00000000000E+00 0. -1.
         -2    1    3    3    0  502  0.24414970872E+02 -0.45712563830E+01 -0.12701249269E+03  0.12941854769E+03  0.00000000000E+00 0.  1.
<mgrwt>
<rscale>  0 0.87165719E+02</rscale>
<asrwt>0</asrwt>
<pdfrwt beam="1">  1        3 0.20759772E-02 0.87165719E+02</pdfrwt>
<pdfrwt beam="2">  1       -3 0.21656195E-01 0.87165719E+02</pdfrwt>
<totfact> 0.35053860E+04</totfact>
</mgrwt>
</event>
<event>
 5    1  0.3858870E+001  0.8962465E+02  0.7546771E-02  0.1303763E+00
          2   -1    0    0  501    0  0.00000000000E+00  0.00000000000E+00  0.10104694695E+02  0.10104694695E+02  0.00000000000E+00 0. -1.
         -2   -1    0    0    0  501 -0.00000000000E+00 -0.00000000000E+00 -0.19873383165E+03  0.19873383165E+03  0.00000000000E+00 0.  1.
         23    2    1    2    0    0  0.00000000000E+00  0.00000000000E+00 -0.18862913695E+03  0.20883852634E+03  0.89624654963E+02 0.  0.
          2    1    3    3  502    0  0.19502801185E+02  0.18516563537E+02 -0.10788592490E+02  0.28976129955E+02  0.00000000000E+00 0. -1.
         -2    1    3    3    0  502 -0.19502801185E+02 -0.18516563537E+02 -0.17784054446E+03  0.17986239639E+03  0.00000000000E+00 0.  1.
<mgrwt>
<rscale>  0 0.89624655E+02</rscale>
<asrwt>0</asrwt>
<pdfrwt beam="1">  1        2 0.15545683E-02 0.89624655E+02</pdfrwt>
<pdfrwt beam="2">  1       -2 0.30574438E-01 0.89624655E+02</pdfrwt>
<totfact> 0.65288204E+04</totfact>
</mgrwt>
</event>
<event>
 5    1  0.3858870E+001  0.9142869E+02  0.7546771E-02  0.1299428E+00
          2   -1    0    0  501    0  0.00000000000E+00  0.00000000000E+00  0.29705446619E+02  0.29705446619E+02  0.00000000000E+00 0. -1.
         -2   -1    0    0    0  501 -0.00000000000E+00 -0.00000000000E+00 -0.70350774053E+02  0.70350774053E+02  0.00000000000E+00 0.  1.
         23    2    1    2    0    0  0.00000000000E+00  0.00000000000E+00 -0.40645327435E+02  0.10005622067E+03  0.91428686160E+02 0.  0.
          2    1    3    3  502    0  0.19235104254E+02  0.34398401792E+02  0.50269603933E+01  0.39730462020E+02  0.00000000000E+00 0. -1.
         -2    1    3    3    0  502 -0.19235104254E+02 -0.34398401792E+02 -0.45672287828E+02  0.60325758652E+02  0.00000000000E+00 0.  1.
<mgrwt>
<rscale>  0 0.91428686E+02</rscale>
<asrwt>0</asrwt>
<pdfrwt beam="1">  1        2 0.45700688E-02 0.91428686E+02</pdfrwt>
<pdfrwt beam="2">  1       -2 0.10823196E-01 0.91428686E+02</pdfrwt>
<totfact> 0.87512127E+04</totfact>
</mgrwt>
</event>
<event>
 5    1  0.3858870E+001  0.9258657E+02  0.7546771E-02  0.1296706E+00
          1   -1    0    0  501    0  0.00000000000E+00  0.00000000000E+00  0.39046825769E+03  0.39046825769E+03  0.00000000000E+00 0. -1.
         -1   -1    0    0    0  501 -0.00000000000E+00 -0.00000000000E+00 -0.54884572793E+01  0.54884572793E+01  0.00000000000E+00 0.  1.
         23    2    1    2    0    0  0.00000000000E+00  0.00000000000E+00  0.38497980041E+03  0.39595671497E+03  0.92586572487E+02 0.  0.
          2    1    3    3  502    0 -0.34633642450E+02 -0.25906832841E+02  0.12190442336E+03  0.12934968733E+03  0.00000000000E+00 0. -1.
         -2    1    3    3    0  502  0.34633642450E+02  0.25906832841E+02  0.26307537705E+03  0.26660702764E+03  0.00000000000E+00 0.  1.
<mgrwt>
<rscale>  0 0.92586572E+02</rscale>
<asrwt>0</asrwt>
<pdfrwt beam="1">  1        1 0.60072018E-01 0.92586572E+02</pdfrwt>
<pdfrwt beam="2">  1       -1 0.84437835E-03 0.92586572E+02</pdfrwt>
<totfact> 0.12898244E+05</totfact>
</mgrwt>
</event>
<event>
 5    1  0.3858870E+001  0.8991957E+02  0.7546771E-02  0.1303047E+00
          2   -1    0    0  501    0  0.00000000000E+00  0.00000000000E+00  0.94898518265E+03  0.94898518265E+03  0.00000000000E+00 0.  1.
         -2   -1    0    0    0  501 -0.00000000000E+00 -0.00000000000E+00 -0.21300461232E+01  0.21300461232E+01  0.00000000000E+00 0. -1.
         23    2    1    2    0    0  0.00000000000E+00  0.00000000000E+00  0.94685513653E+03  0.95111522877E+03  0.89919568711E+02 0.  0.
          2    1    3    3  502    0 -0.25505909798E+02  0.30614890162E+01  0.83143292854E+02  0.87021441589E+02  0.00000000000E+00 0. -1.
         -2    1    3    3    0  502  0.25505909798E+02 -0.30614890162E+01  0.86371184367E+03  0.86409378718E+03  0.00000000000E+00 0.  1.
<mgrwt>
<rscale>  0 0.89919569E+02</rscale>
<asrwt>0</asrwt>
<pdfrwt beam="1">  1        2 0.14599738E+00 0.89919569E+02</pdfrwt>
<pdfrwt beam="2">  1       -2 0.32770016E-03 0.89919569E+02</pdfrwt>
<totfact> 0.25848192E+05</totfact>
</mgrwt>
</event>
<event>
 5    1  0.3858870E+001  0.8867366E+02  0.7546771E-02  0.1306096E+00
          2   -1    0    0  501    0  0.00000000000E+00  0.00000000000E+00  0.79475715926E+03  0.79475715926E+03  0.00000000000E+00 0. -1.
         -2   -1    0    0    0  501 -0.00000000000E+00 -0.00000000000E+00 -0.24734026943E+01  0.24734026943E+01  0.00000000000E+00 0.  1.
         23    2    1    2    0    0  0.00000000000E+00  0.00000000000E+00  0.79228375657E+03  0.79723056196E+03  0.88673660104E+02 0.  0.
          2    1    3    3  502    0 -0.23109475739E+02 -0.48373826191E+01  0.73353628179E+03  0.73391615655E+03  0.00000000000E+00 0. -1.
         -2    1    3    3    0  502  0.23109475739E+02  0.48373826191E+01  0.58747474782E+02  0.63314405413E+02  0.00000000000E+00 0.  1.
<mgrwt>
<rscale>  0 0.88673660E+02</rscale>
<asrwt>0</asrwt>
<pdfrwt beam="1">  1        2 0.12227013E+00 0.88673660E+02</pdfrwt>
<pdfrwt beam="2">  1       -2 0.38052413E-03 0.88673660E+02</pdfrwt>
<totfact> 0.26195847E+05</totfact>
</mgrwt>
</event>
<event>
 5    1  0.3858870E+001  0.9163643E+02  0.7546771E-02  0.1298937E+00
         -3   -1    0    0    0  501 -0.00000000000E+00  0.00000000000E+00  0.27347528479E+01  0.27347528479E+01  0.00000000000E+00 0.  1.
          3   -1    0    0  501    0  0.00000000000E+00 -0.00000000000E+00 -0.76764121965E+03  0.76764121965E+03  0.00000000000E+00 0. -1.
         23    2    1    2    0    0  0.00000000000E+00  0.00000000000E+00 -0.76490646681E+03  0.77037597250E+03  0.91636434056E+02 0.  0.
          2    1    3    3  502    0 -0.27389776814E+02 -0.56312617481E+01 -0.77317511546E+02  0.82218663176E+02  0.00000000000E+00 0.  1.
         -2    1    3    3    0  502  0.27389776814E+02  0.56312617481E+01 -0.68758895526E+03  0.68815730933E+03  0.00000000000E+00 0. -1.
<mgrwt>
<rscale>  0 0.91636434E+02</rscale>
<asrwt>0</asrwt>
<pdfrwt beam="2">  1        3 0.11809865E+00 0.91636434E+02</pdfrwt>
<pdfrwt beam="1">  1       -3 0.42073120E-03 0.91636434E+02</pdfrwt>
<totfact> 0.12663337E+04</totfact>
</mgrwt>
</event>
<event>
 5    1  0.3858870E+001  0.9097419E+02  0.7546771E-02  0.1300510E+00
         -2   -1    0    0    0  501 -0.00000000000E+00  0.00000000000E+00  0.64208341008E+01  0.64208341008E+01  0.00000000000E+00 0.  1.
          2   -1    0    0  501    0  0.00000000000E+00 -0.00000000000E+00 -0.32224405797E+03  0.32224405797E+03  0.00000000000E+00 0. -1.
         23    2    1    2    0    0  0.00000000000E+00  0.00000000000E+00 -0.31582322387E+03  0.32866489207E+03  0.90974186145E+02 0.  0.
          2    1    3    3  502    0 -0.12679363732E+02 -0.41503957757E+02 -0.20714697824E+03  0.21164407710E+03  0.00000000000E+00 0. -1.
         -2    1    3    3    0  502  0.12679363732E+02  0.41503957757E+02 -0.10867624562E+03  0.11702081497E+03  0.00000000000E+00 0.  1.
<mgrwt>
<rscale>  0 0.90974186E+02</rscale>
<asrwt>0</asrwt>
<pdfrwt beam="2">  1        2 0.49576020E-01 0.90974186E+02</pdfrwt>
<pdfrwt beam="1">  1       -2 0.98782041E-03 0.90974186E+02</pdfrwt>
<totfact> 0.18559430E+05</totfact>
</mgrwt>
</event>
<event>
 5    1  0.3858870E+001  0.9204868E+02  0.7546771E-02  0.1297965E+00
         -1   -1    0    0    0  501 -0.00000000000E+00  0.00000000000E+00  0.14986467498E+02  0.14986467498E+02  0.00000000000E+00 0.  1.
          1   -1    0    0  501    0  0.00000000000E+00 -0.00000000000E+00 -0.14134351053E+03  0.14134351053E+03  0.00000000000E+00 0. -1.
         23    2    1    2    0    0  0.00000000000E+00  0.00000000000E+00 -0.12635704303E+03  0.15632997803E+03  0.92048681177E+02 0.  0.
          2    1    3    3  502    0  0.25072474173E+02  0.22130453490E+02 -0.11688083422E+03  0.12157103002E+03  0.00000000000E+00 0. -1.
         -2    1    3    3    0  502 -0.25072474173E+02 -0.22130453490E+02 -0.94762088093E+01  0.34758948003E+02  0.00000000000E+00 0.  1.
<mgrwt>
<rscale>  0 0.92048681E+02</rscale>
<asrwt>0</asrwt>
<pdfrwt beam="2">  1        1 0.21745154E-01 0.92048681E+02</pdfrwt>
<pdfrwt beam="1">  1       -1 0.23056105E-02 0.92048681E+02</pdfrwt>
<totfact> 0.10810258E+05</totfact>
</mgrwt>
</event>
<event>
 5    1  0.3858870E+001  0.8150512E+02  0.7546771E-02  0.1324834E+00
         -2   -1    0    0    0  501 -0.00000000000E+00  0.00000000000E+00  0.17903408830E+01  0.17903408830E+01  0.00000000000E+00 0. -1.
          2   -1    0    0  501    0  0.00000000000E+00 -0.00000000000E+00 -0.92762850946E+03  0.92762850946E+03  0.00000000000E+00 0.  1.
         23    2    1    2    0    0  0.00000000000E+00  0.00000000000E+00 -0.92583816857E+03  0.92941885034E+03  0.81505122410E+02 0.  0.
          2    1    3    3  502    0 -0.11639477420E+02  0.34655626210E+02 -0.66826571442E+03  0.66926493628E+03  0.00000000000E+00 0. -1.
         -2    1    3    3    0  502  0.11639477420E+02 -0.34655626210E+02 -0.25757245415E+03  0.26015391406E+03  0.00000000000E+00 0.  1.
<mgrwt>
<rscale>  0 0.81505122E+02</rscale>
<asrwt>0</asrwt>
<pdfrwt beam="2">  1        2 0.14271194E+00 0.81505122E+02</pdfrwt>
<pdfrwt beam="1">  1       -2 0.27543733E-03 0.81505122E+02</pdfrwt>
<totfact> 0.33360409E+05</totfact>
</mgrwt>
</event>
<event>
 5    1  0.3858870E+001  0.9079965E+02  0.7546771E-02  0.1300927E+00
         -3   -1    0    0    0  501 -0.00000000000E+00  0.00000000000E+00  0.53459511484E+03  0.53459511484E+03  0.00000000000E+00 0.  1.
          3   -1    0    0  501    0  0.00000000000E+00 -0.00000000000E+00 -0.38555240438E+01  0.38555240438E+01  0.00000000000E+00 0. -1.
         23    2    1    2    0    0  0.00000000000E+00  0.00000000000E+00  0.53073959079E+03  0.53845063888E+03  0.90799654602E+02 0.  0.
          2    1    3    3  502    0  0.92825570020E+01  0.41415081235E+02  0.16979227044E+03  0.17501654185E+03  0.00000000000E+00 0. -1.
         -2    1    3    3    0  502 -0.92825570020E+01 -0.41415081235E+02  0.36094732035E+03  0.36343409703E+03  0.00000000000E+00 0.  1.
<mgrwt>
<rscale>  0 0.90799655E+02</rscale>
<asrwt>0</asrwt>
<pdfrwt beam="2">  1        3 0.59315797E-03 0.90799655E+02</pdfrwt>
<pdfrwt beam="1">  1       -3 0.82245343E-01 0.90799655E+02</pdfrwt>
<totfact> 0.17183896E+04</totfact>
</mgrwt>
</event>
<event>
 5    1  0.3858870E+001  0.9190200E+02  0.7546771E-02  0.1298310E+00
          2   -1    0    0  501    0  0.00000000000E+00  0.00000000000E+00  0.29445276369E+03  0.29445276369E+03  0.00000000000E+00 0. -1.
         -2   -1    0    0    0  501 -0.00000000000E+00 -0.00000000000E+00 -0.71709098198E+01  0.71709098198E+01  0.00000000000E+00 0.  1.
         23    2    1    2    0    0  0.00000000000E+00  0.00000000000E+00  0.28728185387E+03  0.30162367351E+03  0.91901995944E+02 0.  0.
          2    1    3    3  502    0  0.19085559861E+02  0.32295209340E+02  0.23073838362E+03  0.23376792085E+03  0.00000000000E+00 0. -1.
         -2    1    3    3    0  502 -0.19085559861E+02 -0.32295209340E+02  0.56543470249E+02  0.67855752662E+02  0.00000000000E+00 0.  1.
<mgrwt>
<rscale>  0 0.91901996E+02</rscale>
<asrwt>0</asrwt>
<pdfrwt beam="1">  1        2 0.45300416E-01 0.91901996E+02</pdfrwt>
<pdfrwt beam="2">  1       -2 0.11032171E-02 0.91901996E+02</pdfrwt>
<totfact> 0.17467831E+05</totfact>
</mgrwt>
</event>
<event>
 5    1  0.3858870E+001  0.9365988E+02  0.7546771E-02  0.1294223E+00
         -1   -1    0    0    0  501 -0.00000000000E+00  0.00000000000E+00  0.15875404225E+02  0.15875404225E+02  0.00000000000E+00 0.  1.
          1   -1    0    0  501    0  0.00000000000E+00 -0.00000000000E+00 -0.13814094669E+03  0.13814094669E+03  0.00000000000E+00 0. -1.
         23    2    1    2    0    0  0.00000000000E+00  0.00000000000E+00 -0.12226554246E+03  0.15401635091E+03  0.93659881885E+02 0.  0.
          2    1    3    3  502    0 -0.25301481875E+02  0.38854666940E+02 -0.71940168543E+02  0.85587604115E+02  0.00000000000E+00 0. -1.
         -2    1    3    3    0  502  0.25301481875E+02 -0.38854666940E+02 -0.50325373921E+02  0.68428746798E+02  0.00000000000E+00 0.  1.
<mgrwt>
<rscale>  0 0.93659882E+02</rscale>
<asrwt>0</asrwt>
<pdfrwt beam="2">  1        1 0.21252454E-01 0.93659882E+02</pdfrwt>
<pdfrwt beam="1">  1       -1 0.24423698E-02 0.93659882E+02</pdfrwt>
<totfact> 0.10270694E+05</totfact>
</mgrwt>
</event>
<event>
 5    1  0.3858870E+001  0.9174049E+02  0.7546771E-02  0.1298691E+00
         -2   -1    0    0    0  501 -0.00000000000E+00  0.00000000000E+00  0.29824117781E+01  0.29824117781E+01  0.00000000000E+00 0.  1.
          2   -1    0    0  501    0  0.00000000000E+00 -0.00000000000E+00 -0.70549586739E+03  0.70549586739E+03  0.00000000000E+00 0. -1.
         23    2    1    2    0    0  0.00000000000E+00  0.00000000000E+00 -0.70251345561E+03  0.70847827917E+03  0.91740485813E+02 0.  0.
          2    1    3    3  502    0  0.15936486138E+02 -0.32400119984E+02 -0.13278124050E+03  0.13760304209E+03  0.00000000000E+00 0. -1.
         -2    1    3    3    0  502 -0.15936486138E+02  0.32400119984E+02 -0.56973221511E+03  0.57087523707E+03  0.00000000000E+00 0.  1.
<mgrwt>
<rscale>  0 0.91740486E+02</rscale>
<asrwt>0</asrwt>
<pdfrwt beam="2">  1        2 0.10853773E+00 0.91740486E+02</pdfrwt>
<pdfrwt beam="1">  1       -2 0.45883301E-03 0.91740486E+02</pdfrwt>
<totfact> 0.23374010E+05</totfact>
</mgrwt>
</event>
<event>
 5    1  0.3858870E+001  0.8688831E+02  0.7546771E-02  0.1310567E+00
         -1   -1    0    0    0  501 -0.00000000000E+00  0.00000000000E+00  0.63616887545E+03  0.63616887545E+03  0.00000000000E+00 0.  1.
          1   -1    0    0  501    0  0.00000000000E+00 -0.00000000000E+00 -0.29668137074E+01  0.29668137074E+01  0.00000000000E+00 0. -1.
         23    2    1    2    0    0  0.00000000000E+00  0.00000000000E+00  0.63320206174E+03  0.63913568916E+03  0.86888308533E+02 0.  0.
          2    1    3    3  502    0  0.25634342671E+02  0.27345398827E+02  0.47817904485E+03  0.47964579566E+03  0.00000000000E+00 0.  1.
         -2    1    3    3    0  502 -0.25634342671E+02 -0.27345398827E+02  0.15502301689E+03  0.15948989349E+03  0.00000000000E+00 0. -1.
<mgrwt>
<rscale>  0 0.86888309E+02</rscale>
<asrwt>0</asrwt>
<pdfrwt beam="2">  1        1 0.45643338E-03 0.86888309E+02</pdfrwt>
<pdfrwt beam="1">  1       -1 0.97872026E-01 0.86888309E+02</pdfrwt>
<totfact> 0.45181558E+04</totfact>
</mgrwt>
</event>
<event>
 5    1  0.3858870E+001  0.9981395E+02  0.7546771E-02  0.1280688E+00
         -1   -1    0    0    0  501 -0.00000000000E+00  0.00000000000E+00  0.61952282408E+01  0.61952282408E+01  0.00000000000E+00 0.  1.
          1   -1    0    0  501    0  0.00000000000E+00 -0.00000000000E+00 -0.40203623512E+03  0.40203623512E+03  0.00000000000E+00 0. -1.
         23    2    1    2    0    0  0.00000000000E+00  0.00000000000E+00 -0.39584100688E+03  0.40823146337E+03  0.99813951683E+02 0.  0.
          2    1    3    3  502    0  0.44493408359E+02  0.22520594863E+02 -0.18987919174E+03  0.19631848624E+03  0.00000000000E+00 0. -1.
         -2    1    3    3    0  502 -0.44493408359E+02 -0.22520594863E+02 -0.20596181514E+03  0.21191297713E+03  0.00000000000E+00 0.  1.
<mgrwt>
<rscale>  0 0.99813952E+02</rscale>
<asrwt>0</asrwt>
<pdfrwt beam="2">  1        1 0.61851739E-01 0.99813952E+02</pdfrwt>
<pdfrwt beam="1">  1       -1 0.95311188E-03 0.99813952E+02</pdfrwt>
<totfact> 0.10604035E+05</totfact>
</mgrwt>
</event>
<event>
 5    1  0.3858870E+001  0.9175658E+02  0.7546771E-02  0.1298653E+00
         -2   -1    0    0    0  501 -0.00000000000E+00  0.00000000000E+00  0.14948518260E+01  0.14948518260E+01  0.00000000000E+00 0.  1.
          2   -1    0    0  501    0  0.00000000000E+00 -0.00000000000E+00 -0.14080443500E+04  0.14080443500E+04  0.00000000000E+00 0. -1.
         23    2    1    2    0    0  0.00000000000E+00  0.00000000000E+00 -0.14065494982E+04  0.14095392019E+04  0.91756583802E+02 0.  0.
          2    1    3    3  502    0  0.43672255885E+02 -0.13407724722E+02 -0.76805797970E+03  0.76941542303E+03  0.00000000000E+00 0. -1.
         -2    1    3    3    0  502 -0.43672255885E+02  0.13407724722E+02 -0.63849151851E+03  0.64012377883E+03  0.00000000000E+00 0.  1.
<mgrwt>
<rscale>  0 0.91756584E+02</rscale>
<asrwt>0</asrwt>
<pdfrwt beam="2">  1        2 0.21662206E+00 0.91756584E+02</pdfrwt>
<pdfrwt beam="1">  1       -2 0.22997736E-03 0.91756584E+02</pdfrwt>
<totfact> 0.23701143E+05</totfact>
</mgrwt>
</event>
<event>
 5    1  0.3858870E+001  0.9165642E+02  0.7546771E-02  0.1298889E+00
          2   -1    0    0  501    0  0.00000000000E+00  0.00000000000E+00  0.38232356969E+02  0.38232356969E+02  0.00000000000E+00 0. -1.
         -2   -1    0    0    0  501 -0.00000000000E+00 -0.00000000000E+00 -0.54933176684E+02  0.54933176684E+02  0.00000000000E+00 0.  1.
         23    2    1    2    0    0  0.00000000000E+00  0.00000000000E+00 -0.16700819715E+02  0.93165533653E+02  0.91656419752E+02 0.  0.
          2    1    3    3  502    0  0.37213600184E+02  0.22476224372E+02 -0.23087122053E+02  0.49224464501E+02  0.00000000000E+00 0. -1.
         -2    1    3    3    0  502 -0.37213600184E+02 -0.22476224372E+02  0.63863023376E+01  0.43941069153E+02  0.00000000000E+00 0.  1.
<mgrwt>
<rscale>  0 0.91656420E+02</rscale>
<asrwt>0</asrwt>
<pdfrwt beam="1">  1        2 0.58819011E-02 0.91656420E+02</pdfrwt>
<pdfrwt beam="2">  1       -2 0.84512579E-02 0.91656420E+02</pdfrwt>
<totfact> 0.92849456E+04</totfact>
</mgrwt>
</event>
<event>
 5    1  0.3858870E+001  0.8606651E+02  0.7546771E-02  0.1312667E+00
         -1   -1    0    0    0  501 -0.00000000000E+00  0.00000000000E+00  0.17228840850E+02  0.17228840850E+02  0.00000000000E+00 0.  1.
          1   -1    0    0  501    0  0.00000000000E+00 -0.00000000000E+00 -0.10748611661E+03  0.10748611661E+03  0.00000000000E+00 0. -1.
         23    2    1    2    0    0  0.00000000000E+00  0.00000000000E+00 -0.90257275762E+02  0.12471495746E+03  0.86066513736E+02 0.  0.
          2    1    3    3  502    0  0.35825456678E+01  0.25278062425E+02 -0.95326277987E+02  0.98685937946E+02  0.00000000000E+00 0. -1.
         -2    1    3    3    0  502 -0.35825456678E+01 -0.25278062425E+02  0.50690022246E+01  0.26029019516E+02  0.00000000000E+00 0.  1.
<mgrwt>
<rscale>  0 0.86066514E+02</rscale>
<asrwt>0</asrwt>
<pdfrwt beam="2">  1        1 0.16536325E-01 0.86066514E+02</pdfrwt>
<pdfrwt beam="1">  1       -1 0.26505909E-02 0.86066514E+02</pdfrwt>
<totfact> 0.12359916E+05</totfact>
</mgrwt>
</event>
<event>
 5    1  0.3858870E+001  0.9052162E+02  0.7546771E-02  0.1301593E+00
         -1   -1    0    0    0  501 -0.00000000000E+00  0.00000000000E+00  0.11701342318E+03  0.11701342318E+03  0.00000000000E+00 0.  1.
          1   -1    0    0  501    0  0.00000000000E+00 -0.00000000000E+00 -0.17506887235E+02  0.17506887235E+02  0.00000000000E+00 0. -1.
         23    2    1    2    0    0  0.00000000000E+00  0.00000000000E+00  0.99506535946E+02  0.13452031042E+03  0.90521617411E+02 0.  0.
          2    1    3    3  502    0 -0.14300947167E+02 -0.42695932238E+02  0.42930163261E+02  0.62213010192E+02  0.00000000000E+00 0. -1.
         -2    1    3    3    0  502  0.14300947167E+02  0.42695932238E+02  0.56576372685E+02  0.72307300225E+02  0.00000000000E+00 0.  1.
<mgrwt>
<rscale>  0 0.90521617E+02</rscale>
<asrwt>0</asrwt>
<pdfrwt beam="2">  1        1 0.26933673E-02 0.90521617E+02</pdfrwt>
<pdfrwt beam="1">  1       -1 0.18002065E-01 0.90521617E+02</pdfrwt>
<totfact> 0.80417319E+04</totfact>
</mgrwt>
</event>
<event>
 5    1  0.3858870E+001  0.8521025E+02  0.7546771E-02  0.1314884E+00
         -2   -1    0    0    0  501 -0.00000000000E+00  0.00000000000E+00  0.69165914922E+02  0.69165914922E+02  0.00000000000E+00 0.  1.
          2   -1    0    0  501    0  0.00000000000E+00 -0.00000000000E+00 -0.26244093419E+02  0.26244093419E+02  0.00000000000E+00 0. -1.
         23    2    1    2    0    0  0.00000000000E+00  0.00000000000E+00  0.42921821503E+02  0.95410008341E+02  0.85210251322E+02 0.  0.
          2    1    3    3  502    0 -0.31506860784E+02 -0.25959903307E+02  0.78116732972E+01  0.41564661623E+02  0.00000000000E+00 0. -1.
         -2    1    3    3    0  502  0.31506860784E+02  0.25959903307E+02  0.35110148205E+02  0.53845346718E+02  0.00000000000E+00 0.  1.
<mgrwt>
<rscale>  0 0.85210251E+02</rscale>
<asrwt>0</asrwt>
<pdfrwt beam="2">  1        2 0.40375529E-02 0.85210251E+02</pdfrwt>
<pdfrwt beam="1">  1       -2 0.10640910E-01 0.85210251E+02</pdfrwt>
<totfact> 0.10436440E+05</totfact>
</mgrwt>
</event>
<event>
 5    1  0.3858870E+001  0.9076270E+02  0.7546771E-02  0.1301015E+00
          1   -1    0    0  501    0  0.00000000000E+00  0.00000000000E+00  0.47299519974E+03  0.47299519974E+03  0.00000000000E+00 0. -1.
         -1   -1    0    0    0  501 -0.00000000000E+00 -0.00000000000E+00 -0.43540964610E+01  0.43540964610E+01  0.00000000000E+00 0.  1.
         23    2    1    2    0    0  0.00000000000E+00  0.00000000000E+00  0.46864110327E+03  0.47734929620E+03  0.90762695536E+02 0.  0.
          2    1    3    3  502    0  0.10890572618E+02 -0.42420557364E+02  0.29685075100E+03  0.30006412086E+03  0.00000000000E+00 0. -1.
         -2    1    3    3    0  502 -0.10890572618E+02  0.42420557364E+02  0.17179035227E+03  0.17728517533E+03  0.00000000000E+00 0.  1.
<mgrwt>
<rscale>  0 0.90762696E+02</rscale>
<asrwt>0</asrwt>
<pdfrwt beam="1">  1        1 0.72768452E-01 0.90762696E+02</pdfrwt>
<pdfrwt beam="2">  1       -1 0.66986137E-03 0.90762696E+02</pdfrwt>
<totfact> 0.13998012E+05</totfact>
</mgrwt>
</event>
<event>
 5    1  0.3858870E+001  0.9266584E+02  0.7546771E-02  0.1296521E+00
          2   -1    0    0  501    0  0.00000000000E+00  0.00000000000E+00  0.98044813119E+03  0.98044813119E+03  0.00000000000E+00 0. -1.
         -2   -1    0    0    0  501 -0.00000000000E+00 -0.00000000000E+00 -0.21895491533E+01  0.21895491533E+01  0.00000000000E+00 0.  1.
         23    2    1    2    0    0  0.00000000000E+00  0.00000000000E+00  0.97825858204E+03  0.98263768034E+03  0.92665837837E+02 0.  0.
          2    1    3    3  502    0  0.39441576084E+02 -0.92013065651E+01  0.25049291454E+03  0.25374594026E+03  0.00000000000E+00 0.  1.
         -2    1    3    3    0  502 -0.39441576084E+02  0.92013065651E+01  0.72776566750E+03  0.72889174008E+03  0.00000000000E+00 0. -1.
<mgrwt>
<rscale>  0 0.92665838E+02</rscale>
<asrwt>0</asrwt>
<pdfrwt beam="1">  1        2 0.15083782E+00 0.92665838E+02</pdfrwt>
<pdfrwt beam="2">  1       -2 0.33685450E-03 0.92665838E+02</pdfrwt>
<totfact> 0.23932679E+05</totfact>
</mgrwt>
</event>
<event>
 5    1  0.3858870E+001  0.8949044E+02  0.7546771E-02  0.1304090E+00
          2   -1    0    0  501    0  0.00000000000E+00  0.00000000000E+00  0.34049886036E+03  0.34049886036E+03  0.00000000000E+00 0. -1.
         -2   -1    0    0    0  501 -0.00000000000E+00 -0.00000000000E+00 -0.58800045507E+01  0.58800045507E+01  0.00000000000E+00 0.  1.
         23    2    1    2    0    0  0.00000000000E+00  0.00000000000E+00  0.33461885581E+03  0.34637886491E+03  0.89490443031E+02 0.  0.
          2    1    3    3  502    0  0.86953753646E+01  0.42997683179E+02  0.20143294586E+03  0.20615441298E+03  0.00000000000E+00 0. -1.
         -2    1    3    3    0  502 -0.86953753646E+01 -0.42997683179E+02  0.13318590995E+03  0.14022445193E+03  0.00000000000E+00 0.  1.
<mgrwt>
<rscale>  0 0.89490443E+02</rscale>
<asrwt>0</asrwt>
<pdfrwt beam="1">  1        2 0.52384425E-01 0.89490443E+02</pdfrwt>
<pdfrwt beam="2">  1       -2 0.90461635E-03 0.89490443E+02</pdfrwt>
<totfact> 0.19786462E+05</totfact>
</mgrwt>
</event>
<event>
 5    1  0.3858870E+001  0.8453905E+02  0.7546771E-02  0.1316642E+00
          1   -1    0    0  501    0  0.00000000000E+00  0.00000000000E+00  0.83976881024E+01  0.83976881024E+01  0.00000000000E+00 0. -1.
         -1   -1    0    0    0  501 -0.00000000000E+00 -0.00000000000E+00 -0.21276245931E+03  0.21276245931E+03  0.00000000000E+00 0.  1.
         23    2    1    2    0    0  0.00000000000E+00  0.00000000000E+00 -0.20436477121E+03  0.22116014741E+03  0.84539050697E+02 0.  0.
          2    1    3    3  502    0  0.17029478973E+02 -0.21870663591E+02 -0.18698006359E+02  0.33435677379E+02  0.00000000000E+00 0. -1.
         -2    1    3    3    0  502 -0.17029478973E+02  0.21870663591E+02 -0.18566676485E+03  0.18772447003E+03  0.00000000000E+00 0.  1.
<mgrwt>
<rscale>  0 0.84539051E+02</rscale>
<asrwt>0</asrwt>
<pdfrwt beam="1">  1        1 0.12919520E-02 0.84539051E+02</pdfrwt>
<pdfrwt beam="2">  1       -1 0.32732686E-01 0.84539051E+02</pdfrwt>
<totfact> 0.82982290E+04</totfact>
</mgrwt>
</event>
<event>
 5    1  0.3858870E+001  0.9205574E+02  0.7546771E-02  0.1297948E+00
          4   -1    0    0  501    0  0.00000000000E+00  0.00000000000E+00  0.13055105650E+03  0.13055105650E+03  0.00000000000E+00 0. -1.
         -4   -1    0    0    0  501 -0.00000000000E+00 -0.00000000000E+00 -0.16227864509E+02  0.16227864509E+02  0.00000000000E+00 0.  1.
         23    2    1    2    0    0  0.00000000000E+00  0.00000000000E+00  0.11432319199E+03  0.14677892101E+03  0.92055740863E+02 0.  0.
          2    1    3    3  502    0  0.42463734736E+02  0.67758535757E+01  0.83336145935E+02  0.93776298597E+02  0.00000000000E+00 0. -1.
         -2    1    3    3    0  502 -0.42463734736E+02 -0.67758535757E+01  0.30987046060E+02  0.53002622415E+02  0.00000000000E+00 0.  1.
<mgrwt>
<rscale>  0 0.92055741E+02</rscale>
<asrwt>0</asrwt>
<pdfrwt beam="1">  1        4 0.20084777E-01 0.92055741E+02</pdfrwt>
<pdfrwt beam="2">  1       -4 0.24965946E-02 0.92055741E+02</pdfrwt>
<totfact> 0.23226666E+04</totfact>
</mgrwt>
</event>
<event>
 5    1  0.3858870E+001  0.9066974E+02  0.7546771E-02  0.1301238E+00
          2   -1    0    0  501    0  0.00000000000E+00  0.00000000000E+00  0.45195344734E+02  0.45195344734E+02  0.00000000000E+00 0. -1.
         -2   -1    0    0    0  501 -0.00000000000E+00 -0.00000000000E+00 -0.45474823860E+02  0.45474823860E+02  0.00000000000E+00 0.  1.
         23    2    1    2    0    0  0.00000000000E+00  0.00000000000E+00 -0.27947912572E+00  0.90670168595E+02  0.90669737864E+02 0.  0.
          2    1    3    3  502    0 -0.41124714490E+02  0.18415663230E+02 -0.51269014159E+01  0.45350456582E+02  0.00000000000E+00 0. -1.
         -2    1    3    3    0  502  0.41124714490E+02 -0.18415663230E+02  0.48474222902E+01  0.45319712013E+02  0.00000000000E+00 0.  1.
<mgrwt>
<rscale>  0 0.90669738E+02</rscale>
<asrwt>0</asrwt>
<pdfrwt beam="1">  1        2 0.69531300E-02 0.90669738E+02</pdfrwt>
<pdfrwt beam="2">  1       -2 0.69961267E-02 0.90669738E+02</pdfrwt>
<totfact> 0.10004092E+05</totfact>
</mgrwt>
</event>
<event>
 5    1  0.3858870E+001  0.9102867E+02  0.7546771E-02  0.1300380E+00
         -1   -1    0    0    0  501 -0.00000000000E+00  0.00000000000E+00  0.16186938496E+03  0.16186938496E+03  0.00000000000E+00 0.  1.
          1   -1    0    0  501    0  0.00000000000E+00 -0.00000000000E+00 -0.12797692340E+02  0.12797692340E+02  0.00000000000E+00 0. -1.
         23    2    1    2    0    0  0.00000000000E+00  0.00000000000E+00  0.14907169262E+03  0.17466707730E+03  0.91028667745E+02 0.  0.
          2    1    3    3  502    0  0.15116667296E+01 -0.43338084996E+02  0.48011767988E+02  0.64696248830E+02  0.00000000000E+00 0. -1.
         -2    1    3    3    0  502 -0.15116667296E+01  0.43338084996E+02  0.10105992463E+03  0.10997082847E+03  0.00000000000E+00 0.  1.
<mgrwt>
<rscale>  0 0.91028668E+02</rscale>
<asrwt>0</asrwt>
<pdfrwt beam="2">  1        1 0.19688759E-02 0.91028668E+02</pdfrwt>
<pdfrwt beam="1">  1       -1 0.24902981E-01 0.91028668E+02</pdfrwt>
<totfact> 0.73744972E+04</totfact>
</mgrwt>
</event>
<event>
 5    1  0.3858870E+001  0.9154031E+02  0.7546771E-02  0.1299164E+00
          2   -1    0    0  501    0  0.00000000000E+00  0.00000000000E+00  0.13255395187E+04  0.13255395187E+04  0.00000000000E+00 0. -1.
         -2   -1    0    0    0  501 -0.00000000000E+00 -0.00000000000E+00 -0.15804183086E+01  0.15804183086E+01  0.00000000000E+00 0.  1.
         23    2    1    2    0    0  0.00000000000E+00  0.00000000000E+00  0.13239591004E+04  0.13271199370E+04  0.91540306403E+02 0.  0.
          2    1    3    3  502    0 -0.39525588519E+02 -0.22345512476E+02  0.57830301349E+03  0.58008272642E+03  0.00000000000E+00 0. -1.
         -2    1    3    3    0  502  0.39525588519E+02  0.22345512476E+02  0.74565608686E+03  0.74703721055E+03  0.00000000000E+00 0.  1.
<mgrwt>
<rscale>  0 0.91540306E+02</rscale>
<asrwt>0</asrwt>
<pdfrwt beam="1">  1        2 0.20392827E+00 0.91540306E+02</pdfrwt>
<pdfrwt beam="2">  1       -2 0.24314234E-03 0.91540306E+02</pdfrwt>
<totfact> 0.24216411E+05</totfact>
</mgrwt>
</event>
<event>
 5    1  0.3858870E+001  0.8744513E+02  0.7546771E-02  0.1309159E+00
         -1   -1    0    0    0  501 -0.00000000000E+00  0.00000000000E+00  0.38104805051E+03  0.38104805051E+03  0.00000000000E+00 0.  1.
          1   -1    0    0  501    0  0.00000000000E+00 -0.00000000000E+00 -0.50168544510E+01  0.50168544510E+01  0.00000000000E+00 0. -1.
         23    2    1    2    0    0  0.00000000000E+00  0.00000000000E+00  0.37603119606E+03  0.38606490496E+03  0.87445128126E+02 0.  0.
          2    1    3    3  502    0 -0.19952883991E+02 -0.38586785243E+02  0.16611597272E+03  0.17170199174E+03  0.00000000000E+00 0. -1.
         -2    1    3    3    0  502  0.19952883991E+02  0.38586785243E+02  0.20991522335E+03  0.21436291323E+03  0.00000000000E+00 0.  1.
<mgrwt>
<rscale>  0 0.87445128E+02</rscale>
<asrwt>0</asrwt>
<pdfrwt beam="2">  1        1 0.77182406E-03 0.87445128E+02</pdfrwt>
<pdfrwt beam="1">  1       -1 0.58622754E-01 0.87445128E+02</pdfrwt>
<totfact> 0.60885188E+04</totfact>
</mgrwt>
</event>
<event>
 5    1  0.3858870E+001  0.9209050E+02  0.7546771E-02  0.1297867E+00
         -1   -1    0    0    0  501 -0.00000000000E+00  0.00000000000E+00  0.17840843071E+01  0.17840843071E+01  0.00000000000E+00 0.  1.
          1   -1    0    0  501    0  0.00000000000E+00 -0.00000000000E+00 -0.11883770884E+04  0.11883770884E+04  0.00000000000E+00 0. -1.
         23    2    1    2    0    0  0.00000000000E+00  0.00000000000E+00 -0.11865930041E+04  0.11901611727E+04  0.92090497104E+02 0.  0.
          2    1    3    3  502    0 -0.29482144807E+02 -0.30657340190E+02 -0.36534741557E+03  0.36781490377E+03  0.00000000000E+00 0.  1.
         -2    1    3    3    0  502  0.29482144807E+02  0.30657340190E+02 -0.82124558848E+03  0.82234626890E+03  0.00000000000E+00 0. -1.
<mgrwt>
<rscale>  0 0.92090497E+02</rscale>
<asrwt>0</asrwt>
<pdfrwt beam="2">  1        1 0.18282742E+00 0.92090497E+02</pdfrwt>
<pdfrwt beam="1">  1       -1 0.27447425E-03 0.92090497E+02</pdfrwt>
<totfact> 0.12454957E+05</totfact>
</mgrwt>
</event>
<event>
 5    1  0.3858870E+001  0.9119467E+02  0.7546771E-02  0.1299984E+00
          1   -1    0    0  501    0  0.00000000000E+00  0.00000000000E+00  0.27936343310E+03  0.27936343310E+03  0.00000000000E+00 0. -1.
         -1   -1    0    0    0  501 -0.00000000000E+00 -0.00000000000E+00 -0.74423379774E+01  0.74423379774E+01  0.00000000000E+00 0.  1.
         23    2    1    2    0    0  0.00000000000E+00  0.00000000000E+00  0.27192109513E+03  0.28680577108E+03  0.91194672820E+02 0.  0.
          2    1    3    3  502    0  0.18328645592E+02 -0.41678338176E+02  0.12819685362E+03  0.13604211259E+03  0.00000000000E+00 0.  1.
         -2    1    3    3    0  502 -0.18328645592E+02  0.41678338176E+02  0.14372424151E+03  0.15076365849E+03  0.00000000000E+00 0. -1.
<mgrwt>
<rscale>  0 0.91194673E+02</rscale>
<asrwt>0</asrwt>
<pdfrwt beam="1">  1        1 0.42978982E-01 0.91194673E+02</pdfrwt>
<pdfrwt beam="2">  1       -1 0.11449753E-02 0.91194673E+02</pdfrwt>
<totfact> 0.12631138E+05</totfact>
</mgrwt>
</event>
<event>
 5    1  0.3858870E+001  0.9117781E+02  0.7546771E-02  0.1300024E+00
         -1   -1    0    0    0  501 -0.00000000000E+00  0.00000000000E+00  0.15615832471E+04  0.15615832471E+04  0.00000000000E+00 0.  1.
          1   -1    0    0  501    0  0.00000000000E+00 -0.00000000000E+00 -0.13309236757E+01  0.13309236757E+01  0.00000000000E+00 0. -1.
         23    2    1    2    0    0  0.00000000000E+00  0.00000000000E+00  0.15602523234E+04  0.15629141708E+04  0.91177806841E+02 0.  0.
          2    1    3    3  502    0 -0.11897955093E+02 -0.39905039838E+02  0.46202773034E+03  0.46390041727E+03  0.00000000000E+00 0. -1.
         -2    1    3    3    0  502  0.11897955093E+02  0.39905039838E+02  0.10982245931E+04  0.10990137535E+04  0.00000000000E+00 0.  1.
<mgrwt>
<rscale>  0 0.91177807E+02</rscale>
<asrwt>0</asrwt>
<pdfrwt beam="2">  1        1 0.20475874E-03 0.91177807E+02</pdfrwt>
<pdfrwt beam="1">  1       -1 0.24024211E+00 0.91177807E+02</pdfrwt>
<totfact> 0.12737285E+04</totfact>
</mgrwt>
</event>
<event>
 5    1  0.3858870E+001  0.9215286E+02  0.7546771E-02  0.1297720E+00
         -2   -1    0    0    0  501 -0.00000000000E+00  0.00000000000E+00  0.18367719324E+01  0.18367719324E+01  0.00000000000E+00 0.  1.
          2   -1    0    0  501    0  0.00000000000E+00 -0.00000000000E+00 -0.11558525966E+04  0.11558525966E+04  0.00000000000E+00 0. -1.
         23    2    1    2    0    0  0.00000000000E+00  0.00000000000E+00 -0.11540158246E+04  0.11576893685E+04  0.92152864466E+02 0.  0.
          2    1    3    3  502    0  0.43086630887E+02 -0.13805190107E+02 -0.46749124792E+03  0.46967553473E+03  0.00000000000E+00 0. -1.
         -2    1    3    3    0  502 -0.43086630887E+02  0.13805190107E+02 -0.68652457672E+03  0.68801383378E+03  0.00000000000E+00 0.  1.
<mgrwt>
<rscale>  0 0.92152864E+02</rscale>
<asrwt>0</asrwt>
<pdfrwt beam="2">  1        2 0.17782357E+00 0.92152864E+02</pdfrwt>
<pdfrwt beam="1">  1       -2 0.28258015E-03 0.92152864E+02</pdfrwt>
<totfact> 0.24264223E+05</totfact>
</mgrwt>
</event>
<event>
 5    1  0.3858870E+001  0.8737701E+02  0.7546771E-02  0.1309331E+00
         -3   -1    0    0    0  501 -0.00000000000E+00  0.00000000000E+00  0.23484066140E+03  0.23484066140E+03  0.00000000000E+00 0.  1.
          3   -1    0    0  501    0  0.00000000000E+00 -0.00000000000E+00 -0.81275767771E+01  0.81275767771E+01  0.00000000000E+00 0. -1.
         23    2    1    2    0    0  0.00000000000E+00  0.00000000000E+00  0.22671308463E+03  0.24296823818E+03  0.87377010843E+02 0.  0.
          2    1    3    3  502    0 -0.30198707397E+02  0.11337863044E+01  0.25624255047E+02  0.39621330701E+02  0.00000000000E+00 0. -1.
         -2    1    3    3    0  502  0.30198707397E+02 -0.11337863044E+01  0.20108882958E+03  0.20334690748E+03  0.00000000000E+00 0.  1.
<mgrwt>
<rscale>  0 0.87377011E+02</rscale>
<asrwt>0</asrwt>
<pdfrwt beam="2">  1        3 0.12503966E-02 0.87377011E+02</pdfrwt>
<pdfrwt beam="1">  1       -3 0.36129327E-01 0.87377011E+02</pdfrwt>
<totfact> 0.29608732E+04</totfact>
</mgrwt>
</event>
<event>
 5    1  0.3858870E+001  0.1006246E+03  0.7546771E-02  0.1278988E+00
         -3   -1    0    0    0  501 -0.00000000000E+00  0.00000000000E+00  0.21308792417E+01  0.21308792417E+01  0.00000000000E+00 0.  1.
          3   -1    0    0  501    0  0.00000000000E+00 -0.00000000000E+00 -0.11879257865E+04  0.11879257865E+04  0.00000000000E+00 0. -1.
         23    2    1    2    0    0  0.00000000000E+00  0.00000000000E+00 -0.11857949072E+04  0.11900566657E+04  0.10062457750E+03 0.  0.
          2    1    3    3  502    0  0.35599589573E+02  0.34358231694E+02 -0.48482216436E+03  0.48734007625E+03  0.00000000000E+00 0.  1.
         -2    1    3    3    0  502 -0.35599589573E+02 -0.34358231694E+02 -0.70097274285E+03  0.70271658945E+03  0.00000000000E+00 0. -1.
<mgrwt>
<rscale>  0 0.10062458E+03</rscale>
<asrwt>0</asrwt>
<pdfrwt beam="2">  1        3 0.18275735E+00 0.10062458E+03</pdfrwt>
<pdfrwt beam="1">  1       -3 0.32782840E-03 0.10062458E+03</pdfrwt>
<totfact> 0.63571638E+03</totfact>
</mgrwt>
</event>
<event>
 5    1  0.3858870E+001  0.9190570E+02  0.7546771E-02  0.1298301E+00
          4   -1    0    0  501    0  0.00000000000E+00  0.00000000000E+00  0.86528472249E+02  0.86528472249E+02  0.00000000000E+00 0. -1.
         -4   -1    0    0    0  501 -0.00000000000E+00 -0.00000000000E+00 -0.24404272475E+02  0.24404272475E+02  0.00000000000E+00 0.  1.
         23    2    1    2    0    0  0.00000000000E+00  0.00000000000E+00  0.62124199773E+02  0.11093274472E+03  0.91905699793E+02 0.  0.
          2    1    3    3  502    0  0.39412901804E+02 -0.14050426818E+02  0.53991598703E+02  0.68307276720E+02  0.00000000000E+00 0. -1.
         -2    1    3    3    0  502 -0.39412901804E+02  0.14050426818E+02  0.81326010709E+01  0.42625468004E+02  0.00000000000E+00 0.  1.
<mgrwt>
<rscale>  0 0.91905700E+02</rscale>
<asrwt>0</asrwt>
<pdfrwt beam="1">  1        4 0.13312072E-01 0.91905700E+02</pdfrwt>
<pdfrwt beam="2">  1       -4 0.37545035E-02 0.91905700E+02</pdfrwt>
<totfact> 0.25246470E+04</totfact>
</mgrwt>
</event>
<event>
 5    1  0.3858870E+001  0.9044326E+02  0.7546771E-02  0.1301782E+00
          1   -1    0    0  501    0  0.00000000000E+00  0.00000000000E+00  0.47676847534E+03  0.47676847534E+03  0.00000000000E+00 0. -1.
         -1   -1    0    0    0  501 -0.00000000000E+00 -0.00000000000E+00 -0.42892844659E+01  0.42892844659E+01  0.00000000000E+00 0.  1.
         23    2    1    2    0    0  0.00000000000E+00  0.00000000000E+00  0.47247919087E+03  0.48105775980E+03  0.90443255473E+02 0.  0.
          2    1    3    3  502    0  0.35868091077E+02  0.27473707909E+01  0.90485732075E+02  0.97374204556E+02  0.00000000000E+00 0.  1.
         -2    1    3    3    0  502 -0.35868091077E+02 -0.27473707909E+01  0.38199345880E+03  0.38368355525E+03  0.00000000000E+00 0. -1.
<mgrwt>
<rscale>  0 0.90443255E+02</rscale>
<asrwt>0</asrwt>
<pdfrwt beam="1">  1        1 0.73348954E-01 0.90443255E+02</pdfrwt>
<pdfrwt beam="2">  1       -1 0.65989030E-03 0.90443255E+02</pdfrwt>
<totfact> 0.14144019E+05</totfact>
</mgrwt>
</event>
<event>
 5    1  0.3858870E+001  0.7867453E+02  0.7546771E-02  0.1332856E+00
          1   -1    0    0  501    0  0.00000000000E+00  0.00000000000E+00  0.52540108162E+01  0.52540108162E+01  0.00000000000E+00 0. -1.
         -1   -1    0    0    0  501 -0.00000000000E+00 -0.00000000000E+00 -0.29452170579E+03  0.29452170579E+03  0.00000000000E+00 0.  1.
         23    2    1    2    0    0  0.00000000000E+00  0.00000000000E+00 -0.28926769497E+03  0.29977571661E+03  0.78674525174E+02 0.  0.
          2    1    3    3  502    0  0.10806504750E+02  0.25240611812E+02 -0.37296762874E+02  0.46313254587E+02  0.00000000000E+00 0. -1.
         -2    1    3    3    0  502 -0.10806504750E+02 -0.25240611812E+02 -0.25197093210E+03  0.25346246202E+03  0.00000000000E+00 0.  1.
<mgrwt>
<rscale>  0 0.78674525E+02</rscale>
<asrwt>0</asrwt>
<pdfrwt beam="1">  1        1 0.80830932E-03 0.78674525E+02</pdfrwt>
<pdfrwt beam="2">  1       -1 0.45311034E-01 0.78674525E+02</pdfrwt>
<totfact> 0.89547463E+04</totfact>
</mgrwt>
</event>
<event>
 5    1  0.3858870E+001  0.7093419E+02  0.7546771E-02  0.1356945E+00
          1   -1    0    0  501    0  0.00000000000E+00  0.00000000000E+00  0.17795078190E+02  0.17795078190E+02  0.00000000000E+00 0. -1.
         -1   -1    0    0    0  501 -0.00000000000E+00 -0.00000000000E+00 -0.70688909635E+02  0.70688909635E+02  0.00000000000E+00 0.  1.
         23    2    1    2    0    0  0.00000000000E+00  0.00000000000E+00 -0.52893831444E+02  0.88483987825E+02  0.70934185669E+02 0.  0.
          2    1    3    3  502    0 -0.17687329576E+02 -0.23688988322E+02 -0.50888025163E+02  0.58852365290E+02  0.00000000000E+00 0.  1.
         -2    1    3    3    0  502  0.17687329576E+02  0.23688988322E+02 -0.20058062816E+01  0.29631622535E+02  0.00000000000E+00 0. -1.
<mgrwt>
<rscale>  0 0.70934186E+02</rscale>
<asrwt>0</asrwt>
<pdfrwt beam="1">  1        1 0.27377043E-02 0.70934186E+02</pdfrwt>
<pdfrwt beam="2">  1       -1 0.10875217E-01 0.70934186E+02</pdfrwt>
<totfact> 0.16348427E+05</totfact>
</mgrwt>
</event>
<event>
 5    1  0.3858870E+001  0.1031411E+03  0.7546771E-02  0.1273826E+00
          2   -1    0    0  501    0  0.00000000000E+00  0.00000000000E+00  0.28093024170E+03  0.28093024170E+03  0.00000000000E+00 0.  1.
         -2   -1    0    0    0  501 -0.00000000000E+00 -0.00000000000E+00 -0.94668422059E+01  0.94668422059E+01  0.00000000000E+00 0. -1.
         23    2    1    2    0    0  0.00000000000E+00  0.00000000000E+00  0.27146339949E+03  0.29039708390E+03  0.10314111244E+03 0.  0.
          2    1    3    3  502    0 -0.37495857544E+02 -0.33839439564E+02  0.10640752480E+03  0.11778628247E+03  0.00000000000E+00 0. -1.
         -2    1    3    3    0  502  0.37495857544E+02  0.33839439564E+02  0.16505587469E+03  0.17261080143E+03  0.00000000000E+00 0.  1.
<mgrwt>
<rscale>  0 0.10314111E+03</rscale>
<asrwt>0</asrwt>
<pdfrwt beam="1">  1        2 0.43220031E-01 0.10314111E+03</pdfrwt>
<pdfrwt beam="2">  1       -2 0.14564375E-02 0.10314111E+03</pdfrwt>
<totfact> 0.12580711E+05</totfact>
</mgrwt>
</event>
<event>
 5    1  0.3858870E+001  0.8557263E+02  0.7546771E-02  0.1313942E+00
         -2   -1    0    0    0  501 -0.00000000000E+00  0.00000000000E+00  0.11737221759E+01  0.11737221759E+01  0.00000000000E+00 0.  1.
          2   -1    0    0  501    0  0.00000000000E+00 -0.00000000000E+00 -0.15597122739E+04  0.15597122739E+04  0.00000000000E+00 0. -1.
         23    2    1    2    0    0  0.00000000000E+00  0.00000000000E+00 -0.15585385518E+04  0.15608859961E+04  0.85572633100E+02 0.  0.
          2    1    3    3  502    0 -0.33112989846E+02 -0.25845324734E+02 -0.92770014901E+03  0.92865064334E+03  0.00000000000E+00 0. -1.
         -2    1    3    3    0  502  0.33112989846E+02  0.25845324734E+02 -0.63083840276E+03  0.63223535278E+03  0.00000000000E+00 0.  1.
<mgrwt>
<rscale>  0 0.85572633E+02</rscale>
<asrwt>0</asrwt>
<pdfrwt beam="2">  1        2 0.23995595E+00 0.85572633E+02</pdfrwt>
<pdfrwt beam="1">  1       -2 0.18057248E-03 0.85572633E+02</pdfrwt>
<totfact> 0.27437802E+05</totfact>
</mgrwt>
</event>
<event>
 5    1  0.3858870E+001  0.9102199E+02  0.7546771E-02  0.1300396E+00
          3   -1    0    0  501    0  0.00000000000E+00  0.00000000000E+00  0.27585599467E+02  0.27585599467E+02  0.00000000000E+00 0. -1.
         -3   -1    0    0    0  501 -0.00000000000E+00 -0.00000000000E+00 -0.75084489932E+02  0.75084489932E+02  0.00000000000E+00 0.  1.
         23    2    1    2    0    0  0.00000000000E+00  0.00000000000E+00 -0.47498890464E+02  0.10267008940E+03  0.91021989990E+02 0.  0.
          2    1    3    3  502    0  0.22249796081E+02  0.35937671625E+02 -0.47177771948E+01  0.42530307889E+02  0.00000000000E+00 0.  1.
         -2    1    3    3    0  502 -0.22249796081E+02 -0.35937671625E+02 -0.42781113270E+02  0.60139781510E+02  0.00000000000E+00 0. -1.
<mgrwt>
<rscale>  0 0.91021990E+02</rscale>
<asrwt>0</asrwt>
<pdfrwt beam="1">  1        3 0.42439385E-02 0.91021990E+02</pdfrwt>
<pdfrwt beam="2">  1       -3 0.11551460E-01 0.91021990E+02</pdfrwt>
<totfact> 0.34635942E+04</totfact>
</mgrwt>
</event>
<event>
 5    1  0.3858870E+001  0.8925830E+02  0.7546771E-02  0.1304658E+00
          1   -1    0    0  501    0  0.00000000000E+00  0.00000000000E+00  0.81014152326E+02  0.81014152326E+02  0.00000000000E+00 0. -1.
         -1   -1    0    0    0  501 -0.00000000000E+00 -0.00000000000E+00 -0.24585344678E+02  0.24585344678E+02  0.00000000000E+00 0.  1.
         23    2    1    2    0    0  0.00000000000E+00  0.00000000000E+00  0.56428807649E+02  0.10559949700E+03  0.89258296168E+02 0.  0.
          2    1    3    3  502    0 -0.24175576004E+02  0.47155748744E+00  0.72592907491E+02  0.76514123269E+02  0.00000000000E+00 0. -1.
         -2    1    3    3    0  502  0.24175576004E+02 -0.47155748744E+00 -0.16164099842E+02  0.29085373735E+02  0.00000000000E+00 0.  1.
<mgrwt>
<rscale>  0 0.89258296E+02</rscale>
<asrwt>0</asrwt>
<pdfrwt beam="1">  1        1 0.12463716E-01 0.89258296E+02</pdfrwt>
<pdfrwt beam="2">  1       -1 0.37823608E-02 0.89258296E+02</pdfrwt>
<totfact> 0.10699593E+05</totfact>
</mgrwt>
</event>
<event>
 5    1  0.3858870E+001  0.6743402E+02  0.7546771E-02  0.1369043E+00
          1   -1    0    0  501    0  0.00000000000E+00  0.00000000000E+00  0.15111021126E+03  0.15111021126E+03  0.00000000000E+00 0. -1.
         -1   -1    0    0    0  501 -0.00000000000E+00 -0.00000000000E+00 -0.75232297648E+01  0.75232297648E+01  0.00000000000E+00 0.  1.
         23    2    1    2    0    0  0.00000000000E+00  0.00000000000E+00  0.14358698150E+03  0.15863344103E+03  0.67434022248E+02 0.  0.
          2    1    3    3  502    0  0.16923418965E+02 -0.28671076234E+02  0.59256124052E+02  0.67968529184E+02  0.00000000000E+00 0. -1.
         -2    1    3    3    0  502 -0.16923418965E+02  0.28671076234E+02  0.84330857445E+02  0.90664911842E+02  0.00000000000E+00 0.  1.
<mgrwt>
<rscale>  0 0.67434022E+02</rscale>
<asrwt>0</asrwt>
<pdfrwt beam="1">  1        1 0.23247723E-01 0.67434022E+02</pdfrwt>
<pdfrwt beam="2">  1       -1 0.11574201E-02 0.67434022E+02</pdfrwt>
<totfact> 0.24965630E+05</totfact>
</mgrwt>
</event>
<event>
 5    1  0.3858870E+001  0.8737464E+02  0.7546771E-02  0.1309337E+00
         -1   -1    0    0    0  501 -0.00000000000E+00  0.00000000000E+00  0.11679258039E+01  0.11679258039E+01  0.00000000000E+00 0.  1.
          1   -1    0    0  501    0  0.00000000000E+00 -0.00000000000E+00 -0.16341637358E+04  0.16341637358E+04  0.00000000000E+00 0. -1.
         23    2    1    2    0    0  0.00000000000E+00  0.00000000000E+00 -0.16329958100E+04  0.16353316616E+04  0.87374641511E+02 0.  0.
          2    1    3    3  502    0  0.11766087054E+02  0.38357790091E+02 -0.11400364960E+04  0.11407422904E+04  0.00000000000E+00 0. -1.
         -2    1    3    3    0  502 -0.11766087054E+02 -0.38357790091E+02 -0.49295931398E+03  0.49458937120E+03  0.00000000000E+00 0.  1.
<mgrwt>
<rscale>  0 0.87374642E+02</rscale>
<asrwt>0</asrwt>
<pdfrwt beam="2">  1        1 0.25140869E+00 0.87374642E+02</pdfrwt>
<pdfrwt beam="1">  1       -1 0.17968169E-03 0.87374642E+02</pdfrwt>
<totfact> 0.11449453E+05</totfact>
</mgrwt>
</event>
<event>
 5    1  0.3858870E+001  0.8655711E+02  0.7546771E-02  0.1311410E+00
          2   -1    0    0  501    0  0.00000000000E+00  0.00000000000E+00  0.99018721853E+03  0.99018721853E+03  0.00000000000E+00 0. -1.
         -2   -1    0    0    0  501 -0.00000000000E+00 -0.00000000000E+00 -0.18915952235E+01  0.18915952235E+01  0.00000000000E+00 0.  1.
         23    2    1    2    0    0  0.00000000000E+00  0.00000000000E+00  0.98829562331E+03  0.99207881376E+03  0.86557112081E+02 0.  0.
          2    1    3    3  502    0  0.32559452064E+02 -0.26821022104E+02  0.60500434453E+03  0.60647319977E+03  0.00000000000E+00 0. -1.
         -2    1    3    3    0  502 -0.32559452064E+02  0.26821022104E+02  0.38329127878E+03  0.38560561398E+03  0.00000000000E+00 0.  1.
<mgrwt>
<rscale>  0 0.86557112E+02</rscale>
<asrwt>0</asrwt>
<pdfrwt beam="1">  1        2 0.15233608E+00 0.86557112E+02</pdfrwt>
<pdfrwt beam="2">  1       -2 0.29101544E-03 0.86557112E+02</pdfrwt>
<totfact> 0.28646169E+05</totfact>
</mgrwt>
</event>
<event>
 5    1  0.3858870E+001  0.8528334E+02  0.7546771E-02  0.1314693E+00
         -2   -1    0    0    0  501 -0.00000000000E+00  0.00000000000E+00  0.77434927448E+01  0.77434927448E+01  0.00000000000E+00 0.  1.
          2   -1    0    0  501    0  0.00000000000E+00 -0.00000000000E+00 -0.23481808814E+03  0.23481808814E+03  0.00000000000E+00 0. -1.
         23    2    1    2    0    0  0.00000000000E+00  0.00000000000E+00 -0.22707459539E+03  0.24256158088E+03  0.85283343317E+02 0.  0.
          2    1    3    3  502    0 -0.16288281560E+02  0.15444804841E+02 -0.21665466652E+03  0.21781435820E+03  0.00000000000E+00 0. -1.
         -2    1    3    3    0  502  0.16288281560E+02 -0.15444804841E+02 -0.10419928870E+02  0.24747222681E+02  0.00000000000E+00 0.  1.
<mgrwt>
<rscale>  0 0.85283343E+02</rscale>
<asrwt>0</asrwt>
<pdfrwt beam="2">  1        2 0.36125863E-01 0.85283343E+02</pdfrwt>
<pdfrwt beam="1">  1       -2 0.11913065E-02 0.85283343E+02</pdfrwt>
<totfact> 0.19605752E+05</totfact>
</mgrwt>
</event>
<event>
 5    1  0.3858870E+001  0.9128656E+02  0.7546771E-02  0.1299766E+00
         -3   -1    0    0    0  501 -0.00000000000E+00  0.00000000000E+00  0.15769298595E+01  0.15769298595E+01  0.00000000000E+00 0.  1.
          3   -1    0    0  501    0  0.00000000000E+00 -0.00000000000E+00 -0.13211169872E+04  0.13211169872E+04  0.00000000000E+00 0. -1.
         23    2    1    2    0    0  0.00000000000E+00  0.00000000000E+00 -0.13195400573E+04  0.13226939171E+04  0.91286555966E+02 0.  0.
          2    1    3    3  502    0 -0.23754906645E+01 -0.29912846230E+02 -0.11581083156E+04  0.11584969970E+04  0.00000000000E+00 0. -1.
         -2    1    3    3    0  502  0.23754906645E+01  0.29912846230E+02 -0.16143174170E+03  0.16419692005E+03  0.00000000000E+00 0.  1.
<mgrwt>
<rscale>  0 0.91286556E+02</rscale>
<asrwt>0</asrwt>
<pdfrwt beam="2">  1        3 0.20324822E+00 0.91286556E+02</pdfrwt>
<pdfrwt beam="1">  1       -3 0.24260525E-03 0.91286556E+02</pdfrwt>
<totfact> 0.72424476E+03</totfact>
</mgrwt>
</event>
<event>
 5    1  0.3858870E+001  0.9061621E+02  0.7546771E-02  0.1301366E+00
          1   -1    0    0  501    0  0.00000000000E+00  0.00000000000E+00  0.54656872207E+03  0.54656872207E+03  0.00000000000E+00 0. -1.
         -1   -1    0    0    0  501 -0.00000000000E+00 -0.00000000000E+00 -0.37558393593E+01  0.37558393593E+01  0.00000000000E+00 0.  1.
         23    2    1    2    0    0  0.00000000000E+00  0.00000000000E+00  0.54281288271E+03  0.55032456142E+03  0.90616208681E+02 0.  0.
          2    1    3    3  502    0  0.14727532959E+02  0.21584089830E+02  0.49619872566E+03  0.49688625309E+03  0.00000000000E+00 0. -1.
         -2    1    3    3    0  502 -0.14727532959E+02 -0.21584089830E+02  0.46614157048E+02  0.53438308339E+02  0.00000000000E+00 0.  1.
<mgrwt>
<rscale>  0 0.90616209E+02</rscale>
<asrwt>0</asrwt>
<pdfrwt beam="1">  1        1 0.84087433E-01 0.90616209E+02</pdfrwt>
<pdfrwt beam="2">  1       -1 0.57782187E-03 0.90616209E+02</pdfrwt>
<totfact> 0.14289415E+05</totfact>
</mgrwt>
</event>
<event>
 5    1  0.3858870E+001  0.9191198E+02  0.7546771E-02  0.1298287E+00
         -1   -1    0    0    0  501 -0.00000000000E+00  0.00000000000E+00  0.15314461758E+03  0.15314461758E+03  0.00000000000E+00 0.  1.
          1   -1    0    0  501    0  0.00000000000E+00 -0.00000000000E+00 -0.13790580862E+02  0.13790580862E+02  0.00000000000E+00 0. -1.
         23    2    1    2    0    0  0.00000000000E+00  0.00000000000E+00  0.13935403671E+03  0.16693519844E+03  0.91911984687E+02 0.  0.
          2    1    3    3  502    0 -0.21568999891E+02 -0.34627673535E+02  0.31249013778E+02  0.51388699077E+02  0.00000000000E+00 0. -1.
         -2    1    3    3    0  502  0.21568999891E+02  0.34627673535E+02  0.10810502293E+03  0.11554649936E+03  0.00000000000E+00 0.  1.
<mgrwt>
<rscale>  0 0.91911985E+02</rscale>
<asrwt>0</asrwt>
<pdfrwt beam="2">  1        1 0.21216279E-02 0.91911985E+02</pdfrwt>
<pdfrwt beam="1">  1       -1 0.23560709E-01 0.91911985E+02</pdfrwt>
<totfact> 0.72886272E+04</totfact>
</mgrwt>
</event>
<event>
 5    1  0.3858870E+001  0.9109783E+02  0.7546771E-02  0.1300215E+00
          1   -1    0    0  501    0  0.00000000000E+00  0.00000000000E+00  0.23707062685E+03  0.23707062685E+03  0.00000000000E+00 0. -1.
         -1   -1    0    0    0  501 -0.00000000000E+00 -0.00000000000E+00 -0.87514159321E+01  0.87514159321E+01  0.00000000000E+00 0.  1.
         23    2    1    2    0    0  0.00000000000E+00  0.00000000000E+00  0.22831921091E+03  0.24582204278E+03  0.91097830069E+02 0.  0.
          2    1    3    3  502    0  0.17922137390E+02 -0.25731262406E+02  0.25012895388E+02  0.40111666748E+02  0.00000000000E+00 0.  1.
         -2    1    3    3    0  502 -0.17922137390E+02  0.25731262406E+02  0.20330631553E+03  0.20571037603E+03  0.00000000000E+00 0. -1.
<mgrwt>
<rscale>  0 0.91097830E+02</rscale>
<asrwt>0</asrwt>
<pdfrwt beam="1">  1        1 0.36472399E-01 0.91097830E+02</pdfrwt>
<pdfrwt beam="2">  1       -1 0.13463719E-02 0.91097830E+02</pdfrwt>
<totfact> 0.12268044E+05</totfact>
</mgrwt>
</event>
<event>
 5    1  0.3858870E+001  0.9013642E+02  0.7546771E-02  0.1302522E+00
          2   -1    0    0  501    0  0.00000000000E+00  0.00000000000E+00  0.13084155294E+04  0.13084155294E+04  0.00000000000E+00 0. -1.
         -2   -1    0    0    0  501 -0.00000000000E+00 -0.00000000000E+00 -0.15523688176E+01  0.15523688176E+01  0.00000000000E+00 0.  1.
         23    2    1    2    0    0  0.00000000000E+00  0.00000000000E+00  0.13068631606E+04  0.13099678982E+04  0.90136418131E+02 0.  0.
          2    1    3    3  502    0 -0.10285026837E+02  0.41980422084E+02  0.46788115400E+03  0.46987329343E+03  0.00000000000E+00 0. -1.
         -2    1    3    3    0  502  0.10285026837E+02 -0.41980422084E+02  0.83898200660E+03  0.84009460480E+03  0.00000000000E+00 0.  1.
<mgrwt>
<rscale>  0 0.90136418E+02</rscale>
<asrwt>0</asrwt>
<pdfrwt beam="1">  1        2 0.20129381E+00 0.90136418E+02</pdfrwt>
<pdfrwt beam="2">  1       -2 0.23882702E-03 0.90136418E+02</pdfrwt>
<totfact> 0.25290691E+05</totfact>
</mgrwt>
</event>
<event>
 5    1  0.3858870E+001  0.8094624E+02  0.7546771E-02  0.1326387E+00
         -2   -1    0    0    0  501 -0.00000000000E+00  0.00000000000E+00  0.37185509922E+03  0.37185509922E+03  0.00000000000E+00 0.  1.
          2   -1    0    0  501    0  0.00000000000E+00 -0.00000000000E+00 -0.44051393605E+01  0.44051393605E+01  0.00000000000E+00 0. -1.
         23    2    1    2    0    0  0.00000000000E+00  0.00000000000E+00  0.36744995986E+03  0.37626023858E+03  0.80946242259E+02 0.  0.
          2    1    3    3  502    0  0.23791857871E+02 -0.10593734632E+02  0.39718972872E+02  0.47496068473E+02  0.00000000000E+00 0. -1.
         -2    1    3    3    0  502 -0.23791857871E+02  0.10593734632E+02  0.32773098699E+03  0.32876417011E+03  0.00000000000E+00 0.  1.
<mgrwt>
<rscale>  0 0.80946242E+02</rscale>
<asrwt>0</asrwt>
<pdfrwt beam="2">  1        2 0.67771404E-03 0.80946242E+02</pdfrwt>
<pdfrwt beam="1">  1       -2 0.57208452E-01 0.80946242E+02</pdfrwt>
<totfact> 0.60852877E+04</totfact>
</mgrwt>
</event>
<event>
 5    1  0.3858870E+001  0.8974741E+02  0.7546771E-02  0.1303465E+00
         -3   -1    0    0    0  501 -0.00000000000E+00  0.00000000000E+00  0.54950832852E+02  0.54950832852E+02  0.00000000000E+00 0.  1.
          3   -1    0    0  501    0  0.00000000000E+00 -0.00000000000E+00 -0.36644569684E+02  0.36644569684E+02  0.00000000000E+00 0. -1.
         23    2    1    2    0    0  0.00000000000E+00  0.00000000000E+00  0.18306263168E+02  0.91595402536E+02  0.89747414974E+02 0.  0.
          2    1    3    3  502    0 -0.83655421981E+01 -0.30162200023E+02 -0.23663415924E+02  0.39238983927E+02  0.00000000000E+00 0. -1.
         -2    1    3    3    0  502  0.83655421981E+01  0.30162200023E+02  0.41969679092E+02  0.52356418609E+02  0.00000000000E+00 0.  1.
<mgrwt>
<rscale>  0 0.89747415E+02</rscale>
<asrwt>0</asrwt>
<pdfrwt beam="2">  1        3 0.56376261E-02 0.89747415E+02</pdfrwt>
<pdfrwt beam="1">  1       -3 0.84539743E-02 0.89747415E+02</pdfrwt>
<totfact> 0.36856676E+04</totfact>
</mgrwt>
</event>
<event>
 5    1  0.3858870E+001  0.9089753E+02  0.7546771E-02  0.1300693E+00
          1   -1    0    0  501    0  0.00000000000E+00  0.00000000000E+00  0.82295391121E+03  0.82295391121E+03  0.00000000000E+00 0. -1.
         -1   -1    0    0    0  501 -0.00000000000E+00 -0.00000000000E+00 -0.25099706681E+01  0.25099706681E+01  0.00000000000E+00 0.  1.
         23    2    1    2    0    0  0.00000000000E+00  0.00000000000E+00  0.82044394055E+03  0.82546388188E+03  0.90897528643E+02 0.  0.
          2    1    3    3  502    0 -0.67183044051E+01  0.22828361546E+02  0.76185789289E+03  0.76222943964E+03  0.00000000000E+00 0. -1.
         -2    1    3    3    0  502  0.67183044051E+01 -0.22828361546E+02  0.58586047659E+02  0.63234442239E+02  0.00000000000E+00 0.  1.
<mgrwt>
<rscale>  0 0.90897529E+02</rscale>
<asrwt>0</asrwt>
<pdfrwt beam="1">  1        1 0.12660808E+00 0.90897529E+02</pdfrwt>
<pdfrwt beam="2">  1       -1 0.38614999E-03 0.90897529E+02</pdfrwt>
<totfact> 0.14206031E+05</totfact>
</mgrwt>
</event>
<event>
 5    1  0.3858870E+001  0.7333422E+02  0.7546771E-02  0.1349108E+00
          2   -1    0    0  501    0  0.00000000000E+00  0.00000000000E+00  0.19813801435E+04  0.19813801435E+04  0.00000000000E+00 0. -1.
         -2   -1    0    0    0  501 -0.00000000000E+00 -0.00000000000E+00 -0.67855577978E+00  0.67855577978E+00  0.00000000000E+00 0.  1.
         23    2    1    2    0    0  0.00000000000E+00  0.00000000000E+00  0.19807015878E+04  0.19820586993E+04  0.73334219798E+02 0.  0.
          2    1    3    3  502    0  0.26189353226E+02 -0.16153943820E+02  0.15293119968E+04  0.15296215269E+04  0.00000000000E+00 0. -1.
         -2    1    3    3    0  502 -0.26189353226E+02  0.16153943820E+02  0.45138959097E+03  0.45243717239E+03  0.00000000000E+00 0.  1.
<mgrwt>
<rscale>  0 0.73334220E+02</rscale>
<asrwt>0</asrwt>
<pdfrwt beam="1">  1        2 0.30482308E+00 0.73334220E+02</pdfrwt>
<pdfrwt beam="2">  1       -2 0.10439478E-03 0.73334220E+02</pdfrwt>
<totfact> 0.35088027E+05</totfact>
</mgrwt>
</event>
<event>
 5    1  0.3858870E+001  0.8908590E+02  0.7546771E-02  0.1305081E+00
         -2   -1    0    0    0  501 -0.00000000000E+00  0.00000000000E+00  0.17882671277E+02  0.17882671277E+02  0.00000000000E+00 0.  1.
          2   -1    0    0  501    0  0.00000000000E+00 -0.00000000000E+00 -0.11094955663E+03  0.11094955663E+03  0.00000000000E+00 0. -1.
         23    2    1    2    0    0  0.00000000000E+00  0.00000000000E+00 -0.93066885350E+02  0.12883222790E+03  0.89085901229E+02 0.  0.
          2    1    3    3  502    0  0.42074735621E+02  0.13264490207E+02 -0.55429881309E+02  0.70842796528E+02  0.00000000000E+00 0. -1.
         -2    1    3    3    0  502 -0.42074735621E+02 -0.13264490207E+02 -0.37637004041E+02  0.57989431375E+02  0.00000000000E+00 0.  1.
<mgrwt>
<rscale>  0 0.89085901E+02</rscale>
<asrwt>0</asrwt>
<pdfrwt beam="2">  1        2 0.17069162E-01 0.89085901E+02</pdfrwt>
<pdfrwt beam="1">  1       -2 0.27511803E-02 0.89085901E+02</pdfrwt>
<totfact> 0.13497689E+05</totfact>
</mgrwt>
</event>
<event>
 5    1  0.3858870E+001  0.1040561E+03  0.7546771E-02  0.1271991E+00
          3   -1    0    0  501    0  0.00000000000E+00  0.00000000000E+00  0.13329931367E+03  0.13329931367E+03  0.00000000000E+00 0. -1.
         -3   -1    0    0    0  501 -0.00000000000E+00 -0.00000000000E+00 -0.20307058094E+02  0.20307058094E+02  0.00000000000E+00 0.  1.
         23    2    1    2    0    0  0.00000000000E+00  0.00000000000E+00  0.11299225558E+03  0.15360637176E+03  0.10405607924E+03 0.  0.
          2    1    3    3  502    0 -0.28576116828E+02 -0.17791856338E+02  0.11505769920E+03  0.11988085231E+03  0.00000000000E+00 0. -1.
         -2    1    3    3    0  502  0.28576116828E+02  0.17791856338E+02 -0.20654436279E+01  0.33725519452E+02  0.00000000000E+00 0.  1.
<mgrwt>
<rscale>  0 0.10405608E+03</rscale>
<asrwt>0</asrwt>
<pdfrwt beam="1">  1        3 0.20507586E-01 0.10405608E+03</pdfrwt>
<pdfrwt beam="2">  1       -3 0.31241629E-02 0.10405608E+03</pdfrwt>
<totfact> 0.21671423E+04</totfact>
</mgrwt>
</event>
<event>
 5    1  0.3858870E+001  0.9114821E+02  0.7546771E-02  0.1300095E+00
         -2   -1    0    0    0  501 -0.00000000000E+00  0.00000000000E+00  0.19733838039E+02  0.19733838039E+02  0.00000000000E+00 0. -1.
          2   -1    0    0  501    0  0.00000000000E+00 -0.00000000000E+00 -0.10525064709E+03  0.10525064709E+03  0.00000000000E+00 0.  1.
         23    2    1    2    0    0  0.00000000000E+00  0.00000000000E+00 -0.85516809053E+02  0.12498448513E+03  0.91148213875E+02 0.  0.
          2    1    3    3  502    0 -0.11027863157E+02 -0.34087139968E+02 -0.41334156744E+01  0.36064275983E+02  0.00000000000E+00 0. -1.
         -2    1    3    3    0  502  0.11027863157E+02  0.34087139968E+02 -0.81383393378E+02  0.88920209147E+02  0.00000000000E+00 0.  1.
<mgrwt>
<rscale>  0 0.91148214E+02</rscale>
<asrwt>0</asrwt>
<pdfrwt beam="2">  1        2 0.16192407E-01 0.91148214E+02</pdfrwt>
<pdfrwt beam="1">  1       -2 0.30359751E-02 0.91148214E+02</pdfrwt>
<totfact> 0.12472445E+05</totfact>
</mgrwt>
</event>
<event>
 5    1  0.3858870E+001  0.9273476E+02  0.7546771E-02  0.1296361E+00
         -1   -1    0    0    0  501 -0.00000000000E+00  0.00000000000E+00  0.98446208282E+00  0.98446208282E+00  0.00000000000E+00 0.  1.
          1   -1    0    0  501    0  0.00000000000E+00 -0.00000000000E+00 -0.21838664442E+04  0.21838664442E+04  0.00000000000E+00 0. -1.
         23    2    1    2    0    0  0.00000000000E+00  0.00000000000E+00 -0.21828819821E+04  0.21848509063E+04  0.92734755260E+02 0.  0.
          2    1    3    3  502    0  0.11681260222E+02  0.24583698636E+02 -0.19758513583E+04  0.19760388154E+04  0.00000000000E+00 0. -1.
         -2    1    3    3    0  502 -0.11681260222E+02 -0.24583698636E+02 -0.20703062387E+03  0.20881209088E+03  0.00000000000E+00 0.  1.
<mgrwt>
<rscale>  0 0.92734755E+02</rscale>
<asrwt>0</asrwt>
<pdfrwt beam="2">  1        1 0.33597794E+00 0.92734755E+02</pdfrwt>
<pdfrwt beam="1">  1       -1 0.15145639E-03 0.92734755E+02</pdfrwt>
<totfact> 0.65960248E+04</totfact>
</mgrwt>
</event>
<event>
 5    1  0.3858870E+001  0.8995745E+02  0.7546771E-02  0.1302955E+00
          1   -1    0    0  501    0  0.00000000000E+00  0.00000000000E+00  0.75615503519E+02  0.75615503519E+02  0.00000000000E+00 0. -1.
         -1   -1    0    0    0  501 -0.00000000000E+00 -0.00000000000E+00 -0.26754903853E+02  0.26754903853E+02  0.00000000000E+00 0.  1.
         23    2    1    2    0    0  0.00000000000E+00  0.00000000000E+00  0.48860599665E+02  0.10237040737E+03  0.89957446083E+02 0.  0.
          2    1    3    3  502    0  0.37848786840E+01 -0.44603598613E+02  0.19433615222E+02  0.48800324963E+02  0.00000000000E+00 0. -1.
         -2    1    3    3    0  502 -0.37848786840E+01  0.44603598613E+02  0.29426984443E+02  0.53570082409E+02  0.00000000000E+00 0.  1.
<mgrwt>
<rscale>  0 0.89957446E+02</rscale>
<asrwt>0</asrwt>
<pdfrwt beam="1">  1        1 0.11633154E-01 0.89957446E+02</pdfrwt>
<pdfrwt beam="2">  1       -1 0.41161391E-02 0.89957446E+02</pdfrwt>
<totfact> 0.10361682E+05</totfact>
</mgrwt>
</event>
<event>
 5    1  0.3858870E+001  0.8526218E+02  0.7546771E-02  0.1314748E+00
         -1   -1    0    0    0  501 -0.00000000000E+00  0.00000000000E+00  0.17039414953E+03  0.17039414953E+03  0.00000000000E+00 0.  1.
          1   -1    0    0  501    0  0.00000000000E+00 -0.00000000000E+00 -0.10665916977E+02  0.10665916977E+02  0.00000000000E+00 0. -1.
         23    2    1    2    0    0  0.00000000000E+00  0.00000000000E+00  0.15972823255E+03  0.18106006650E+03  0.85262180412E+02 0.  0.
          2    1    3    3  502    0 -0.24072729251E+02 -0.30115488857E+02  0.11849735693E+03  0.12461164698E+03  0.00000000000E+00 0.  1.
         -2    1    3    3    0  502  0.24072729251E+02  0.30115488857E+02  0.41230875618E+02  0.56448419525E+02  0.00000000000E+00 0. -1.
<mgrwt>
<rscale>  0 0.85262180E+02</rscale>
<asrwt>0</asrwt>
<pdfrwt beam="2">  1        1 0.16409104E-02 0.85262180E+02</pdfrwt>
<pdfrwt beam="1">  1       -1 0.26214483E-01 0.85262180E+02</pdfrwt>
<totfact> 0.86269284E+04</totfact>
</mgrwt>
</event>
<event>
 5    1  0.3858870E+001  0.9219717E+02  0.7546771E-02  0.1297617E+00
          1   -1    0    0  501    0  0.00000000000E+00  0.00000000000E+00  0.61335236366E+02  0.61335236366E+02  0.00000000000E+00 0. -1.
         -1   -1    0    0    0  501 -0.00000000000E+00 -0.00000000000E+00 -0.34646960444E+02  0.34646960444E+02  0.00000000000E+00 0.  1.
         23    2    1    2    0    0  0.00000000000E+00  0.00000000000E+00  0.26688275921E+02  0.95982196810E+02  0.92197169332E+02 0.  0.
          2    1    3    3  502    0  0.40935027252E+02 -0.44122480158E+01 -0.82419806660E+01  0.41988982293E+02  0.00000000000E+00 0.  1.
         -2    1    3    3    0  502 -0.40935027252E+02  0.44122480158E+01  0.34930256587E+02  0.53993214517E+02  0.00000000000E+00 0. -1.
<mgrwt>
<rscale>  0 0.92197169E+02</rscale>
<asrwt>0</asrwt>
<pdfrwt beam="1">  1        1 0.94361902E-02 0.92197169E+02</pdfrwt>
<pdfrwt beam="2">  1       -1 0.53303016E-02 0.92197169E+02</pdfrwt>
<totfact> 0.93751265E+04</totfact>
</mgrwt>
</event>
<event>
 5    1  0.3858870E+001  0.9032640E+02  0.7546771E-02  0.1302063E+00
         -1   -1    0    0    0  501 -0.00000000000E+00  0.00000000000E+00  0.32817600748E+03  0.32817600748E+03  0.00000000000E+00 0.  1.
          1   -1    0    0  501    0  0.00000000000E+00 -0.00000000000E+00 -0.62153067606E+01  0.62153067606E+01  0.00000000000E+00 0. -1.
         23    2    1    2    0    0  0.00000000000E+00  0.00000000000E+00  0.32196070072E+03  0.33439131425E+03  0.90326398312E+02 0.  0.
          2    1    3    3  502    0  0.16332915697E+02  0.14622780248E+02  0.14802785263E+02  0.26452075323E+02  0.00000000000E+00 0. -1.
         -2    1    3    3    0  502 -0.16332915697E+02 -0.14622780248E+02  0.30715791546E+03  0.30793923892E+03  0.00000000000E+00 0.  1.
<mgrwt>
<rscale>  0 0.90326398E+02</rscale>
<asrwt>0</asrwt>
<pdfrwt beam="2">  1        1 0.95620129E-03 0.90326398E+02</pdfrwt>
<pdfrwt beam="1">  1       -1 0.50488603E-01 0.90326398E+02</pdfrwt>
<totfact> 0.59852701E+04</totfact>
</mgrwt>
</event>
<event>
 5    1  0.3858870E+001  0.9830072E+02  0.7546771E-02  0.1283910E+00
          2   -1    0    0  501    0  0.00000000000E+00  0.00000000000E+00  0.10631486636E+03  0.10631486636E+03  0.00000000000E+00 0. -1.
         -2   -1    0    0    0  501 -0.00000000000E+00 -0.00000000000E+00 -0.22722670771E+02  0.22722670771E+02  0.00000000000E+00 0.  1.
         23    2    1    2    0    0  0.00000000000E+00  0.00000000000E+00  0.83592195587E+02  0.12903753713E+03  0.98300716300E+02 0.  0.
          2    1    3    3  502    0 -0.21184786741E+02  0.22575662470E+02  0.91907223678E+02  0.96981407958E+02  0.00000000000E+00 0. -1.
         -2    1    3    3    0  502  0.21184786741E+02 -0.22575662470E+02 -0.83150280912E+01  0.32056129171E+02  0.00000000000E+00 0.  1.
<mgrwt>
<rscale>  0 0.98300716E+02</rscale>
<asrwt>0</asrwt>
<pdfrwt beam="1">  1        2 0.16356133E-01 0.98300716E+02</pdfrwt>
<pdfrwt beam="2">  1       -2 0.34957956E-02 0.98300716E+02</pdfrwt>
<totfact> 0.10154003E+05</totfact>
</mgrwt>
</event>
<event>
 5    1  0.3858870E+001  0.9409604E+02  0.7546771E-02  0.1293225E+00
         -2   -1    0    0    0  501 -0.00000000000E+00  0.00000000000E+00  0.24515747731E+01  0.24515747731E+01  0.00000000000E+00 0. -1.
          2   -1    0    0  501    0  0.00000000000E+00 -0.00000000000E+00 -0.90289559578E+03  0.90289559578E+03  0.00000000000E+00 0.  1.
         23    2    1    2    0    0  0.00000000000E+00  0.00000000000E+00 -0.90044402101E+03  0.90534717055E+03  0.94096037437E+02 0.  0.
          2    1    3    3  502    0  0.19602086328E+02 -0.41536303253E+02 -0.35209672770E+03  0.35507972616E+03  0.00000000000E+00 0.  1.
         -2    1    3    3    0  502 -0.19602086328E+02  0.41536303253E+02 -0.54834729331E+03  0.55026744439E+03  0.00000000000E+00 0. -1.
<mgrwt>
<rscale>  0 0.94096037E+02</rscale>
<asrwt>0</asrwt>
<pdfrwt beam="2">  1        2 0.13890693E+00 0.94096037E+02</pdfrwt>
<pdfrwt beam="1">  1       -2 0.37716559E-03 0.94096037E+02</pdfrwt>
<totfact> 0.22824261E+05</totfact>
</mgrwt>
</event>
<event>
 5    1  0.3858870E+001  0.8810041E+02  0.7546771E-02  0.1307518E+00
          1   -1    0    0  501    0  0.00000000000E+00  0.00000000000E+00  0.16867538947E+02  0.16867538947E+02  0.00000000000E+00 0. -1.
         -1   -1    0    0    0  501 -0.00000000000E+00 -0.00000000000E+00 -0.11503875280E+03  0.11503875280E+03  0.00000000000E+00 0.  1.
         23    2    1    2    0    0  0.00000000000E+00  0.00000000000E+00 -0.98171213855E+02  0.13190629175E+03  0.88100411880E+02 0.  0.
          2    1    3    3  502    0 -0.26235826762E+02 -0.26776384364E+02 -0.14450533138E+02  0.40176003702E+02  0.00000000000E+00 0. -1.
         -2    1    3    3    0  502  0.26235826762E+02  0.26776384364E+02 -0.83720680718E+02  0.91730288048E+02  0.00000000000E+00 0.  1.
<mgrwt>
<rscale>  0 0.88100412E+02</rscale>
<asrwt>0</asrwt>
<pdfrwt beam="1">  1        1 0.25950061E-02 0.88100412E+02</pdfrwt>
<pdfrwt beam="2">  1       -1 0.17698269E-01 0.88100412E+02</pdfrwt>
<totfact> 0.86534630E+04</totfact>
</mgrwt>
</event>
<event>
 5    1  0.3858870E+001  0.9104895E+02  0.7546771E-02  0.1300331E+00
         -4   -1    0    0    0  501 -0.00000000000E+00  0.00000000000E+00  0.23572081094E+03  0.23572081094E+03  0.00000000000E+00 0.  1.
          4   -1    0    0  501    0  0.00000000000E+00 -0.00000000000E+00 -0.87920875507E+01  0.87920875507E+01  0.00000000000E+00 0. -1.
         23    2    1    2    0    0  0.00000000000E+00  0.00000000000E+00  0.22692872339E+03  0.24451289849E+03  0.91048954026E+02 0.  0.
          2    1    3    3  502    0 -0.52389430370E+01 -0.33055147329E+02  0.30587378485E+02  0.45339574454E+02  0.00000000000E+00 0. -1.
         -2    1    3    3    0  502  0.52389430370E+01  0.33055147329E+02  0.19634134490E+03  0.19917332404E+03  0.00000000000E+00 0.  1.
<mgrwt>
<rscale>  0 0.91048954E+02</rscale>
<asrwt>0</asrwt>
<pdfrwt beam="2">  1        4 0.13526290E-02 0.91048954E+02</pdfrwt>
<pdfrwt beam="1">  1       -4 0.36264735E-01 0.91048954E+02</pdfrwt>
<totfact> 0.19733648E+04</totfact>
</mgrwt>
</event>
<event>
 5    1  0.3858870E+001  0.9114490E+02  0.7546771E-02  0.1300103E+00
         -1   -1    0    0    0  501 -0.00000000000E+00  0.00000000000E+00  0.16018672068E+02  0.16018672068E+02  0.00000000000E+00 0.  1.
          1   -1    0    0  501    0  0.00000000000E+00 -0.00000000000E+00 -0.12965171460E+03  0.12965171460E+03  0.00000000000E+00 0. -1.
         23    2    1    2    0    0  0.00000000000E+00  0.00000000000E+00 -0.11363304253E+03  0.14567038667E+03  0.91144902199E+02 0.  0.
          2    1    3    3  502    0  0.74085502235E+01  0.42089487342E+02 -0.82108797069E+02  0.92564929197E+02  0.00000000000E+00 0. -1.
         -2    1    3    3    0  502 -0.74085502235E+01 -0.42089487342E+02 -0.31524245463E+02  0.53105457471E+02  0.00000000000E+00 0.  1.
<mgrwt>
<rscale>  0 0.91144902E+02</rscale>
<asrwt>0</asrwt>
<pdfrwt beam="2">  1        1 0.19946417E-01 0.91144902E+02</pdfrwt>
<pdfrwt beam="1">  1       -1 0.24644112E-02 0.91144902E+02</pdfrwt>
<totfact> 0.10931876E+05</totfact>
</mgrwt>
</event>
<event>
 5    1  0.3858870E+001  0.8900795E+02  0.7546771E-02  0.1305272E+00
         -2   -1    0    0    0  501 -0.00000000000E+00  0.00000000000E+00  0.25957053273E+01  0.25957053273E+01  0.00000000000E+00 0.  1.
          2   -1    0    0  501    0  0.00000000000E+00 -0.00000000000E+00 -0.76303101853E+03  0.76303101853E+03  0.00000000000E+00 0. -1.
         23    2    1    2    0    0  0.00000000000E+00  0.00000000000E+00 -0.76043531320E+03  0.76562672386E+03  0.89007947504E+02 0.  0.
          2    1    3    3  502    0  0.17803282020E+02 -0.32711469009E+02 -0.58979178412E+03  0.59096645055E+03  0.00000000000E+00 0. -1.
         -2    1    3    3    0  502 -0.17803282020E+02  0.32711469009E+02 -0.17064352908E+03  0.17466027331E+03  0.00000000000E+00 0.  1.
<mgrwt>
<rscale>  0 0.89007948E+02</rscale>
<asrwt>0</asrwt>
<pdfrwt beam="2">  1        2 0.11738933E+00 0.89007948E+02</pdfrwt>
<pdfrwt beam="1">  1       -2 0.39933947E-03 0.89007948E+02</pdfrwt>
<totfact> 0.25740233E+05</totfact>
</mgrwt>
</event>
<event>
 5    1  0.3858870E+001  0.9262452E+02  0.7546771E-02  0.1296618E+00
          4   -1    0    0  501    0  0.00000000000E+00  0.00000000000E+00  0.11911800382E+02  0.11911800382E+02  0.00000000000E+00 0. -1.
         -4   -1    0    0    0  501 -0.00000000000E+00 -0.00000000000E+00 -0.18005888471E+03  0.18005888471E+03  0.00000000000E+00 0.  1.
         23    2    1    2    0    0  0.00000000000E+00  0.00000000000E+00 -0.16814708433E+03  0.19197068509E+03  0.92624521412E+02 0.  0.
          2    1    3    3  502    0 -0.26930586901E+02  0.24216355365E+02 -0.24250681255E+02  0.43586510750E+02  0.00000000000E+00 0. -1.
         -2    1    3    3    0  502  0.26930586901E+02 -0.24216355365E+02 -0.14389640307E+03  0.14838417434E+03  0.00000000000E+00 0.  1.
<mgrwt>
<rscale>  0 0.92624521E+02</rscale>
<asrwt>0</asrwt>
<pdfrwt beam="1">  1        4 0.18325848E-02 0.92624521E+02</pdfrwt>
<pdfrwt beam="2">  1       -4 0.27701365E-01 0.92624521E+02</pdfrwt>
<totfact> 0.20826057E+04</totfact>
</mgrwt>
</event>
<event>
 5    1  0.3858870E+001  0.9321689E+02  0.7546771E-02  0.1295243E+00
          1   -1    0    0  501    0  0.00000000000E+00  0.00000000000E+00  0.95218683777E+02  0.95218683777E+02  0.00000000000E+00 0. -1.
         -1   -1    0    0    0  501 -0.00000000000E+00 -0.00000000000E+00 -0.22814294903E+02  0.22814294903E+02  0.00000000000E+00 0.  1.
         23    2    1    2    0    0  0.00000000000E+00  0.00000000000E+00  0.72404388874E+02  0.11803297868E+03  0.93216889713E+02 0.  0.
          2    1    3    3  502    0  0.75021778099E+01 -0.29133748354E+02  0.81278324177E+02  0.86667317635E+02  0.00000000000E+00 0. -1.
         -2    1    3    3    0  502 -0.75021778099E+01  0.29133748354E+02 -0.88739353026E+01  0.31365661045E+02  0.00000000000E+00 0.  1.
<mgrwt>
<rscale>  0 0.93216890E+02</rscale>
<asrwt>0</asrwt>
<pdfrwt beam="1">  1        1 0.14649028E-01 0.93216890E+02</pdfrwt>
<pdfrwt beam="2">  1       -1 0.35098916E-02 0.93216890E+02</pdfrwt>
<totfact> 0.97521847E+04</totfact>
</mgrwt>
</event>
<event>
 5    1  0.3858870E+001  0.8914941E+02  0.7546771E-02  0.1304925E+00
          2   -1    0    0  501    0  0.00000000000E+00  0.00000000000E+00  0.58860843968E+03  0.58860843968E+03  0.00000000000E+00 0. -1.
         -2   -1    0    0    0  501 -0.00000000000E+00 -0.00000000000E+00 -0.33755961038E+01  0.33755961038E+01  0.00000000000E+00 0.  1.
         23    2    1    2    0    0  0.00000000000E+00  0.00000000000E+00  0.58523284358E+03  0.59198403579E+03  0.89149410670E+02 0.  0.
          2    1    3    3  502    0  0.25733332839E+02 -0.23113629774E+02  0.47931090413E+03  0.48055737131E+03  0.00000000000E+00 0. -1.
         -2    1    3    3    0  502 -0.25733332839E+02  0.23113629774E+02  0.10592193945E+03  0.11142666448E+03  0.00000000000E+00 0.  1.
<mgrwt>
<rscale>  0 0.89149411E+02</rscale>
<asrwt>0</asrwt>
<pdfrwt beam="1">  1        2 0.90555063E-01 0.89149411E+02</pdfrwt>
<pdfrwt beam="2">  1       -2 0.51932294E-03 0.89149411E+02</pdfrwt>
<totfact> 0.24045268E+05</totfact>
</mgrwt>
</event>
<event>
 5    1  0.3858870E+001  0.9134768E+02  0.7546771E-02  0.1299621E+00
         -1   -1    0    0    0  501 -0.00000000000E+00  0.00000000000E+00  0.30571202140E+02  0.30571202140E+02  0.00000000000E+00 0.  1.
          1   -1    0    0  501    0  0.00000000000E+00 -0.00000000000E+00 -0.68237415352E+02  0.68237415352E+02  0.00000000000E+00 0. -1.
         23    2    1    2    0    0  0.00000000000E+00  0.00000000000E+00 -0.37666213211E+02  0.98808617492E+02  0.91347683457E+02 0.  0.
          2    1    3    3  502    0  0.90047056807E+01 -0.35857209700E+02 -0.47842921015E+02  0.60462958108E+02  0.00000000000E+00 0. -1.
         -2    1    3    3    0  502 -0.90047056807E+01  0.35857209700E+02  0.10176707804E+02  0.38345659384E+02  0.00000000000E+00 0.  1.
<mgrwt>
<rscale>  0 0.91347683E+02</rscale>
<asrwt>0</asrwt>
<pdfrwt beam="2">  1        1 0.10498064E-01 0.91347683E+02</pdfrwt>
<pdfrwt beam="1">  1       -1 0.47032619E-02 0.91347683E+02</pdfrwt>
<totfact> 0.97772986E+04</totfact>
</mgrwt>
</event>
<event>
 5    1  0.3858870E+001  0.9084842E+02  0.7546771E-02  0.1300810E+00
          2   -1    0    0  501    0  0.00000000000E+00  0.00000000000E+00  0.26925533918E+04  0.26925533918E+04  0.00000000000E+00 0. -1.
         -2   -1    0    0    0  501 -0.00000000000E+00 -0.00000000000E+00 -0.76632050957E+00  0.76632050957E+00  0.00000000000E+00 0.  1.
         23    2    1    2    0    0  0.00000000000E+00  0.00000000000E+00  0.26917870713E+04  0.26933197123E+04  0.90848420729E+02 0.  0.
          2    1    3    3  502    0  0.42401922084E+01  0.40012347659E+02  0.19708553654E+04  0.19712660497E+04  0.00000000000E+00 0. -1.
         -2    1    3    3    0  502 -0.42401922084E+01 -0.40012347659E+02  0.72093170583E+03  0.72205366260E+03  0.00000000000E+00 0.  1.
<mgrwt>
<rscale>  0 0.90848421E+02</rscale>
<asrwt>0</asrwt>
<pdfrwt beam="1">  1        2 0.41423141E+00 0.90848421E+02</pdfrwt>
<pdfrwt beam="2">  1       -2 0.11789762E-03 0.90848421E+02</pdfrwt>
<totfact> 0.13122590E+05</totfact>
</mgrwt>
</event>
<event>
 5    1  0.3858870E+001  0.9565249E+02  0.7546771E-02  0.1289713E+00
          2   -1    0    0  501    0  0.00000000000E+00  0.00000000000E+00  0.13763945479E+03  0.13763945479E+03  0.00000000000E+00 0. -1.
         -2   -1    0    0    0  501 -0.00000000000E+00 -0.00000000000E+00 -0.16618416482E+02  0.16618416482E+02  0.00000000000E+00 0.  1.
         23    2    1    2    0    0  0.00000000000E+00  0.00000000000E+00  0.12102103831E+03  0.15425787127E+03  0.95652491533E+02 0.  0.
          2    1    3    3  502    0  0.10561697741E+02 -0.17386438657E+02  0.13031435609E+03  0.13189264237E+03  0.00000000000E+00 0. -1.
         -2    1    3    3    0  502 -0.10561697741E+02  0.17386438657E+02 -0.92933177834E+01  0.22365228901E+02  0.00000000000E+00 0.  1.
<mgrwt>
<rscale>  0 0.95652492E+02</rscale>
<asrwt>0</asrwt>
<pdfrwt beam="1">  1        2 0.21175300E-01 0.95652492E+02</pdfrwt>
<pdfrwt beam="2">  1       -2 0.25566795E-02 0.95652492E+02</pdfrwt>
<totfact> 0.11915242E+05</totfact>
</mgrwt>
</event>
<event>
 5    1  0.3858870E+001  0.9317901E+02  0.7546771E-02  0.1295331E+00
         -1   -1    0    0    0  501 -0.00000000000E+00  0.00000000000E+00  0.21523912030E+01  0.21523912030E+01  0.00000000000E+00 0.  1.
          1   -1    0    0  501    0  0.00000000000E+00 -0.00000000000E+00 -0.10084514713E+04  0.10084514713E+04  0.00000000000E+00 0. -1.
         23    2    1    2    0    0  0.00000000000E+00  0.00000000000E+00 -0.10062990801E+04  0.10106038625E+04  0.93179012133E+02 0.  0.
          2    1    3    3  502    0  0.16451595315E+02 -0.20564265955E+02 -0.91997927674E+03  0.92035613415E+03  0.00000000000E+00 0. -1.
         -2    1    3    3    0  502 -0.16451595315E+02  0.20564265955E+02 -0.86319803363E+02  0.90247728366E+02  0.00000000000E+00 0.  1.
<mgrwt>
<rscale>  0 0.93179012E+02</rscale>
<asrwt>0</asrwt>
<pdfrwt beam="2">  1        1 0.15514646E+00 0.93179012E+02</pdfrwt>
<pdfrwt beam="1">  1       -1 0.33113694E-03 0.93179012E+02</pdfrwt>
<totfact> 0.12812665E+05</totfact>
</mgrwt>
</event>
<event>
 5    1  0.3858870E+001  0.9074844E+02  0.7546771E-02  0.1301049E+00
          2   -1    0    0  501    0  0.00000000000E+00  0.00000000000E+00  0.68204314269E+03  0.68204314269E+03  0.00000000000E+00 0.  1.
         -2   -1    0    0    0  501 -0.00000000000E+00 -0.00000000000E+00 -0.30186061697E+01  0.30186061697E+01  0.00000000000E+00 0. -1.
         23    2    1    2    0    0  0.00000000000E+00  0.00000000000E+00  0.67902453652E+03  0.68506174886E+03  0.90748435546E+02 0.  0.
          2    1    3    3  502    0 -0.30574862842E+02  0.33317802918E+02  0.31134581431E+03  0.31461264170E+03  0.00000000000E+00 0. -1.
         -2    1    3    3    0  502  0.30574862842E+02 -0.33317802918E+02  0.36767872222E+03  0.37044910716E+03  0.00000000000E+00 0.  1.
<mgrwt>
<rscale>  0 0.90748436E+02</rscale>
<asrwt>0</asrwt>
<pdfrwt beam="1">  1        2 0.10492959E+00 0.90748436E+02</pdfrwt>
<pdfrwt beam="2">  1       -2 0.46440149E-03 0.90748436E+02</pdfrwt>
<totfact> 0.23862838E+05</totfact>
</mgrwt>
</event>
<event>
 5    1  0.3858870E+001  0.9171861E+02  0.7546771E-02  0.1298742E+00
          1   -1    0    0  501    0  0.00000000000E+00  0.00000000000E+00  0.23582216372E+04  0.23582216372E+04  0.00000000000E+00 0. -1.
         -1   -1    0    0    0  501 -0.00000000000E+00 -0.00000000000E+00 -0.89180590130E+00  0.89180590130E+00  0.00000000000E+00 0.  1.
         23    2    1    2    0    0  0.00000000000E+00  0.00000000000E+00  0.23573298313E+04  0.23591134432E+04  0.91718612564E+02 0.  0.
          2    1    3    3  502    0 -0.43966271646E+02 -0.83296976873E+01  0.14367231958E+04  0.14374198963E+04  0.00000000000E+00 0. -1.
         -2    1    3    3    0  502  0.43966271646E+02  0.83296976873E+01  0.92060663559E+03  0.92169354690E+03  0.00000000000E+00 0.  1.
<mgrwt>
<rscale>  0 0.91718613E+02</rscale>
<asrwt>0</asrwt>
<pdfrwt beam="1">  1        1 0.36279834E+00 0.91718613E+02</pdfrwt>
<pdfrwt beam="2">  1       -1 0.13720280E-03 0.91718613E+02</pdfrwt>
<totfact> 0.58553407E+04</totfact>
</mgrwt>
</event>
<event>
 5    1  0.3858870E+001  0.9224682E+02  0.7546771E-02  0.1297500E+00
         -2   -1    0    0    0  501 -0.00000000000E+00  0.00000000000E+00  0.13337546858E+01  0.13337546858E+01  0.00000000000E+00 0.  1.
          2   -1    0    0  501    0  0.00000000000E+00 -0.00000000000E+00 -0.15950227231E+04  0.15950227231E+04  0.00000000000E+00 0. -1.
         23    2    1    2    0    0  0.00000000000E+00  0.00000000000E+00 -0.15936889684E+04  0.15963564777E+04  0.92246821751E+02 0.  0.
          2    1    3    3  502    0  0.29236522327E+02  0.88764212095E+01 -0.13947670866E+04  0.13951017135E+04  0.00000000000E+00 0. -1.
         -2    1    3    3    0  502 -0.29236522327E+02 -0.88764212095E+01 -0.19892188178E+03  0.20125476428E+03  0.00000000000E+00 0.  1.
<mgrwt>
<rscale>  0 0.92246822E+02</rscale>
<asrwt>0</asrwt>
<pdfrwt beam="2">  1        2 0.24538883E+00 0.92246822E+02</pdfrwt>
<pdfrwt beam="1">  1       -2 0.20519243E-03 0.92246822E+02</pdfrwt>
<totfact> 0.22292228E+05</totfact>
</mgrwt>
</event>
<event>
 5    1  0.3858870E+001  0.9131547E+02  0.7546771E-02  0.1299697E+00
          4   -1    0    0  501    0  0.00000000000E+00  0.00000000000E+00  0.41638295843E+03  0.41638295843E+03  0.00000000000E+00 0. -1.
         -4   -1    0    0    0  501 -0.00000000000E+00 -0.00000000000E+00 -0.50065176889E+01  0.50065176889E+01  0.00000000000E+00 0.  1.
         23    2    1    2    0    0  0.00000000000E+00  0.00000000000E+00  0.41137644074E+03  0.42138947611E+03  0.91315467402E+02 0.  0.
          2    1    3    3  502    0 -0.94250963961E+01 -0.44400064704E+02  0.18287927782E+03  0.18842778045E+03  0.00000000000E+00 0.  1.
         -2    1    3    3    0  502  0.94250963961E+01  0.44400064704E+02  0.22849716292E+03  0.23296169567E+03  0.00000000000E+00 0. -1.
<mgrwt>
<rscale>  0 0.91315467E+02</rscale>
<asrwt>0</asrwt>
<pdfrwt beam="1">  1        4 0.64058889E-01 0.91315467E+02</pdfrwt>
<pdfrwt beam="2">  1       -4 0.77023382E-03 0.91315467E+02</pdfrwt>
<totfact> 0.14604018E+04</totfact>
</mgrwt>
</event>
<event>
 5    1  0.3858870E+001  0.8915676E+02  0.7546771E-02  0.1304907E+00
          2   -1    0    0  501    0  0.00000000000E+00  0.00000000000E+00  0.46954151869E+03  0.46954151869E+03  0.00000000000E+00 0. -1.
         -2   -1    0    0    0  501 -0.00000000000E+00 -0.00000000000E+00 -0.42322820984E+01  0.42322820984E+01  0.00000000000E+00 0.  1.
         23    2    1    2    0    0  0.00000000000E+00  0.00000000000E+00  0.46530923659E+03  0.47377380079E+03  0.89156764499E+02 0.  0.
          2    1    3    3  502    0 -0.16447036167E+02  0.11757363151E+02  0.44377874972E+03  0.44423903395E+03  0.00000000000E+00 0. -1.
         -2    1    3    3    0  502  0.16447036167E+02 -0.11757363151E+02  0.21530486872E+02  0.29534766833E+02  0.00000000000E+00 0.  1.
<mgrwt>
<rscale>  0 0.89156764E+02</rscale>
<asrwt>0</asrwt>
<pdfrwt beam="1">  1        2 0.72237115E-01 0.89156764E+02</pdfrwt>
<pdfrwt beam="2">  1       -2 0.65112069E-03 0.89156764E+02</pdfrwt>
<totfact> 0.22394851E+05</totfact>
</mgrwt>
</event>
<event>
 5    1  0.3858870E+001  0.9252243E+02  0.7546771E-02  0.1296856E+00
          1   -1    0    0  501    0  0.00000000000E+00  0.00000000000E+00  0.17691575275E+02  0.17691575275E+02  0.00000000000E+00 0. -1.
         -1   -1    0    0    0  501 -0.00000000000E+00 -0.00000000000E+00 -0.12096718165E+03  0.12096718165E+03  0.00000000000E+00 0.  1.
         23    2    1    2    0    0  0.00000000000E+00  0.00000000000E+00 -0.10327560638E+03  0.13865875693E+03  0.92522429712E+02 0.  0.
          2    1    3    3  502    0  0.10829690072E+02  0.44735643219E+02 -0.44682380734E+02  0.64148851192E+02  0.00000000000E+00 0. -1.
         -2    1    3    3    0  502 -0.10829690072E+02 -0.44735643219E+02 -0.58593225642E+02  0.74509905734E+02  0.00000000000E+00 0.  1.
<mgrwt>
<rscale>  0 0.92522430E+02</rscale>
<asrwt>0</asrwt>
<pdfrwt beam="1">  1        1 0.27217807E-02 0.92522430E+02</pdfrwt>
<pdfrwt beam="2">  1       -1 0.18610336E-01 0.92522430E+02</pdfrwt>
<totfact> 0.75483771E+04</totfact>
</mgrwt>
</event>
<event>
 5    1  0.3858870E+001  0.9262615E+02  0.7546771E-02  0.1296614E+00
         -2   -1    0    0    0  501 -0.00000000000E+00  0.00000000000E+00  0.60130924104E+01  0.60130924104E+01  0.00000000000E+00 0.  1.
          2   -1    0    0  501    0  0.00000000000E+00 -0.00000000000E+00 -0.35670515785E+03  0.35670515785E+03  0.00000000000E+00 0. -1.
         23    2    1    2    0    0  0.00000000000E+00  0.00000000000E+00 -0.35069206544E+03  0.36271825026E+03  0.92626153486E+02 0.  0.
          2    1    3    3  502    0 -0.36166367039E+02  0.25081121265E+02 -0.23179972222E+03  0.23594105190E+03  0.00000000000E+00 0. -1.
         -2    1    3    3    0  502  0.36166367039E+02 -0.25081121265E+02 -0.11889234322E+03  0.12677719836E+03  0.00000000000E+00 0.  1.
<mgrwt>
<rscale>  0 0.92626153E+02</rscale>
<asrwt>0</asrwt>
<pdfrwt beam="2">  1        2 0.54877730E-01 0.92626153E+02</pdfrwt>
<pdfrwt beam="1">  1       -2 0.92509092E-03 0.92626153E+02</pdfrwt>
<totfact> 0.18364220E+05</totfact>
</mgrwt>
</event>
<event>
 5    1  0.3858870E+001  0.9007613E+02  0.7546771E-02  0.1302667E+00
          2   -1    0    0  501    0  0.00000000000E+00  0.00000000000E+00  0.12166795124E+04  0.12166795124E+04  0.00000000000E+00 0. -1.
         -2   -1    0    0    0  501 -0.00000000000E+00 -0.00000000000E+00 -0.16671829448E+01  0.16671829448E+01  0.00000000000E+00 0.  1.
         23    2    1    2    0    0  0.00000000000E+00  0.00000000000E+00  0.12150123295E+04  0.12183466954E+04  0.90076130743E+02 0.  0.
          2    1    3    3  502    0 -0.29194866105E+02 -0.89312833718E+01  0.10553531937E+04  0.10557947109E+04  0.00000000000E+00 0. -1.
         -2    1    3    3    0  502  0.29194866105E+02  0.89312833718E+01  0.15965913577E+03  0.16255198450E+03  0.00000000000E+00 0.  1.
<mgrwt>
<rscale>  0 0.90076131E+02</rscale>
<asrwt>0</asrwt>
<pdfrwt beam="1">  1        2 0.18718075E+00 0.90076131E+02</pdfrwt>
<pdfrwt beam="2">  1       -2 0.25649066E-03 0.90076131E+02</pdfrwt>
<totfact> 0.25634777E+05</totfact>
</mgrwt>
</event>
<event>
 5    1  0.3858870E+001  0.9215498E+02  0.7546771E-02  0.1297715E+00
         -1   -1    0    0    0  501 -0.00000000000E+00  0.00000000000E+00  0.35976128224E+03  0.35976128224E+03  0.00000000000E+00 0.  1.
          1   -1    0    0  501    0  0.00000000000E+00 -0.00000000000E+00 -0.59015103340E+01  0.59015103340E+01  0.00000000000E+00 0. -1.
         23    2    1    2    0    0  0.00000000000E+00  0.00000000000E+00  0.35385977191E+03  0.36566279258E+03  0.92154976532E+02 0.  0.
          2    1    3    3  502    0 -0.12555041167E+02  0.42204928526E+02  0.12306998146E+03  0.13071000493E+03  0.00000000000E+00 0. -1.
         -2    1    3    3    0  502  0.12555041167E+02 -0.42204928526E+02  0.23078979045E+03  0.23495278765E+03  0.00000000000E+00 0.  1.
<mgrwt>
<rscale>  0 0.92154977E+02</rscale>
<asrwt>0</asrwt>
<pdfrwt beam="2">  1        1 0.90792495E-03 0.92154977E+02</pdfrwt>
<pdfrwt beam="1">  1       -1 0.55347872E-01 0.92154977E+02</pdfrwt>
<totfact> 0.54536458E+04</totfact>
</mgrwt>
</event>
<event>
 5    1  0.3858870E+001  0.9154644E+02  0.7546771E-02  0.1299149E+00
          1   -1    0    0  501    0  0.00000000000E+00  0.00000000000E+00  0.47811714720E+03  0.47811714720E+03  0.00000000000E+00 0. -1.
         -1   -1    0    0    0  501 -0.00000000000E+00 -0.00000000000E+00 -0.43821634874E+01  0.43821634874E+01  0.00000000000E+00 0.  1.
         23    2    1    2    0    0  0.00000000000E+00  0.00000000000E+00  0.47373498371E+03  0.48249931069E+03  0.91546436417E+02 0.  0.
          2    1    3    3  502    0 -0.14903435579E+02 -0.36889646173E+02  0.35615291769E+03  0.35836832891E+03  0.00000000000E+00 0. -1.
         -2    1    3    3    0  502  0.14903435579E+02  0.36889646173E+02  0.11758206602E+03  0.12413098178E+03  0.00000000000E+00 0.  1.
<mgrwt>
<rscale>  0 0.91546436E+02</rscale>
<asrwt>0</asrwt>
<pdfrwt beam="1">  1        1 0.73556443E-01 0.91546436E+02</pdfrwt>
<pdfrwt beam="2">  1       -1 0.67417938E-03 0.91546436E+02</pdfrwt>
<totfact> 0.13701772E+05</totfact>
</mgrwt>
</event>
<event>
 5    1  0.3858870E+001  0.9189422E+02  0.7546771E-02  0.1298328E+00
         -4   -1    0    0    0  501 -0.00000000000E+00  0.00000000000E+00  0.81718865199E+01  0.81718865199E+01  0.00000000000E+00 0.  1.
          4   -1    0    0  501    0  0.00000000000E+00 -0.00000000000E+00 -0.25834143825E+03  0.25834143825E+03  0.00000000000E+00 0. -1.
         23    2    1    2    0    0  0.00000000000E+00  0.00000000000E+00 -0.25016955173E+03  0.26651332477E+03  0.91894219988E+02 0.  0.
          2    1    3    3  502    0  0.11812614298E+02  0.44400988808E+02 -0.12395684382E+03  0.13219790011E+03  0.00000000000E+00 0.  1.
         -2    1    3    3    0  502 -0.11812614298E+02 -0.44400988808E+02 -0.12621270792E+03  0.13431542467E+03  0.00000000000E+00 0. -1.
<mgrwt>
<rscale>  0 0.91894220E+02</rscale>
<asrwt>0</asrwt>
<pdfrwt beam="2">  1        4 0.39744836E-01 0.91894220E+02</pdfrwt>
<pdfrwt beam="1">  1       -4 0.12572133E-02 0.91894220E+02</pdfrwt>
<totfact> 0.18502246E+04</totfact>
</mgrwt>
</event>
<event>
 5    1  0.3858870E+001  0.9425051E+02  0.7546771E-02  0.1292873E+00
         -1   -1    0    0    0  501 -0.00000000000E+00  0.00000000000E+00  0.33186897715E+01  0.33186897715E+01  0.00000000000E+00 0.  1.
          1   -1    0    0  501    0  0.00000000000E+00 -0.00000000000E+00 -0.66917670508E+03  0.66917670508E+03  0.00000000000E+00 0. -1.
         23    2    1    2    0    0  0.00000000000E+00  0.00000000000E+00 -0.66585801531E+03  0.67249539485E+03  0.94250514831E+02 0.  0.
          2    1    3    3  502    0  0.64963444642E+01 -0.24254568789E+02 -0.61747047184E+03  0.61798080083E+03  0.00000000000E+00 0. -1.
         -2    1    3    3    0  502 -0.64963444642E+01  0.24254568789E+02 -0.48387543467E+02  0.54514594021E+02  0.00000000000E+00 0.  1.
<mgrwt>
<rscale>  0 0.94250515E+02</rscale>
<asrwt>0</asrwt>
<pdfrwt beam="2">  1        1 0.10295031E+00 0.94250515E+02</pdfrwt>
<pdfrwt beam="1">  1       -1 0.51056742E-03 0.94250515E+02</pdfrwt>
<totfact> 0.13020452E+05</totfact>
</mgrwt>
</event>
<event>
 5    1  0.3858870E+001  0.8822593E+02  0.7546771E-02  0.1307206E+00
         -2   -1    0    0    0  501 -0.00000000000E+00  0.00000000000E+00  0.62315508050E+01  0.62315508050E+01  0.00000000000E+00 0.  1.
          2   -1    0    0  501    0  0.00000000000E+00 -0.00000000000E+00 -0.31227439350E+03  0.31227439350E+03  0.00000000000E+00 0. -1.
         23    2    1    2    0    0  0.00000000000E+00  0.00000000000E+00 -0.30604284269E+03  0.31850594430E+03  0.88225931521E+02 0.  0.
          2    1    3    3  502    0 -0.28069586702E+02 -0.50189496463E+00 -0.27586093566E+03  0.27728579015E+03  0.00000000000E+00 0. -1.
         -2    1    3    3    0  502  0.28069586702E+02  0.50189496463E+00 -0.30181907031E+02  0.41220154151E+02  0.00000000000E+00 0.  1.
<mgrwt>
<rscale>  0 0.88225932E+02</rscale>
<asrwt>0</asrwt>
<pdfrwt beam="2">  1        2 0.48042211E-01 0.88225932E+02</pdfrwt>
<pdfrwt beam="1">  1       -2 0.95870020E-03 0.88225932E+02</pdfrwt>
<totfact> 0.19903710E+05</totfact>
</mgrwt>
</event>
<event>
 5    1  0.3858870E+001  0.9065667E+02  0.7546771E-02  0.1301269E+00
         -3   -1    0    0    0  501 -0.00000000000E+00  0.00000000000E+00  0.80851258199E+02  0.80851258199E+02  0.00000000000E+00 0.  1.
          3   -1    0    0  501    0  0.00000000000E+00 -0.00000000000E+00 -0.25412815666E+02  0.25412815666E+02  0.00000000000E+00 0. -1.
         23    2    1    2    0    0  0.00000000000E+00  0.00000000000E+00  0.55438442533E+02  0.10626407386E+03  0.90656673686E+02 0.  0.
          2    1    3    3  502    0 -0.26705801716E+02 -0.84822959080E+01 -0.14045016708E+02  0.31343447218E+02  0.00000000000E+00 0. -1.
         -2    1    3    3    0  502  0.26705801716E+02  0.84822959080E+01  0.69483459240E+02  0.74920626647E+02  0.00000000000E+00 0.  1.
<mgrwt>
<rscale>  0 0.90656674E+02</rscale>
<asrwt>0</asrwt>
<pdfrwt beam="2">  1        3 0.39096640E-02 0.90656674E+02</pdfrwt>
<pdfrwt beam="1">  1       -3 0.12438655E-01 0.90656674E+02</pdfrwt>
<totfact> 0.34750276E+04</totfact>
</mgrwt>
</event>
<event>
 5    1  0.3858870E+001  0.9173712E+02  0.7546771E-02  0.1298699E+00
          1   -1    0    0  501    0  0.00000000000E+00  0.00000000000E+00  0.30878874077E+02  0.30878874077E+02  0.00000000000E+00 0. -1.
         -1   -1    0    0    0  501 -0.00000000000E+00 -0.00000000000E+00 -0.68134768025E+02  0.68134768025E+02  0.00000000000E+00 0.  1.
         23    2    1    2    0    0  0.00000000000E+00  0.00000000000E+00 -0.37255893948E+02  0.99013642101E+02  0.91737122739E+02 0.  0.
          2    1    3    3  502    0 -0.32635483994E+02  0.13447879912E+02  0.12987165954E+02  0.37610992664E+02  0.00000000000E+00 0. -1.
         -2    1    3    3    0  502  0.32635483994E+02 -0.13447879912E+02 -0.50243059902E+02  0.61402649438E+02  0.00000000000E+00 0.  1.
<mgrwt>
<rscale>  0 0.91737123E+02</rscale>
<asrwt>0</asrwt>
<pdfrwt beam="1">  1        1 0.47505960E-02 0.91737123E+02</pdfrwt>
<pdfrwt beam="2">  1       -1 0.10482272E-01 0.91737123E+02</pdfrwt>
<totfact> 0.85569540E+04</totfact>
</mgrwt>
</event>
<event>
 5    1  0.3858870E+001  0.1016861E+03  0.7546771E-02  0.1276790E+00
          2   -1    0    0  501    0  0.00000000000E+00  0.00000000000E+00  0.10922270091E+04  0.10922270091E+04  0.00000000000E+00 0.  1.
         -2   -1    0    0    0  501 -0.00000000000E+00 -0.00000000000E+00 -0.23667383833E+01  0.23667383833E+01  0.00000000000E+00 0. -1.
         23    2    1    2    0    0  0.00000000000E+00  0.00000000000E+00  0.10898602707E+04  0.10945937474E+04  0.10168609710E+03 0.  0.
          2    1    3    3  502    0  0.20204675454E+02 -0.16639823612E+01  0.43023501367E+02  0.47560691936E+02  0.00000000000E+00 0. -1.
         -2    1    3    3    0  502 -0.20204675454E+02  0.16639823612E+01  0.10468367693E+04  0.10470330555E+04  0.00000000000E+00 0.  1.
<mgrwt>
<rscale>  0 0.10168610E+03</rscale>
<asrwt>0</asrwt>
<pdfrwt beam="1">  1        2 0.16803452E+00 0.10168610E+03</pdfrwt>
<pdfrwt beam="2">  1       -2 0.36411447E-03 0.10168610E+03</pdfrwt>
<totfact> 0.18748066E+05</totfact>
</mgrwt>
</event>
<event>
 5    1  0.3858870E+001  0.9294824E+02  0.7546771E-02  0.1295865E+00
          1   -1    0    0  501    0  0.00000000000E+00  0.00000000000E+00  0.12309041528E+03  0.12309041528E+03  0.00000000000E+00 0. -1.
         -1   -1    0    0    0  501 -0.00000000000E+00 -0.00000000000E+00 -0.17546806337E+02  0.17546806337E+02  0.00000000000E+00 0.  1.
         23    2    1    2    0    0  0.00000000000E+00  0.00000000000E+00  0.10554360894E+03  0.14063722161E+03  0.92948236751E+02 0.  0.
          2    1    3    3  502    0 -0.30196372747E+02 -0.29324668555E+02  0.82579158591E+02  0.92688049642E+02  0.00000000000E+00 0. -1.
         -2    1    3    3    0  502  0.30196372747E+02  0.29324668555E+02  0.22964450349E+02  0.47949171972E+02  0.00000000000E+00 0.  1.
<mgrwt>
<rscale>  0 0.92948237E+02</rscale>
<asrwt>0</asrwt>
<pdfrwt beam="1">  1        1 0.18936986E-01 0.92948237E+02</pdfrwt>
<pdfrwt beam="2">  1       -1 0.26995087E-02 0.92948237E+02</pdfrwt>
<totfact> 0.10270780E+05</totfact>
</mgrwt>
</event>
<event>
 5    1  0.3858870E+001  0.9093228E+02  0.7546771E-02  0.1300610E+00
          2   -1    0    0  501    0  0.00000000000E+00  0.00000000000E+00  0.16739540056E+03  0.16739540056E+03  0.00000000000E+00 0. -1.
         -2   -1    0    0    0  501 -0.00000000000E+00 -0.00000000000E+00 -0.12349023408E+02  0.12349023408E+02  0.00000000000E+00 0.  1.
         23    2    1    2    0    0  0.00000000000E+00  0.00000000000E+00  0.15504637715E+03  0.17974442397E+03  0.90932276336E+02 0.  0.
          2    1    3    3  502    0 -0.25415058116E+02 -0.28742330781E+02  0.12574468875E+03  0.13146776604E+03  0.00000000000E+00 0. -1.
         -2    1    3    3    0  502  0.25415058116E+02  0.28742330781E+02  0.29301688398E+02  0.48276657928E+02  0.00000000000E+00 0.  1.
<mgrwt>
<rscale>  0 0.90932276E+02</rscale>
<asrwt>0</asrwt>
<pdfrwt beam="1">  1        2 0.25753137E-01 0.90932276E+02</pdfrwt>
<pdfrwt beam="2">  1       -2 0.18998499E-02 0.90932276E+02</pdfrwt>
<totfact> 0.14625260E+05</totfact>
</mgrwt>
</event>
<event>
 5    1  0.3858870E+001  0.1031374E+03  0.7546771E-02  0.1273833E+00
          1   -1    0    0  501    0  0.00000000000E+00  0.00000000000E+00  0.11711950468E+04  0.11711950468E+04  0.00000000000E+00 0. -1.
         -1   -1    0    0    0  501 -0.00000000000E+00 -0.00000000000E+00 -0.22706118743E+01  0.22706118743E+01  0.00000000000E+00 0.  1.
         23    2    1    2    0    0  0.00000000000E+00  0.00000000000E+00  0.11689244349E+04  0.11734656587E+04  0.10313737209E+03 0.  0.
          2    1    3    3  502    0  0.28995866376E+02  0.28847723524E+02  0.22712684982E+03  0.23078032267E+03  0.00000000000E+00 0.  1.
         -2    1    3    3    0  502 -0.28995866376E+02 -0.28847723524E+02  0.94179758509E+03  0.94268533600E+03  0.00000000000E+00 0. -1.
<mgrwt>
<rscale>  0 0.10313737E+03</rscale>
<asrwt>0</asrwt>
<pdfrwt beam="1">  1        1 0.18018337E+00 0.10313737E+03</pdfrwt>
<pdfrwt beam="2">  1       -1 0.34932584E-03 0.10313737E+03</pdfrwt>
<totfact> 0.92738644E+04</totfact>
</mgrwt>
</event>
<event>
 5    1  0.3858870E+001  0.9019102E+02  0.7546771E-02  0.1302390E+00
          2   -1    0    0  501    0  0.00000000000E+00  0.00000000000E+00  0.27765001143E+04  0.27765001143E+04  0.00000000000E+00 0. -1.
         -2   -1    0    0    0  501 -0.00000000000E+00 -0.00000000000E+00 -0.73243464240E+00  0.73243464240E+00  0.00000000000E+00 0.  1.
         23    2    1    2    0    0  0.00000000000E+00  0.00000000000E+00  0.27757676796E+04  0.27772325489E+04  0.90191016589E+02 0.  0.
          2    1    3    3  502    0 -0.39342876240E+02 -0.21474000455E+00  0.20665115752E+04  0.20668860633E+04  0.00000000000E+00 0. -1.
         -2    1    3    3    0  502  0.39342876240E+02  0.21474000455E+00  0.70925610440E+03  0.71034648563E+03  0.00000000000E+00 0.  1.
<mgrwt>
<rscale>  0 0.90191017E+02</rscale>
<asrwt>0</asrwt>
<pdfrwt beam="1">  1        2 0.42714544E+00 0.90191017E+02</pdfrwt>
<pdfrwt beam="2">  1       -2 0.11268448E-03 0.90191017E+02</pdfrwt>
<totfact> 0.12566115E+05</totfact>
</mgrwt>
</event>
<event>
 5    1  0.3858870E+001  0.9216012E+02  0.7546771E-02  0.1297703E+00
          2   -1    0    0  501    0  0.00000000000E+00  0.00000000000E+00  0.54585071723E+01  0.54585071723E+01  0.00000000000E+00 0. -1.
         -2   -1    0    0    0  501 -0.00000000000E+00 -0.00000000000E+00 -0.38900230310E+03  0.38900230310E+03  0.00000000000E+00 0.  1.
         23    2    1    2    0    0  0.00000000000E+00  0.00000000000E+00 -0.38354379593E+03  0.39446081028E+03  0.92160118523E+02 0.  0.
          2    1    3    3  502    0  0.24472354857E+02 -0.98673492802E+01 -0.30079450766E+02  0.40012924068E+02  0.00000000000E+00 0. -1.
         -2    1    3    3    0  502 -0.24472354857E+02  0.98673492802E+01 -0.35346434516E+03  0.35444788621E+03  0.00000000000E+00 0.  1.
<mgrwt>
<rscale>  0 0.92160119E+02</rscale>
<asrwt>0</asrwt>
<pdfrwt beam="1">  1        2 0.83977021E-03 0.92160119E+02</pdfrwt>
<pdfrwt beam="2">  1       -2 0.59846517E-01 0.92160119E+02</pdfrwt>
<totfact> 0.42307660E+04</totfact>
</mgrwt>
</event>
<event>
 5    1  0.3858870E+001  0.9119827E+02  0.7546771E-02  0.1299976E+00
          2   -1    0    0  501    0  0.00000000000E+00  0.00000000000E+00  0.43789618806E+02  0.43789618806E+02  0.00000000000E+00 0. -1.
         -2   -1    0    0    0  501 -0.00000000000E+00 -0.00000000000E+00 -0.47483427693E+02  0.47483427693E+02  0.00000000000E+00 0.  1.
         23    2    1    2    0    0  0.00000000000E+00  0.00000000000E+00 -0.36938088862E+01  0.91273046499E+02  0.91198271876E+02 0.  0.
          2    1    3    3  502    0 -0.33273776550E+02  0.87512155654E+01  0.28103427300E+02  0.44424437034E+02  0.00000000000E+00 0. -1.
         -2    1    3    3    0  502  0.33273776550E+02 -0.87512155654E+01 -0.31797236186E+02  0.46848609465E+02  0.00000000000E+00 0.  1.
<mgrwt>
<rscale>  0 0.91198272E+02</rscale>
<asrwt>0</asrwt>
<pdfrwt beam="1">  1        2 0.67368645E-02 0.91198272E+02</pdfrwt>
<pdfrwt beam="2">  1       -2 0.73051427E-02 0.91198272E+02</pdfrwt>
<totfact> 0.97583818E+04</totfact>
</mgrwt>
</event>
<event>
 5    1  0.3858870E+001  0.9089657E+02  0.7546771E-02  0.1300695E+00
          1   -1    0    0  501    0  0.00000000000E+00  0.00000000000E+00  0.30469774328E+01  0.30469774328E+01  0.00000000000E+00 0. -1.
         -1   -1    0    0    0  501 -0.00000000000E+00 -0.00000000000E+00 -0.67790018719E+03  0.67790018719E+03  0.00000000000E+00 0.  1.
         23    2    1    2    0    0  0.00000000000E+00  0.00000000000E+00 -0.67485320975E+03  0.68094716462E+03  0.90896569177E+02 0.  0.
          2    1    3    3  502    0  0.15153348972E+02  0.41882074452E+02 -0.26966543898E+03  0.27331882688E+03  0.00000000000E+00 0. -1.
         -2    1    3    3    0  502 -0.15153348972E+02 -0.41882074452E+02 -0.40518777077E+03  0.40762833774E+03  0.00000000000E+00 0.  1.
<mgrwt>
<rscale>  0 0.90896569E+02</rscale>
<asrwt>0</asrwt>
<pdfrwt beam="1">  1        1 0.46876584E-03 0.90896569E+02</pdfrwt>
<pdfrwt beam="2">  1       -1 0.10429232E+00 0.90896569E+02</pdfrwt>
<totfact> 0.38156527E+04</totfact>
</mgrwt>
</event>
<event>
 5    1  0.3858870E+001  0.9185707E+02  0.7546771E-02  0.1298416E+00
         -2   -1    0    0    0  501 -0.00000000000E+00  0.00000000000E+00  0.39909136819E+01  0.39909136819E+01  0.00000000000E+00 0. -1.
          2   -1    0    0  501    0  0.00000000000E+00 -0.00000000000E+00 -0.52855823144E+03  0.52855823144E+03  0.00000000000E+00 0.  1.
         23    2    1    2    0    0  0.00000000000E+00  0.00000000000E+00 -0.52456731776E+03  0.53254914513E+03  0.91857068918E+02 0.  0.
          2    1    3    3  502    0  0.38584772021E+02  0.28772087957E+01 -0.11881629790E+03  0.12495749521E+03  0.00000000000E+00 0. -1.
         -2    1    3    3    0  502 -0.38584772021E+02 -0.28772087957E+01 -0.40575101986E+03  0.40759164992E+03  0.00000000000E+00 0.  1.
<mgrwt>
<rscale>  0 0.91857069E+02</rscale>
<asrwt>0</asrwt>
<pdfrwt beam="2">  1        2 0.81316642E-01 0.91857069E+02</pdfrwt>
<pdfrwt beam="1">  1       -2 0.61398679E-03 0.91857069E+02</pdfrwt>
<totfact> 0.21508165E+05</totfact>
</mgrwt>
</event>
<event>
 5    1  0.3858870E+001  0.7911895E+02  0.7546771E-02  0.1331570E+00
          1   -1    0    0  501    0  0.00000000000E+00  0.00000000000E+00  0.11873029260E+04  0.11873029260E+04  0.00000000000E+00 0. -1.
         -1   -1    0    0    0  501 -0.00000000000E+00 -0.00000000000E+00 -0.13180732454E+01  0.13180732454E+01  0.00000000000E+00 0.  1.
         23    2    1    2    0    0  0.00000000000E+00  0.00000000000E+00  0.11859848527E+04  0.11886209992E+04  0.79118954011E+02 0.  0.
          2    1    3    3  502    0  0.26773312726E+02 -0.25180343211E+02  0.81281047457E+03  0.81364103112E+03  0.00000000000E+00 0. -1.
         -2    1    3    3    0  502 -0.26773312726E+02  0.25180343211E+02  0.37317437816E+03  0.37497996810E+03  0.00000000000E+00 0.  1.
<mgrwt>
<rscale>  0 0.79118954E+02</rscale>
<asrwt>0</asrwt>
<pdfrwt beam="1">  1        1 0.18266113E+00 0.79118954E+02</pdfrwt>
<pdfrwt beam="2">  1       -1 0.20278145E-03 0.79118954E+02</pdfrwt>
<totfact> 0.18569087E+05</totfact>
</mgrwt>
</event>
<event>
 5    1  0.3858870E+001  0.9309156E+02  0.7546771E-02  0.1295533E+00
          1   -1    0    0  501    0  0.00000000000E+00  0.00000000000E+00  0.56527546696E+02  0.56527546696E+02  0.00000000000E+00 0. -1.
         -1   -1    0    0    0  501 -0.00000000000E+00 -0.00000000000E+00 -0.38326618956E+02  0.38326618956E+02  0.00000000000E+00 0.  1.
         23    2    1    2    0    0  0.00000000000E+00  0.00000000000E+00  0.18200927740E+02  0.94854165653E+02  0.93091562298E+02 0.  0.
          2    1    3    3  502    0  0.31786066726E+00  0.34576469669E+02 -0.22648391569E+02  0.41335008538E+02  0.00000000000E+00 0.  1.
         -2    1    3    3    0  502 -0.31786066726E+00 -0.34576469669E+02  0.40849319309E+02  0.53519157114E+02  0.00000000000E+00 0. -1.
<mgrwt>
<rscale>  0 0.93091562E+02</rscale>
<asrwt>0</asrwt>
<pdfrwt beam="1">  1        1 0.86965456E-02 0.93091562E+02</pdfrwt>
<pdfrwt beam="2">  1       -1 0.58964029E-02 0.93091562E+02</pdfrwt>
<totfact> 0.90132356E+04</totfact>
</mgrwt>
</event>
<event>
 5    1  0.3858870E+001  0.8557597E+02  0.7546771E-02  0.1313933E+00
          2   -1    0    0  501    0  0.00000000000E+00  0.00000000000E+00  0.81934566640E+03  0.81934566640E+03  0.00000000000E+00 0.  1.
         -2   -1    0    0    0  501 -0.00000000000E+00 -0.00000000000E+00 -0.22344803902E+01  0.22344803902E+01  0.00000000000E+00 0. -1.
         23    2    1    2    0    0  0.00000000000E+00  0.00000000000E+00  0.81711118600E+03  0.82158014679E+03  0.85575973833E+02 0.  0.
          2    1    3    3  502    0  0.20984088052E+02 -0.32652281796E+02  0.58144849443E+03  0.58274252902E+03  0.00000000000E+00 0. -1.
         -2    1    3    3    0  502 -0.20984088052E+02  0.32652281796E+02  0.23566269158E+03  0.23883761777E+03  0.00000000000E+00 0.  1.
<mgrwt>
<rscale>  0 0.85575974E+02</rscale>
<asrwt>0</asrwt>
<pdfrwt beam="1">  1        2 0.12605294E+00 0.85575974E+02</pdfrwt>
<pdfrwt beam="2">  1       -2 0.34376687E-03 0.85575974E+02</pdfrwt>
<totfact> 0.28906603E+05</totfact>
</mgrwt>
</event>
<event>
 5    1  0.3858870E+001  0.9203873E+02  0.7546771E-02  0.1297988E+00
          4   -1    0    0  501    0  0.00000000000E+00  0.00000000000E+00  0.17664910095E+03  0.17664910095E+03  0.00000000000E+00 0. -1.
         -4   -1    0    0    0  501 -0.00000000000E+00 -0.00000000000E+00 -0.11988635919E+02  0.11988635919E+02  0.00000000000E+00 0.  1.
         23    2    1    2    0    0  0.00000000000E+00  0.00000000000E+00  0.16466046503E+03  0.18863773687E+03  0.92038725692E+02 0.  0.
          2    1    3    3  502    0 -0.85638436849E+01  0.22913692594E+02  0.16222066280E+03  0.16405462556E+03  0.00000000000E+00 0. -1.
         -2    1    3    3    0  502  0.85638436849E+01 -0.22913692594E+02  0.24398022308E+01  0.24583111314E+02  0.00000000000E+00 0.  1.
<mgrwt>
<rscale>  0 0.92038726E+02</rscale>
<asrwt>0</asrwt>
<pdfrwt beam="1">  1        4 0.27176783E-01 0.92038726E+02</pdfrwt>
<pdfrwt beam="2">  1       -4 0.18444057E-02 0.92038726E+02</pdfrwt>
<totfact> 0.21324575E+04</totfact>
</mgrwt>
</event>
<event>
 5    1  0.3858870E+001  0.9275747E+02  0.7546771E-02  0.1296308E+00
          2   -1    0    0  501    0  0.00000000000E+00  0.00000000000E+00  0.29887624528E+03  0.29887624528E+03  0.00000000000E+00 0. -1.
         -2   -1    0    0    0  501 -0.00000000000E+00 -0.00000000000E+00 -0.71969150464E+01  0.71969150464E+01  0.00000000000E+00 0.  1.
         23    2    1    2    0    0  0.00000000000E+00  0.00000000000E+00  0.29167933023E+03  0.30607316033E+03  0.92757467552E+02 0.  0.
          2    1    3    3  502    0  0.21891602190E+02  0.29652922772E+02  0.23872817379E+03  0.24155678222E+03  0.00000000000E+00 0. -1.
         -2    1    3    3    0  502 -0.21891602190E+02 -0.29652922772E+02  0.52951156448E+02  0.64516378111E+02  0.00000000000E+00 0.  1.
<mgrwt>
<rscale>  0 0.92757468E+02</rscale>
<asrwt>0</asrwt>
<pdfrwt beam="1">  1        2 0.45980951E-01 0.92757468E+02</pdfrwt>
<pdfrwt beam="2">  1       -2 0.11072179E-02 0.92757468E+02</pdfrwt>
<totfact> 0.17135453E+05</totfact>
</mgrwt>
</event>
<event>
 5    1  0.3858870E+001  0.9329361E+02  0.7546771E-02  0.1295066E+00
         -2   -1    0    0    0  501 -0.00000000000E+00  0.00000000000E+00  0.24926616047E+02  0.24926616047E+02  0.00000000000E+00 0.  1.
          2   -1    0    0  501    0  0.00000000000E+00 -0.00000000000E+00 -0.87293217161E+02  0.87293217161E+02  0.00000000000E+00 0. -1.
         23    2    1    2    0    0  0.00000000000E+00  0.00000000000E+00 -0.62366601114E+02  0.11221983321E+03  0.93293611950E+02 0.  0.
          2    1    3    3  502    0  0.45084858393E+02  0.97631380765E+00 -0.45533606150E+02  0.64085153772E+02  0.00000000000E+00 0. -1.
         -2    1    3    3    0  502 -0.45084858393E+02 -0.97631380765E+00 -0.16832994964E+02  0.48134679436E+02  0.00000000000E+00 0.  1.
<mgrwt>
<rscale>  0 0.93293612E+02</rscale>
<asrwt>0</asrwt>
<pdfrwt beam="2">  1        2 0.13429726E-01 0.93293612E+02</pdfrwt>
<pdfrwt beam="1">  1       -2 0.38348641E-02 0.93293612E+02</pdfrwt>
<totfact> 0.11052394E+05</totfact>
</mgrwt>
</event>
<event>
 5    1  0.3858870E+001  0.9020456E+02  0.7546771E-02  0.1302357E+00
          1   -1    0    0  501    0  0.00000000000E+00  0.00000000000E+00  0.14480446518E+04  0.14480446518E+04  0.00000000000E+00 0. -1.
         -1   -1    0    0    0  501 -0.00000000000E+00 -0.00000000000E+00 -0.14048017806E+01  0.14048017806E+01  0.00000000000E+00 0.  1.
         23    2    1    2    0    0  0.00000000000E+00  0.00000000000E+00  0.14466398501E+04  0.14494494536E+04  0.90204560977E+02 0.  0.
          2    1    3    3  502    0  0.16145767996E+02 -0.30266573895E+02  0.25279501191E+03  0.25511187617E+03  0.00000000000E+00 0.  1.
         -2    1    3    3    0  502 -0.16145767996E+02  0.30266573895E+02  0.11938448382E+04  0.11943375774E+04  0.00000000000E+00 0. -1.
<mgrwt>
<rscale>  0 0.90204561E+02</rscale>
<asrwt>0</asrwt>
<pdfrwt beam="1">  1        1 0.22277491E+00 0.90204561E+02</pdfrwt>
<pdfrwt beam="2">  1       -1 0.21612451E-03 0.90204561E+02</pdfrwt>
<totfact> 0.11688730E+05</totfact>
</mgrwt>
</event>
<event>
 5    1  0.3858870E+001  0.8895594E+02  0.7546771E-02  0.1305400E+00
         -2   -1    0    0    0  501 -0.00000000000E+00  0.00000000000E+00  0.42091511688E+03  0.42091511688E+03  0.00000000000E+00 0.  1.
          2   -1    0    0  501    0  0.00000000000E+00 -0.00000000000E+00 -0.46999736877E+01  0.46999736877E+01  0.00000000000E+00 0. -1.
         23    2    1    2    0    0  0.00000000000E+00  0.00000000000E+00  0.41621514320E+03  0.42561509057E+03  0.88955943570E+02 0.  0.
          2    1    3    3  502    0  0.30776482072E+02 -0.31378013361E+02  0.17547476363E+03  0.18089545114E+03  0.00000000000E+00 0. -1.
         -2    1    3    3    0  502 -0.30776482072E+02  0.31378013361E+02  0.24074037957E+03  0.24471963944E+03  0.00000000000E+00 0.  1.
<mgrwt>
<rscale>  0 0.88955944E+02</rscale>
<asrwt>0</asrwt>
<pdfrwt beam="2">  1        2 0.72307321E-03 0.88955944E+02</pdfrwt>
<pdfrwt beam="1">  1       -2 0.64756142E-01 0.88955944E+02</pdfrwt>
<totfact> 0.43933587E+04</totfact>
</mgrwt>
</event>
<event>
 5    1  0.3858870E+001  0.9129052E+02  0.7546771E-02  0.1299756E+00
          2   -1    0    0  501    0  0.00000000000E+00  0.00000000000E+00  0.31987916060E+02  0.31987916060E+02  0.00000000000E+00 0. -1.
         -2   -1    0    0    0  501 -0.00000000000E+00 -0.00000000000E+00 -0.65133652107E+02  0.65133652107E+02  0.00000000000E+00 0.  1.
         23    2    1    2    0    0  0.00000000000E+00  0.00000000000E+00 -0.33145736048E+02  0.97121568167E+02  0.91290520784E+02 0.  0.
          2    1    3    3  502    0 -0.32865917424E+02 -0.30752544129E+02 -0.84984746244E+01  0.45805147849E+02  0.00000000000E+00 0. -1.
         -2    1    3    3    0  502  0.32865917424E+02  0.30752544129E+02 -0.24647261423E+02  0.51316420318E+02  0.00000000000E+00 0.  1.
<mgrwt>
<rscale>  0 0.91290521E+02</rscale>
<asrwt>0</asrwt>
<pdfrwt beam="1">  1        2 0.49212179E-02 0.91290521E+02</pdfrwt>
<pdfrwt beam="2">  1       -2 0.10020562E-01 0.91290521E+02</pdfrwt>
<totfact> 0.89655430E+04</totfact>
</mgrwt>
</event>
<event>
 5    1  0.3858870E+001  0.8707693E+02  0.7546771E-02  0.1310089E+00
         -2   -1    0    0    0  501 -0.00000000000E+00  0.00000000000E+00  0.30780519582E+02  0.30780519582E+02  0.00000000000E+00 0. -1.
          2   -1    0    0  501    0  0.00000000000E+00 -0.00000000000E+00 -0.61584339799E+02  0.61584339799E+02  0.00000000000E+00 0.  1.
         23    2    1    2    0    0  0.00000000000E+00  0.00000000000E+00 -0.30803820217E+02  0.92364859381E+02  0.87076930978E+02 0.  0.
          2    1    3    3  502    0 -0.64127595372E+00 -0.43236412081E+02 -0.20789674166E+02  0.47979257147E+02  0.00000000000E+00 0. -1.
         -2    1    3    3    0  502  0.64127595372E+00  0.43236412081E+02 -0.10014146051E+02  0.44385602234E+02  0.00000000000E+00 0.  1.
<mgrwt>
<rscale>  0 0.87076931E+02</rscale>
<asrwt>0</asrwt>
<pdfrwt beam="2">  1        2 0.94745138E-02 0.87076931E+02</pdfrwt>
<pdfrwt beam="1">  1       -2 0.47354646E-02 0.87076931E+02</pdfrwt>
<totfact> 0.12151787E+05</totfact>
</mgrwt>
</event>
<event>
 5    1  0.3858870E+001  0.9123023E+02  0.7546771E-02  0.1299900E+00
          1   -1    0    0  501    0  0.00000000000E+00  0.00000000000E+00  0.19621243853E+03  0.19621243853E+03  0.00000000000E+00 0. -1.
         -1   -1    0    0    0  501 -0.00000000000E+00 -0.00000000000E+00 -0.10604520098E+02  0.10604520098E+02  0.00000000000E+00 0.  1.
         23    2    1    2    0    0  0.00000000000E+00  0.00000000000E+00  0.18560791843E+03  0.20681695863E+03  0.91230230691E+02 0.  0.
          2    1    3    3  502    0 -0.10157452950E+02 -0.32005208246E+02  0.22812253641E+02  0.40594409978E+02  0.00000000000E+00 0.  1.
         -2    1    3    3    0  502  0.10157452950E+02  0.32005208246E+02  0.16279566479E+03  0.16622254865E+03  0.00000000000E+00 0. -1.
<mgrwt>
<rscale>  0 0.91230231E+02</rscale>
<asrwt>0</asrwt>
<pdfrwt beam="1">  1        1 0.30186526E-01 0.91230231E+02</pdfrwt>
<pdfrwt beam="2">  1       -1 0.16314648E-02 0.91230231E+02</pdfrwt>
<totfact> 0.11778294E+05</totfact>
</mgrwt>
</event>
<event>
 5    1  0.3858870E+001  0.9124812E+02  0.7546771E-02  0.1299857E+00
          2   -1    0    0  501    0  0.00000000000E+00  0.00000000000E+00  0.76994684456E+02  0.76994684456E+02  0.00000000000E+00 0. -1.
         -2   -1    0    0    0  501 -0.00000000000E+00 -0.00000000000E+00 -0.27035046938E+02  0.27035046938E+02  0.00000000000E+00 0.  1.
         23    2    1    2    0    0  0.00000000000E+00  0.00000000000E+00  0.49959637518E+02  0.10402973139E+03  0.91248121257E+02 0.  0.
          2    1    3    3  502    0 -0.39319569906E+02  0.12707061695E+01  0.51323001159E+02  0.64666016730E+02  0.00000000000E+00 0. -1.
         -2    1    3    3    0  502  0.39319569906E+02 -0.12707061695E+01 -0.13633636411E+01  0.39363714664E+02  0.00000000000E+00 0.  1.
<mgrwt>
<rscale>  0 0.91248121E+02</rscale>
<asrwt>0</asrwt>
<pdfrwt beam="1">  1        2 0.11845336E-01 0.91248121E+02</pdfrwt>
<pdfrwt beam="2">  1       -2 0.41592380E-02 0.91248121E+02</pdfrwt>
<totfact> 0.11336356E+05</totfact>
</mgrwt>
</event>
<event>
 5    1  0.3858870E+001  0.9222162E+02  0.7546771E-02  0.1297559E+00
          3   -1    0    0  501    0  0.00000000000E+00  0.00000000000E+00  0.31667897168E+02  0.31667897168E+02  0.00000000000E+00 0. -1.
         -3   -1    0    0    0  501 -0.00000000000E+00 -0.00000000000E+00 -0.67140765295E+02  0.67140765295E+02  0.00000000000E+00 0.  1.
         23    2    1    2    0    0  0.00000000000E+00  0.00000000000E+00 -0.35472868127E+02  0.98808662463E+02  0.92221621134E+02 0.  0.
          2    1    3    3  502    0 -0.26483730802E+02 -0.22807959218E+00  0.22705709507E+02  0.34885373178E+02  0.00000000000E+00 0. -1.
         -2    1    3    3    0  502  0.26483730802E+02  0.22807959218E+00 -0.58178577634E+02  0.63923289285E+02  0.00000000000E+00 0.  1.
<mgrwt>
<rscale>  0 0.92221621E+02</rscale>
<asrwt>0</asrwt>
<pdfrwt beam="1">  1        3 0.48719842E-02 0.92221621E+02</pdfrwt>
<pdfrwt beam="2">  1       -3 0.10329348E-01 0.92221621E+02</pdfrwt>
<totfact> 0.33696737E+04</totfact>
</mgrwt>
</event>
<event>
 5    1  0.3858870E+001  0.7665205E+02  0.7546771E-02  0.1338830E+00
         -2   -1    0    0    0  501 -0.00000000000E+00  0.00000000000E+00  0.99302777600E+00  0.99302777600E+00  0.00000000000E+00 0.  1.
          2   -1    0    0  501    0  0.00000000000E+00 -0.00000000000E+00 -0.14791975355E+04  0.14791975355E+04  0.00000000000E+00 0. -1.
         23    2    1    2    0    0  0.00000000000E+00  0.00000000000E+00 -0.14782045078E+04  0.14801905633E+04  0.76652051218E+02 0.  0.
          2    1    3    3  502    0  0.58908569256E+01  0.36316962755E+02 -0.94641864839E+03  0.94713350801E+03  0.00000000000E+00 0. -1.
         -2    1    3    3    0  502 -0.58908569256E+01 -0.36316962755E+02 -0.53178585936E+03  0.53305705529E+03  0.00000000000E+00 0.  1.
<mgrwt>
<rscale>  0 0.76652051E+02</rscale>
<asrwt>0</asrwt>
<pdfrwt beam="2">  1        2 0.22756986E+00 0.76652051E+02</pdfrwt>
<pdfrwt beam="1">  1       -2 0.15277283E-03 0.76652051E+02</pdfrwt>
<totfact> 0.37320288E+05</totfact>
</mgrwt>
</event>
<event>
 5    1  0.3858870E+001  0.9120069E+02  0.7546771E-02  0.1299970E+00
         -2   -1    0    0    0  501 -0.00000000000E+00  0.00000000000E+00  0.12713195077E+02  0.12713195077E+02  0.00000000000E+00 0.  1.
          2   -1    0    0  501    0  0.00000000000E+00 -0.00000000000E+00 -0.16356165895E+03  0.16356165895E+03  0.00000000000E+00 0. -1.
         23    2    1    2    0    0  0.00000000000E+00  0.00000000000E+00 -0.15084846387E+03  0.17627485402E+03  0.91200685904E+02 0.  0.
          2    1    3    3  502    0 -0.18951516143E+02  0.37953847933E+02 -0.10775135184E+03  0.11580159049E+03  0.00000000000E+00 0. -1.
         -2    1    3    3    0  502  0.18951516143E+02 -0.37953847933E+02 -0.43097112030E+02  0.60473263533E+02  0.00000000000E+00 0.  1.
<mgrwt>
<rscale>  0 0.91200686E+02</rscale>
<asrwt>0</asrwt>
<pdfrwt beam="2">  1        2 0.25163331E-01 0.91200686E+02</pdfrwt>
<pdfrwt beam="1">  1       -2 0.19558762E-02 0.91200686E+02</pdfrwt>
<totfact> 0.14392710E+05</totfact>
</mgrwt>
</event>
<event>
 5    1  0.3858870E+001  0.9313243E+02  0.7546771E-02  0.1295439E+00
         -2   -1    0    0    0  501 -0.00000000000E+00  0.00000000000E+00  0.16980184875E+01  0.16980184875E+01  0.00000000000E+00 0.  1.
          2   -1    0    0  501    0  0.00000000000E+00 -0.00000000000E+00 -0.12770252860E+04  0.12770252860E+04  0.00000000000E+00 0. -1.
         23    2    1    2    0    0  0.00000000000E+00  0.00000000000E+00 -0.12753272675E+04  0.12787233045E+04  0.93132433546E+02 0.  0.
          2    1    3    3  502    0  0.38797942794E+02  0.22667115169E+01 -0.28546581562E+03  0.28809920207E+03  0.00000000000E+00 0.  1.
         -2    1    3    3    0  502 -0.38797942794E+02 -0.22667115169E+01 -0.98986145187E+03  0.99062410239E+03  0.00000000000E+00 0. -1.
<mgrwt>
<rscale>  0 0.93132434E+02</rscale>
<asrwt>0</asrwt>
<pdfrwt beam="2">  1        2 0.19646466E+00 0.93132434E+02</pdfrwt>
<pdfrwt beam="1">  1       -2 0.26123464E-03 0.93132434E+02</pdfrwt>
<totfact> 0.23309496E+05</totfact>
</mgrwt>
</event>
<event>
 5    1  0.3858870E+001  0.9101042E+02  0.7546771E-02  0.1300423E+00
          4   -1    0    0  501    0  0.00000000000E+00  0.00000000000E+00  0.66012612438E+01  0.66012612438E+01  0.00000000000E+00 0. -1.
         -4   -1    0    0    0  501 -0.00000000000E+00 -0.00000000000E+00 -0.31368613458E+03  0.31368613458E+03  0.00000000000E+00 0.  1.
         23    2    1    2    0    0  0.00000000000E+00  0.00000000000E+00 -0.30708487333E+03  0.32028739582E+03  0.91010419687E+02 0.  0.
          2    1    3    3  502    0 -0.31807168570E+02  0.31404364434E+02 -0.18356837979E+03  0.18893194578E+03  0.00000000000E+00 0.  1.
         -2    1    3    3    0  502  0.31807168570E+02 -0.31404364434E+02 -0.12351649355E+03  0.13135545004E+03  0.00000000000E+00 0. -1.
<mgrwt>
<rscale>  0 0.91010420E+02</rscale>
<asrwt>0</asrwt>
<pdfrwt beam="1">  1        4 0.10155788E-02 0.91010420E+02</pdfrwt>
<pdfrwt beam="2">  1       -4 0.48259397E-01 0.91010420E+02</pdfrwt>
<totfact> 0.17302572E+04</totfact>
</mgrwt>
</event>
<event>
 5    1  0.3858870E+001  0.8908248E+02  0.7546771E-02  0.1305089E+00
          1   -1    0    0  501    0  0.00000000000E+00  0.00000000000E+00  0.17329823383E+02  0.17329823383E+02  0.00000000000E+00 0. -1.
         -1   -1    0    0    0  501 -0.00000000000E+00 -0.00000000000E+00 -0.11448022887E+03  0.11448022887E+03  0.00000000000E+00 0.  1.
         23    2    1    2    0    0  0.00000000000E+00  0.00000000000E+00 -0.97150405484E+02  0.13181005225E+03  0.89082481938E+02 0.  0.
          2    1    3    3  502    0 -0.27600872581E+02 -0.33361039556E+02 -0.33116320834E+02  0.54511079911E+02  0.00000000000E+00 0.  1.
         -2    1    3    3    0  502  0.27600872581E+02  0.33361039556E+02 -0.64034084650E+02  0.77298972338E+02  0.00000000000E+00 0. -1.
<mgrwt>
<rscale>  0 0.89082482E+02</rscale>
<asrwt>0</asrwt>
<pdfrwt beam="1">  1        1 0.26661267E-02 0.89082482E+02</pdfrwt>
<pdfrwt beam="2">  1       -1 0.17612343E-01 0.89082482E+02</pdfrwt>
<totfact> 0.84178054E+04</totfact>
</mgrwt>
</event>
<event>
 5    1  0.3858870E+001  0.9002911E+02  0.7546771E-02  0.1302781E+00
          1   -1    0    0  501    0  0.00000000000E+00  0.00000000000E+00  0.14554292597E+02  0.14554292597E+02  0.00000000000E+00 0. -1.
         -1   -1    0    0    0  501 -0.00000000000E+00 -0.00000000000E+00 -0.13922422788E+03  0.13922422788E+03  0.00000000000E+00 0.  1.
         23    2    1    2    0    0  0.00000000000E+00  0.00000000000E+00 -0.12466993528E+03  0.15377852047E+03  0.90029109718E+02 0.  0.
          2    1    3    3  502    0 -0.41686489738E+01 -0.24963911078E+02  0.12497751719E+01  0.25340410979E+02  0.00000000000E+00 0. -1.
         -2    1    3    3    0  502  0.41686489738E+01  0.24963911078E+02 -0.12591971045E+03  0.12843810950E+03  0.00000000000E+00 0.  1.
<mgrwt>
<rscale>  0 0.90029110E+02</rscale>
<asrwt>0</asrwt>
<pdfrwt beam="1">  1        1 0.22391219E-02 0.90029110E+02</pdfrwt>
<pdfrwt beam="2">  1       -1 0.21419112E-01 0.90029110E+02</pdfrwt>
<totfact> 0.78611726E+04</totfact>
</mgrwt>
</event>
<event>
 5    1  0.3858870E+001  0.9192610E+02  0.7546771E-02  0.1298253E+00
         -1   -1    0    0    0  501 -0.00000000000E+00  0.00000000000E+00  0.60596992113E+03  0.60596992113E+03  0.00000000000E+00 0.  1.
          1   -1    0    0  501    0  0.00000000000E+00 -0.00000000000E+00 -0.34863151923E+01  0.34863151923E+01  0.00000000000E+00 0. -1.
         23    2    1    2    0    0  0.00000000000E+00  0.00000000000E+00  0.60248360594E+03  0.60945623632E+03  0.91926103847E+02 0.  0.
          2    1    3    3  502    0  0.51811652092E+01 -0.26548171004E+02  0.54868861640E+02  0.61173865615E+02  0.00000000000E+00 0. -1.
         -2    1    3    3    0  502 -0.51811652092E+01  0.26548171004E+02  0.54761474430E+03  0.54828237071E+03  0.00000000000E+00 0.  1.
<mgrwt>
<rscale>  0 0.91926104E+02</rscale>
<asrwt>0</asrwt>
<pdfrwt beam="2">  1        1 0.53635667E-03 0.91926104E+02</pdfrwt>
<pdfrwt beam="1">  1       -1 0.93226058E-01 0.91926104E+02</pdfrwt>
<totfact> 0.40435333E+04</totfact>
</mgrwt>
</event>
<event>
 5    1  0.3858870E+001  0.8731050E+02  0.7546771E-02  0.1309499E+00
         -1   -1    0    0    0  501 -0.00000000000E+00  0.00000000000E+00  0.18338522766E+03  0.18338522766E+03  0.00000000000E+00 0.  1.
          1   -1    0    0  501    0  0.00000000000E+00 -0.00000000000E+00 -0.10392226554E+02  0.10392226554E+02  0.00000000000E+00 0. -1.
         23    2    1    2    0    0  0.00000000000E+00  0.00000000000E+00  0.17299300110E+03  0.19377745421E+03  0.87310499540E+02 0.  0.
          2    1    3    3  502    0 -0.68291601816E+01  0.30161213847E+02  0.15488319049E+03  0.15794030184E+03  0.00000000000E+00 0.  1.
         -2    1    3    3    0  502  0.68291601816E+01 -0.30161213847E+02  0.18109810613E+02  0.35837152369E+02  0.00000000000E+00 0. -1.
<mgrwt>
<rscale>  0 0.87310500E+02</rscale>
<asrwt>0</asrwt>
<pdfrwt beam="2">  1        1 0.15988042E-02 0.87310500E+02</pdfrwt>
<pdfrwt beam="1">  1       -1 0.28213110E-01 0.87310500E+02</pdfrwt>
<totfact> 0.79586671E+04</totfact>
</mgrwt>
</event>
<event>
 5    1  0.3858870E+001  0.9383063E+02  0.7546771E-02  0.1293832E+00
          2   -1    0    0  501    0  0.00000000000E+00  0.00000000000E+00  0.30007391610E+03  0.30007391610E+03  0.00000000000E+00 0. -1.
         -2   -1    0    0    0  501 -0.00000000000E+00 -0.00000000000E+00 -0.73350156880E+01  0.73350156880E+01  0.00000000000E+00 0.  1.
         23    2    1    2    0    0  0.00000000000E+00  0.00000000000E+00  0.29273890041E+03  0.30740893179E+03  0.93830632145E+02 0.  0.
          2    1    3    3  502    0  0.31826823296E+02 -0.34434132708E+02  0.14130380349E+03  0.14888055970E+03  0.00000000000E+00 0. -1.
         -2    1    3    3    0  502 -0.31826823296E+02  0.34434132708E+02  0.15143509692E+03  0.15852837209E+03  0.00000000000E+00 0.  1.
<mgrwt>
<rscale>  0 0.93830632E+02</rscale>
<asrwt>0</asrwt>
<pdfrwt beam="1">  1        2 0.46165208E-01 0.93830632E+02</pdfrwt>
<pdfrwt beam="2">  1       -2 0.11284642E-02 0.93830632E+02</pdfrwt>
<totfact> 0.16640756E+05</totfact>
</mgrwt>
</event>
<event>
 5    1  0.3858870E+001  0.9059011E+02  0.7546771E-02  0.1301429E+00
         -1   -1    0    0    0  501 -0.00000000000E+00  0.00000000000E+00  0.25777353635E+03  0.25777353635E+03  0.00000000000E+00 0.  1.
          1   -1    0    0  501    0  0.00000000000E+00 -0.00000000000E+00 -0.79590875503E+01  0.79590875503E+01  0.00000000000E+00 0. -1.
         23    2    1    2    0    0  0.00000000000E+00  0.00000000000E+00  0.24981444880E+03  0.26573262390E+03  0.90590113013E+02 0.  0.
          2    1    3    3  502    0 -0.20023217614E+02  0.21519367694E+02  0.23818061105E+02  0.37832690420E+02  0.00000000000E+00 0. -1.
         -2    1    3    3    0  502  0.20023217614E+02 -0.21519367694E+02  0.22599638769E+03  0.22789993348E+03  0.00000000000E+00 0.  1.
<mgrwt>
<rscale>  0 0.90590113E+02</rscale>
<asrwt>0</asrwt>
<pdfrwt beam="2">  1        1 0.12244752E-02 0.90590113E+02</pdfrwt>
<pdfrwt beam="1">  1       -1 0.39657461E-01 0.90590113E+02</pdfrwt>
<totfact> 0.65177177E+04</totfact>
</mgrwt>
</event>
<event>
 5    1  0.3858870E+001  0.9868342E+02  0.7546771E-02  0.1283089E+00
         -2   -1    0    0    0  501 -0.00000000000E+00  0.00000000000E+00  0.11915478357E+01  0.11915478357E+01  0.00000000000E+00 0. -1.
          2   -1    0    0  501    0  0.00000000000E+00 -0.00000000000E+00 -0.20432282244E+04  0.20432282244E+04  0.00000000000E+00 0.  1.
         23    2    1    2    0    0  0.00000000000E+00  0.00000000000E+00 -0.20420366766E+04  0.20444197723E+04  0.98683416410E+02 0.  0.
          2    1    3    3  502    0 -0.45528388845E+02 -0.15219064001E+02 -0.78467242508E+03  0.78613947158E+03  0.00000000000E+00 0. -1.
         -2    1    3    3    0  502  0.45528388845E+02  0.15219064001E+02 -0.12573642515E+04  0.12582803007E+04  0.00000000000E+00 0.  1.
<mgrwt>
<rscale>  0 0.98683416E+02</rscale>
<asrwt>0</asrwt>
<pdfrwt beam="2">  1        2 0.31434465E+00 0.98683416E+02</pdfrwt>
<pdfrwt beam="1">  1       -2 0.18331398E-03 0.98683416E+02</pdfrwt>
<totfact> 0.15630325E+05</totfact>
</mgrwt>
</event>
<event>
 5    1  0.3858870E+001  0.9033067E+02  0.7546771E-02  0.1302053E+00
          1   -1    0    0  501    0  0.00000000000E+00  0.00000000000E+00  0.10253606295E+02  0.10253606295E+02  0.00000000000E+00 0. -1.
         -1   -1    0    0    0  501 -0.00000000000E+00 -0.00000000000E+00 -0.19894536503E+03  0.19894536503E+03  0.00000000000E+00 0.  1.
         23    2    1    2    0    0  0.00000000000E+00  0.00000000000E+00 -0.18869175874E+03  0.20919897133E+03  0.90330669151E+02 0.  0.
          2    1    3    3  502    0 -0.10472300543E+02 -0.18762922828E+02 -0.23424296757E+01  0.21614886733E+02  0.00000000000E+00 0. -1.
         -2    1    3    3    0  502  0.10472300543E+02  0.18762922828E+02 -0.18634932906E+03  0.18758408459E+03  0.00000000000E+00 0.  1.
<mgrwt>
<rscale>  0 0.90330669E+02</rscale>
<asrwt>0</asrwt>
<pdfrwt beam="1">  1        1 0.15774779E-02 0.90330669E+02</pdfrwt>
<pdfrwt beam="2">  1       -1 0.30606979E-01 0.90330669E+02</pdfrwt>
<totfact> 0.71237653E+04</totfact>
</mgrwt>
</event>
<event>
 5    1  0.3858870E+001  0.9204448E+02  0.7546771E-02  0.1297975E+00
         -2   -1    0    0    0  501 -0.00000000000E+00  0.00000000000E+00  0.12878625745E+02  0.12878625745E+02  0.00000000000E+00 0.  1.
          2   -1    0    0  501    0  0.00000000000E+00 -0.00000000000E+00 -0.16446215541E+03  0.16446215541E+03  0.00000000000E+00 0. -1.
         23    2    1    2    0    0  0.00000000000E+00  0.00000000000E+00 -0.15158352966E+03  0.17734078115E+03  0.92044479437E+02 0.  0.
          2    1    3    3  502    0  0.11978481626E+02  0.38328756098E+02 -0.11910874045E+03  0.12569594114E+03  0.00000000000E+00 0. -1.
         -2    1    3    3    0  502 -0.11978481626E+02 -0.38328756098E+02 -0.32474789210E+02  0.51644840016E+02  0.00000000000E+00 0.  1.
<mgrwt>
<rscale>  0 0.92044479E+02</rscale>
<asrwt>0</asrwt>
<pdfrwt beam="2">  1        2 0.25301869E-01 0.92044479E+02</pdfrwt>
<pdfrwt beam="1">  1       -2 0.19813271E-02 0.92044479E+02</pdfrwt>
<totfact> 0.14064666E+05</totfact>
</mgrwt>
</event>
<event>
 5    1  0.3858870E+001  0.9151160E+02  0.7546771E-02  0.1299232E+00
          1   -1    0    0  501    0  0.00000000000E+00  0.00000000000E+00  0.64178020136E+03  0.64178020136E+03  0.00000000000E+00 0. -1.
         -1   -1    0    0    0  501 -0.00000000000E+00 -0.00000000000E+00 -0.32621653887E+01  0.32621653887E+01  0.00000000000E+00 0.  1.
         23    2    1    2    0    0  0.00000000000E+00  0.00000000000E+00  0.63851803597E+03  0.64504236674E+03  0.91511598391E+02 0.  0.
          2    1    3    3  502    0  0.22692109446E+02  0.29675607542E+01  0.59854031798E+03  0.59897767111E+03  0.00000000000E+00 0. -1.
         -2    1    3    3    0  502 -0.22692109446E+02 -0.29675607542E+01  0.39977717990E+02  0.46064695631E+02  0.00000000000E+00 0.  1.
<mgrwt>
<rscale>  0 0.91511598E+02</rscale>
<asrwt>0</asrwt>
<pdfrwt beam="1">  1        1 0.98735315E-01 0.91511598E+02</pdfrwt>
<pdfrwt beam="2">  1       -1 0.50187211E-03 0.91511598E+02</pdfrwt>
<totfact> 0.14065801E+05</totfact>
</mgrwt>
</event>
<event>
 5    1  0.3858870E+001  0.9125301E+02  0.7546771E-02  0.1299845E+00
         -2   -1    0    0    0  501 -0.00000000000E+00  0.00000000000E+00  0.25033679442E+01  0.25033679442E+01  0.00000000000E+00 0. -1.
          2   -1    0    0  501    0  0.00000000000E+00 -0.00000000000E+00 -0.83159082463E+03  0.83159082463E+03  0.00000000000E+00 0.  1.
         23    2    1    2    0    0  0.00000000000E+00  0.00000000000E+00 -0.82908745668E+03  0.83409419257E+03  0.91253006812E+02 0.  0.
          2    1    3    3  502    0 -0.87149497843E+01  0.25402826724E+02 -0.75169204438E+03  0.75217164500E+03  0.00000000000E+00 0. -1.
         -2    1    3    3    0  502  0.87149497843E+01 -0.25402826724E+02 -0.77395412302E+02  0.81922547572E+02  0.00000000000E+00 0.  1.
<mgrwt>
<rscale>  0 0.91253007E+02</rscale>
<asrwt>0</asrwt>
<pdfrwt beam="2">  1        2 0.12793719E+00 0.91253007E+02</pdfrwt>
<pdfrwt beam="1">  1       -2 0.38513311E-03 0.91253007E+02</pdfrwt>
<totfact> 0.24477314E+05</totfact>
</mgrwt>
</event>
<event>
 5    1  0.3858870E+001  0.9286013E+02  0.7546771E-02  0.1296070E+00
         -2   -1    0    0    0  501 -0.00000000000E+00  0.00000000000E+00  0.24799509591E+02  0.24799509591E+02  0.00000000000E+00 0.  1.
          2   -1    0    0  501    0  0.00000000000E+00 -0.00000000000E+00 -0.86927169236E+02  0.86927169236E+02  0.00000000000E+00 0. -1.
         23    2    1    2    0    0  0.00000000000E+00  0.00000000000E+00 -0.62127659645E+02  0.11172667883E+03  0.92860134981E+02 0.  0.
          2    1    3    3  502    0  0.32547368466E+02 -0.16264585863E+01 -0.70855438464E+02  0.77990189905E+02  0.00000000000E+00 0. -1.
         -2    1    3    3    0  502 -0.32547368466E+02  0.16264585863E+01  0.87277788187E+01  0.33736488921E+02  0.00000000000E+00 0.  1.
<mgrwt>
<rscale>  0 0.92860135E+02</rscale>
<asrwt>0</asrwt>
<pdfrwt beam="2">  1        2 0.13373410E-01 0.92860135E+02</pdfrwt>
<pdfrwt beam="1">  1       -2 0.38153092E-02 0.92860135E+02</pdfrwt>
<totfact> 0.11182518E+05</totfact>
</mgrwt>
</event>
<event>
 5    1  0.3858870E+001  0.8698991E+02  0.7546771E-02  0.1310309E+00
          1   -1    0    0  501    0  0.00000000000E+00  0.00000000000E+00  0.21926118548E+04  0.21926118548E+04  0.00000000000E+00 0. -1.
         -1   -1    0    0    0  501 -0.00000000000E+00 -0.00000000000E+00 -0.86281170363E+00  0.86281170363E+00  0.00000000000E+00 0.  1.
         23    2    1    2    0    0  0.00000000000E+00  0.00000000000E+00  0.21917490431E+04  0.21934746665E+04  0.86989911365E+02 0.  0.
          2    1    3    3  502    0 -0.23886142997E+02 -0.12734683933E+02  0.19543394016E+04  0.19545268524E+04  0.00000000000E+00 0. -1.
         -2    1    3    3    0  502  0.23886142997E+02  0.12734683933E+02  0.23740964148E+03  0.23894781411E+03  0.00000000000E+00 0.  1.
<mgrwt>
<rscale>  0 0.86989911E+02</rscale>
<asrwt>0</asrwt>
<pdfrwt beam="1">  1        1 0.33732044E+00 0.86989911E+02</pdfrwt>
<pdfrwt beam="2">  1       -1 0.13274202E-03 0.86989911E+02</pdfrwt>
<totfact> 0.77621674E+04</totfact>
</mgrwt>
</event>
<event>
 5    1  0.3858870E+001  0.8473091E+02  0.7546771E-02  0.1316138E+00
         -1   -1    0    0    0  501 -0.00000000000E+00  0.00000000000E+00  0.29269559800E+01  0.29269559800E+01  0.00000000000E+00 0.  1.
          1   -1    0    0  501    0  0.00000000000E+00 -0.00000000000E+00 -0.61320760416E+03  0.61320760416E+03  0.00000000000E+00 0. -1.
         23    2    1    2    0    0  0.00000000000E+00  0.00000000000E+00 -0.61028064818E+03  0.61613456014E+03  0.84730907323E+02 0.  0.
          2    1    3    3  502    0 -0.31274483112E+02 -0.19979120359E+02 -0.15654676671E+03  0.16088551430E+03  0.00000000000E+00 0.  1.
         -2    1    3    3    0  502  0.31274483112E+02  0.19979120359E+02 -0.45373388147E+03  0.45524904584E+03  0.00000000000E+00 0. -1.
<mgrwt>
<rscale>  0 0.84730907E+02</rscale>
<asrwt>0</asrwt>
<pdfrwt beam="2">  1        1 0.94339725E-01 0.84730907E+02</pdfrwt>
<pdfrwt beam="1">  1       -1 0.45030047E-03 0.84730907E+02</pdfrwt>
<totfact> 0.17199010E+05</totfact>
</mgrwt>
</event>
<event>
 5    1  0.3858870E+001  0.9369902E+02  0.7546771E-02  0.1294133E+00
          1   -1    0    0  501    0  0.00000000000E+00  0.00000000000E+00  0.29779595453E+03  0.29779595453E+03  0.00000000000E+00 0. -1.
         -1   -1    0    0    0  501 -0.00000000000E+00 -0.00000000000E+00 -0.73704048475E+01  0.73704048475E+01  0.00000000000E+00 0.  1.
         23    2    1    2    0    0  0.00000000000E+00  0.00000000000E+00  0.29042554969E+03  0.30516635938E+03  0.93699023407E+02 0.  0.
          2    1    3    3  502    0  0.16501281085E+02 -0.18635152702E+02  0.27447909106E+03  0.27560539295E+03  0.00000000000E+00 0. -1.
         -2    1    3    3    0  502 -0.16501281085E+02  0.18635152702E+02  0.15946458626E+02  0.29560966431E+02  0.00000000000E+00 0.  1.
<mgrwt>
<rscale>  0 0.93699023E+02</rscale>
<asrwt>0</asrwt>
<pdfrwt beam="1">  1        1 0.45814753E-01 0.93699023E+02</pdfrwt>
<pdfrwt beam="2">  1       -1 0.11339087E-02 0.93699023E+02</pdfrwt>
<totfact> 0.11895144E+05</totfact>
</mgrwt>
</event>
<event>
 5    1  0.3858870E+001  0.9117815E+02  0.7546771E-02  0.1300023E+00
         -1   -1    0    0    0  501 -0.00000000000E+00  0.00000000000E+00  0.86732217648E+01  0.86732217648E+01  0.00000000000E+00 0.  1.
          1   -1    0    0  501    0  0.00000000000E+00 -0.00000000000E+00 -0.23962995606E+03  0.23962995606E+03  0.00000000000E+00 0. -1.
         23    2    1    2    0    0  0.00000000000E+00  0.00000000000E+00 -0.23095673429E+03  0.24830317782E+03  0.91178149803E+02 0.  0.
          2    1    3    3  502    0  0.85457137909E+01  0.25269921081E+02 -0.21615728170E+03  0.21779708117E+03  0.00000000000E+00 0. -1.
         -2    1    3    3    0  502 -0.85457137909E+01 -0.25269921081E+02 -0.14799452590E+02  0.30506096646E+02  0.00000000000E+00 0.  1.
<mgrwt>
<rscale>  0 0.91178150E+02</rscale>
<asrwt>0</asrwt>
<pdfrwt beam="2">  1        1 0.36866143E-01 0.91178150E+02</pdfrwt>
<pdfrwt beam="1">  1       -1 0.13343420E-02 0.91178150E+02</pdfrwt>
<totfact> 0.12264819E+05</totfact>
</mgrwt>
</event>
<event>
 5    1  0.3858870E+001  0.8988420E+02  0.7546771E-02  0.1303132E+00
          4   -1    0    0  501    0  0.00000000000E+00  0.00000000000E+00  0.39820968612E+01  0.39820968612E+01  0.00000000000E+00 0. -1.
         -4   -1    0    0    0  501 -0.00000000000E+00 -0.00000000000E+00 -0.50721828157E+03  0.50721828157E+03  0.00000000000E+00 0.  1.
         23    2    1    2    0    0  0.00000000000E+00  0.00000000000E+00 -0.50323618471E+03  0.51120037843E+03  0.89884199435E+02 0.  0.
          2    1    3    3  502    0  0.27701521499E+02  0.36378499723E+01 -0.51412721105E+02  0.58513896958E+02  0.00000000000E+00 0. -1.
         -2    1    3    3    0  502 -0.27701521499E+02 -0.36378499723E+01 -0.45182346361E+03  0.45268648148E+03  0.00000000000E+00 0.  1.
<mgrwt>
<rscale>  0 0.89884199E+02</rscale>
<asrwt>0</asrwt>
<pdfrwt beam="1">  1        4 0.61263057E-03 0.89884199E+02</pdfrwt>
<pdfrwt beam="2">  1       -4 0.78033546E-01 0.89884199E+02</pdfrwt>
<totfact> 0.13358055E+04</totfact>
</mgrwt>
</event>
<event>
 5    1  0.3858870E+001  0.9619865E+02  0.7546771E-02  0.1288499E+00
         -2   -1    0    0    0  501 -0.00000000000E+00  0.00000000000E+00  0.47708656987E+01  0.47708656987E+01  0.00000000000E+00 0.  1.
          2   -1    0    0  501    0  0.00000000000E+00 -0.00000000000E+00 -0.48493194958E+03  0.48493194958E+03  0.00000000000E+00 0. -1.
         23    2    1    2    0    0  0.00000000000E+00  0.00000000000E+00 -0.48016108388E+03  0.48970281528E+03  0.96198652890E+02 0.  0.
          2    1    3    3  502    0  0.15397426614E+02 -0.20264619238E+02 -0.44784741285E+03  0.44856999535E+03  0.00000000000E+00 0. -1.
         -2    1    3    3    0  502 -0.15397426614E+02  0.20264619238E+02 -0.32313671037E+02  0.41132819926E+02  0.00000000000E+00 0.  1.
<mgrwt>
<rscale>  0 0.96198653E+02</rscale>
<asrwt>0</asrwt>
<pdfrwt beam="2">  1        2 0.74604919E-01 0.96198653E+02</pdfrwt>
<pdfrwt beam="1">  1       -2 0.73397930E-03 0.96198653E+02</pdfrwt>
<totfact> 0.18502847E+05</totfact>
</mgrwt>
</event>
<event>
 5    1  0.3858870E+001  0.8613203E+02  0.7546771E-02  0.1312498E+00
         -2   -1    0    0    0  501 -0.00000000000E+00  0.00000000000E+00  0.32088465588E+02  0.32088465588E+02  0.00000000000E+00 0.  1.
          2   -1    0    0  501    0  0.00000000000E+00 -0.00000000000E+00 -0.57799018889E+02  0.57799018889E+02  0.00000000000E+00 0. -1.
         23    2    1    2    0    0  0.00000000000E+00  0.00000000000E+00 -0.25710553300E+02  0.89887484477E+02  0.86132034196E+02 0.  0.
          2    1    3    3  502    0  0.16370647203E+02  0.19391662491E+02 -0.49166703707E+02  0.55329914309E+02  0.00000000000E+00 0. -1.
         -2    1    3    3    0  502 -0.16370647203E+02 -0.19391662491E+02  0.23456150407E+02  0.34557570168E+02  0.00000000000E+00 0.  1.
<mgrwt>
<rscale>  0 0.86132034E+02</rscale>
<asrwt>0</asrwt>
<pdfrwt beam="2">  1        2 0.88921566E-02 0.86132034E+02</pdfrwt>
<pdfrwt beam="1">  1       -2 0.49366871E-02 0.86132034E+02</pdfrwt>
<totfact> 0.12322824E+05</totfact>
</mgrwt>
</event>
<event>
 5    1  0.3858870E+001  0.1006957E+03  0.7546771E-02  0.1278840E+00
         -1   -1    0    0    0  501 -0.00000000000E+00  0.00000000000E+00  0.40624498032E+03  0.40624498032E+03  0.00000000000E+00 0.  1.
          1   -1    0    0  501    0  0.00000000000E+00 -0.00000000000E+00 -0.62398478559E+01  0.62398478559E+01  0.00000000000E+00 0. -1.
         23    2    1    2    0    0  0.00000000000E+00  0.00000000000E+00  0.40000513247E+03  0.41248482818E+03  0.10069571728E+03 0.  0.
          2    1    3    3  502    0 -0.28141554779E+02  0.13758537357E+01  0.37092721464E+03  0.37199575084E+03  0.00000000000E+00 0.  1.
         -2    1    3    3    0  502  0.28141554779E+02 -0.13758537357E+01  0.29077917824E+02  0.40489077340E+02  0.00000000000E+00 0. -1.
<mgrwt>
<rscale>  0 0.10069572E+03</rscale>
<asrwt>0</asrwt>
<pdfrwt beam="2">  1        1 0.95997691E-03 0.10069572E+03</pdfrwt>
<pdfrwt beam="1">  1       -1 0.62499207E-01 0.10069572E+03</pdfrwt>
<totfact> 0.40717354E+04</totfact>
</mgrwt>
</event>
<event>
 5    1  0.3858870E+001  0.9131120E+02  0.7546771E-02  0.1299707E+00
          2   -1    0    0  501    0  0.00000000000E+00  0.00000000000E+00  0.68420047761E+02  0.68420047761E+02  0.00000000000E+00 0. -1.
         -2   -1    0    0    0  501 -0.00000000000E+00 -0.00000000000E+00 -0.30465249560E+02  0.30465249560E+02  0.00000000000E+00 0.  1.
         23    2    1    2    0    0  0.00000000000E+00  0.00000000000E+00  0.37954798201E+02  0.98885297321E+02  0.91311200408E+02 0.  0.
          2    1    3    3  502    0  0.38057150184E+02  0.21702480948E+00  0.46289172657E+02  0.59925631287E+02  0.00000000000E+00 0. -1.
         -2    1    3    3    0  502 -0.38057150184E+02 -0.21702480948E+00 -0.83343744565E+01  0.38959666034E+02  0.00000000000E+00 0.  1.
<mgrwt>
<rscale>  0 0.91311200E+02</rscale>
<asrwt>0</asrwt>
<pdfrwt beam="1">  1        2 0.10526161E-01 0.91311200E+02</pdfrwt>
<pdfrwt beam="2">  1       -2 0.46869615E-02 0.91311200E+02</pdfrwt>
<totfact> 0.10947095E+05</totfact>
</mgrwt>
</event>
<event>
 5    1  0.3858870E+001  0.9736112E+02  0.7546771E-02  0.1285945E+00
         -3   -1    0    0    0  501 -0.00000000000E+00  0.00000000000E+00  0.36023642754E+02  0.36023642754E+02  0.00000000000E+00 0.  1.
          3   -1    0    0  501    0  0.00000000000E+00 -0.00000000000E+00 -0.65784494860E+02  0.65784494860E+02  0.00000000000E+00 0. -1.
         23    2    1    2    0    0  0.00000000000E+00  0.00000000000E+00 -0.29760852106E+02  0.10180813761E+03  0.97361124513E+02 0.  0.
          2    1    3    3  502    0 -0.31353750488E+02  0.37237546951E+02 -0.14542284655E+02  0.50805222326E+02  0.00000000000E+00 0. -1.
         -2    1    3    3    0  502  0.31353750488E+02 -0.37237546951E+02 -0.15218567451E+02  0.51002915288E+02  0.00000000000E+00 0.  1.
<mgrwt>
<rscale>  0 0.97361125E+02</rscale>
<asrwt>0</asrwt>
<pdfrwt beam="2">  1        3 0.10120692E-01 0.97361125E+02</pdfrwt>
<pdfrwt beam="1">  1       -3 0.55420989E-02 0.97361125E+02</pdfrwt>
<totfact> 0.28862208E+04</totfact>
</mgrwt>
</event>
<event>
 5    1  0.3858870E+001  0.9141234E+02  0.7546771E-02  0.1299467E+00
         -2   -1    0    0    0  501 -0.00000000000E+00  0.00000000000E+00  0.55986923078E+01  0.55986923078E+01  0.00000000000E+00 0.  1.
          2   -1    0    0  501    0  0.00000000000E+00 -0.00000000000E+00 -0.37313252008E+03  0.37313252008E+03  0.00000000000E+00 0. -1.
         23    2    1    2    0    0  0.00000000000E+00  0.00000000000E+00 -0.36753382777E+03  0.37873121239E+03  0.91412344242E+02 0.  0.
          2    1    3    3  502    0 -0.16560147048E+02  0.13066373979E+02 -0.35175885974E+03  0.35239078309E+03  0.00000000000E+00 0. -1.
         -2    1    3    3    0  502  0.16560147048E+02 -0.13066373979E+02 -0.15774968027E+02  0.26340429296E+02  0.00000000000E+00 0.  1.
<mgrwt>
<rscale>  0 0.91412344E+02</rscale>
<asrwt>0</asrwt>
<pdfrwt beam="2">  1        2 0.57405005E-01 0.91412344E+02</pdfrwt>
<pdfrwt beam="1">  1       -2 0.86133726E-03 0.91412344E+02</pdfrwt>
<totfact> 0.19334844E+05</totfact>
</mgrwt>
</event>
<event>
 5    1  0.3858870E+001  0.9152026E+02  0.7546771E-02  0.1299211E+00
         -3   -1    0    0    0  501 -0.00000000000E+00  0.00000000000E+00  0.37995371082E+02  0.37995371082E+02  0.00000000000E+00 0.  1.
          3   -1    0    0  501    0  0.00000000000E+00 -0.00000000000E+00 -0.55111701177E+02  0.55111701177E+02  0.00000000000E+00 0. -1.
         23    2    1    2    0    0  0.00000000000E+00  0.00000000000E+00 -0.17116330095E+02  0.93107072259E+02  0.91520260864E+02 0.  0.
          2    1    3    3  502    0  0.43555989537E+02  0.41804611296E+01 -0.22184008502E+02  0.49058441812E+02  0.00000000000E+00 0. -1.
         -2    1    3    3    0  502 -0.43555989537E+02 -0.41804611296E+01  0.50676784069E+01  0.44048630447E+02  0.00000000000E+00 0.  1.
<mgrwt>
<rscale>  0 0.91520261E+02</rscale>
<asrwt>0</asrwt>
<pdfrwt beam="2">  1        3 0.84787232E-02 0.91520261E+02</pdfrwt>
<pdfrwt beam="1">  1       -3 0.58454417E-02 0.91520261E+02</pdfrwt>
<totfact> 0.34831685E+04</totfact>
</mgrwt>
</event>
<event>
 5    1  0.3858870E+001  0.7295027E+02  0.7546771E-02  0.1350338E+00
         -4   -1    0    0    0  501 -0.00000000000E+00  0.00000000000E+00  0.15565174890E+03  0.15565174890E+03  0.00000000000E+00 0.  1.
          4   -1    0    0  501    0  0.00000000000E+00 -0.00000000000E+00 -0.85475148069E+01  0.85475148069E+01  0.00000000000E+00 0. -1.
         23    2    1    2    0    0  0.00000000000E+00  0.00000000000E+00  0.14710423410E+03  0.16419926371E+03  0.72950274255E+02 0.  0.
          2    1    3    3  502    0  0.28620355195E+02  0.22602679366E+02  0.72076517190E+02  0.80777658893E+02  0.00000000000E+00 0. -1.
         -2    1    3    3    0  502 -0.28620355195E+02 -0.22602679366E+02  0.75027716906E+02  0.83421604816E+02  0.00000000000E+00 0.  1.
<mgrwt>
<rscale>  0 0.72950274E+02</rscale>
<asrwt>0</asrwt>
<pdfrwt beam="2">  1        4 0.13150024E-02 0.72950274E+02</pdfrwt>
<pdfrwt beam="1">  1       -4 0.23946421E-01 0.72950274E+02</pdfrwt>
<totfact> 0.41423325E+04</totfact>
</mgrwt>
</event>
<event>
 5    1  0.3858870E+001  0.8600636E+02  0.7546771E-02  0.1312822E+00
          2   -1    0    0  501    0  0.00000000000E+00  0.00000000000E+00  0.14815255487E+03  0.14815255487E+03  0.00000000000E+00 0. -1.
         -2   -1    0    0    0  501 -0.00000000000E+00 -0.00000000000E+00 -0.12482223669E+02  0.12482223669E+02  0.00000000000E+00 0.  1.
         23    2    1    2    0    0  0.00000000000E+00  0.00000000000E+00  0.13567033120E+03  0.16063477853E+03  0.86006356205E+02 0.  0.
          2    1    3    3  502    0 -0.30632890227E+02 -0.59534868911E+01  0.12309709360E+03  0.12699099347E+03  0.00000000000E+00 0. -1.
         -2    1    3    3    0  502  0.30632890227E+02  0.59534868911E+01  0.12573237598E+02  0.33643785066E+02  0.00000000000E+00 0.  1.
<mgrwt>
<rscale>  0 0.86006356E+02</rscale>
<asrwt>0</asrwt>
<pdfrwt beam="1">  1        2 0.22792700E-01 0.86006356E+02</pdfrwt>
<pdfrwt beam="2">  1       -2 0.19203422E-02 0.86006356E+02</pdfrwt>
<totfact> 0.16302008E+05</totfact>
</mgrwt>
</event>
<event>
 5    1  0.3858870E+001  0.9288091E+02  0.7546771E-02  0.1296021E+00
         -2   -1    0    0    0  501 -0.00000000000E+00  0.00000000000E+00  0.32681696226E+01  0.32681696226E+01  0.00000000000E+00 0.  1.
          2   -1    0    0  501    0  0.00000000000E+00 -0.00000000000E+00 -0.65991551866E+03  0.65991551866E+03  0.00000000000E+00 0. -1.
         23    2    1    2    0    0  0.00000000000E+00  0.00000000000E+00 -0.65664734903E+03  0.66318368828E+03  0.92880909804E+02 0.  0.
          2    1    3    3  502    0 -0.36395794004E+02  0.14171580433E+02 -0.50771466130E+03  0.50921475314E+03  0.00000000000E+00 0. -1.
         -2    1    3    3    0  502  0.36395794004E+02 -0.14171580433E+02 -0.14893268773E+03  0.15396893514E+03  0.00000000000E+00 0.  1.
<mgrwt>
<rscale>  0 0.92880910E+02</rscale>
<asrwt>0</asrwt>
<pdfrwt beam="2">  1        2 0.10152544E+00 0.92880910E+02</pdfrwt>
<pdfrwt beam="1">  1       -2 0.50279543E-03 0.92880910E+02</pdfrwt>
<totfact> 0.22259894E+05</totfact>
</mgrwt>
</event>
<event>
 5    1  0.3858870E+001  0.9016315E+02  0.7546771E-02  0.1302457E+00
          2   -1    0    0  501    0  0.00000000000E+00  0.00000000000E+00  0.97626509612E+03  0.97626509612E+03  0.00000000000E+00 0.  1.
         -2   -1    0    0    0  501 -0.00000000000E+00 -0.00000000000E+00 -0.20817589204E+01  0.20817589204E+01  0.00000000000E+00 0. -1.
         23    2    1    2    0    0  0.00000000000E+00  0.00000000000E+00  0.97418333720E+03  0.97834685504E+03  0.90163153727E+02 0.  0.
          2    1    3    3  502    0 -0.32344468985E+02  0.20488610172E+02  0.22885038616E+03  0.23203113383E+03  0.00000000000E+00 0. -1.
         -2    1    3    3    0  502  0.32344468985E+02 -0.20488610172E+02  0.74533295104E+03  0.74631572121E+03  0.00000000000E+00 0.  1.
<mgrwt>
<rscale>  0 0.90163154E+02</rscale>
<asrwt>0</asrwt>
<pdfrwt beam="1">  1        2 0.15019426E+00 0.90163154E+02</pdfrwt>
<pdfrwt beam="2">  1       -2 0.32027138E-03 0.90163154E+02</pdfrwt>
<totfact> 0.25715792E+05</totfact>
</mgrwt>
</event>
<event>
 5    1  0.3858870E+001  0.9171968E+02  0.7546771E-02  0.1298740E+00
         -2   -1    0    0    0  501 -0.00000000000E+00  0.00000000000E+00  0.87738653493E+02  0.87738653493E+02  0.00000000000E+00 0.  1.
          2   -1    0    0  501    0  0.00000000000E+00 -0.00000000000E+00 -0.23970334351E+02  0.23970334351E+02  0.00000000000E+00 0. -1.
         23    2    1    2    0    0  0.00000000000E+00  0.00000000000E+00  0.63768319142E+02  0.11170898784E+03  0.91719678581E+02 0.  0.
          2    1    3    3  502    0 -0.36151866650E+02  0.54027026400E+01 -0.18458996119E+01  0.36599918080E+02  0.00000000000E+00 0. -1.
         -2    1    3    3    0  502  0.36151866650E+02 -0.54027026400E+01  0.65614218753E+02  0.75109069763E+02  0.00000000000E+00 0.  1.
<mgrwt>
<rscale>  0 0.91719679E+02</rscale>
<asrwt>0</asrwt>
<pdfrwt beam="2">  1        2 0.36877438E-02 0.91719679E+02</pdfrwt>
<pdfrwt beam="1">  1       -2 0.13498254E-01 0.91719679E+02</pdfrwt>
<totfact> 0.81697118E+04</totfact>
</mgrwt>
</event>
<event>
 5    1  0.3858870E+001  0.9278255E+02  0.7546771E-02  0.1296250E+00
          2   -1    0    0  501    0  0.00000000000E+00  0.00000000000E+00  0.49817406051E+03  0.49817406051E+03  0.00000000000E+00 0. -1.
         -2   -1    0    0    0  501 -0.00000000000E+00 -0.00000000000E+00 -0.43200775984E+01  0.43200775984E+01  0.00000000000E+00 0.  1.
         23    2    1    2    0    0  0.00000000000E+00  0.00000000000E+00  0.49385398291E+03  0.50249413811E+03  0.92782554371E+02 0.  0.
          2    1    3    3  502    0 -0.45355847562E+02 -0.87120027000E+01  0.27059526479E+03  0.27450837734E+03  0.00000000000E+00 0. -1.
         -2    1    3    3    0  502  0.45355847562E+02  0.87120027000E+01  0.22325871812E+03  0.22798576077E+03  0.00000000000E+00 0.  1.
<mgrwt>
<rscale>  0 0.92782554E+02</rscale>
<asrwt>0</asrwt>
<pdfrwt beam="1">  1        2 0.76642118E-01 0.92782554E+02</pdfrwt>
<pdfrwt beam="2">  1       -2 0.66462772E-03 0.92782554E+02</pdfrwt>
<totfact> 0.20550874E+05</totfact>
</mgrwt>
</event>
<event>
 5    1  0.3858870E+001  0.9147573E+02  0.7546771E-02  0.1299317E+00
          1   -1    0    0  501    0  0.00000000000E+00  0.00000000000E+00  0.34679049722E+02  0.34679049722E+02  0.00000000000E+00 0. -1.
         -1   -1    0    0    0  501 -0.00000000000E+00 -0.00000000000E+00 -0.60323231101E+02  0.60323231101E+02  0.00000000000E+00 0.  1.
         23    2    1    2    0    0  0.00000000000E+00  0.00000000000E+00 -0.25644181379E+02  0.95002280824E+02  0.91475730787E+02 0.  0.
          2    1    3    3  502    0 -0.16876381292E+02  0.22032228078E+02  0.24934958114E+02  0.37309294496E+02  0.00000000000E+00 0. -1.
         -2    1    3    3    0  502  0.16876381292E+02 -0.22032228078E+02 -0.50579139493E+02  0.57692986328E+02  0.00000000000E+00 0.  1.
<mgrwt>
<rscale>  0 0.91475731E+02</rscale>
<asrwt>0</asrwt>
<pdfrwt beam="1">  1        1 0.53352384E-02 0.91475731E+02</pdfrwt>
<pdfrwt beam="2">  1       -1 0.92804971E-02 0.91475731E+02</pdfrwt>
<totfact> 0.87873182E+04</totfact>
</mgrwt>
</event>
<event>
 5    1  0.3858870E+001  0.9180301E+02  0.7546771E-02  0.1298543E+00
          4   -1    0    0  501    0  0.00000000000E+00  0.00000000000E+00  0.71912291777E+01  0.71912291777E+01  0.00000000000E+00 0. -1.
         -4   -1    0    0    0  501 -0.00000000000E+00 -0.00000000000E+00 -0.29298856864E+03  0.29298856864E+03  0.00000000000E+00 0.  1.
         23    2    1    2    0    0  0.00000000000E+00  0.00000000000E+00 -0.28579733947E+03  0.30017979782E+03  0.91803005257E+02 0.  0.
          2    1    3    3  502    0  0.35720194280E+02 -0.26716579610E+02 -0.17830350172E+03  0.18379838582E+03  0.00000000000E+00 0. -1.
         -2    1    3    3    0  502 -0.35720194280E+02  0.26716579610E+02 -0.10749383775E+03  0.11638141200E+03  0.00000000000E+00 0.  1.
<mgrwt>
<rscale>  0 0.91803005E+02</rscale>
<asrwt>0</asrwt>
<pdfrwt beam="1">  1        4 0.11063429E-02 0.91803005E+02</pdfrwt>
<pdfrwt beam="2">  1       -4 0.45075168E-01 0.91803005E+02</pdfrwt>
<totfact> 0.17492806E+04</totfact>
</mgrwt>
</event>
<event>
 5    1  0.3858870E+001  0.9134983E+02  0.7546771E-02  0.1299615E+00
         -2   -1    0    0    0  501 -0.00000000000E+00  0.00000000000E+00  0.17240219482E+02  0.17240219482E+02  0.00000000000E+00 0.  1.
          2   -1    0    0  501    0  0.00000000000E+00 -0.00000000000E+00 -0.12100761840E+03  0.12100761840E+03  0.00000000000E+00 0. -1.
         23    2    1    2    0    0  0.00000000000E+00  0.00000000000E+00 -0.10376739892E+03  0.13824783788E+03  0.91349830877E+02 0.  0.
          2    1    3    3  502    0 -0.22676082491E+02  0.34170455150E+02 -0.82316489579E+02  0.91966456814E+02  0.00000000000E+00 0. -1.
         -2    1    3    3    0  502  0.22676082491E+02 -0.34170455150E+02 -0.21450909342E+02  0.46281381071E+02  0.00000000000E+00 0.  1.
<mgrwt>
<rscale>  0 0.91349831E+02</rscale>
<asrwt>0</asrwt>
<pdfrwt beam="2">  1        2 0.18616556E-01 0.91349831E+02</pdfrwt>
<pdfrwt beam="1">  1       -2 0.26523415E-02 0.91349831E+02</pdfrwt>
<totfact> 0.12953917E+05</totfact>
</mgrwt>
</event>
<event>
 5    1  0.3858870E+001  0.9148377E+02  0.7546771E-02  0.1299298E+00
          2   -1    0    0  501    0  0.00000000000E+00  0.00000000000E+00  0.23804167113E+04  0.23804167113E+04  0.00000000000E+00 0. -1.
         -2   -1    0    0    0  501 -0.00000000000E+00 -0.00000000000E+00 -0.87897219252E+00  0.87897219252E+00  0.00000000000E+00 0.  1.
         23    2    1    2    0    0  0.00000000000E+00  0.00000000000E+00  0.23795377391E+04  0.23812956835E+04  0.91483771148E+02 0.  0.
          2    1    3    3  502    0 -0.77826663551E+01 -0.36022467375E+02  0.18950404056E+04  0.18953987250E+04  0.00000000000E+00 0. -1.
         -2    1    3    3    0  502  0.77826663551E+01  0.36022467375E+02  0.48449733357E+03  0.48589695850E+03  0.00000000000E+00 0.  1.
<mgrwt>
<rscale>  0 0.91483771E+02</rscale>
<asrwt>0</asrwt>
<pdfrwt beam="1">  1        2 0.36621279E+00 0.91483771E+02</pdfrwt>
<pdfrwt beam="2">  1       -2 0.13522840E-03 0.91483771E+02</pdfrwt>
<totfact> 0.15884716E+05</totfact>
</mgrwt>
</event>
<event>
 5    1  0.3858870E+001  0.8102787E+02  0.7546771E-02  0.1326160E+00
          2   -1    0    0  501    0  0.00000000000E+00  0.00000000000E+00  0.10588467015E+03  0.10588467015E+03  0.00000000000E+00 0. -1.
         -2   -1    0    0    0  501 -0.00000000000E+00 -0.00000000000E+00 -0.15501571358E+02  0.15501571358E+02  0.00000000000E+00 0.  1.
         23    2    1    2    0    0  0.00000000000E+00  0.00000000000E+00  0.90383098792E+02  0.12138624151E+03  0.81027866072E+02 0.  0.
          2    1    3    3  502    0  0.32167169840E+02 -0.11053152849E+02  0.12217454377E+02  0.36140907499E+02  0.00000000000E+00 0.  1.
         -2    1    3    3    0  502 -0.32167169840E+02  0.11053152849E+02  0.78165644415E+02  0.85245334009E+02  0.00000000000E+00 0. -1.
<mgrwt>
<rscale>  0 0.81027866E+02</rscale>
<asrwt>0</asrwt>
<pdfrwt beam="1">  1        2 0.16289949E-01 0.81027866E+02</pdfrwt>
<pdfrwt beam="2">  1       -2 0.23848572E-02 0.81027866E+02</pdfrwt>
<totfact> 0.17214367E+05</totfact>
</mgrwt>
</event>
<event>
 5    1  0.3858870E+001  0.9443809E+02  0.7546771E-02  0.1292447E+00
         -1   -1    0    0    0  501 -0.00000000000E+00  0.00000000000E+00  0.22539773174E+01  0.22539773174E+01  0.00000000000E+00 0.  1.
          1   -1    0    0  501    0  0.00000000000E+00 -0.00000000000E+00 -0.98920173652E+03  0.98920173652E+03  0.00000000000E+00 0. -1.
         23    2    1    2    0    0  0.00000000000E+00  0.00000000000E+00 -0.98694775921E+03  0.99145571384E+03  0.94438091392E+02 0.  0.
          2    1    3    3  502    0  0.38680893827E+02 -0.16588478740E+02 -0.71821209612E+03  0.71944423286E+03  0.00000000000E+00 0. -1.
         -2    1    3    3    0  502 -0.38680893827E+02  0.16588478740E+02 -0.26873566308E+03  0.27201148098E+03  0.00000000000E+00 0.  1.
<mgrwt>
<rscale>  0 0.94438091E+02</rscale>
<asrwt>0</asrwt>
<pdfrwt beam="2">  1        1 0.15218471E+00 0.94438091E+02</pdfrwt>
<pdfrwt beam="1">  1       -1 0.34676613E-03 0.94438091E+02</pdfrwt>
<totfact> 0.12428088E+05</totfact>
</mgrwt>
</event>
<event>
 5    1  0.3858870E+001  0.8239186E+02  0.7546771E-02  0.1322398E+00
         -1   -1    0    0    0  501 -0.00000000000E+00  0.00000000000E+00  0.14764889755E+01  0.14764889755E+01  0.00000000000E+00 0.  1.
          1   -1    0    0  501    0  0.00000000000E+00 -0.00000000000E+00 -0.11494192283E+04  0.11494192283E+04  0.00000000000E+00 0. -1.
         23    2    1    2    0    0  0.00000000000E+00  0.00000000000E+00 -0.11479427393E+04  0.11508957173E+04  0.82391864134E+02 0.  0.
          2    1    3    3  502    0  0.57666857679E+01 -0.40408787609E+02 -0.65171997711E+03  0.65299697805E+03  0.00000000000E+00 0. -1.
         -2    1    3    3    0  502 -0.57666857679E+01  0.40408787609E+02 -0.49622276224E+03  0.49789873925E+03  0.00000000000E+00 0.  1.
<mgrwt>
<rscale>  0 0.82391864E+02</rscale>
<asrwt>0</asrwt>
<pdfrwt beam="2">  1        1 0.17683380E+00 0.82391864E+02</pdfrwt>
<pdfrwt beam="1">  1       -1 0.22715205E-03 0.82391864E+02</pdfrwt>
<totfact> 0.16940273E+05</totfact>
</mgrwt>
</event>
<event>
 5    1  0.3858870E+001  0.9279744E+02  0.7546771E-02  0.1296215E+00
          2   -1    0    0  501    0  0.00000000000E+00  0.00000000000E+00  0.13370213679E+03  0.13370213679E+03  0.00000000000E+00 0. -1.
         -2   -1    0    0    0  501 -0.00000000000E+00 -0.00000000000E+00 -0.16101770583E+02  0.16101770583E+02  0.00000000000E+00 0.  1.
         23    2    1    2    0    0  0.00000000000E+00  0.00000000000E+00  0.11760036620E+03  0.14980390737E+03  0.92797438175E+02 0.  0.
          2    1    3    3  502    0 -0.11206724019E+02  0.20274482357E+02  0.12369860642E+03  0.12584907838E+03  0.00000000000E+00 0. -1.
         -2    1    3    3    0  502  0.11206724019E+02 -0.20274482357E+02 -0.60982402198E+01  0.23954828989E+02  0.00000000000E+00 0.  1.
<mgrwt>
<rscale>  0 0.92797438E+02</rscale>
<asrwt>0</asrwt>
<pdfrwt beam="1">  1        2 0.20569559E-01 0.92797438E+02</pdfrwt>
<pdfrwt beam="2">  1       -2 0.24771956E-02 0.92797438E+02</pdfrwt>
<totfact> 0.12820300E+05</totfact>
</mgrwt>
</event>
<event>
 5    1  0.3858870E+001  0.1072472E+03  0.7546771E-02  0.1265754E+00
         -2   -1    0    0    0  501 -0.00000000000E+00  0.00000000000E+00  0.12552320825E+02  0.12552320825E+02  0.00000000000E+00 0.  1.
          2   -1    0    0  501    0  0.00000000000E+00 -0.00000000000E+00 -0.22908024375E+03  0.22908024375E+03  0.00000000000E+00 0. -1.
         23    2    1    2    0    0  0.00000000000E+00  0.00000000000E+00 -0.21652792293E+03  0.24163256458E+03  0.10724716713E+03 0.  0.
          2    1    3    3  502    0 -0.17329320713E+02 -0.36013323345E+02 -0.27712560027E+02  0.48633844162E+02  0.00000000000E+00 0.  1.
         -2    1    3    3    0  502  0.17329320713E+02  0.36013323345E+02 -0.18881536290E+03  0.19299872042E+03  0.00000000000E+00 0. -1.
<mgrwt>
<rscale>  0 0.10724717E+03</rscale>
<asrwt>0</asrwt>
<pdfrwt beam="2">  1        2 0.35243117E-01 0.10724717E+03</pdfrwt>
<pdfrwt beam="1">  1       -2 0.19311261E-02 0.10724717E+03</pdfrwt>
<totfact> 0.10468065E+05</totfact>
</mgrwt>
</event>
<event>
 5    1  0.3858870E+001  0.9044666E+02  0.7546771E-02  0.1301774E+00
          3   -1    0    0  501    0  0.00000000000E+00  0.00000000000E+00  0.39646756595E+02  0.39646756595E+02  0.00000000000E+00 0. -1.
         -3   -1    0    0    0  501 -0.00000000000E+00 -0.00000000000E+00 -0.51584288949E+02  0.51584288949E+02  0.00000000000E+00 0.  1.
         23    2    1    2    0    0  0.00000000000E+00  0.00000000000E+00 -0.11937532353E+02  0.91231045544E+02  0.90446663799E+02 0.  0.
          2    1    3    3  502    0  0.35981234202E+02 -0.25291450665E+02  0.46507406046E+01  0.44225966125E+02  0.00000000000E+00 0. -1.
         -2    1    3    3    0  502 -0.35981234202E+02  0.25291450665E+02 -0.16588272958E+02  0.47005079419E+02  0.00000000000E+00 0.  1.
<mgrwt>
<rscale>  0 0.90446664E+02</rscale>
<asrwt>0</asrwt>
<pdfrwt beam="1">  1        3 0.60995010E-02 0.90446664E+02</pdfrwt>
<pdfrwt beam="2">  1       -3 0.79360444E-02 0.90446664E+02</pdfrwt>
<totfact> 0.36116655E+04</totfact>
</mgrwt>
</event>
<event>
 5    1  0.3858870E+001  0.9397707E+02  0.7546771E-02  0.1293497E+00
         -1   -1    0    0    0  501 -0.00000000000E+00  0.00000000000E+00  0.29157771370E+03  0.29157771370E+03  0.00000000000E+00 0.  1.
          1   -1    0    0  501    0  0.00000000000E+00 -0.00000000000E+00 -0.75723299270E+01  0.75723299270E+01  0.00000000000E+00 0. -1.
         23    2    1    2    0    0  0.00000000000E+00  0.00000000000E+00  0.28400538378E+03  0.29915004363E+03  0.93977074811E+02 0.  0.
          2    1    3    3  502    0 -0.21211057403E+02 -0.30230034357E+02  0.23448937442E+03  0.23737950765E+03  0.00000000000E+00 0. -1.
         -2    1    3    3    0  502  0.21211057403E+02  0.30230034357E+02  0.49516009353E+02  0.61770535983E+02  0.00000000000E+00 0.  1.
<mgrwt>
<rscale>  0 0.93977075E+02</rscale>
<asrwt>0</asrwt>
<pdfrwt beam="2">  1        1 0.11649741E-02 0.93977075E+02</pdfrwt>
<pdfrwt beam="1">  1       -1 0.44858101E-01 0.93977075E+02</pdfrwt>
<totfact> 0.56595395E+04</totfact>
</mgrwt>
</event>
<event>
 5    1  0.3858870E+001  0.9250334E+02  0.7546771E-02  0.1296900E+00
         -1   -1    0    0    0  501 -0.00000000000E+00  0.00000000000E+00  0.55541667418E+02  0.55541667418E+02  0.00000000000E+00 0.  1.
          1   -1    0    0  501    0  0.00000000000E+00 -0.00000000000E+00 -0.38515531012E+02  0.38515531012E+02  0.00000000000E+00 0. -1.
         23    2    1    2    0    0  0.00000000000E+00  0.00000000000E+00  0.17026136407E+02  0.94057198430E+02  0.92503336456E+02 0.  0.
          2    1    3    3  502    0 -0.27745024367E+02 -0.36972207475E+02  0.10116359305E+02  0.47318825306E+02  0.00000000000E+00 0. -1.
         -2    1    3    3    0  502  0.27745024367E+02  0.36972207475E+02  0.69097771020E+01  0.46738373124E+02  0.00000000000E+00 0.  1.
<mgrwt>
<rscale>  0 0.92503336E+02</rscale>
<asrwt>0</asrwt>
<pdfrwt beam="2">  1        1 0.59254663E-02 0.92503336E+02</pdfrwt>
<pdfrwt beam="1">  1       -1 0.85448719E-02 0.92503336E+02</pdfrwt>
<totfact> 0.86524201E+04</totfact>
</mgrwt>
</event>
<event>
 5    1  0.3858870E+001  0.9666812E+02  0.7546771E-02  0.1287463E+00
         -1   -1    0    0    0  501 -0.00000000000E+00  0.00000000000E+00  0.21729494687E+01  0.21729494687E+01  0.00000000000E+00 0.  1.
          1   -1    0    0  501    0  0.00000000000E+00 -0.00000000000E+00 -0.10751198796E+04  0.10751198796E+04  0.00000000000E+00 0. -1.
         23    2    1    2    0    0  0.00000000000E+00  0.00000000000E+00 -0.10729469301E+04  0.10772928290E+04  0.96668116173E+02 0.  0.
          2    1    3    3  502    0 -0.26531262779E+02 -0.51784977003E+01 -0.98300257379E+03  0.98337418352E+03  0.00000000000E+00 0. -1.
         -2    1    3    3    0  502  0.26531262779E+02  0.51784977003E+01 -0.89944356302E+02  0.93918645506E+02  0.00000000000E+00 0.  1.
<mgrwt>
<rscale>  0 0.96668116E+02</rscale>
<asrwt>0</asrwt>
<pdfrwt beam="2">  1        1 0.16540311E+00 0.96668116E+02</pdfrwt>
<pdfrwt beam="1">  1       -1 0.33429981E-03 0.96668116E+02</pdfrwt>
<totfact> 0.11395960E+05</totfact>
</mgrwt>
</event>
<event>
 5    1  0.3858870E+001  0.8839997E+02  0.7546771E-02  0.1306773E+00
          1   -1    0    0  501    0  0.00000000000E+00  0.00000000000E+00  0.20651611494E+03  0.20651611494E+03  0.00000000000E+00 0. -1.
         -1   -1    0    0    0  501 -0.00000000000E+00 -0.00000000000E+00 -0.94599814090E+01  0.94599814090E+01  0.00000000000E+00 0.  1.
         23    2    1    2    0    0  0.00000000000E+00  0.00000000000E+00  0.19705613353E+03  0.21597609635E+03  0.88399968507E+02 0.  0.
          2    1    3    3  502    0 -0.38133379970E+02  0.14399260188E+02  0.56768788042E+02  0.69886970586E+02  0.00000000000E+00 0. -1.
         -2    1    3    3    0  502  0.38133379970E+02 -0.14399260188E+02  0.14028734549E+03  0.14608912576E+03  0.00000000000E+00 0.  1.
<mgrwt>
<rscale>  0 0.88399969E+02</rscale>
<asrwt>0</asrwt>
<pdfrwt beam="1">  1        1 0.31771707E-01 0.88399969E+02</pdfrwt>
<pdfrwt beam="2">  1       -1 0.14553819E-02 0.88399969E+02</pdfrwt>
<totfact> 0.12941869E+05</totfact>
</mgrwt>
</event>
<event>
 5    1  0.3858870E+001  0.9146796E+02  0.7546771E-02  0.1299335E+00
          2   -1    0    0  501    0  0.00000000000E+00  0.00000000000E+00  0.13380403766E+03  0.13380403766E+03  0.00000000000E+00 0. -1.
         -2   -1    0    0    0  501 -0.00000000000E+00 -0.00000000000E+00 -0.15631792128E+02  0.15631792128E+02  0.00000000000E+00 0.  1.
         23    2    1    2    0    0  0.00000000000E+00  0.00000000000E+00  0.11817224553E+03  0.14943582979E+03  0.91467959474E+02 0.  0.
          2    1    3    3  502    0 -0.37366287557E+02  0.50551179830E+01  0.10136849745E+03  0.10815436163E+03  0.00000000000E+00 0. -1.
         -2    1    3    3    0  502  0.37366287557E+02 -0.50551179830E+01  0.16803748074E+02  0.41281468154E+02  0.00000000000E+00 0.  1.
<mgrwt>
<rscale>  0 0.91467959E+02</rscale>
<asrwt>0</asrwt>
<pdfrwt beam="1">  1        2 0.20585236E-01 0.91467959E+02</pdfrwt>
<pdfrwt beam="2">  1       -2 0.24048912E-02 0.91467959E+02</pdfrwt>
<totfact> 0.13338811E+05</totfact>
</mgrwt>
</event>
<event>
 5    1  0.3858870E+001  0.8084205E+02  0.7546771E-02  0.1326679E+00
         -2   -1    0    0    0  501 -0.00000000000E+00  0.00000000000E+00  0.49313401840E+03  0.49313401840E+03  0.00000000000E+00 0.  1.
          2   -1    0    0  501    0  0.00000000000E+00 -0.00000000000E+00 -0.33132155869E+01  0.33132155869E+01  0.00000000000E+00 0. -1.
         23    2    1    2    0    0  0.00000000000E+00  0.00000000000E+00  0.48982080282E+03  0.49644723399E+03  0.80842051340E+02 0.  0.
          2    1    3    3  502    0  0.52029008742E+01 -0.39331560445E+02  0.19741518519E+03  0.20136235291E+03  0.00000000000E+00 0. -1.
         -2    1    3    3    0  502 -0.52029008742E+01  0.39331560445E+02  0.29240561763E+03  0.29508488109E+03  0.00000000000E+00 0.  1.
<mgrwt>
<rscale>  0 0.80842051E+02</rscale>
<asrwt>0</asrwt>
<pdfrwt beam="2">  1        2 0.50972587E-03 0.80842051E+02</pdfrwt>
<pdfrwt beam="1">  1       -2 0.75866714E-01 0.80842051E+02</pdfrwt>
<totfact> 0.50043179E+04</totfact>
</mgrwt>
</event>
<event>
 5    1  0.3858870E+001  0.9168980E+02  0.7546771E-02  0.1298810E+00
         -1   -1    0    0    0  501 -0.00000000000E+00  0.00000000000E+00  0.23500879233E+01  0.23500879233E+01  0.00000000000E+00 0.  1.
          1   -1    0    0  501    0  0.00000000000E+00 -0.00000000000E+00 -0.89433025567E+03  0.89433025567E+03  0.00000000000E+00 0. -1.
         23    2    1    2    0    0  0.00000000000E+00  0.00000000000E+00 -0.89198016775E+03  0.89668034360E+03  0.91689797323E+02 0.  0.
          2    1    3    3  502    0 -0.42645282360E+02  0.15517875956E+02 -0.50961709874E+03  0.51163366964E+03  0.00000000000E+00 0. -1.
         -2    1    3    3    0  502  0.42645282360E+02 -0.15517875956E+02 -0.38236306901E+03  0.38504667396E+03  0.00000000000E+00 0.  1.
<mgrwt>
<rscale>  0 0.91689797E+02</rscale>
<asrwt>0</asrwt>
<pdfrwt beam="2">  1        1 0.13758942E+00 0.91689797E+02</pdfrwt>
<pdfrwt beam="1">  1       -1 0.36155159E-03 0.91689797E+02</pdfrwt>
<totfact> 0.13727477E+05</totfact>
</mgrwt>
</event>
